<event>
 4    2  0.3747163E-007  0.6841347E+03  0.7818608E-02  0.1007075E+00
          2   -1    0    0  501    0  0.00000000000E+00  0.00000000000E+00  0.90318457706E+03  0.90318457707E+03  0.25500000000E-02 0. -1.
         -2   -1    0    0    0  501 -0.00000000000E+00 -0.00000000000E+00 -0.37380224857E+03  0.37380224858E+03  0.25500000000E-02 0.  1.
    8880023    1    1    2    0    0 -0.12910338810E+03  0.13252321369E+03  0.70284065687E+03  0.98082887508E+03  0.65864270000E+03 0. -1.
    8880022    1    1    2    0    0  0.12910338810E+03 -0.13252321369E+03 -0.17345832838E+03  0.29615795057E+03  0.15294330000E+03 0.  0.
<mgrwt>
<rscale>  0 0.52653775E+03</rscale>
<asrwt>0</asrwt>
<pdfrwt beam="1">  1        2 0.13895147E+00 0.68413470E+03</pdfrwt>
<pdfrwt beam="2">  1       -2 0.57508038E-01 0.68413470E+03</pdfrwt>
<totfact> 0.84169262E+01</totfact>
</mgrwt>
</event>
<event>
 4    2  0.3747163E-007  0.7081072E+03  0.7818608E-02  0.9965098E-01
          2   -1    0    0  501    0  0.00000000000E+00  0.00000000000E+00  0.17415936773E+04  0.17415936773E+04  0.25500000000E-02 0. -1.
         -2   -1    0    0    0  501 -0.00000000000E+00 -0.00000000000E+00 -0.58165038861E+03  0.58165038861E+03  0.25500000000E-02 0.  1.
    8880023    1    1    2    0    0 -0.71239930743E+02 -0.25006093405E+03  0.16229145285E+04  0.17706686227E+04  0.65864270000E+03 0. -1.
    8880022    1    1    2    0    0  0.71239930743E+02  0.25006093405E+03 -0.46297123982E+03  0.55257544316E+03  0.15294330000E+03 0.  0.
<mgrwt>
<rscale>  0 0.57207477E+03</rscale>
<asrwt>0</asrwt>
<pdfrwt beam="1">  1        2 0.26793749E+00 0.70810720E+03</pdfrwt>
<pdfrwt beam="2">  1       -2 0.89484676E-01 0.70810720E+03</pdfrwt>
<totfact> 0.10314195E+01</totfact>
</mgrwt>
</event>
<event>
 4    2  0.3747163E-007  0.6615317E+03  0.7818608E-02  0.1022639E+00
          2   -1    0    0  501    0  0.00000000000E+00  0.00000000000E+00  0.79606401715E+03  0.79606401715E+03  0.25500000000E-02 0. -1.
         -2   -1    0    0    0  501 -0.00000000000E+00 -0.00000000000E+00 -0.87903946410E+03  0.87903946410E+03  0.25500000000E-02 0.  1.
    8880023    1    1    2    0    0  0.33098229680E+02 -0.52139599137E+02  0.64783386692E+03  0.92591195910E+03  0.65864270000E+03 0. -1.
    8880022    1    1    2    0    0 -0.33098229680E+02  0.52139599137E+02 -0.73080931387E+03  0.74919152215E+03  0.15294330000E+03 0.  0.
<mgrwt>
<rscale>  0 0.46746109E+03</rscale>
<asrwt>0</asrwt>
<pdfrwt beam="1">  1        2 0.12247139E+00 0.66153174E+03</pdfrwt>
<pdfrwt beam="2">  1       -2 0.13523684E+00 0.66153174E+03</pdfrwt>
<totfact> 0.13963337E+01</totfact>
</mgrwt>
</event>
<event>
 4    2  0.3747163E-007  0.1210871E+04  0.7818608E-02  0.9146627E-01
          2   -1    0    0  501    0  0.00000000000E+00  0.00000000000E+00  0.14863168479E+04  0.14863168479E+04  0.25500000000E-02 0. -1.
         -2   -1    0    0    0  501 -0.00000000000E+00 -0.00000000000E+00 -0.19426098435E+04  0.19426098435E+04  0.25500000000E-02 0.  1.
    8880023    1    1    2    0    0  0.10027612689E+04  0.16391485707E+03  0.10519094376E+04  0.16039706712E+04  0.65864270000E+03 0.  0.
    8880022    1    1    2    0    0 -0.10027612689E+04 -0.16391485707E+03 -0.15082024332E+04  0.18249560201E+04  0.15294330000E+03 0.  0.
<mgrwt>
<rscale>  0 0.11621725E+04</rscale>
<asrwt>0</asrwt>
<pdfrwt beam="1">  1        2 0.22866413E+00 0.12108709E+04</pdfrwt>
<pdfrwt beam="2">  1       -2 0.29886305E+00 0.12108709E+04</pdfrwt>
<totfact> 0.40653742E-01</totfact>
</mgrwt>
</event>
<event>
 4    2  0.3747163E-007  0.9906475E+03  0.7818608E-02  0.9393897E-01
         -2   -1    0    0    0  501 -0.00000000000E+00  0.00000000000E+00  0.68388977900E+03  0.68388977900E+03  0.25500000000E-02 0.  1.
          2   -1    0    0  501    0  0.00000000000E+00 -0.00000000000E+00 -0.17356048142E+04  0.17356048142E+04  0.25500000000E-02 0. -1.
    8880023    1    1    2    0    0 -0.58722310550E+03  0.45026810148E+03 -0.12906377171E+04  0.16269997732E+04  0.65864270000E+03 0.  0.
    8880022    1    1    2    0    0  0.58722310550E+03 -0.45026810148E+03  0.23892268189E+03  0.79249482004E+03  0.15294330000E+03 0.  0.
<mgrwt>
<rscale>  0 0.92579635E+03</rscale>
<asrwt>0</asrwt>
<pdfrwt beam="1">  1        2 0.26701612E+00 0.99064754E+03</pdfrwt>
<pdfrwt beam="2">  1       -2 0.10521381E+00 0.99064754E+03</pdfrwt>
<totfact> 0.68408364E+00</totfact>
</mgrwt>
</event>
<event>
 4    2  0.3747163E-007  0.8385149E+03  0.7818608E-02  0.9632987E-01
         -2   -1    0    0    0  501 -0.00000000000E+00  0.00000000000E+00  0.52353194729E+03  0.52353194730E+03  0.25500000000E-02 0.  1.
          2   -1    0    0  501    0  0.00000000000E+00 -0.00000000000E+00 -0.10096349769E+04  0.10096349769E+04  0.25500000000E-02 0. -1.
    8880023    1    1    2    0    0 -0.31728253212E+03  0.41064437269E+03 -0.53060849839E+02  0.84019204118E+03  0.65864270000E+03 0.  1.
    8880022    1    1    2    0    0  0.31728253212E+03 -0.41064437269E+03 -0.43304217973E+03  0.69297488299E+03  0.15294330000E+03 0. -1.
<mgrwt>
<rscale>  0 0.75150837E+03</rscale>
<asrwt>0</asrwt>
<pdfrwt beam="1">  1        2 0.15532846E+00 0.83851488E+03</pdfrwt>
<pdfrwt beam="2">  1       -2 0.80543377E-01 0.83851488E+03</pdfrwt>
<totfact> 0.34080064E+01</totfact>
</mgrwt>
</event>
<event>
 4    2  0.3747163E-007  0.8289728E+03  0.7818608E-02  0.9651334E-01
         -2   -1    0    0    0  501 -0.00000000000E+00  0.00000000000E+00  0.69993443420E+03  0.69993443421E+03  0.25500000000E-02 0.  1.
          2   -1    0    0  501    0  0.00000000000E+00 -0.00000000000E+00 -0.18664482603E+04  0.18664482603E+04  0.25500000000E-02 0. -1.
    8880023    1    1    2    0    0  0.32316038901E+03 -0.38594431099E+03 -0.16533902127E+04  0.18495661789E+04  0.65864270000E+03 0.  0.
    8880022    1    1    2    0    0 -0.32316038901E+03  0.38594431099E+03  0.48687638663E+03  0.71681651564E+03  0.15294330000E+03 0.  0.
<mgrwt>
<rscale>  0 0.73989741E+03</rscale>
<asrwt>0</asrwt>
<pdfrwt beam="1">  1        2 0.28714588E+00 0.82897277E+03</pdfrwt>
<pdfrwt beam="2">  1       -2 0.10768222E+00 0.82897277E+03</pdfrwt>
<totfact> 0.55959779E+00</totfact>
</mgrwt>
</event>
<event>
 4    2  0.3747163E-007  0.7541527E+03  0.7818608E-02  0.9820488E-01
          2   -1    0    0  501    0  0.00000000000E+00  0.00000000000E+00  0.98534998094E+03  0.98534998094E+03  0.25500000000E-02 0. -1.
         -2   -1    0    0    0  501 -0.00000000000E+00 -0.00000000000E+00 -0.61383857425E+03  0.61383857425E+03  0.25500000000E-02 0.  1.
    8880023    1    1    2    0    0  0.34164505790E+03 -0.13496205407E+03  0.74021382624E+03  0.10567226772E+04  0.65864270000E+03 0. -1.
    8880022    1    1    2    0    0 -0.34164505790E+03  0.13496205407E+03 -0.36870241955E+03  0.54246587802E+03  0.15294330000E+03 0.  0.
<mgrwt>
<rscale>  0 0.64274559E+03</rscale>
<asrwt>0</asrwt>
<pdfrwt beam="1">  1        2 0.15159230E+00 0.75415271E+03</pdfrwt>
<pdfrwt beam="2">  1       -2 0.94436704E-01 0.75415271E+03</pdfrwt>
<totfact> 0.24711618E+01</totfact>
</mgrwt>
</event>
<event>
 4    2  0.3747163E-007  0.1019335E+04  0.7818608E-02  0.9356688E-01
         -2   -1    0    0    0  501 -0.00000000000E+00  0.00000000000E+00  0.96349567535E+03  0.96349567535E+03  0.25500000000E-02 0.  1.
          2   -1    0    0  501    0  0.00000000000E+00 -0.00000000000E+00 -0.19662130901E+04  0.19662130901E+04  0.25500000000E-02 0. -1.
    8880023    1    1    2    0    0 -0.52928547880E+03 -0.57016666970E+03 -0.16274317226E+04  0.19203065816E+04  0.65864270000E+03 0. -1.
    8880022    1    1    2    0    0  0.52928547880E+03  0.57016666970E+03  0.62471430787E+03  0.10094021839E+04  0.15294330000E+03 0.  0.
<mgrwt>
<rscale>  0 0.95727466E+03</rscale>
<asrwt>0</asrwt>
<pdfrwt beam="1">  1        2 0.30249432E+00 0.10193348E+04</pdfrwt>
<pdfrwt beam="2">  1       -2 0.14823010E+00 0.10193348E+04</pdfrwt>
<totfact> 0.21457986E+00</totfact>
</mgrwt>
</event>
<event>
 4    2  0.3747163E-007  0.8698824E+03  0.7818608E-02  0.9576221E-01
         -2   -1    0    0    0  501 -0.00000000000E+00  0.00000000000E+00  0.52075482583E+03  0.52075482583E+03  0.25500000000E-02 0.  1.
          2   -1    0    0  501    0  0.00000000000E+00 -0.00000000000E+00 -0.28346451270E+04  0.28346451270E+04  0.25500000000E-02 0. -1.
    8880023    1    1    2    0    0 -0.56676801255E+03 -0.40732456409E+02 -0.25702998852E+04  0.27135100551E+04  0.65864270000E+03 0.  0.
    8880022    1    1    2    0    0  0.56676801255E+03  0.40732456409E+02  0.25640958400E+03  0.64188989775E+03  0.15294330000E+03 0.  0.
<mgrwt>
<rscale>  0 0.78890246E+03</rscale>
<asrwt>0</asrwt>
<pdfrwt beam="1">  1        2 0.43609924E+00 0.86988236E+03</pdfrwt>
<pdfrwt beam="2">  1       -2 0.80116128E-01 0.86988236E+03</pdfrwt>
<totfact> 0.31510875E+00</totfact>
</mgrwt>
</event>
<event>
 4    2  0.3747163E-007  0.1052989E+04  0.7818608E-02  0.9315296E-01
          2   -1    0    0  501    0  0.00000000000E+00  0.00000000000E+00  0.87592505006E+03  0.87592505006E+03  0.25500000000E-02 0. -1.
         -2   -1    0    0    0  501 -0.00000000000E+00 -0.00000000000E+00 -0.19844605517E+04  0.19844605517E+04  0.25500000000E-02 0.  1.
    8880023    1    1    2    0    0 -0.62054315306E+03 -0.53842599933E+03  0.40765295470E+03  0.11291445874E+04  0.65864270000E+03 0.  0.
    8880022    1    1    2    0    0  0.62054315306E+03  0.53842599933E+03 -0.15161884564E+04  0.17312410144E+04  0.15294330000E+03 0.  0.
<mgrwt>
<rscale>  0 0.99386758E+03</rscale>
<asrwt>0</asrwt>
<pdfrwt beam="1">  1        2 0.13475770E+00 0.10529893E+04</pdfrwt>
<pdfrwt beam="2">  1       -2 0.30530162E+00 0.10529893E+04</pdfrwt>
<totfact> 0.89611368E-01</totfact>
</mgrwt>
</event>
<event>
 4    2  0.3747163E-007  0.6892380E+03  0.7818608E-02  0.1004517E+00
         -2   -1    0    0    0  501 -0.00000000000E+00  0.00000000000E+00  0.21000735971E+03  0.21000735972E+03  0.25500000000E-02 0.  1.
          2   -1    0    0  501    0  0.00000000000E+00 -0.00000000000E+00 -0.16438669280E+04  0.16438669280E+04  0.25500000000E-02 0. -1.
    8880023    1    1    2    0    0  0.14169196765E+03 -0.14547219401E+03 -0.14433508863E+04  0.15994720255E+04  0.65864270000E+03 0.  0.
    8880022    1    1    2    0    0 -0.14169196765E+03  0.14547219401E+03  0.94913180077E+01  0.25440226229E+03  0.15294330000E+03 0.  0.
<mgrwt>
<rscale>  0 0.53713261E+03</rscale>
<asrwt>0</asrwt>
<pdfrwt beam="1">  1        2 0.25290260E+00 0.68923797E+03</pdfrwt>
<pdfrwt beam="2">  1       -2 0.32308826E-01 0.68923797E+03</pdfrwt>
<totfact> 0.96508237E+01</totfact>
</mgrwt>
</event>
<event>
 4    2  0.3747163E-007  0.1067544E+04  0.7818608E-02  0.9298083E-01
          2   -1    0    0  501    0  0.00000000000E+00  0.00000000000E+00  0.12689060234E+04  0.12689060234E+04  0.25500000000E-02 0. -1.
         -2   -1    0    0    0  501 -0.00000000000E+00 -0.00000000000E+00 -0.88118155175E+03  0.88118155175E+03  0.25500000000E-02 0.  1.
    8880023    1    1    2    0    0  0.60883324016E+03  0.57893132881E+03  0.65842074295E+03  0.12542597334E+04  0.65864270000E+03 0.  0.
    8880022    1    1    2    0    0 -0.60883324016E+03 -0.57893132881E+03 -0.27069627127E+03  0.89582784178E+03  0.15294330000E+03 0.  0.
<mgrwt>
<rscale>  0 0.10095955E+04</rscale>
<asrwt>0</asrwt>
<pdfrwt beam="1">  1        2 0.19521631E+00 0.10675437E+04</pdfrwt>
<pdfrwt beam="2">  1       -2 0.13556639E+00 0.10675437E+04</pdfrwt>
<totfact> 0.66310925E+00</totfact>
</mgrwt>
</event>
<event>
 4    2  0.3747163E-007  0.6879050E+03  0.7818608E-02  0.1005165E+00
          2   -1    0    0  501    0  0.00000000000E+00  0.00000000000E+00  0.44275463724E+03  0.44275463725E+03  0.25500000000E-02 0. -1.
         -2   -1    0    0    0  501 -0.00000000000E+00 -0.00000000000E+00 -0.11486511200E+04  0.11486511200E+04  0.25500000000E-02 0.  1.
    8880023    1    1    2    0    0  0.19344047466E+03  0.44540503733E+02  0.14616296346E+03  0.70326160983E+03  0.65864270000E+03 0. -1.
    8880022    1    1    2    0    0 -0.19344047466E+03 -0.44540503733E+02 -0.85205944625E+03  0.88814414746E+03  0.15294330000E+03 0.  0.
<mgrwt>
<rscale>  0 0.53442497E+03</rscale>
<asrwt>0</asrwt>
<pdfrwt beam="1">  1        2 0.68116098E-01 0.68790499E+03</pdfrwt>
<pdfrwt beam="2">  1       -2 0.17671556E+00 0.68790499E+03</pdfrwt>
<totfact> 0.13839023E+01</totfact>
</mgrwt>
</event>
<event>
 4    2  0.3747163E-007  0.9968707E+03  0.7818608E-02  0.9385663E-01
         -2   -1    0    0    0  501 -0.00000000000E+00  0.00000000000E+00  0.12122068899E+04  0.12122068899E+04  0.25500000000E-02 0.  1.
          2   -1    0    0  501    0  0.00000000000E+00 -0.00000000000E+00 -0.17948938211E+04  0.17948938211E+04  0.25500000000E-02 0. -1.
    8880023    1    1    2    0    0  0.74788431321E+03  0.24699762537E+02  0.89757565941E+03  0.13414146618E+04  0.65864270000E+03 0.  0.
    8880022    1    1    2    0    0 -0.74788431321E+03 -0.24699762537E+02 -0.14802625907E+04  0.16656860492E+04  0.15294330000E+03 0.  0.
<mgrwt>
<rscale>  0 0.93264994E+03</rscale>
<asrwt>0</asrwt>
<pdfrwt beam="1">  1        2 0.27613751E+00 0.99687072E+03</pdfrwt>
<pdfrwt beam="2">  1       -2 0.18649337E+00 0.99687072E+03</pdfrwt>
<totfact> 0.14159087E+00</totfact>
</mgrwt>
</event>
<event>
 4    2  0.3747163E-007  0.7962489E+03  0.7818608E-02  0.9718966E-01
         -2   -1    0    0    0  501 -0.00000000000E+00  0.00000000000E+00  0.11564599933E+04  0.11564599933E+04  0.25500000000E-02 0.  1.
          2   -1    0    0  501    0  0.00000000000E+00 -0.00000000000E+00 -0.10364505843E+04  0.10364505843E+04  0.25500000000E-02 0. -1.
    8880023    1    1    2    0    0 -0.18772320524E+03  0.40615525121E+03 -0.81856269713E+03  0.11419532325E+04  0.65864270000E+03 0. -1.
    8880022    1    1    2    0    0  0.18772320524E+03 -0.40615525121E+03  0.93857210606E+03  0.10509573451E+04  0.15294330000E+03 0.  0.
<mgrwt>
<rscale>  0 0.69898698E+03</rscale>
<asrwt>0</asrwt>
<pdfrwt beam="1">  1        2 0.15945394E+00 0.79624889E+03</pdfrwt>
<pdfrwt beam="2">  1       -2 0.17791692E+00 0.79624889E+03</pdfrwt>
<totfact> 0.45435685E+00</totfact>
</mgrwt>
</event>
<event>
 4    2  0.3747163E-007  0.6977192E+03  0.7818608E-02  0.1000680E+00
          2   -1    0    0  501    0  0.00000000000E+00  0.00000000000E+00  0.16884507023E+04  0.16884507023E+04  0.25500000000E-02 0. -1.
         -2   -1    0    0    0  501 -0.00000000000E+00 -0.00000000000E+00 -0.14167333516E+03  0.14167333518E+03  0.25500000000E-02 0.  1.
    8880023    1    1    2    0    0  0.16968236383E+03 -0.15559507787E+03  0.11803373192E+04  0.13711339564E+04  0.65864270000E+03 0.  0.
    8880022    1    1    2    0    0 -0.16968236383E+03  0.15559507787E+03  0.36644004796E+03  0.45899008117E+03  0.15294330000E+03 0. -1.
<mgrwt>
<rscale>  0 0.55353188E+03</rscale>
<asrwt>0</asrwt>
<pdfrwt beam="1">  1        2 0.25976166E+00 0.69771924E+03</pdfrwt>
<pdfrwt beam="2">  1       -2 0.21795897E-01 0.69771924E+03</pdfrwt>
<totfact> 0.18658119E+02</totfact>
</mgrwt>
</event>
<event>
 4    2  0.3747163E-007  0.7474355E+03  0.7818608E-02  0.9838794E-01
          2   -1    0    0  501    0  0.00000000000E+00  0.00000000000E+00  0.24687863543E+04  0.24687863543E+04  0.25500000000E-02 0. -1.
         -2   -1    0    0    0  501 -0.00000000000E+00 -0.00000000000E+00 -0.19493226764E+03  0.19493226766E+03  0.25500000000E-02 0.  1.
    8880023    1    1    2    0    0 -0.49529373604E+02 -0.34985215699E+03  0.21220795314E+04  0.22498625368E+04  0.65864270000E+03 0. -1.
    8880022    1    1    2    0    0  0.49529373604E+02  0.34985215699E+03  0.15177455528E+03  0.41385608519E+03  0.15294330000E+03 0.  1.
<mgrwt>
<rscale>  0 0.63321542E+03</rscale>
<asrwt>0</asrwt>
<pdfrwt beam="1">  1        2 0.37981331E+00 0.74743555E+03</pdfrwt>
<pdfrwt beam="2">  1       -2 0.29989578E-01 0.74743555E+03</pdfrwt>
<totfact> 0.38777864E+01</totfact>
</mgrwt>
</event>
<event>
 4    2  0.3747163E-007  0.1109368E+04  0.7818608E-02  0.9250697E-01
          2   -1    0    0  501    0  0.00000000000E+00  0.00000000000E+00  0.35060554956E+04  0.35060554956E+04  0.25500000000E-02 0. -1.
         -2   -1    0    0    0  501 -0.00000000000E+00 -0.00000000000E+00 -0.43553503005E+03  0.43553503006E+03  0.25500000000E-02 0.  1.
    8880023    1    1    2    0    0  0.87503526730E+03  0.17663712606E+03  0.50123671740E+03  0.12173478740E+04  0.65864270000E+03 0.  0.
    8880022    1    1    2    0    0 -0.87503526730E+03 -0.17663712606E+03  0.25692837481E+04  0.27242426516E+04  0.15294330000E+03 0.  0.
<mgrwt>
<rscale>  0 0.10545131E+04</rscale>
<asrwt>0</asrwt>
<pdfrwt beam="1">  1        2 0.53939317E+00 0.11093681E+04</pdfrwt>
<pdfrwt beam="2">  1       -2 0.67005388E-01 0.11093681E+04</pdfrwt>
<totfact> 0.16768359E+00</totfact>
</mgrwt>
</event>
<event>
 4    2  0.3747163E-007  0.1072314E+04  0.7818608E-02  0.9292525E-01
          2   -1    0    0  501    0  0.00000000000E+00  0.00000000000E+00  0.34805440670E+04  0.34805440670E+04  0.25500000000E-02 0. -1.
         -2   -1    0    0    0  501 -0.00000000000E+00 -0.00000000000E+00 -0.55508269384E+03  0.55508269385E+03  0.25500000000E-02 0.  1.
    8880023    1    1    2    0    0  0.21593676642E+03  0.81818019383E+03  0.29868769846E+04  0.31735298713E+04  0.65864270000E+03 0.  0.
    8880022    1    1    2    0    0 -0.21593676642E+03 -0.81818019383E+03 -0.61415611420E+02  0.86209688957E+03  0.15294330000E+03 0.  0.
<mgrwt>
<rscale>  0 0.10147390E+04</rscale>
<asrwt>0</asrwt>
<pdfrwt beam="1">  1        2 0.53546831E+00 0.10723142E+04</pdfrwt>
<pdfrwt beam="2">  1       -2 0.85397339E-01 0.10723142E+04</pdfrwt>
<totfact> 0.10217201E+00</totfact>
</mgrwt>
</event>
<event>
 4    2  0.3747163E-007  0.1125289E+04  0.7818608E-02  0.9233409E-01
          2   -1    0    0  501    0  0.00000000000E+00  0.00000000000E+00  0.18347459497E+04  0.18347459497E+04  0.25500000000E-02 0. -1.
         -2   -1    0    0    0  501 -0.00000000000E+00 -0.00000000000E+00 -0.10843912135E+04  0.10843912135E+04  0.25500000000E-02 0.  1.
    8880023    1    1    2    0    0 -0.90002365360E+03  0.14974244407E+03  0.13944616568E+04  0.17918702228E+04  0.65864270000E+03 0. -1.
    8880022    1    1    2    0    0  0.90002365360E+03 -0.14974244407E+03 -0.64410692069E+03  0.11272669404E+04  0.15294330000E+03 0.  0.
<mgrwt>
<rscale>  0 0.10715150E+04</rscale>
<asrwt>0</asrwt>
<pdfrwt beam="1">  1        2 0.28226860E+00 0.11252891E+04</pdfrwt>
<pdfrwt beam="2">  1       -2 0.16682942E+00 0.11252891E+04</pdfrwt>
<totfact> 0.18163234E+00</totfact>
</mgrwt>
</event>
<event>
 4    2  0.3747163E-007  0.7417557E+03  0.7818608E-02  0.9854862E-01
          2   -1    0    0  501    0  0.00000000000E+00  0.00000000000E+00  0.62425540712E+03  0.62425540713E+03  0.25500000000E-02 0. -1.
         -2   -1    0    0    0  501 -0.00000000000E+00 -0.00000000000E+00 -0.13625136542E+04  0.13625136542E+04  0.25500000000E-02 0.  1.
    8880023    1    1    2    0    0  0.33868868919E+03 -0.41003637324E+02  0.36152853586E+03  0.82516932502E+03  0.65864270000E+03 0. -1.
    8880022    1    1    2    0    0 -0.33868868919E+03  0.41003637324E+02 -0.10997867829E+04  0.11615997363E+04  0.15294330000E+03 0.  0.
<mgrwt>
<rscale>  0 0.62499632E+03</rscale>
<asrwt>0</asrwt>
<pdfrwt beam="1">  1        2 0.96039294E-01 0.74175571E+03</pdfrwt>
<pdfrwt beam="2">  1       -2 0.20961749E+00 0.74175571E+03</pdfrwt>
<totfact> 0.55673761E+00</totfact>
</mgrwt>
</event>
<event>
 4    2  0.3747163E-007  0.7134392E+03  0.7818608E-02  0.9945445E-01
          2   -1    0    0  501    0  0.00000000000E+00  0.00000000000E+00  0.28407123569E+04  0.28407123569E+04  0.25500000000E-02 0. -1.
         -2   -1    0    0    0  501 -0.00000000000E+00 -0.00000000000E+00 -0.15758756834E+03  0.15758756836E+03  0.25500000000E-02 0.  1.
    8880023    1    1    2    0    0 -0.12862646137E+03 -0.24215797305E+03  0.25657728878E+04  0.26631158384E+04  0.65864270000E+03 0. -1.
    8880022    1    1    2    0    0  0.12862646137E+03  0.24215797305E+03  0.11735190073E+03  0.33518408688E+03  0.15294330000E+03 0.  0.
<mgrwt>
<rscale>  0 0.58108493E+03</rscale>
<asrwt>0</asrwt>
<pdfrwt beam="1">  1        2 0.43703265E+00 0.71343918E+03</pdfrwt>
<pdfrwt beam="2">  1       -2 0.24244243E-01 0.71343918E+03</pdfrwt>
<totfact> 0.35005220E+01</totfact>
</mgrwt>
</event>
<event>
 4    2  0.3747163E-007  0.6774367E+03  0.7818608E-02  0.1010812E+00
         -2   -1    0    0    0  501 -0.00000000000E+00  0.00000000000E+00  0.12628019491E+04  0.12628019491E+04  0.25500000000E-02 0.  1.
          2   -1    0    0  501    0  0.00000000000E+00 -0.00000000000E+00 -0.42416930645E+03  0.42416930646E+03  0.25500000000E-02 0. -1.
    8880023    1    1    2    0    0 -0.14180490186E+03  0.70721910838E+02 -0.13327668276E+03  0.69042240643E+03  0.65864270000E+03 0. -1.
    8880022    1    1    2    0    0  0.14180490186E+03 -0.70721910838E+02  0.97190932537E+03  0.99654884909E+03  0.15294330000E+03 0.  0.
<mgrwt>
<rscale>  0 0.51153026E+03</rscale>
<asrwt>0</asrwt>
<pdfrwt beam="1">  1        2 0.65256818E-01 0.67743666E+03</pdfrwt>
<pdfrwt beam="2">  1       -2 0.19427722E+00 0.67743666E+03</pdfrwt>
<totfact> 0.11075583E+01</totfact>
</mgrwt>
</event>
<event>
 4    2  0.3747163E-007  0.7107476E+03  0.7818608E-02  0.9955235E-01
          2   -1    0    0  501    0  0.00000000000E+00  0.00000000000E+00  0.79545694831E+03  0.79545694832E+03  0.25500000000E-02 0. -1.
         -2   -1    0    0    0  501 -0.00000000000E+00 -0.00000000000E+00 -0.32846291301E+03  0.32846291302E+03  0.25500000000E-02 0.  1.
    8880023    1    1    2    0    0 -0.25674112000E+03  0.73729064979E+02  0.36941887502E+03  0.80101965594E+03  0.65864270000E+03 0. -1.
    8880022    1    1    2    0    0  0.25674112000E+03 -0.73729064979E+02  0.97575160285E+02  0.32290020539E+03  0.15294330000E+03 0.  1.
<mgrwt>
<rscale>  0 0.57657435E+03</rscale>
<asrwt>0</asrwt>
<pdfrwt beam="1">  1        2 0.12237799E+00 0.71074762E+03</pdfrwt>
<pdfrwt beam="2">  1       -2 0.50532757E-01 0.71074762E+03</pdfrwt>
<totfact> 0.13031646E+02</totfact>
</mgrwt>
</event>
<event>
 4    2  0.3747163E-007  0.7342961E+03  0.7818608E-02  0.9876885E-01
         -2   -1    0    0    0  501 -0.00000000000E+00  0.00000000000E+00  0.24502031087E+03  0.24502031088E+03  0.25500000000E-02 0.  1.
          2   -1    0    0  501    0  0.00000000000E+00 -0.00000000000E+00 -0.13102034693E+04  0.13102034693E+04  0.25500000000E-02 0. -1.
    8880023    1    1    2    0    0  0.24336767421E+03 -0.21483202507E+03 -0.89612367429E+03  0.11585458427E+04  0.65864270000E+03 0. -1.
    8880022    1    1    2    0    0 -0.24336767421E+03  0.21483202507E+03 -0.16905948410E+03  0.39667793740E+03  0.15294330000E+03 0.  1.
<mgrwt>
<rscale>  0 0.61394750E+03</rscale>
<asrwt>0</asrwt>
<pdfrwt beam="1">  1        2 0.20156976E+00 0.73429615E+03</pdfrwt>
<pdfrwt beam="2">  1       -2 0.37695433E-01 0.73429615E+03</pdfrwt>
<totfact> 0.11010841E+02</totfact>
</mgrwt>
</event>
<event>
 4    2  0.3747163E-007  0.6977921E+03  0.7818608E-02  0.1000649E+00
          2   -1    0    0  501    0  0.00000000000E+00  0.00000000000E+00  0.16830959524E+04  0.16830959524E+04  0.25500000000E-02 0. -1.
         -2   -1    0    0    0  501 -0.00000000000E+00 -0.00000000000E+00 -0.40531713850E+03  0.40531713851E+03  0.25500000000E-02 0.  1.
    8880023    1    1    2    0    0  0.22197152888E+03 -0.61905147935E+02  0.15503184406E+04  0.17001179608E+04  0.65864270000E+03 0. -1.
    8880022    1    1    2    0    0 -0.22197152888E+03  0.61905147935E+02 -0.27253962669E+03  0.38829513016E+03  0.15294330000E+03 0.  0.
<mgrwt>
<rscale>  0 0.55366727E+03</rscale>
<asrwt>0</asrwt>
<pdfrwt beam="1">  1        2 0.25893783E+00 0.69779210E+03</pdfrwt>
<pdfrwt beam="2">  1       -2 0.62356485E-01 0.69779210E+03</pdfrwt>
<totfact> 0.24726741E+01</totfact>
</mgrwt>
</event>
<event>
 4    2  0.3747163E-007  0.6742938E+03  0.7818608E-02  0.1012755E+00
          2   -1    0    0  501    0  0.00000000000E+00  0.00000000000E+00  0.98611686779E+03  0.98611686779E+03  0.25500000000E-02 0. -1.
         -2   -1    0    0    0  501 -0.00000000000E+00 -0.00000000000E+00 -0.47111774255E+03  0.47111774256E+03  0.25500000000E-02 0.  1.
    8880023    1    1    2    0    0  0.55578159112E+02  0.13331513001E+03  0.83562921750E+03  0.10737542787E+04  0.65864270000E+03 0. -1.
    8880022    1    1    2    0    0 -0.55578159112E+02 -0.13331513001E+03 -0.32063009227E+03  0.38348033163E+03  0.15294330000E+03 0.  0.
<mgrwt>
<rscale>  0 0.50394172E+03</rscale>
<asrwt>0</asrwt>
<pdfrwt beam="1">  1        2 0.15171029E+00 0.67429375E+03</pdfrwt>
<pdfrwt beam="2">  1       -2 0.72479653E-01 0.67429375E+03</pdfrwt>
<totfact> 0.45288763E+01</totfact>
</mgrwt>
</event>
<event>
 4    2  0.3747163E-007  0.7608396E+03  0.7818608E-02  0.9802939E-01
         -2   -1    0    0    0  501 -0.00000000000E+00  0.00000000000E+00  0.21934387954E+03  0.21934387955E+03  0.25500000000E-02 0.  1.
          2   -1    0    0  501    0  0.00000000000E+00 -0.00000000000E+00 -0.29906304483E+04  0.29906304483E+04  0.25500000000E-02 0. -1.
    8880023    1    1    2    0    0  0.24266365280E+03  0.29356620361E+03 -0.26847994640E+04  0.27905241680E+04  0.65864270000E+03 0. -1.
    8880022    1    1    2    0    0 -0.24266365280E+03 -0.29356620361E+03 -0.86487104817E+02  0.41945015986E+03  0.15294330000E+03 0.  0.
<mgrwt>
<rscale>  0 0.65205081E+03</rscale>
<asrwt>0</asrwt>
<pdfrwt beam="1">  1        2 0.46009696E+00 0.76083965E+03</pdfrwt>
<pdfrwt beam="2">  1       -2 0.33745214E-01 0.76083965E+03</pdfrwt>
<totfact> 0.15344191E+01</totfact>
</mgrwt>
</event>
<event>
 4    2  0.3747163E-007  0.6595737E+03  0.7818608E-02  0.1024597E+00
         -2   -1    0    0    0  501 -0.00000000000E+00  0.00000000000E+00  0.16928563368E+03  0.16928563370E+03  0.25500000000E-02 0.  1.
          2   -1    0    0  501    0  0.00000000000E+00 -0.00000000000E+00 -0.10790690192E+04  0.10790690192E+04  0.25500000000E-02 0. -1.
    8880023    1    1    2    0    0  0.33769712137E+02  0.93221532118E+01 -0.85986758048E+03  0.10837018770E+04  0.65864270000E+03 0. -1.
    8880022    1    1    2    0    0 -0.33769712137E+02 -0.93221532118E+01 -0.49915805022E+02  0.16465277588E+03  0.15294330000E+03 0.  0.
<mgrwt>
<rscale>  0 0.46063422E+03</rscale>
<asrwt>0</asrwt>
<pdfrwt beam="1">  1        2 0.16601061E+00 0.65957373E+03</pdfrwt>
<pdfrwt beam="2">  1       -2 0.26043944E-01 0.65957373E+03</pdfrwt>
<totfact> 0.30274552E+02</totfact>
</mgrwt>
</event>
<event>
 4    2  0.3747163E-007  0.9349088E+03  0.7818608E-02  0.9472168E-01
         -2   -1    0    0    0  501 -0.00000000000E+00  0.00000000000E+00  0.10305357986E+04  0.10305357986E+04  0.25500000000E-02 0.  1.
          2   -1    0    0  501    0  0.00000000000E+00 -0.00000000000E+00 -0.90018869580E+03  0.90018869580E+03  0.25500000000E-02 0. -1.
    8880023    1    1    2    0    0 -0.35894007542E+03 -0.55803789106E+03 -0.44859500284E+03  0.10369628481E+04  0.65864270000E+03 0.  0.
    8880022    1    1    2    0    0  0.35894007542E+03  0.55803789106E+03  0.57894210559E+03  0.89376164621E+03  0.15294330000E+03 0.  0.
<mgrwt>
<rscale>  0 0.86367246E+03</rscale>
<asrwt>0</asrwt>
<pdfrwt beam="1">  1        2 0.13849057E+00 0.93490880E+03</pdfrwt>
<pdfrwt beam="2">  1       -2 0.15854397E+00 0.93490880E+03</pdfrwt>
<totfact> 0.75509795E+00</totfact>
</mgrwt>
</event>
<event>
 4    2  0.3747163E-007  0.7248602E+03  0.7818608E-02  0.9906471E-01
         -2   -1    0    0    0  501 -0.00000000000E+00  0.00000000000E+00  0.19606733675E+03  0.19606733676E+03  0.25500000000E-02 0.  1.
          2   -1    0    0  501    0  0.00000000000E+00 -0.00000000000E+00 -0.16216578131E+04  0.16216578131E+04  0.25500000000E-02 0. -1.
    8880023    1    1    2    0    0  0.29089737374E+03 -0.83611065772E+02 -0.12259272530E+04  0.14241909733E+04  0.65864270000E+03 0.  0.
    8880022    1    1    2    0    0 -0.29089737374E+03  0.83611065772E+02 -0.19966322328E+03  0.39353417655E+03  0.15294330000E+03 0.  0.
<mgrwt>
<rscale>  0 0.59948688E+03</rscale>
<asrwt>0</asrwt>
<pdfrwt beam="1">  1        2 0.24948581E+00 0.72486019E+03</pdfrwt>
<pdfrwt beam="2">  1       -2 0.30164207E-01 0.72486019E+03</pdfrwt>
<totfact> 0.11242941E+02</totfact>
</mgrwt>
</event>
<event>
 4    2  0.3747163E-007  0.9585343E+03  0.7818608E-02  0.9437940E-01
          2   -1    0    0  501    0  0.00000000000E+00  0.00000000000E+00  0.19344365248E+04  0.19344365248E+04  0.25500000000E-02 0. -1.
         -2   -1    0    0    0  501 -0.00000000000E+00 -0.00000000000E+00 -0.48800223994E+03  0.48800223995E+03  0.25500000000E-02 0.  1.
    8880023    1    1    2    0    0  0.62347159195E+03 -0.31025938717E+03  0.14145517819E+04  0.17087260352E+04  0.65864270000E+03 0.  0.
    8880022    1    1    2    0    0 -0.62347159195E+03  0.31025938717E+03  0.31882502893E+02  0.71371272953E+03  0.15294330000E+03 0.  0.
<mgrwt>
<rscale>  0 0.89018065E+03</rscale>
<asrwt>0</asrwt>
<pdfrwt beam="1">  1        2 0.29760562E+00 0.95853426E+03</pdfrwt>
<pdfrwt beam="2">  1       -2 0.75077268E-01 0.95853426E+03</pdfrwt>
<totfact> 0.11649787E+01</totfact>
</mgrwt>
</event>
<event>
 4    2  0.3747163E-007  0.1022498E+04  0.7818608E-02  0.9352698E-01
          2   -1    0    0  501    0  0.00000000000E+00  0.00000000000E+00  0.31531236590E+04  0.31531236590E+04  0.25500000000E-02 0. -1.
         -2   -1    0    0    0  501 -0.00000000000E+00 -0.00000000000E+00 -0.39124071336E+03  0.39124071337E+03  0.25500000000E-02 0.  1.
    8880023    1    1    2    0    0 -0.55883656866E+03 -0.54716793233E+03  0.25072844056E+04  0.27077622410E+04  0.65864270000E+03 0. -1.
    8880022    1    1    2    0    0  0.55883656866E+03  0.54716793233E+03  0.25459853999E+03  0.83660213138E+03  0.15294330000E+03 0.  1.
<mgrwt>
<rscale>  0 0.96072811E+03</rscale>
<asrwt>0</asrwt>
<pdfrwt beam="1">  1        2 0.48509592E+00 0.10224976E+04</pdfrwt>
<pdfrwt beam="2">  1       -2 0.60190882E-01 0.10224976E+04</pdfrwt>
<totfact> 0.36616026E+00</totfact>
</mgrwt>
</event>
<event>
 4    2  0.3747163E-007  0.6601255E+03  0.7818608E-02  0.1024028E+00
          2   -1    0    0  501    0  0.00000000000E+00  0.00000000000E+00  0.12636080039E+04  0.12636080039E+04  0.25500000000E-02 0. -1.
         -2   -1    0    0    0  501 -0.00000000000E+00 -0.00000000000E+00 -0.15602114379E+03  0.15602114381E+03  0.25500000000E-02 0.  1.
    8880023    1    1    2    0    0 -0.43199271152E+02  0.94529486211E+01  0.10680487911E+04  0.12555851073E+04  0.65864270000E+03 0. -1.
    8880022    1    1    2    0    0  0.43199271152E+02 -0.94529486211E+01  0.39538068969E+02  0.16404404036E+03  0.15294330000E+03 0.  0.
<mgrwt>
<rscale>  0 0.46260586E+03</rscale>
<asrwt>0</asrwt>
<pdfrwt beam="1">  1        2 0.19440123E+00 0.66012555E+03</pdfrwt>
<pdfrwt beam="2">  1       -2 0.24003253E-01 0.66012555E+03</pdfrwt>
<totfact> 0.27229061E+02</totfact>
</mgrwt>
</event>
<event>
 4    2  0.3747163E-007  0.8493926E+03  0.7818608E-02  0.9612718E-01
         -2   -1    0    0    0  501 -0.00000000000E+00  0.00000000000E+00  0.23452187370E+03  0.23452187372E+03  0.25500000000E-02 0.  1.
          2   -1    0    0  501    0  0.00000000000E+00 -0.00000000000E+00 -0.33965430371E+04  0.33965430371E+04  0.25500000000E-02 0. -1.
    8880023    1    1    2    0    0  0.40096676655E+03  0.35620682076E+03 -0.28867406274E+04  0.30091093871E+04  0.65864270000E+03 0.  0.
    8880022    1    1    2    0    0 -0.40096676655E+03 -0.35620682076E+03 -0.27528053599E+03  0.62195552377E+03  0.15294330000E+03 0.  0.
<mgrwt>
<rscale>  0 0.76460128E+03</rscale>
<asrwt>0</asrwt>
<pdfrwt beam="1">  1        2 0.52254505E+00 0.84939264E+03</pdfrwt>
<pdfrwt beam="2">  1       -2 0.36080291E-01 0.84939264E+03</pdfrwt>
<totfact> 0.73311674E+00</totfact>
</mgrwt>
</event>
<event>
 4    2  0.3747163E-007  0.6771546E+03  0.7818608E-02  0.1010981E+00
          2   -1    0    0  501    0  0.00000000000E+00  0.00000000000E+00  0.70919088710E+03  0.70919088710E+03  0.25500000000E-02 0. -1.
         -2   -1    0    0    0  501 -0.00000000000E+00 -0.00000000000E+00 -0.41229159773E+03  0.41229159773E+03  0.25500000000E-02 0.  1.
    8880023    1    1    2    0    0 -0.63569263405E+02 -0.14382986447E+03  0.48466862502E+03  0.83273162754E+03  0.65864270000E+03 0. -1.
    8880022    1    1    2    0    0  0.63569263405E+02  0.14382986447E+03 -0.18776933565E+03  0.28875085730E+03  0.15294330000E+03 0.  0.
<mgrwt>
<rscale>  0 0.51086512E+03</rscale>
<asrwt>0</asrwt>
<pdfrwt beam="1">  1        2 0.10910629E+00 0.67715455E+03</pdfrwt>
<pdfrwt beam="2">  1       -2 0.63429477E-01 0.67715455E+03</pdfrwt>
<totfact> 0.94294855E+01</totfact>
</mgrwt>
</event>
<event>
 4    2  0.3747163E-007  0.8990942E+03  0.7818608E-02  0.9527487E-01
          2   -1    0    0  501    0  0.00000000000E+00  0.00000000000E+00  0.60115761712E+03  0.60115761713E+03  0.25500000000E-02 0. -1.
         -2   -1    0    0    0  501 -0.00000000000E+00 -0.00000000000E+00 -0.16476461864E+04  0.16476461864E+04  0.25500000000E-02 0.  1.
    8880023    1    1    2    0    0 -0.10945153563E+03  0.60214666917E+03  0.13526930543E+03  0.90921297896E+03  0.65864270000E+03 0.  0.
    8880022    1    1    2    0    0  0.10945153563E+03 -0.60214666917E+03 -0.11817578747E+04  0.13395908246E+04  0.15294330000E+03 0.  1.
<mgrwt>
<rscale>  0 0.82287285E+03</rscale>
<asrwt>0</asrwt>
<pdfrwt beam="1">  1        2 0.92485788E-01 0.89909424E+03</pdfrwt>
<pdfrwt beam="2">  1       -2 0.25348403E+00 0.89909424E+03</pdfrwt>
<totfact> 0.30595057E+00</totfact>
</mgrwt>
</event>
<event>
 4    2  0.3747163E-007  0.8639543E+03  0.7818608E-02  0.9586568E-01
          2   -1    0    0  501    0  0.00000000000E+00  0.00000000000E+00  0.11835788082E+04  0.11835788082E+04  0.25500000000E-02 0. -1.
         -2   -1    0    0    0  501 -0.00000000000E+00 -0.00000000000E+00 -0.10962613788E+04  0.10962613788E+04  0.25500000000E-02 0.  1.
    8880023    1    1    2    0    0  0.43518162589E+03  0.35103253954E+03  0.92206295034E+03  0.12635731803E+04  0.65864270000E+03 0.  0.
    8880022    1    1    2    0    0 -0.43518162589E+03 -0.35103253954E+03 -0.83474552085E+03  0.10162670067E+04  0.15294330000E+03 0.  0.
<mgrwt>
<rscale>  0 0.78191630E+03</rscale>
<asrwt>0</asrwt>
<pdfrwt beam="1">  1        2 0.18208905E+00 0.86395434E+03</pdfrwt>
<pdfrwt beam="2">  1       -2 0.16865560E+00 0.86395434E+03</pdfrwt>
<totfact> 0.42514503E+00</totfact>
</mgrwt>
</event>
<event>
 4    2  0.3747163E-007  0.8934020E+03  0.7818608E-02  0.9536708E-01
          2   -1    0    0  501    0  0.00000000000E+00  0.00000000000E+00  0.24117648458E+04  0.24117648458E+04  0.25500000000E-02 0. -1.
         -2   -1    0    0    0  501 -0.00000000000E+00 -0.00000000000E+00 -0.26346785271E+03  0.26346785272E+03  0.25500000000E-02 0.  1.
    8880023    1    1    2    0    0 -0.43688548341E+02 -0.60203667494E+03  0.16553020631E+04  0.18810082332E+04  0.65864270000E+03 0.  0.
    8880022    1    1    2    0    0  0.43688548341E+02  0.60203667494E+03  0.49299493003E+03  0.79422446530E+03  0.15294330000E+03 0. -1.
<mgrwt>
<rscale>  0 0.81630779E+03</rscale>
<asrwt>0</asrwt>
<pdfrwt beam="1">  1        2 0.37104075E+00 0.89340196E+03</pdfrwt>
<pdfrwt beam="2">  1       -2 0.40533515E-01 0.89340196E+03</pdfrwt>
<totfact> 0.23071839E+01</totfact>
</mgrwt>
</event>
<event>
 4    2  0.3747163E-007  0.9737403E+03  0.7818608E-02  0.9416750E-01
         -2   -1    0    0    0  501 -0.00000000000E+00  0.00000000000E+00  0.12391332511E+04  0.12391332511E+04  0.25500000000E-02 0.  1.
          2   -1    0    0  501    0  0.00000000000E+00 -0.00000000000E+00 -0.52282838443E+04  0.52282838443E+04  0.25500000000E-02 0. -1.
    8880023    1    1    2    0    0  0.36641295808E+03  0.61652372982E+03 -0.50692382033E+04  0.51619130304E+04  0.65864270000E+03 0. -1.
    8880022    1    1    2    0    0 -0.36641295808E+03 -0.61652372982E+03  0.10800876101E+04  0.13055040650E+04  0.15294330000E+03 0.  0.
<mgrwt>
<rscale>  0 0.90709981E+03</rscale>
<asrwt>0</asrwt>
<pdfrwt beam="1">  1        2 0.80435135E+00 0.97374030E+03</pdfrwt>
<pdfrwt beam="2">  1       -2 0.19063589E+00 0.97374030E+03</pdfrwt>
<totfact> 0.28932716E-03</totfact>
</mgrwt>
</event>
<event>
 4    2  0.3747163E-007  0.7723072E+03  0.7818608E-02  0.9774228E-01
         -2   -1    0    0    0  501 -0.00000000000E+00  0.00000000000E+00  0.25839946948E+03  0.25839946949E+03  0.25500000000E-02 0.  1.
          2   -1    0    0  501    0  0.00000000000E+00 -0.00000000000E+00 -0.14102764339E+04  0.14102764339E+04  0.25500000000E-02 0. -1.
    8880023    1    1    2    0    0  0.36033967966E+02  0.40168356838E+03 -0.67544576666E+03  0.10260045448E+04  0.65864270000E+03 0.  1.
    8880022    1    1    2    0    0 -0.36033967966E+02 -0.40168356838E+03 -0.47643119772E+03  0.64267135857E+03  0.15294330000E+03 0. -1.
<mgrwt>
<rscale>  0 0.66764142E+03</rscale>
<asrwt>0</asrwt>
<pdfrwt beam="1">  1        2 0.21696560E+00 0.77230716E+03</pdfrwt>
<pdfrwt beam="2">  1       -2 0.39753765E-01 0.77230716E+03</pdfrwt>
<totfact> 0.86822836E+01</totfact>
</mgrwt>
</event>
<event>
 4    2  0.3747163E-007  0.7614054E+03  0.7818608E-02  0.9801483E-01
         -2   -1    0    0    0  501 -0.00000000000E+00  0.00000000000E+00  0.10986380988E+04  0.10986380988E+04  0.25500000000E-02 0.  1.
          2   -1    0    0  501    0  0.00000000000E+00 -0.00000000000E+00 -0.36953226043E+03  0.36953226044E+03  0.25500000000E-02 0. -1.
    8880023    1    1    2    0    0 -0.29376975276E+03  0.24418689971E+03  0.73267590600E+03  0.10566702888E+04  0.65864270000E+03 0.  1.
    8880022    1    1    2    0    0  0.29376975276E+03 -0.24418689971E+03 -0.35700676216E+01  0.41150007051E+03  0.15294330000E+03 0.  0.
<mgrwt>
<rscale>  0 0.65283035E+03</rscale>
<asrwt>0</asrwt>
<pdfrwt beam="1">  1        2 0.56851117E-01 0.76140536E+03</pdfrwt>
<pdfrwt beam="2">  1       -2 0.16902124E+00 0.76140536E+03</pdfrwt>
<totfact> 0.19080767E+01</totfact>
</mgrwt>
</event>
<event>
 4    2  0.3747163E-007  0.9899847E+03  0.7818608E-02  0.9394780E-01
         -2   -1    0    0    0  501 -0.00000000000E+00  0.00000000000E+00  0.12859963693E+04  0.12859963693E+04  0.25500000000E-02 0.  1.
          2   -1    0    0  501    0  0.00000000000E+00 -0.00000000000E+00 -0.14035353657E+04  0.14035353657E+04  0.25500000000E-02 0. -1.
    8880023    1    1    2    0    0 -0.73452426320E+03 -0.82058413476E+02 -0.10808821358E+04  0.14657339030E+04  0.65864270000E+03 0. -1.
    8880022    1    1    2    0    0  0.73452426320E+03  0.82058413476E+02  0.96334313938E+03  0.12237978320E+04  0.15294330000E+03 0.  0.
<mgrwt>
<rscale>  0 0.92506549E+03</rscale>
<asrwt>0</asrwt>
<pdfrwt beam="1">  1        2 0.21592852E+00 0.98998469E+03</pdfrwt>
<pdfrwt beam="2">  1       -2 0.19784560E+00 0.98998469E+03</pdfrwt>
<totfact> 0.19677857E+00</totfact>
</mgrwt>
</event>
<event>
 4    2  0.3747163E-007  0.8091385E+03  0.7818608E-02  0.9691374E-01
         -2   -1    0    0    0  501 -0.00000000000E+00  0.00000000000E+00  0.10350968899E+04  0.10350968899E+04  0.25500000000E-02 0.  1.
          2   -1    0    0  501    0  0.00000000000E+00 -0.00000000000E+00 -0.53361031311E+03  0.53361031311E+03  0.25500000000E-02 0. -1.
    8880023    1    1    2    0    0 -0.28107455552E+03  0.37668549086E+03 -0.71159541885E+02  0.81226150435E+03  0.65864270000E+03 0. -1.
    8880022    1    1    2    0    0  0.28107455552E+03 -0.37668549086E+03  0.57264611872E+03  0.75644569870E+03  0.15294330000E+03 0.  0.
<mgrwt>
<rscale>  0 0.71532693E+03</rscale>
<asrwt>0</asrwt>
<pdfrwt beam="1">  1        2 0.82093895E-01 0.80913847E+03</pdfrwt>
<pdfrwt beam="2">  1       -2 0.15924567E+00 0.80913847E+03</pdfrwt>
<totfact> 0.14691992E+01</totfact>
</mgrwt>
</event>
<event>
 4    2  0.3747163E-007  0.6997585E+03  0.7818608E-02  0.9998205E-01
          2   -1    0    0  501    0  0.00000000000E+00  0.00000000000E+00  0.95604567284E+03  0.95604567284E+03  0.25500000000E-02 0. -1.
         -2   -1    0    0    0  501 -0.00000000000E+00 -0.00000000000E+00 -0.10988358066E+04  0.10988358066E+04  0.25500000000E-02 0.  1.
    8880023    1    1    2    0    0 -0.17855588881E+03  0.15482086401E+03  0.80473523047E+03  0.10664242602E+04  0.65864270000E+03 0. -1.
    8880022    1    1    2    0    0  0.17855588881E+03 -0.15482086401E+03 -0.94752536424E+03  0.98845721923E+03  0.15294330000E+03 0.  0.
<mgrwt>
<rscale>  0 0.55729030E+03</rscale>
<asrwt>0</asrwt>
<pdfrwt beam="1">  1        2 0.14708395E+00 0.69975847E+03</pdfrwt>
<pdfrwt beam="2">  1       -2 0.16905166E+00 0.69975847E+03</pdfrwt>
<totfact> 0.59784410E+00</totfact>
</mgrwt>
</event>
<event>
 4    2  0.3747163E-007  0.1280238E+04  0.7818608E-02  0.9082816E-01
          2   -1    0    0  501    0  0.00000000000E+00  0.00000000000E+00  0.24771192350E+04  0.24771192350E+04  0.25500000000E-02 0. -1.
         -2   -1    0    0    0  501 -0.00000000000E+00 -0.00000000000E+00 -0.74333974199E+03  0.74333974199E+03  0.25500000000E-02 0.  1.
    8880023    1    1    2    0    0  0.61876733472E+01  0.10977987150E+04  0.16780308229E+04  0.21106392289E+04  0.65864270000E+03 0.  0.
    8880022    1    1    2    0    0 -0.61876733472E+01 -0.10977987150E+04  0.55748670079E+02  0.11098197480E+04  0.15294330000E+03 0.  0.
<mgrwt>
<rscale>  0 0.12349350E+04</rscale>
<asrwt>0</asrwt>
<pdfrwt beam="1">  1        2 0.38109526E+00 0.12802385E+04</pdfrwt>
<pdfrwt beam="2">  1       -2 0.11435996E+00 0.12802385E+04</pdfrwt>
<totfact> 0.20855996E+00</totfact>
</mgrwt>
</event>
<event>
 4    2  0.3747163E-007  0.8376320E+03  0.7818608E-02  0.9634662E-01
          2   -1    0    0  501    0  0.00000000000E+00  0.00000000000E+00  0.28049013794E+04  0.28049013794E+04  0.25500000000E-02 0. -1.
         -2   -1    0    0    0  501 -0.00000000000E+00 -0.00000000000E+00 -0.21455060345E+03  0.21455060346E+03  0.25500000000E-02 0.  1.
    8880023    1    1    2    0    0  0.32851630545E+03  0.39986780054E+03  0.21981752084E+04  0.23523608724E+04  0.65864270000E+03 0. -1.
    8880022    1    1    2    0    0 -0.32851630545E+03 -0.39986780054E+03  0.39217556752E+03  0.66709111044E+03  0.15294330000E+03 0.  0.
<mgrwt>
<rscale>  0 0.75043924E+03</rscale>
<asrwt>0</asrwt>
<pdfrwt beam="1">  1        2 0.43152326E+00 0.83763204E+03</pdfrwt>
<pdfrwt beam="2">  1       -2 0.33007787E-01 0.83763204E+03</pdfrwt>
<totfact> 0.20451557E+01</totfact>
</mgrwt>
</event>
<event>
 4    2  0.3747163E-007  0.7126096E+03  0.7818608E-02  0.9948435E-01
         -2   -1    0    0    0  501 -0.00000000000E+00  0.00000000000E+00  0.33444222188E+03  0.33444222189E+03  0.25500000000E-02 0.  1.
          2   -1    0    0  501    0  0.00000000000E+00 -0.00000000000E+00 -0.79848963750E+03  0.79848963751E+03  0.25500000000E-02 0. -1.
    8880023    1    1    2    0    0 -0.16737845956E+03  0.21444519388E+03 -0.25299776017E+03  0.75618804726E+03  0.65864270000E+03 0.  1.
    8880022    1    1    2    0    0  0.16737845956E+03 -0.21444519388E+03 -0.21104965545E+03  0.37674381214E+03  0.15294330000E+03 0. -1.
<mgrwt>
<rscale>  0 0.57970262E+03</rscale>
<asrwt>0</asrwt>
<pdfrwt beam="1">  1        2 0.12284456E+00 0.71260964E+03</pdfrwt>
<pdfrwt beam="2">  1       -2 0.51452650E-01 0.71260964E+03</pdfrwt>
<totfact> 0.12495857E+02</totfact>
</mgrwt>
</event>
<event>
 4    2  0.3747163E-007  0.8085521E+03  0.7818608E-02  0.9692601E-01
         -2   -1    0    0    0  501 -0.00000000000E+00  0.00000000000E+00  0.13108047149E+04  0.13108047149E+04  0.25500000000E-02 0.  1.
          2   -1    0    0  501    0  0.00000000000E+00 -0.00000000000E+00 -0.83931035540E+03  0.83931035540E+03  0.25500000000E-02 0. -1.
    8880023    1    1    2    0    0  0.33346658657E+03  0.32976703148E+03 -0.57569018700E+03  0.99256015288E+03  0.65864270000E+03 0.  0.
    8880022    1    1    2    0    0 -0.33346658657E+03 -0.32976703148E+03  0.10471845465E+04  0.11575549174E+04  0.15294330000E+03 0.  0.
<mgrwt>
<rscale>  0 0.71459047E+03</rscale>
<asrwt>0</asrwt>
<pdfrwt beam="1">  1        2 0.12912467E+00 0.80855208E+03</pdfrwt>
<pdfrwt beam="2">  1       -2 0.20166226E+00 0.80855208E+03</pdfrwt>
<totfact> 0.42497518E+00</totfact>
</mgrwt>
</event>
<event>
 4    2  0.3747163E-007  0.8863386E+03  0.7818608E-02  0.9548328E-01
          2   -1    0    0  501    0  0.00000000000E+00  0.00000000000E+00  0.66617662494E+03  0.66617662495E+03  0.25500000000E-02 0. -1.
         -2   -1    0    0    0  501 -0.00000000000E+00 -0.00000000000E+00 -0.10476609532E+04  0.10476609532E+04  0.25500000000E-02 0.  1.
    8880023    1    1    2    0    0 -0.18357557265E+03  0.56399100777E+03 -0.59233216360E+03  0.10660457054E+04  0.65864270000E+03 0.  1.
    8880022    1    1    2    0    0  0.18357557265E+03 -0.56399100777E+03  0.21084783534E+03  0.64779187275E+03  0.15294330000E+03 0.  0.
<mgrwt>
<rscale>  0 0.80812647E+03</rscale>
<asrwt>0</asrwt>
<pdfrwt beam="1">  1        2 0.10248871E+00 0.88633857E+03</pdfrwt>
<pdfrwt beam="2">  1       -2 0.16117861E+00 0.88633857E+03</pdfrwt>
<totfact> 0.10792002E+01</totfact>
</mgrwt>
</event>
<event>
 4    2  0.3747163E-007  0.7060482E+03  0.7818608E-02  0.9972979E-01
          2   -1    0    0  501    0  0.00000000000E+00  0.00000000000E+00  0.19638802235E+03  0.19638802237E+03  0.25500000000E-02 0. -1.
         -2   -1    0    0    0  501 -0.00000000000E+00 -0.00000000000E+00 -0.19928007573E+04  0.19928007573E+04  0.25500000000E-02 0.  1.
    8880023    1    1    2    0    0 -0.24203507860E+03  0.78184841564E+02 -0.51515945924E+03  0.87400991038E+03  0.65864270000E+03 0. -1.
    8880022    1    1    2    0    0  0.24203507860E+03 -0.78184841564E+02 -0.12812532757E+04  0.13151788693E+04  0.15294330000E+03 0.  0.
<mgrwt>
<rscale>  0 0.56851092E+03</rscale>
<asrwt>0</asrwt>
<pdfrwt beam="1">  1        2 0.30213543E-01 0.70604820E+03</pdfrwt>
<pdfrwt beam="2">  1       -2 0.30658472E+00 0.70604820E+03</pdfrwt>
<totfact> 0.53487905E+00</totfact>
</mgrwt>
</event>
<event>
 4    2  0.3747163E-007  0.7277227E+03  0.7818608E-02  0.9897272E-01
          2   -1    0    0  501    0  0.00000000000E+00  0.00000000000E+00  0.96293653974E+03  0.96293653974E+03  0.25500000000E-02 0. -1.
         -2   -1    0    0    0  501 -0.00000000000E+00 -0.00000000000E+00 -0.32239080311E+03  0.32239080312E+03  0.25500000000E-02 0.  1.
    8880023    1    1    2    0    0  0.10502288074E+03  0.29110190807E+03  0.58917732506E+03  0.93632806910E+03  0.65864270000E+03 0.  0.
    8880022    1    1    2    0    0 -0.10502288074E+03 -0.29110190807E+03  0.51368411567E+02  0.34899927376E+03  0.15294330000E+03 0.  0.
<mgrwt>
<rscale>  0 0.60393690E+03</rscale>
<asrwt>0</asrwt>
<pdfrwt beam="1">  1        2 0.14814408E+00 0.72772270E+03</pdfrwt>
<pdfrwt beam="2">  1       -2 0.49598585E-01 0.72772270E+03</pdfrwt>
<totfact> 0.10393501E+02</totfact>
</mgrwt>
</event>
<event>
 4    2  0.3747163E-007  0.6833367E+03  0.7818608E-02  0.1007496E+00
         -2   -1    0    0    0  501 -0.00000000000E+00  0.00000000000E+00  0.33147307326E+03  0.33147307327E+03  0.25500000000E-02 0.  1.
          2   -1    0    0  501    0  0.00000000000E+00 -0.00000000000E+00 -0.71621139418E+03  0.71621139418E+03  0.25500000000E-02 0. -1.
    8880023    1    1    2    0    0  0.18104661018E+03  0.18999064093E+02 -0.42759227595E+03  0.80609193037E+03  0.65864270000E+03 0. -1.
    8880022    1    1    2    0    0 -0.18104661018E+03 -0.18999064093E+02  0.42853955033E+02  0.24159253708E+03  0.15294330000E+03 0.  0.
<mgrwt>
<rscale>  0 0.52482124E+03</rscale>
<asrwt>0</asrwt>
<pdfrwt beam="1">  1        2 0.11018637E+00 0.68333670E+03</pdfrwt>
<pdfrwt beam="2">  1       -2 0.50995857E-01 0.68333670E+03</pdfrwt>
<totfact> 0.14675735E+02</totfact>
</mgrwt>
</event>
<event>
 4    2  0.3747163E-007  0.8061006E+03  0.7818608E-02  0.9697757E-01
         -2   -1    0    0    0  501 -0.00000000000E+00  0.00000000000E+00  0.60248537959E+03  0.60248537960E+03  0.25500000000E-02 0.  1.
          2   -1    0    0  501    0  0.00000000000E+00 -0.00000000000E+00 -0.78994269295E+03  0.78994269295E+03  0.25500000000E-02 0. -1.
    8880023    1    1    2    0    0  0.42218723769E+03 -0.19428322057E+03 -0.34727450297E+03  0.87772308853E+03  0.65864270000E+03 0. -1.
    8880022    1    1    2    0    0 -0.42218723769E+03  0.19428322057E+03  0.15981718961E+03  0.51470498402E+03  0.15294330000E+03 0.  1.
<mgrwt>
<rscale>  0 0.71150484E+03</rscale>
<asrwt>0</asrwt>
<pdfrwt beam="1">  1        2 0.12152964E+00 0.80610064E+03</pdfrwt>
<pdfrwt beam="2">  1       -2 0.92690059E-01 0.80610064E+03</pdfrwt>
<totfact> 0.34898132E+01</totfact>
</mgrwt>
</event>
<event>
 4    2  0.3747163E-007  0.1015869E+04  0.7818608E-02  0.9361085E-01
         -2   -1    0    0    0  501 -0.00000000000E+00  0.00000000000E+00  0.11142602685E+04  0.11142602685E+04  0.25500000000E-02 0.  1.
          2   -1    0    0  501    0  0.00000000000E+00 -0.00000000000E+00 -0.16653649467E+04  0.16653649467E+04  0.25500000000E-02 0. -1.
    8880023    1    1    2    0    0  0.64544567886E+03  0.42612105440E+03 -0.13285140376E+04  0.16724051637E+04  0.65864270000E+03 0.  0.
    8880022    1    1    2    0    0 -0.64544567886E+03 -0.42612105440E+03  0.77740935932E+03  0.11072200515E+04  0.15294330000E+03 0.  0.
<mgrwt>
<rscale>  0 0.95348653E+03</rscale>
<asrwt>0</asrwt>
<pdfrwt beam="1">  1        2 0.25620999E+00 0.10158688E+04</pdfrwt>
<pdfrwt beam="2">  1       -2 0.17142466E+00 0.10158688E+04</pdfrwt>
<totfact> 0.21174452E+00</totfact>
</mgrwt>
</event>
<event>
 4    2  0.3747163E-007  0.7169053E+03  0.7818608E-02  0.9933200E-01
          2   -1    0    0  501    0  0.00000000000E+00  0.00000000000E+00  0.13872863328E+04  0.13872863328E+04  0.25500000000E-02 0. -1.
         -2   -1    0    0    0  501 -0.00000000000E+00 -0.00000000000E+00 -0.24541825955E+03  0.24541825957E+03  0.25500000000E-02 0.  1.
    8880023    1    1    2    0    0 -0.42626445886E+01  0.28306327720E+03  0.10931628431E+04  0.13072712789E+04  0.65864270000E+03 0.  0.
    8880022    1    1    2    0    0  0.42626445886E+01 -0.28306327720E+03  0.48705230210E+02  0.32543331345E+03  0.15294330000E+03 0.  0.
<mgrwt>
<rscale>  0 0.58678912E+03</rscale>
<asrwt>0</asrwt>
<pdfrwt beam="1">  1        2 0.21342867E+00 0.71690529E+03</pdfrwt>
<pdfrwt beam="2">  1       -2 0.37756655E-01 0.71690529E+03</pdfrwt>
<totfact> 0.99350040E+01</totfact>
</mgrwt>
</event>
<event>
 4    2  0.3747163E-007  0.1150326E+04  0.7818608E-02  0.9206990E-01
          2   -1    0    0  501    0  0.00000000000E+00  0.00000000000E+00  0.13800014404E+04  0.13800014404E+04  0.25500000000E-02 0. -1.
         -2   -1    0    0    0  501 -0.00000000000E+00 -0.00000000000E+00 -0.11955747621E+04  0.11955747621E+04  0.25500000000E-02 0.  1.
    8880023    1    1    2    0    0  0.34077066881E+03 -0.87938364954E+03  0.83348077501E+03  0.14205423825E+04  0.65864270000E+03 0.  0.
    8880022    1    1    2    0    0 -0.34077066881E+03  0.87938364954E+03 -0.64905409675E+03  0.11550338200E+04  0.15294330000E+03 0.  0.
<mgrwt>
<rscale>  0 0.10981575E+04</rscale>
<asrwt>0</asrwt>
<pdfrwt beam="1">  1        2 0.21230791E+00 0.11503262E+04</pdfrwt>
<pdfrwt beam="2">  1       -2 0.18393458E+00 0.11503262E+04</pdfrwt>
<totfact> 0.24695131E+00</totfact>
</mgrwt>
</event>
<event>
 4    2  0.3747163E-007  0.8980027E+03  0.7818608E-02  0.9529246E-01
          2   -1    0    0  501    0  0.00000000000E+00  0.00000000000E+00  0.15717864310E+04  0.15717864310E+04  0.25500000000E-02 0. -1.
         -2   -1    0    0    0  501 -0.00000000000E+00 -0.00000000000E+00 -0.70881463048E+03  0.70881463049E+03  0.25500000000E-02 0.  1.
    8880023    1    1    2    0    0 -0.50410753488E+03 -0.34420082804E+03  0.12520228725E+04  0.15407693196E+04  0.65864270000E+03 0.  0.
    8880022    1    1    2    0    0  0.50410753488E+03  0.34420082804E+03 -0.38905107195E+03  0.73983174191E+03  0.15294330000E+03 0.  0.
<mgrwt>
<rscale>  0 0.82161582E+03</rscale>
<asrwt>0</asrwt>
<pdfrwt beam="1">  1        2 0.24181329E+00 0.89800269E+03</pdfrwt>
<pdfrwt beam="2">  1       -2 0.10904841E+00 0.89800269E+03</pdfrwt>
<totfact> 0.78125740E+00</totfact>
</mgrwt>
</event>
<event>
 4    2  0.3747163E-007  0.7851771E+03  0.7818608E-02  0.9743813E-01
         -2   -1    0    0    0  501 -0.00000000000E+00  0.00000000000E+00  0.23806223030E+03  0.23806223031E+03  0.25500000000E-02 0.  1.
          2   -1    0    0  501    0  0.00000000000E+00 -0.00000000000E+00 -0.19388705402E+04  0.19388705402E+04  0.25500000000E-02 0. -1.
    8880023    1    1    2    0    0  0.10451650888E+03 -0.41445045851E+03 -0.14725693434E+04  0.16688210092E+04  0.65864270000E+03 0.  0.
    8880022    1    1    2    0    0 -0.10451650888E+03  0.41445045851E+03 -0.22823896648E+03  0.50811176135E+03  0.15294330000E+03 0.  0.
<mgrwt>
<rscale>  0 0.68467015E+03</rscale>
<asrwt>0</asrwt>
<pdfrwt beam="1">  1        2 0.29828777E+00 0.78517711E+03</pdfrwt>
<pdfrwt beam="2">  1       -2 0.36624960E-01 0.78517711E+03</pdfrwt>
<totfact> 0.51963274E+01</totfact>
</mgrwt>
</event>
<event>
 4    2  0.3747163E-007  0.6592166E+03  0.7818608E-02  0.1024974E+00
          2   -1    0    0  501    0  0.00000000000E+00  0.00000000000E+00  0.11457801069E+04  0.11457801069E+04  0.25500000000E-02 0. -1.
         -2   -1    0    0    0  501 -0.00000000000E+00 -0.00000000000E+00 -0.32459527619E+03  0.32459527620E+03  0.25500000000E-02 0.  1.
    8880023    1    1    2    0    0  0.20876802856E+01 -0.27421216695E+02  0.10221805629E+04  0.12163139360E+04  0.65864270000E+03 0.  0.
    8880022    1    1    2    0    0 -0.20876802856E+01  0.27421216695E+02 -0.20099573218E+03  0.25406144710E+03  0.15294330000E+03 0.  0.
<mgrwt>
<rscale>  0 0.45933664E+03</rscale>
<asrwt>0</asrwt>
<pdfrwt beam="1">  1        2 0.17627386E+00 0.65921657E+03</pdfrwt>
<pdfrwt beam="2">  1       -2 0.49937735E-01 0.65921657E+03</pdfrwt>
<totfact> 0.79333775E+01</totfact>
</mgrwt>
</event>
<event>
 4    2  0.3747163E-007  0.7732945E+03  0.7818608E-02  0.9771831E-01
         -2   -1    0    0    0  501 -0.00000000000E+00  0.00000000000E+00  0.77590603740E+03  0.77590603740E+03  0.25500000000E-02 0.  1.
          2   -1    0    0  501    0  0.00000000000E+00 -0.00000000000E+00 -0.14184505632E+04  0.14184505632E+04  0.25500000000E-02 0. -1.
    8880023    1    1    2    0    0 -0.13603684834E+03  0.38166496829E+03 -0.12370296234E+04  0.14588442918E+04  0.65864270000E+03 0.  0.
    8880022    1    1    2    0    0  0.13603684834E+03 -0.38166496829E+03  0.59448509763E+03  0.73551230883E+03  0.15294330000E+03 0.  0.
<mgrwt>
<rscale>  0 0.66896424E+03</rscale>
<asrwt>0</asrwt>
<pdfrwt beam="1">  1        2 0.21822316E+00 0.77329450E+03</pdfrwt>
<pdfrwt beam="2">  1       -2 0.11937016E+00 0.77329450E+03</pdfrwt>
<totfact> 0.77521776E+00</totfact>
</mgrwt>
</event>
<event>
 4    2  0.3747163E-007  0.8198891E+03  0.7818608E-02  0.9669335E-01
         -2   -1    0    0    0  501 -0.00000000000E+00  0.00000000000E+00  0.41877681324E+03  0.41877681325E+03  0.25500000000E-02 0.  1.
          2   -1    0    0  501    0  0.00000000000E+00 -0.00000000000E+00 -0.15953040682E+04  0.15953040682E+04  0.25500000000E-02 0. -1.
    8880023    1    1    2    0    0 -0.16391474497E+03  0.45993472431E+03 -0.12523162191E+04  0.14968346980E+04  0.65864270000E+03 0. -1.
    8880022    1    1    2    0    0  0.16391474497E+03 -0.45993472431E+03  0.75788964101E+02  0.51724618349E+03  0.15294330000E+03 0.  0.
<mgrwt>
<rscale>  0 0.72872301E+03</rscale>
<asrwt>0</asrwt>
<pdfrwt beam="1">  1        2 0.24543139E+00 0.81988914E+03</pdfrwt>
<pdfrwt beam="2">  1       -2 0.64427203E-01 0.81988914E+03</pdfrwt>
<totfact> 0.25390508E+01</totfact>
</mgrwt>
</event>
<event>
 4    2  0.3747163E-007  0.8197898E+03  0.7818608E-02  0.9669535E-01
          2   -1    0    0  501    0  0.00000000000E+00  0.00000000000E+00  0.95029527238E+03  0.95029527238E+03  0.25500000000E-02 0. -1.
         -2   -1    0    0    0  501 -0.00000000000E+00 -0.00000000000E+00 -0.49553054912E+03  0.49553054913E+03  0.25500000000E-02 0.  1.
    8880023    1    1    2    0    0 -0.24631003331E+03 -0.42139815537E+03  0.10572300909E+03  0.82657885212E+03  0.65864270000E+03 0.  0.
    8880022    1    1    2    0    0  0.24631003331E+03  0.42139815537E+03  0.34904171417E+03  0.61924696939E+03  0.15294330000E+03 0.  0.
<mgrwt>
<rscale>  0 0.72860005E+03</rscale>
<asrwt>0</asrwt>
<pdfrwt beam="1">  1        2 0.14619927E+00 0.81978976E+03</pdfrwt>
<pdfrwt beam="2">  1       -2 0.76235470E-01 0.81978976E+03</pdfrwt>
<totfact> 0.42174971E+01</totfact>
</mgrwt>
</event>
<event>
 4    2  0.3747163E-007  0.6735247E+03  0.7818608E-02  0.1013253E+00
          2   -1    0    0  501    0  0.00000000000E+00  0.00000000000E+00  0.10020882623E+04  0.10020882623E+04  0.25500000000E-02 0. -1.
         -2   -1    0    0    0  501 -0.00000000000E+00 -0.00000000000E+00 -0.67992085082E+03  0.67992085082E+03  0.25500000000E-02 0.  1.
    8880023    1    1    2    0    0  0.46345273951E+02 -0.13295637529E+03  0.86757431030E+03  0.10983263050E+04  0.65864270000E+03 0. -1.
    8880022    1    1    2    0    0 -0.46345273951E+02  0.13295637529E+03 -0.54540689883E+03  0.58368280809E+03  0.15294330000E+03 0.  0.
<mgrwt>
<rscale>  0 0.50202099E+03</rscale>
<asrwt>0</asrwt>
<pdfrwt beam="1">  1        2 0.15416742E+00 0.67352468E+03</pdfrwt>
<pdfrwt beam="2">  1       -2 0.10460321E+00 0.67352468E+03</pdfrwt>
<totfact> 0.19098991E+01</totfact>
</mgrwt>
</event>
<event>
 4    2  0.3747163E-007  0.7927782E+03  0.7818608E-02  0.9726634E-01
         -2   -1    0    0    0  501 -0.00000000000E+00  0.00000000000E+00  0.95546272530E+03  0.95546272530E+03  0.25500000000E-02 0.  1.
          2   -1    0    0  501    0  0.00000000000E+00 -0.00000000000E+00 -0.61738886228E+03  0.61738886228E+03  0.25500000000E-02 0. -1.
    8880023    1    1    2    0    0  0.39102263041E+03 -0.20442196558E+03 -0.24131724738E+03  0.82869249885E+03  0.65864270000E+03 0.  0.
    8880022    1    1    2    0    0 -0.39102263041E+03  0.20442196558E+03  0.57939111040E+03  0.74415908873E+03  0.15294330000E+03 0.  0.
<mgrwt>
<rscale>  0 0.69452906E+03</rscale>
<asrwt>0</asrwt>
<pdfrwt beam="1">  1        2 0.94982903E-01 0.79277818E+03</pdfrwt>
<pdfrwt beam="2">  1       -2 0.14699426E+00 0.79277818E+03</pdfrwt>
<totfact> 0.15297560E+01</totfact>
</mgrwt>
</event>
<event>
 4    2  0.3747163E-007  0.1530096E+04  0.7818608E-02  0.8888672E-01
         -2   -1    0    0    0  501 -0.00000000000E+00  0.00000000000E+00  0.31488715925E+04  0.31488715925E+04  0.25500000000E-02 0.  1.
          2   -1    0    0  501    0  0.00000000000E+00 -0.00000000000E+00 -0.92982712675E+03  0.92982712675E+03  0.25500000000E-02 0. -1.
    8880023    1    1    2    0    0 -0.31713023513E+03  0.13441765945E+04  0.85391835367E+02  0.15324765170E+04  0.65864270000E+03 0.  0.
    8880022    1    1    2    0    0  0.31713023513E+03 -0.13441765945E+04  0.21336526304E+04  0.25462222023E+04  0.15294330000E+03 0.  0.
<mgrwt>
<rscale>  0 0.14936724E+04</rscale>
<asrwt>0</asrwt>
<pdfrwt beam="1">  1        2 0.14305033E+00 0.15300956E+04</pdfrwt>
<pdfrwt beam="2">  1       -2 0.48444179E+00 0.15300956E+04</pdfrwt>
<totfact> 0.54520012E-02</totfact>
</mgrwt>
</event>
<event>
 4    2  0.3747163E-007  0.7890106E+03  0.7818608E-02  0.9735081E-01
         -2   -1    0    0    0  501 -0.00000000000E+00  0.00000000000E+00  0.30453674926E+03  0.30453674927E+03  0.25500000000E-02 0.  1.
          2   -1    0    0  501    0  0.00000000000E+00 -0.00000000000E+00 -0.25167273454E+04  0.25167273454E+04  0.25500000000E-02 0. -1.
    8880023    1    1    2    0    0 -0.33244263388E+03  0.27965938531E+03 -0.22247602016E+04  0.23605286775E+04  0.65864270000E+03 0.  0.
    8880022    1    1    2    0    0  0.33244263388E+03 -0.27965938531E+03  0.12569605447E+02  0.46073541715E+03  0.15294330000E+03 0.  0.
<mgrwt>
<rscale>  0 0.68965930E+03</rscale>
<asrwt>0</asrwt>
<pdfrwt beam="1">  1        2 0.38718881E+00 0.78901057E+03</pdfrwt>
<pdfrwt beam="2">  1       -2 0.46851809E-01 0.78901057E+03</pdfrwt>
<totfact> 0.15306042E+01</totfact>
</mgrwt>
</event>
<event>
 4    2  0.3747163E-007  0.8702570E+03  0.7818608E-02  0.9575572E-01
         -2   -1    0    0    0  501 -0.00000000000E+00  0.00000000000E+00  0.48404360168E+03  0.48404360168E+03  0.25500000000E-02 0.  1.
          2   -1    0    0  501    0  0.00000000000E+00 -0.00000000000E+00 -0.15692474254E+04  0.15692474254E+04  0.25500000000E-02 0. -1.
    8880023    1    1    2    0    0  0.54420550116E+03  0.16546142948E+03 -0.11700488628E+04  0.14582049444E+04  0.65864270000E+03 0.  0.
    8880022    1    1    2    0    0 -0.54420550116E+03 -0.16546142948E+03  0.84845039116E+02  0.59508608269E+03  0.15294330000E+03 0.  0.
<mgrwt>
<rscale>  0 0.78934288E+03</rscale>
<asrwt>0</asrwt>
<pdfrwt beam="1">  1        2 0.24142268E+00 0.87025704E+03</pdfrwt>
<pdfrwt beam="2">  1       -2 0.74468247E-01 0.87025704E+03</pdfrwt>
<totfact> 0.19031626E+01</totfact>
</mgrwt>
</event>
<event>
 4    2  0.3747163E-007  0.7113412E+03  0.7818608E-02  0.9953054E-01
          2   -1    0    0  501    0  0.00000000000E+00  0.00000000000E+00  0.11894746395E+04  0.11894746395E+04  0.25500000000E-02 0. -1.
         -2   -1    0    0    0  501 -0.00000000000E+00 -0.00000000000E+00 -0.13314706515E+04  0.13314706515E+04  0.25500000000E-02 0.  1.
    8880023    1    1    2    0    0 -0.18625409173E+03 -0.19366346472E+03  0.10618140180E+04  0.12780670324E+04  0.65864270000E+03 0. -1.
    8880022    1    1    2    0    0  0.18625409173E+03  0.19366346472E+03 -0.12038100300E+04  0.12428782585E+04  0.15294330000E+03 0.  0.
<mgrwt>
<rscale>  0 0.57757552E+03</rscale>
<asrwt>0</asrwt>
<pdfrwt beam="1">  1        2 0.18299610E+00 0.71134122E+03</pdfrwt>
<pdfrwt beam="2">  1       -2 0.20484164E+00 0.71134122E+03</pdfrwt>
<totfact> 0.24578877E+00</totfact>
</mgrwt>
</event>
<event>
 4    2  0.3747163E-007  0.1051608E+04  0.7818608E-02  0.9316951E-01
         -2   -1    0    0    0  501 -0.00000000000E+00  0.00000000000E+00  0.97845202447E+03  0.97845202448E+03  0.25500000000E-02 0.  1.
          2   -1    0    0  501    0  0.00000000000E+00 -0.00000000000E+00 -0.19457945581E+04  0.19457945581E+04  0.25500000000E-02 0. -1.
    8880023    1    1    2    0    0 -0.47043593596E+03 -0.67138543224E+03  0.55453414462E+03  0.11888594081E+04  0.65864270000E+03 0.  0.
    8880022    1    1    2    0    0  0.47043593596E+03  0.67138543224E+03 -0.15218766782E+04  0.17353871744E+04  0.15294330000E+03 0.  0.
<mgrwt>
<rscale>  0 0.99237157E+03</rscale>
<asrwt>0</asrwt>
<pdfrwt beam="1">  1        2 0.29935301E+00 0.10516076E+04</pdfrwt>
<pdfrwt beam="2">  1       -2 0.15053108E+00 0.10516076E+04</pdfrwt>
<totfact> 0.21049502E+00</totfact>
</mgrwt>
</event>
<event>
 4    2  0.3747163E-007  0.6728280E+03  0.7818608E-02  0.1013712E+00
         -2   -1    0    0    0  501 -0.00000000000E+00  0.00000000000E+00  0.14433765761E+03  0.14433765764E+03  0.25500000000E-02 0.  1.
          2   -1    0    0  501    0  0.00000000000E+00 -0.00000000000E+00 -0.17837794841E+04  0.17837794841E+04  0.25500000000E-02 0. -1.
    8880023    1    1    2    0    0 -0.51612627411E+02  0.12737141771E+03 -0.15749070693E+04  0.17126090694E+04  0.65864270000E+03 0. -1.
    8880022    1    1    2    0    0  0.51612627411E+02 -0.12737141771E+03 -0.64534757229E+02  0.21550807239E+03  0.15294330000E+03 0.  0.
<mgrwt>
<rscale>  0 0.50025753E+03</rscale>
<asrwt>0</asrwt>
<pdfrwt beam="1">  1        2 0.27442760E+00 0.67282802E+03</pdfrwt>
<pdfrwt beam="2">  1       -2 0.22205795E-01 0.67282802E+03</pdfrwt>
<totfact> 0.16055492E+02</totfact>
</mgrwt>
</event>
<event>
 4    2  0.3747163E-007  0.7326134E+03  0.7818608E-02  0.9882011E-01
         -2   -1    0    0    0  501 -0.00000000000E+00  0.00000000000E+00  0.18949690099E+04  0.18949690099E+04  0.25500000000E-02 0.  1.
          2   -1    0    0  501    0  0.00000000000E+00 -0.00000000000E+00 -0.17678569158E+03  0.17678569160E+03  0.25500000000E-02 0. -1.
    8880023    1    1    2    0    0 -0.69216724930E+02 -0.31324317007E+03  0.78779121925E+03  0.10757961935E+04  0.65864270000E+03 0.  0.
    8880022    1    1    2    0    0  0.69216724930E+02  0.31324317007E+03  0.93039209909E+03  0.99595850801E+03  0.15294330000E+03 0.  0.
<mgrwt>
<rscale>  0 0.61141100E+03</rscale>
<asrwt>0</asrwt>
<pdfrwt beam="1">  1        2 0.27197800E-01 0.73261343E+03</pdfrwt>
<pdfrwt beam="2">  1       -2 0.29153368E+00 0.73261343E+03</pdfrwt>
<totfact> 0.73982292E+00</totfact>
</mgrwt>
</event>
<event>
 4    2  0.3747163E-007  0.7343725E+03  0.7818608E-02  0.9876654E-01
         -2   -1    0    0    0  501 -0.00000000000E+00  0.00000000000E+00  0.55932857461E+03  0.55932857461E+03  0.25500000000E-02 0.  1.
          2   -1    0    0  501    0  0.00000000000E+00 -0.00000000000E+00 -0.99931997092E+03  0.99931997092E+03  0.25500000000E-02 0. -1.
    8880023    1    1    2    0    0 -0.32392791878E+03  0.23736121100E+02 -0.77495720467E+03  0.10676430000E+04  0.65864270000E+03 0. -1.
    8880022    1    1    2    0    0  0.32392791878E+03 -0.23736121100E+02  0.33496580836E+03  0.49100554559E+03  0.15294330000E+03 0.  0.
<mgrwt>
<rscale>  0 0.61406212E+03</rscale>
<asrwt>0</asrwt>
<pdfrwt beam="1">  1        2 0.15374153E+00 0.73437246E+03</pdfrwt>
<pdfrwt beam="2">  1       -2 0.86050550E-01 0.73437246E+03</pdfrwt>
<totfact> 0.30062586E+01</totfact>
</mgrwt>
</event>
<event>
 4    2  0.3747163E-007  0.6631645E+03  0.7818608E-02  0.1021126E+00
         -2   -1    0    0    0  501 -0.00000000000E+00  0.00000000000E+00  0.16022869316E+03  0.16022869318E+03  0.25500000000E-02 0.  1.
          2   -1    0    0  501    0  0.00000000000E+00 -0.00000000000E+00 -0.12541296483E+04  0.12541296483E+04  0.25500000000E-02 0. -1.
    8880023    1    1    2    0    0 -0.36389920373E+02  0.68210699528E+02 -0.10423008684E+04  0.12353858637E+04  0.65864270000E+03 0.  0.
    8880022    1    1    2    0    0  0.36389920373E+02 -0.68210699528E+02 -0.51600086831E+02  0.17897247780E+03  0.15294330000E+03 0.  0.
<mgrwt>
<rscale>  0 0.47282596E+03</rscale>
<asrwt>0</asrwt>
<pdfrwt beam="1">  1        2 0.19294302E+00 0.66316448E+03</pdfrwt>
<pdfrwt beam="2">  1       -2 0.24650569E-01 0.66316448E+03</pdfrwt>
<totfact> 0.26285224E+02</totfact>
</mgrwt>
</event>
<event>
 4    2  0.3747163E-007  0.8405668E+03  0.7818608E-02  0.9629112E-01
          2   -1    0    0  501    0  0.00000000000E+00  0.00000000000E+00  0.33932300320E+03  0.33932300321E+03  0.25500000000E-02 0. -1.
         -2   -1    0    0    0  501 -0.00000000000E+00 -0.00000000000E+00 -0.16010985585E+04  0.16010985585E+04  0.25500000000E-02 0.  1.
    8880023    1    1    2    0    0  0.46880931483E+03  0.23013067689E+03 -0.42407488977E+03  0.94148394597E+03  0.65864270000E+03 0. -1.
    8880022    1    1    2    0    0 -0.46880931483E+03 -0.23013067689E+03 -0.83770066553E+03  0.99893761575E+03  0.15294330000E+03 0.  0.
<mgrwt>
<rscale>  0 0.75398932E+03</rscale>
<asrwt>0</asrwt>
<pdfrwt beam="1">  1        2 0.52203540E-01 0.84056678E+03</pdfrwt>
<pdfrwt beam="2">  1       -2 0.24632285E+00 0.84056678E+03</pdfrwt>
<totfact> 0.65859792E+00</totfact>
</mgrwt>
</event>
<event>
 4    2  0.3747163E-007  0.8227476E+03  0.7818608E-02  0.9663612E-01
          2   -1    0    0  501    0  0.00000000000E+00  0.00000000000E+00  0.17016194080E+04  0.17016194080E+04  0.25500000000E-02 0. -1.
         -2   -1    0    0    0  501 -0.00000000000E+00 -0.00000000000E+00 -0.47537914346E+03  0.47537914346E+03  0.25500000000E-02 0.  1.
    8880023    1    1    2    0    0  0.10067119848E+03 -0.48266832871E+03  0.14071159998E+04  0.16299966407E+04  0.65864270000E+03 0.  0.
    8880022    1    1    2    0    0 -0.10067119848E+03  0.48266832871E+03 -0.18087573522E+03  0.54700191073E+03  0.15294330000E+03 0.  0.
<mgrwt>
<rscale>  0 0.73225292E+03</rscale>
<asrwt>0</asrwt>
<pdfrwt beam="1">  1        2 0.26178761E+00 0.82274760E+03</pdfrwt>
<pdfrwt beam="2">  1       -2 0.73135251E-01 0.82274760E+03</pdfrwt>
<totfact> 0.16831584E+01</totfact>
</mgrwt>
</event>
<event>
 4    2  0.3747163E-007  0.7472885E+03  0.7818608E-02  0.9839203E-01
         -2   -1    0    0    0  501 -0.00000000000E+00  0.00000000000E+00  0.13873107854E+03  0.13873107857E+03  0.25500000000E-02 0.  1.
          2   -1    0    0  501    0  0.00000000000E+00 -0.00000000000E+00 -0.32560863888E+04  0.32560863888E+04  0.25500000000E-02 0. -1.
    8880023    1    1    2    0    0  0.88367947961E+02 -0.34179084546E+03 -0.27941064567E+04  0.28923123921E+04  0.65864270000E+03 0. -1.
    8880022    1    1    2    0    0 -0.88367947961E+02  0.34179084546E+03 -0.32324885359E+03  0.50250507523E+03  0.15294330000E+03 0.  0.
<mgrwt>
<rscale>  0 0.63300455E+03</rscale>
<asrwt>0</asrwt>
<pdfrwt beam="1">  1        2 0.50093631E+00 0.74728849E+03</pdfrwt>
<pdfrwt beam="2">  1       -2 0.21343245E-01 0.74728849E+03</pdfrwt>
<totfact> 0.24193769E+01</totfact>
</mgrwt>
</event>
<event>
 4    2  0.3747163E-007  0.7838365E+03  0.7818608E-02  0.9746901E-01
          2   -1    0    0  501    0  0.00000000000E+00  0.00000000000E+00  0.84379946469E+03  0.84379946469E+03  0.25500000000E-02 0. -1.
         -2   -1    0    0    0  501 -0.00000000000E+00 -0.00000000000E+00 -0.46963068589E+03  0.46963068589E+03  0.25500000000E-02 0.  1.
    8880023    1    1    2    0    0  0.38680084175E+03 -0.17599608965E+03  0.11363939780E+03  0.79203133382E+03  0.65864270000E+03 0.  0.
    8880022    1    1    2    0    0 -0.38680084175E+03  0.17599608965E+03  0.26052938100E+03  0.52139881677E+03  0.15294330000E+03 0.  0.
<mgrwt>
<rscale>  0 0.68291694E+03</rscale>
<asrwt>0</asrwt>
<pdfrwt beam="1">  1        2 0.12981530E+00 0.78383654E+03</pdfrwt>
<pdfrwt beam="2">  1       -2 0.72250875E-01 0.78383654E+03</pdfrwt>
<totfact> 0.56218670E+01</totfact>
</mgrwt>
</event>
<event>
 4    2  0.3747163E-007  0.6723444E+03  0.7818608E-02  0.1014035E+00
          2   -1    0    0  501    0  0.00000000000E+00  0.00000000000E+00  0.69550741028E+03  0.69550741029E+03  0.25500000000E-02 0. -1.
         -2   -1    0    0    0  501 -0.00000000000E+00 -0.00000000000E+00 -0.76140380570E+03  0.76140380571E+03  0.25500000000E-02 0.  1.
    8880023    1    1    2    0    0 -0.10874969849E+03 -0.80063982775E+02  0.51132637608E+03  0.84469024346E+03  0.65864270000E+03 0. -1.
    8880022    1    1    2    0    0  0.10874969849E+03  0.80063982775E+02 -0.57722277150E+03  0.61222097253E+03  0.15294330000E+03 0.  0.
<mgrwt>
<rscale>  0 0.49901952E+03</rscale>
<asrwt>0</asrwt>
<pdfrwt beam="1">  1        2 0.10700114E+00 0.67234436E+03</pdfrwt>
<pdfrwt beam="2">  1       -2 0.11713905E+00 0.67234436E+03</pdfrwt>
<totfact> 0.23775058E+01</totfact>
</mgrwt>
</event>
<event>
 4    2  0.3747163E-007  0.6824635E+03  0.7818608E-02  0.1007963E+00
          2   -1    0    0  501    0  0.00000000000E+00  0.00000000000E+00  0.14867814825E+04  0.14867814825E+04  0.25500000000E-02 0. -1.
         -2   -1    0    0    0  501 -0.00000000000E+00 -0.00000000000E+00 -0.45864022728E+03  0.45864022728E+03  0.25500000000E-02 0.  1.
    8880023    1    1    2    0    0  0.16152221374E+03  0.76530142527E+02  0.13699252316E+04  0.15305069862E+04  0.65864270000E+03 0.  0.
    8880022    1    1    2    0    0 -0.16152221374E+03 -0.76530142527E+02 -0.34178397645E+03  0.41491472356E+03  0.15294330000E+03 0.  1.
<mgrwt>
<rscale>  0 0.52292267E+03</rscale>
<asrwt>0</asrwt>
<pdfrwt beam="1">  1        2 0.22873561E+00 0.68246355E+03</pdfrwt>
<pdfrwt beam="2">  1       -2 0.70560036E-01 0.68246355E+03</pdfrwt>
<totfact> 0.24348338E+01</totfact>
</mgrwt>
</event>
<event>
 4    2  0.3747163E-007  0.8824015E+03  0.7818608E-02  0.9554895E-01
         -2   -1    0    0    0  501 -0.00000000000E+00  0.00000000000E+00  0.19994874809E+04  0.19994874809E+04  0.25500000000E-02 0.  1.
          2   -1    0    0  501    0  0.00000000000E+00 -0.00000000000E+00 -0.50977449966E+03  0.50977449967E+03  0.25500000000E-02 0. -1.
    8880023    1    1    2    0    0 -0.14826481146E+03  0.56818989439E+03 -0.19511776929E+02  0.88261720247E+03  0.65864270000E+03 0. -1.
    8880022    1    1    2    0    0  0.14826481146E+03 -0.56818989439E+03  0.15092247581E+04  0.16266447781E+04  0.15294330000E+03 0.  0.
<mgrwt>
<rscale>  0 0.80354869E+03</rscale>
<asrwt>0</asrwt>
<pdfrwt beam="1">  1        2 0.78426848E-01 0.88240151E+03</pdfrwt>
<pdfrwt beam="2">  1       -2 0.30761345E+00 0.88240151E+03</pdfrwt>
<totfact> 0.17584682E+00</totfact>
</mgrwt>
</event>
<event>
 4    2  0.3747163E-007  0.7727420E+03  0.7818608E-02  0.9773171E-01
          2   -1    0    0  501    0  0.00000000000E+00  0.00000000000E+00  0.87377184578E+03  0.87377184579E+03  0.25500000000E-02 0. -1.
         -2   -1    0    0    0  501 -0.00000000000E+00 -0.00000000000E+00 -0.12236137778E+04  0.12236137778E+04  0.25500000000E-02 0.  1.
    8880023    1    1    2    0    0 -0.35237080816E+03 -0.19787589931E+03  0.64897540124E+03  0.10091081883E+04  0.65864270000E+03 0. -1.
    8880022    1    1    2    0    0  0.35237080816E+03  0.19787589931E+03 -0.99881733329E+03  0.10882774353E+04  0.15294330000E+03 0.  0.
<mgrwt>
<rscale>  0 0.66822443E+03</rscale>
<asrwt>0</asrwt>
<pdfrwt beam="1">  1        2 0.13442644E+00 0.77274204E+03</pdfrwt>
<pdfrwt beam="2">  1       -2 0.18824827E+00 0.77274204E+03</pdfrwt>
<totfact> 0.49536761E+00</totfact>
</mgrwt>
</event>
<event>
 4    2  0.3747163E-007  0.6972392E+03  0.7818608E-02  0.1000885E+00
          2   -1    0    0  501    0  0.00000000000E+00  0.00000000000E+00  0.27475833295E+04  0.27475833295E+04  0.25500000000E-02 0. -1.
         -2   -1    0    0    0  501 -0.00000000000E+00 -0.00000000000E+00 -0.44421547394E+03  0.44421547395E+03  0.25500000000E-02 0.  1.
    8880023    1    1    2    0    0 -0.22825494144E+03  0.15231026971E+02  0.26551511022E+04  0.27451721047E+04  0.65864270000E+03 0. -1.
    8880022    1    1    2    0    0  0.22825494144E+03 -0.15231026971E+02 -0.35178324662E+03  0.44662669881E+03  0.15294330000E+03 0.  0.
<mgrwt>
<rscale>  0 0.55263770E+03</rscale>
<asrwt>0</asrwt>
<pdfrwt beam="1">  1        2 0.42270514E+00 0.69723920E+03</pdfrwt>
<pdfrwt beam="2">  1       -2 0.68340841E-01 0.69723920E+03</pdfrwt>
<totfact> 0.52045850E+00</totfact>
</mgrwt>
</event>
<event>
 4    2  0.3747163E-007  0.8439338E+03  0.7818608E-02  0.9622807E-01
         -2   -1    0    0    0  501 -0.00000000000E+00  0.00000000000E+00  0.45262927836E+03  0.45262927836E+03  0.25500000000E-02 0.  1.
          2   -1    0    0  501    0  0.00000000000E+00 -0.00000000000E+00 -0.13213372906E+04  0.13213372906E+04  0.25500000000E-02 0. -1.
    8880023    1    1    2    0    0 -0.46895384304E+03  0.24186001097E+03 -0.88694716668E+03  0.12242954932E+04  0.65864270000E+03 0.  0.
    8880022    1    1    2    0    0  0.46895384304E+03 -0.24186001097E+03  0.18239154437E+02  0.54967107581E+03  0.15294330000E+03 0.  0.
<mgrwt>
<rscale>  0 0.75804883E+03</rscale>
<asrwt>0</asrwt>
<pdfrwt beam="1">  1        2 0.20328266E+00 0.84393375E+03</pdfrwt>
<pdfrwt beam="2">  1       -2 0.69635274E-01 0.84393375E+03</pdfrwt>
<totfact> 0.30529387E+01</totfact>
</mgrwt>
</event>
<event>
 4    2  0.3747163E-007  0.6768972E+03  0.7818608E-02  0.1011136E+00
         -2   -1    0    0    0  501 -0.00000000000E+00  0.00000000000E+00  0.29833814512E+03  0.29833814514E+03  0.25500000000E-02 0.  1.
          2   -1    0    0  501    0  0.00000000000E+00 -0.00000000000E+00 -0.30419779806E+04  0.30419779806E+04  0.25500000000E-02 0. -1.
    8880023    1    1    2    0    0  0.14540046891E+03  0.56905928303E+02 -0.29578300704E+04  0.30342953898E+04  0.65864270000E+03 0. -1.
    8880022    1    1    2    0    0 -0.14540046891E+03 -0.56905928303E+02  0.21419023495E+03  0.30602073590E+03  0.15294330000E+03 0.  0.
<mgrwt>
<rscale>  0 0.51025566E+03</rscale>
<asrwt>0</asrwt>
<pdfrwt beam="1">  1        2 0.46799659E+00 0.67689718E+03</pdfrwt>
<pdfrwt beam="2">  1       -2 0.45898178E-01 0.67689718E+03</pdfrwt>
<totfact> 0.79723975E+00</totfact>
</mgrwt>
</event>
<event>
 4    2  0.3747163E-007  0.8900010E+03  0.7818608E-02  0.9542278E-01
         -2   -1    0    0    0  501 -0.00000000000E+00  0.00000000000E+00  0.51681088787E+03  0.51681088788E+03  0.25500000000E-02 0.  1.
          2   -1    0    0  501    0  0.00000000000E+00 -0.00000000000E+00 -0.14175003039E+04  0.14175003039E+04  0.25500000000E-02 0. -1.
    8880023    1    1    2    0    0  0.24609809165E+03 -0.54564400184E+03 -0.96549138577E+03  0.13131167007E+04  0.65864270000E+03 0. -1.
    8880022    1    1    2    0    0 -0.24609809165E+03  0.54564400184E+03  0.64801969711E+02  0.62119449108E+03  0.15294330000E+03 0.  1.
<mgrwt>
<rscale>  0 0.81237356E+03</rscale>
<asrwt>0</asrwt>
<pdfrwt beam="1">  1        2 0.21807697E+00 0.89000104E+03</pdfrwt>
<pdfrwt beam="2">  1       -2 0.79509368E-01 0.89000104E+03</pdfrwt>
<totfact> 0.19958122E+01</totfact>
</mgrwt>
</event>
<event>
 4    2  0.3747163E-007  0.1221291E+04  0.7818608E-02  0.9136699E-01
         -2   -1    0    0    0  501 -0.00000000000E+00  0.00000000000E+00  0.25718720066E+04  0.25718720066E+04  0.25500000000E-02 0.  1.
          2   -1    0    0  501    0  0.00000000000E+00 -0.00000000000E+00 -0.70956939917E+03  0.70956939917E+03  0.25500000000E-02 0. -1.
    8880023    1    1    2    0    0  0.52723154280E+03 -0.88304478778E+03  0.18795932193E+04  0.22415222670E+04  0.65864270000E+03 0.  0.
    8880022    1    1    2    0    0 -0.52723154280E+03  0.88304478778E+03 -0.17290611891E+02  0.10399191388E+04  0.15294330000E+03 0.  0.
<mgrwt>
<rscale>  0 0.11731383E+04</rscale>
<asrwt>0</asrwt>
<pdfrwt beam="1">  1        2 0.10916452E+00 0.12212909E+04</pdfrwt>
<pdfrwt beam="2">  1       -2 0.39567261E+00 0.12212909E+04</pdfrwt>
<totfact> 0.31486431E-01</totfact>
</mgrwt>
</event>
<event>
 4    2  0.3747163E-007  0.6875872E+03  0.7818608E-02  0.1005321E+00
          2   -1    0    0  501    0  0.00000000000E+00  0.00000000000E+00  0.98820818968E+03  0.98820818968E+03  0.25500000000E-02 0. -1.
         -2   -1    0    0    0  501 -0.00000000000E+00 -0.00000000000E+00 -0.33452177358E+03  0.33452177359E+03  0.25500000000E-02 0.  1.
    8880023    1    1    2    0    0 -0.15409570256E+03  0.12337101938E+03  0.78256266641E+03  0.10417199370E+04  0.65864270000E+03 0. -1.
    8880022    1    1    2    0    0  0.15409570256E+03 -0.12337101938E+03 -0.12887625031E+03  0.28101002630E+03  0.15294330000E+03 0.  0.
<mgrwt>
<rscale>  0 0.53377342E+03</rscale>
<asrwt>0</asrwt>
<pdfrwt beam="1">  1        2 0.15203203E+00 0.68758716E+03</pdfrwt>
<pdfrwt beam="2">  1       -2 0.51464889E-01 0.68758716E+03</pdfrwt>
<totfact> 0.93137822E+01</totfact>
</mgrwt>
</event>
<event>
 4    2  0.3747163E-007  0.1118951E+04  0.7818608E-02  0.9240244E-01
          2   -1    0    0  501    0  0.00000000000E+00  0.00000000000E+00  0.18419223739E+04  0.18419223739E+04  0.25500000000E-02 0. -1.
         -2   -1    0    0    0  501 -0.00000000000E+00 -0.00000000000E+00 -0.59435318010E+03  0.59435318011E+03  0.25500000000E-02 0.  1.
    8880023    1    1    2    0    0 -0.15502013805E+03  0.89118467420E+03  0.96148523438E+03  0.14752984203E+04  0.65864270000E+03 0.  0.
    8880022    1    1    2    0    0  0.15502013805E+03 -0.89118467420E+03  0.28608395946E+03  0.96097713376E+03  0.15294330000E+03 0.  0.
<mgrwt>
<rscale>  0 0.10647525E+04</rscale>
<asrwt>0</asrwt>
<pdfrwt beam="1">  1        2 0.28337267E+00 0.11189511E+04</pdfrwt>
<pdfrwt beam="2">  1       -2 0.91438951E-01 0.11189511E+04</pdfrwt>
<totfact> 0.82229086E+00</totfact>
</mgrwt>
</event>
<event>
 4    2  0.3747163E-007  0.7191302E+03  0.7818608E-02  0.9925540E-01
         -2   -1    0    0    0  501 -0.00000000000E+00  0.00000000000E+00  0.21471133281E+03  0.21471133283E+03  0.25500000000E-02 0.  1.
          2   -1    0    0  501    0  0.00000000000E+00 -0.00000000000E+00 -0.20490763460E+04  0.20490763460E+04  0.25500000000E-02 0. -1.
    8880023    1    1    2    0    0 -0.28858305980E+03  0.76069465532E+01 -0.17962771576E+04  0.19348798105E+04  0.65864270000E+03 0.  0.
    8880022    1    1    2    0    0  0.28858305980E+03 -0.76069465532E+01 -0.38087855540E+02  0.32890786825E+03  0.15294330000E+03 0.  0.
<mgrwt>
<rscale>  0 0.59039315E+03</rscale>
<asrwt>0</asrwt>
<pdfrwt beam="1">  1        2 0.31524250E+00 0.71913021E+03</pdfrwt>
<pdfrwt beam="2">  1       -2 0.33032514E-01 0.71913021E+03</pdfrwt>
<totfact> 0.55488373E+01</totfact>
</mgrwt>
</event>
<event>
 4    2  0.3747163E-007  0.6899827E+03  0.7818608E-02  0.1004161E+00
         -2   -1    0    0    0  501 -0.00000000000E+00  0.00000000000E+00  0.13080535942E+04  0.13080535942E+04  0.25500000000E-02 0.  1.
          2   -1    0    0  501    0  0.00000000000E+00 -0.00000000000E+00 -0.66027522717E+03  0.66027522718E+03  0.25500000000E-02 0. -1.
    8880023    1    1    2    0    0  0.14656879408E+03  0.14416508243E+03 -0.46133326218E+03  0.83000275147E+03  0.65864270000E+03 0.  0.
    8880022    1    1    2    0    0 -0.14656879408E+03 -0.14416508243E+03  0.11091116292E+04  0.11383260700E+04  0.15294330000E+03 0.  0.
<mgrwt>
<rscale>  0 0.53862850E+03</rscale>
<asrwt>0</asrwt>
<pdfrwt beam="1">  1        2 0.10158080E+00 0.68998275E+03</pdfrwt>
<pdfrwt beam="2">  1       -2 0.20123901E+00 0.68998275E+03</pdfrwt>
<totfact> 0.59216929E+00</totfact>
</mgrwt>
</event>
<event>
 4    2  0.3747163E-007  0.1088397E+04  0.7818608E-02  0.9274085E-01
          2   -1    0    0  501    0  0.00000000000E+00  0.00000000000E+00  0.24473059606E+04  0.24473059606E+04  0.25500000000E-02 0. -1.
         -2   -1    0    0    0  501 -0.00000000000E+00 -0.00000000000E+00 -0.52474403272E+03  0.52474403273E+03  0.25500000000E-02 0.  1.
    8880023    1    1    2    0    0  0.75419102672E+03  0.42660806248E+03  0.17717289964E+04  0.20793346019E+04  0.65864270000E+03 0.  0.
    8880022    1    1    2    0    0 -0.75419102672E+03 -0.42660806248E+03  0.15083293141E+03  0.89271539136E+03  0.15294330000E+03 0.  0.
<mgrwt>
<rscale>  0 0.10320401E+04</rscale>
<asrwt>0</asrwt>
<pdfrwt beam="1">  1        2 0.37650861E+00 0.10883973E+04</pdfrwt>
<pdfrwt beam="2">  1       -2 0.80729851E-01 0.10883973E+04</pdfrwt>
<totfact> 0.50476593E+00</totfact>
</mgrwt>
</event>
<event>
 4    2  0.3747163E-007  0.7429028E+03  0.7818608E-02  0.9851571E-01
         -2   -1    0    0    0  501 -0.00000000000E+00  0.00000000000E+00  0.42760405371E+03  0.42760405372E+03  0.25500000000E-02 0.  1.
          2   -1    0    0  501    0  0.00000000000E+00 -0.00000000000E+00 -0.82570503882E+03  0.82570503883E+03  0.25500000000E-02 0. -1.
    8880023    1    1    2    0    0  0.59298236427E+02  0.33849394049E+03 -0.45754060165E+03  0.87249529340E+03  0.65864270000E+03 0. -1.
    8880022    1    1    2    0    0 -0.59298236427E+02 -0.33849394049E+03  0.59439616540E+02  0.38081379914E+03  0.15294330000E+03 0.  0.
<mgrwt>
<rscale>  0 0.62666903E+03</rscale>
<asrwt>0</asrwt>
<pdfrwt beam="1">  1        2 0.12703154E+00 0.74290284E+03</pdfrwt>
<pdfrwt beam="2">  1       -2 0.65785239E-01 0.74290284E+03</pdfrwt>
<totfact> 0.71206789E+01</totfact>
</mgrwt>
</event>
<event>
 4    2  0.3747163E-007  0.9005144E+03  0.7818608E-02  0.9525206E-01
          2   -1    0    0  501    0  0.00000000000E+00  0.00000000000E+00  0.10530454212E+04  0.10530454212E+04  0.25500000000E-02 0. -1.
         -2   -1    0    0    0  501 -0.00000000000E+00 -0.00000000000E+00 -0.11634201113E+04  0.11634201113E+04  0.25500000000E-02 0.  1.
    8880023    1    1    2    0    0  0.57459062279E+03 -0.21670642244E+03 -0.85326472233E+03  0.12405591280E+04  0.65864270000E+03 0.  1.
    8880022    1    1    2    0    0 -0.57459062279E+03  0.21670642244E+03  0.74289003226E+03  0.97590640451E+03  0.15294330000E+03 0.  0.
<mgrwt>
<rscale>  0 0.82450705E+03</rscale>
<asrwt>0</asrwt>
<pdfrwt beam="1">  1        2 0.16200699E+00 0.90051444E+03</pdfrwt>
<pdfrwt beam="2">  1       -2 0.17898771E+00 0.90051444E+03</pdfrwt>
<totfact> 0.43045555E+00</totfact>
</mgrwt>
</event>
<event>
 4    2  0.3747163E-007  0.7560368E+03  0.7818608E-02  0.9815478E-01
         -2   -1    0    0    0  501 -0.00000000000E+00  0.00000000000E+00  0.11589615592E+04  0.11589615592E+04  0.25500000000E-02 0.  1.
          2   -1    0    0  501    0  0.00000000000E+00 -0.00000000000E+00 -0.96893892181E+03  0.96893892181E+03  0.25500000000E-02 0. -1.
    8880023    1    1    2    0    0  0.25425503347E+03 -0.27043635580E+03 -0.77500703728E+03  0.10826945824E+04  0.65864270000E+03 0. -1.
    8880022    1    1    2    0    0 -0.25425503347E+03  0.27043635580E+03  0.96502967466E+03  0.10452058986E+04  0.15294330000E+03 0.  0.
<mgrwt>
<rscale>  0 0.64538486E+03</rscale>
<asrwt>0</asrwt>
<pdfrwt beam="1">  1        2 0.14906753E+00 0.75603681E+03</pdfrwt>
<pdfrwt beam="2">  1       -2 0.17830178E+00 0.75603681E+03</pdfrwt>
<totfact> 0.50136403E+00</totfact>
</mgrwt>
</event>
<event>
 4    2  0.3747163E-007  0.7168663E+03  0.7818608E-02  0.9933336E-01
         -2   -1    0    0    0  501 -0.00000000000E+00  0.00000000000E+00  0.70529721863E+02  0.70529721909E+02  0.25500000000E-02 0.  1.
          2   -1    0    0  501    0  0.00000000000E+00 -0.00000000000E+00 -0.38584251324E+04  0.38584251324E+04  0.25500000000E-02 0. -1.
    8880023    1    1    2    0    0  0.23385923031E+03 -0.15936398044E+03 -0.24341770429E+04  0.25375411525E+04  0.65864270000E+03 0. -1.
    8880022    1    1    2    0    0 -0.23385923031E+03  0.15936398044E+03 -0.13537183675E+04  0.13914137018E+04  0.15294330000E+03 0.  1.
<mgrwt>
<rscale>  0 0.58672549E+03</rscale>
<asrwt>0</asrwt>
<pdfrwt beam="1">  1        2 0.59360370E+00 0.71686625E+03</pdfrwt>
<pdfrwt beam="2">  1       -2 0.10850729E-01 0.71686625E+03</pdfrwt>
<totfact> 0.29258924E+01</totfact>
</mgrwt>
</event>
<event>
 4    2  0.3747163E-007  0.6663903E+03  0.7818608E-02  0.1018394E+00
          2   -1    0    0  501    0  0.00000000000E+00  0.00000000000E+00  0.11719673496E+04  0.11719673496E+04  0.25500000000E-02 0. -1.
         -2   -1    0    0    0  501 -0.00000000000E+00 -0.00000000000E+00 -0.23207816231E+03  0.23207816232E+03  0.25500000000E-02 0.  1.
    8880023    1    1    2    0    0 -0.97985394256E+02 -0.25780674944E+02  0.10079898759E+04  0.12083540776E+04  0.65864270000E+03 0. -1.
    8880022    1    1    2    0    0  0.97985394256E+02  0.25780674944E+02 -0.68100688560E+02  0.19569143437E+03  0.15294330000E+03 0.  0.
<mgrwt>
<rscale>  0 0.48270479E+03</rscale>
<asrwt>0</asrwt>
<pdfrwt beam="1">  1        2 0.18030267E+00 0.66639027E+03</pdfrwt>
<pdfrwt beam="2">  1       -2 0.35704332E-01 0.66639027E+03</pdfrwt>
<totfact> 0.14797652E+02</totfact>
</mgrwt>
</event>
<event>
 4    2  0.3747163E-007  0.1517226E+04  0.7818608E-02  0.8897567E-01
          2   -1    0    0  501    0  0.00000000000E+00  0.00000000000E+00  0.19160777918E+04  0.19160777918E+04  0.25500000000E-02 0. -1.
         -2   -1    0    0    0  501 -0.00000000000E+00 -0.00000000000E+00 -0.23463247115E+04  0.23463247115E+04  0.25500000000E-02 0.  1.
    8880023    1    1    2    0    0  0.11898230086E+04 -0.67266954400E+03  0.13375409165E+04  0.20226193455E+04  0.65864270000E+03 0.  0.
    8880022    1    1    2    0    0 -0.11898230086E+04  0.67266954400E+03 -0.17677878362E+04  0.22397831578E+04  0.15294330000E+03 0.  0.
<mgrwt>
<rscale>  0 0.14804371E+04</rscale>
<asrwt>0</asrwt>
<pdfrwt beam="1">  1        2 0.29478120E+00 0.15172255E+04</pdfrwt>
<pdfrwt beam="2">  1       -2 0.36097303E+00 0.15172255E+04</pdfrwt>
<totfact> 0.92471503E-02</totfact>
</mgrwt>
</event>
<event>
 4    2  0.3747163E-007  0.7019756E+03  0.7818608E-02  0.9989102E-01
          2   -1    0    0  501    0  0.00000000000E+00  0.00000000000E+00  0.43515037768E+03  0.43515037769E+03  0.25500000000E-02 0. -1.
         -2   -1    0    0    0  501 -0.00000000000E+00 -0.00000000000E+00 -0.58117720871E+03  0.58117720871E+03  0.25500000000E-02 0.  1.
    8880023    1    1    2    0    0 -0.11019448381E+01 -0.24281344072E+03 -0.18697973276E+03  0.72645110503E+03  0.65864270000E+03 0.  0.
    8880022    1    1    2    0    0  0.11019448381E+01  0.24281344072E+03  0.40952901734E+02  0.28987648137E+03  0.15294330000E+03 0.  0.
<mgrwt>
<rscale>  0 0.56130678E+03</rscale>
<asrwt>0</asrwt>
<pdfrwt beam="1">  1        2 0.66946212E-01 0.70197563E+03</pdfrwt>
<pdfrwt beam="2">  1       -2 0.89411879E-01 0.70197563E+03</pdfrwt>
<totfact> 0.78601769E+01</totfact>
</mgrwt>
</event>
<event>
 4    2  0.3747163E-007  0.7337631E+03  0.7818608E-02  0.9878502E-01
         -2   -1    0    0    0  501 -0.00000000000E+00  0.00000000000E+00  0.62101539268E+03  0.62101539268E+03  0.25500000000E-02 0.  1.
          2   -1    0    0  501    0  0.00000000000E+00 -0.00000000000E+00 -0.10855046590E+04  0.10855046590E+04  0.25500000000E-02 0. -1.
    8880023    1    1    2    0    0  0.66257409415E+02  0.31655651793E+03 -0.88812599338E+03  0.11520312755E+04  0.65864270000E+03 0. -1.
    8880022    1    1    2    0    0 -0.66257409415E+02 -0.31655651793E+03  0.42363672708E+03  0.55448877617E+03  0.15294330000E+03 0.  0.
<mgrwt>
<rscale>  0 0.61314584E+03</rscale>
<asrwt>0</asrwt>
<pdfrwt beam="1">  1        2 0.16700072E+00 0.73376310E+03</pdfrwt>
<pdfrwt beam="2">  1       -2 0.95540830E-01 0.73376310E+03</pdfrwt>
<totfact> 0.20850318E+01</totfact>
</mgrwt>
</event>
<event>
 4    2  0.3747163E-007  0.1123467E+04  0.7818608E-02  0.9235368E-01
          2   -1    0    0  501    0  0.00000000000E+00  0.00000000000E+00  0.25092506620E+04  0.25092506620E+04  0.25500000000E-02 0. -1.
         -2   -1    0    0    0  501 -0.00000000000E+00 -0.00000000000E+00 -0.49999666854E+03  0.49999666855E+03  0.25500000000E-02 0.  1.
    8880023    1    1    2    0    0  0.53866668303E+03  0.73362524372E+03  0.47704313157E+03  0.12205523951E+04  0.65864270000E+03 0.  1.
    8880022    1    1    2    0    0 -0.53866668303E+03 -0.73362524372E+03  0.15322108618E+04  0.17886949354E+04  0.15294330000E+03 0. -1.
<mgrwt>
<rscale>  0 0.10695716E+04</rscale>
<asrwt>0</asrwt>
<pdfrwt beam="1">  1        2 0.38603858E+00 0.11234670E+04</pdfrwt>
<pdfrwt beam="2">  1       -2 0.76922562E-01 0.11234670E+04</pdfrwt>
<totfact> 0.51658127E+00</totfact>
</mgrwt>
</event>
<event>
 4    2  0.3747163E-007  0.8068288E+03  0.7818608E-02  0.9696221E-01
         -2   -1    0    0    0  501 -0.00000000000E+00  0.00000000000E+00  0.52056345621E+03  0.52056345621E+03  0.25500000000E-02 0.  1.
          2   -1    0    0  501    0  0.00000000000E+00 -0.00000000000E+00 -0.28205575022E+04  0.28205575022E+04  0.25500000000E-02 0. -1.
    8880023    1    1    2    0    0 -0.15197475406E+03 -0.44052934529E+03 -0.26293358424E+04  0.27503417257E+04  0.65864270000E+03 0.  0.
    8880022    1    1    2    0    0  0.15197475406E+03  0.44052934529E+03  0.32934179638E+03  0.59077923271E+03  0.15294330000E+03 0.  0.
<mgrwt>
<rscale>  0 0.71242248E+03</rscale>
<asrwt>0</asrwt>
<pdfrwt beam="1">  1        2 0.43393191E+00 0.80682875E+03</pdfrwt>
<pdfrwt beam="2">  1       -2 0.80086687E-01 0.80682875E+03</pdfrwt>
<totfact> 0.32512582E+00</totfact>
</mgrwt>
</event>
<event>
 4    2  0.3747163E-007  0.1093352E+04  0.7818608E-02  0.9268494E-01
         -2   -1    0    0    0  501 -0.00000000000E+00  0.00000000000E+00  0.64841544104E+03  0.64841544105E+03  0.25500000000E-02 0.  1.
          2   -1    0    0  501    0  0.00000000000E+00 -0.00000000000E+00 -0.25065901406E+04  0.25065901406E+04  0.25500000000E-02 0. -1.
    8880023    1    1    2    0    0 -0.78922937144E+03 -0.37245971942E+03 -0.19788612744E+04  0.22608209555E+04  0.65864270000E+03 0.  0.
    8880022    1    1    2    0    0  0.78922937144E+03  0.37245971942E+03  0.12068657479E+03  0.89418462617E+03  0.15294330000E+03 0.  0.
<mgrwt>
<rscale>  0 0.10373585E+04</rscale>
<asrwt>0</asrwt>
<pdfrwt beam="1">  1        2 0.38562925E+00 0.10933524E+04</pdfrwt>
<pdfrwt beam="2">  1       -2 0.99756223E-01 0.10933524E+04</pdfrwt>
<totfact> 0.28560543E+00</totfact>
</mgrwt>
</event>
<event>
 4    2  0.3747163E-007  0.7869305E+03  0.7818608E-02  0.9739802E-01
          2   -1    0    0  501    0  0.00000000000E+00  0.00000000000E+00  0.16896857212E+04  0.16896857212E+04  0.25500000000E-02 0. -1.
         -2   -1    0    0    0  501 -0.00000000000E+00 -0.00000000000E+00 -0.10456265604E+04  0.10456265604E+04  0.25500000000E-02 0.  1.
    8880023    1    1    2    0    0 -0.32716783531E+02 -0.42939369245E+03  0.15400803952E+04  0.17294817608E+04  0.65864270000E+03 0. -1.
    8880022    1    1    2    0    0  0.32716783531E+02  0.42939369245E+03 -0.89602123436E+03  0.10058305208E+04  0.15294330000E+03 0.  0.
<mgrwt>
<rscale>  0 0.68695649E+03</rscale>
<asrwt>0</asrwt>
<pdfrwt beam="1">  1        2 0.25995165E+00 0.78693045E+03</pdfrwt>
<pdfrwt beam="2">  1       -2 0.16086562E+00 0.78693045E+03</pdfrwt>
<totfact> 0.25284788E+00</totfact>
</mgrwt>
</event>
<event>
 4    2  0.3747163E-007  0.1113534E+04  0.7818608E-02  0.9246136E-01
         -2   -1    0    0    0  501 -0.00000000000E+00  0.00000000000E+00  0.61157517721E+03  0.61157517722E+03  0.25500000000E-02 0.  1.
          2   -1    0    0  501    0  0.00000000000E+00 -0.00000000000E+00 -0.30893075866E+04  0.30893075866E+04  0.25500000000E-02 0. -1.
    8880023    1    1    2    0    0 -0.24655814055E+03 -0.86334024509E+03 -0.25547110758E+04  0.27868452025E+04  0.65864270000E+03 0.  1.
    8880022    1    1    2    0    0  0.24655814055E+03  0.86334024509E+03  0.76978666405E+02  0.91403756135E+03  0.15294330000E+03 0.  0.
<mgrwt>
<rscale>  0 0.10589663E+04</rscale>
<asrwt>0</asrwt>
<pdfrwt beam="1">  1        2 0.47527808E+00 0.11135338E+04</pdfrwt>
<pdfrwt beam="2">  1       -2 0.94088491E-01 0.11135338E+04</pdfrwt>
<totfact> 0.14643243E+00</totfact>
</mgrwt>
</event>
<event>
 4    2  0.3747163E-007  0.8634561E+03  0.7818608E-02  0.9587445E-01
         -2   -1    0    0    0  501 -0.00000000000E+00  0.00000000000E+00  0.77584941622E+03  0.77584941623E+03  0.25500000000E-02 0.  1.
          2   -1    0    0  501    0  0.00000000000E+00 -0.00000000000E+00 -0.76521230578E+03  0.76521230579E+03  0.25500000000E-02 0. -1.
    8880023    1    1    2    0    0 -0.52546335170E+03 -0.18877088697E+03 -0.26036774912E+03  0.90185794491E+03  0.65864270000E+03 0. -1.
    8880022    1    1    2    0    0  0.52546335170E+03  0.18877088697E+03  0.27100485957E+03  0.63920377711E+03  0.15294330000E+03 0.  1.
<mgrwt>
<rscale>  0 0.78132751E+03</rscale>
<asrwt>0</asrwt>
<pdfrwt beam="1">  1        2 0.11772497E+00 0.86345607E+03</pdfrwt>
<pdfrwt beam="2">  1       -2 0.11936145E+00 0.86345607E+03</pdfrwt>
<totfact> 0.19736486E+01</totfact>
</mgrwt>
</event>
<event>
 4    2  0.3747163E-007  0.7575074E+03  0.7818608E-02  0.9811604E-01
          2   -1    0    0  501    0  0.00000000000E+00  0.00000000000E+00  0.12478997872E+04  0.12478997872E+04  0.25500000000E-02 0. -1.
         -2   -1    0    0    0  501 -0.00000000000E+00 -0.00000000000E+00 -0.27237560317E+03  0.27237560318E+03  0.25500000000E-02 0.  1.
    8880023    1    1    2    0    0 -0.33511852686E+03 -0.16644161382E+03  0.69701965676E+03  0.10293948931E+04  0.65864270000E+03 0.  0.
    8880022    1    1    2    0    0  0.33511852686E+03  0.16644161382E+03  0.27850452731E+03  0.49088049727E+03  0.15294330000E+03 0.  1.
<mgrwt>
<rscale>  0 0.64743518E+03</rscale>
<asrwt>0</asrwt>
<pdfrwt beam="1">  1        2 0.19198459E+00 0.75750739E+03</pdfrwt>
<pdfrwt beam="2">  1       -2 0.41903938E-01 0.75750739E+03</pdfrwt>
<totfact> 0.97174820E+01</totfact>
</mgrwt>
</event>
<event>
 4    2  0.3747163E-007  0.7366386E+03  0.7818608E-02  0.9869849E-01
          2   -1    0    0  501    0  0.00000000000E+00  0.00000000000E+00  0.29699029736E+03  0.29699029737E+03  0.25500000000E-02 0. -1.
         -2   -1    0    0    0  501 -0.00000000000E+00 -0.00000000000E+00 -0.20131134206E+04  0.20131134206E+04  0.25500000000E-02 0.  1.
    8880023    1    1    2    0    0 -0.22242708645E+03  0.24362336014E+03 -0.21761458351E+03  0.76810966900E+03  0.65864270000E+03 0.  0.
    8880022    1    1    2    0    0  0.22242708645E+03 -0.24362336014E+03 -0.14985085397E+04  0.15419940490E+04  0.15294330000E+03 0.  0.
<mgrwt>
<rscale>  0 0.61745040E+03</rscale>
<asrwt>0</asrwt>
<pdfrwt beam="1">  1        2 0.45690816E-01 0.73663855E+03</pdfrwt>
<pdfrwt beam="2">  1       -2 0.30970975E+00 0.73663855E+03</pdfrwt>
<totfact> 0.32119160E+00</totfact>
</mgrwt>
</event>
<event>
 4    2  0.3747163E-007  0.7838082E+03  0.7818608E-02  0.9746966E-01
         -2   -1    0    0    0  501 -0.00000000000E+00  0.00000000000E+00  0.74016222205E+03  0.74016222205E+03  0.25500000000E-02 0.  1.
          2   -1    0    0  501    0  0.00000000000E+00 -0.00000000000E+00 -0.62282576089E+03  0.62282576090E+03  0.25500000000E-02 0. -1.
    8880023    1    1    2    0    0  0.27279175846E+03 -0.32577564632E+03 -0.20257424175E+03  0.80956262568E+03  0.65864270000E+03 0. -1.
    8880022    1    1    2    0    0 -0.27279175846E+03  0.32577564632E+03  0.31991070290E+03  0.55342535727E+03  0.15294330000E+03 0.  0.
<mgrwt>
<rscale>  0 0.68287985E+03</rscale>
<asrwt>0</asrwt>
<pdfrwt beam="1">  1        2 0.95819348E-01 0.78380822E+03</pdfrwt>
<pdfrwt beam="2">  1       -2 0.11387111E+00 0.78380822E+03</pdfrwt>
<totfact> 0.28916824E+01</totfact>
</mgrwt>
</event>
<event>
 4    2  0.3747163E-007  0.8475414E+03  0.7818608E-02  0.9616121E-01
         -2   -1    0    0    0  501 -0.00000000000E+00  0.00000000000E+00  0.22915542685E+03  0.22915542686E+03  0.25500000000E-02 0.  1.
          2   -1    0    0  501    0  0.00000000000E+00 -0.00000000000E+00 -0.52900361257E+04  0.52900361257E+04  0.25500000000E-02 0. -1.
    8880023    1    1    2    0    0 -0.46842419968E+03 -0.25513712846E+03 -0.48532888398E+04  0.49267371508E+04  0.65864270000E+03 0.  0.
    8880022    1    1    2    0    0  0.46842419968E+03  0.25513712846E+03 -0.20759185913E+03  0.59245440175E+03  0.15294330000E+03 0.  0.
<mgrwt>
<rscale>  0 0.76238313E+03</rscale>
<asrwt>0</asrwt>
<pdfrwt beam="1">  1        2 0.81385162E+00 0.84754138E+03</pdfrwt>
<pdfrwt beam="2">  1       -2 0.35254685E-01 0.84754138E+03</pdfrwt>
<totfact> 0.11982079E-01</totfact>
</mgrwt>
</event>
<event>
 4    2  0.3747163E-007  0.8891515E+03  0.7818608E-02  0.9543676E-01
          2   -1    0    0  501    0  0.00000000000E+00  0.00000000000E+00  0.16664841292E+04  0.16664841292E+04  0.25500000000E-02 0. -1.
         -2   -1    0    0    0  501 -0.00000000000E+00 -0.00000000000E+00 -0.48235798969E+03  0.48235798969E+03  0.25500000000E-02 0.  1.
    8880023    1    1    2    0    0  0.13800232373E+03  0.58115023862E+03  0.12442940510E+04  0.15293325776E+04  0.65864270000E+03 0. -1.
    8880022    1    1    2    0    0 -0.13800232373E+03 -0.58115023862E+03 -0.60167911501E+02  0.61950954132E+03  0.15294330000E+03 0.  1.
<mgrwt>
<rscale>  0 0.81138941E+03</rscale>
<asrwt>0</asrwt>
<pdfrwt beam="1">  1        2 0.25638217E+00 0.88915153E+03</pdfrwt>
<pdfrwt beam="2">  1       -2 0.74208922E-01 0.88915153E+03</pdfrwt>
<totfact> 0.16910073E+01</totfact>
</mgrwt>
</event>
<event>
 4    2  0.3747163E-007  0.8130061E+03  0.7818608E-02  0.9683349E-01
         -2   -1    0    0    0  501 -0.00000000000E+00  0.00000000000E+00  0.87108894149E+03  0.87108894150E+03  0.25500000000E-02 0.  1.
          2   -1    0    0  501    0  0.00000000000E+00 -0.00000000000E+00 -0.12174747548E+04  0.12174747548E+04  0.25500000000E-02 0. -1.
    8880023    1    1    2    0    0  0.19317977258E+03  0.43571810514E+03 -0.98497843051E+03  0.12771692944E+04  0.65864270000E+03 0.  0.
    8880022    1    1    2    0    0 -0.19317977258E+03 -0.43571810514E+03  0.63859261721E+03  0.81139440191E+03  0.15294330000E+03 0.  0.
<mgrwt>
<rscale>  0 0.72016895E+03</rscale>
<asrwt>0</asrwt>
<pdfrwt beam="1">  1        2 0.18730381E+00 0.81300609E+03</pdfrwt>
<pdfrwt beam="2">  1       -2 0.13401368E+00 0.81300609E+03</pdfrwt>
<totfact> 0.75257784E+00</totfact>
</mgrwt>
</event>
<event>
 4    2  0.3747163E-007  0.8958382E+03  0.7818608E-02  0.9532746E-01
         -2   -1    0    0    0  501 -0.00000000000E+00  0.00000000000E+00  0.75049085009E+03  0.75049085010E+03  0.25500000000E-02 0.  1.
          2   -1    0    0  501    0  0.00000000000E+00 -0.00000000000E+00 -0.12954024461E+04  0.12954024461E+04  0.25500000000E-02 0. -1.
    8880023    1    1    2    0    0 -0.91533597251E+02  0.60028119334E+03  0.34311068813E+03  0.95929717037E+03  0.65864270000E+03 0.  1.
    8880022    1    1    2    0    0  0.91533597251E+02 -0.60028119334E+03 -0.88802228409E+03  0.10865961258E+04  0.15294330000E+03 0.  0.
<mgrwt>
<rscale>  0 0.81912059E+03</rscale>
<asrwt>0</asrwt>
<pdfrwt beam="1">  1        2 0.19929268E+00 0.89583822E+03</pdfrwt>
<pdfrwt beam="2">  1       -2 0.11546013E+00 0.89583822E+03</pdfrwt>
<totfact> 0.97500933E+00</totfact>
</mgrwt>
</event>
<event>
 4    2  0.3747163E-007  0.8113907E+03  0.7818608E-02  0.9686687E-01
         -2   -1    0    0    0  501 -0.00000000000E+00  0.00000000000E+00  0.91973712940E+03  0.91973712940E+03  0.25500000000E-02 0.  1.
          2   -1    0    0  501    0  0.00000000000E+00 -0.00000000000E+00 -0.52931748244E+03  0.52931748244E+03  0.25500000000E-02 0. -1.
    8880023    1    1    2    0    0 -0.36619457769E+03  0.30074281386E+03  0.48056877194E+03  0.94302770884E+03  0.65864270000E+03 0.  0.
    8880022    1    1    2    0    0  0.36619457769E+03 -0.30074281386E+03 -0.90149124973E+02  0.50602690300E+03  0.15294330000E+03 0.  0.
<mgrwt>
<rscale>  0 0.71814982E+03</rscale>
<asrwt>0</asrwt>
<pdfrwt beam="1">  1        2 0.81433459E-01 0.81139073E+03</pdfrwt>
<pdfrwt beam="2">  1       -2 0.14149802E+00 0.81139073E+03</pdfrwt>
<totfact> 0.20286806E+01</totfact>
</mgrwt>
</event>
<event>
 4    2  0.3747163E-007  0.7873275E+03  0.7818608E-02  0.9738898E-01
          2   -1    0    0  501    0  0.00000000000E+00  0.00000000000E+00  0.97392601673E+03  0.97392601673E+03  0.25500000000E-02 0. -1.
         -2   -1    0    0    0  501 -0.00000000000E+00 -0.00000000000E+00 -0.59144619609E+03  0.59144619609E+03  0.25500000000E-02 0.  1.
    8880023    1    1    2    0    0 -0.37510764633E+03 -0.21299899513E+03  0.66237531178E+03  0.10288953193E+04  0.65864270000E+03 0. -1.
    8880022    1    1    2    0    0  0.37510764633E+03  0.21299899513E+03 -0.27989549114E+03  0.53647689348E+03  0.15294330000E+03 0.  0.
<mgrwt>
<rscale>  0 0.68747314E+03</rscale>
<asrwt>0</asrwt>
<pdfrwt beam="1">  1        2 0.14983477E+00 0.78732746E+03</pdfrwt>
<pdfrwt beam="2">  1       -2 0.90991723E-01 0.78732746E+03</pdfrwt>
<totfact> 0.27315141E+01</totfact>
</mgrwt>
</event>
<event>
 4    2  0.3747163E-007  0.1110648E+04  0.7818608E-02  0.9249293E-01
          2   -1    0    0  501    0  0.00000000000E+00  0.00000000000E+00  0.35230970045E+04  0.35230970045E+04  0.25500000000E-02 0. -1.
         -2   -1    0    0    0  501 -0.00000000000E+00 -0.00000000000E+00 -0.39678831141E+03  0.39678831141E+03  0.25500000000E-02 0.  1.
    8880023    1    1    2    0    0 -0.87473989402E+03  0.18589889489E+03  0.65989411078E+03  0.12918973353E+04  0.65864270000E+03 0.  0.
    8880022    1    1    2    0    0  0.87473989402E+03 -0.18589889489E+03  0.24664145823E+04  0.26279879806E+04  0.15294330000E+03 0.  0.
<mgrwt>
<rscale>  0 0.10558814E+04</rscale>
<asrwt>0</asrwt>
<pdfrwt beam="1">  1        2 0.54201491E+00 0.11106478E+04</pdfrwt>
<pdfrwt beam="2">  1       -2 0.61044357E-01 0.11106478E+04</pdfrwt>
<totfact> 0.19939839E+00</totfact>
</mgrwt>
</event>
<event>
 4    2  0.3747163E-007  0.8122128E+03  0.7818608E-02  0.9684986E-01
          2   -1    0    0  501    0  0.00000000000E+00  0.00000000000E+00  0.15828870204E+04  0.15828870204E+04  0.25500000000E-02 0. -1.
         -2   -1    0    0    0  501 -0.00000000000E+00 -0.00000000000E+00 -0.64762243294E+03  0.64762243295E+03  0.25500000000E-02 0.  1.
    8880023    1    1    2    0    0 -0.18894864697E+03  0.43609391227E+03  0.13539750245E+04  0.15789040708E+04  0.65864270000E+03 0. -1.
    8880022    1    1    2    0    0  0.18894864697E+03 -0.43609391227E+03 -0.41871043703E+03  0.65160538257E+03  0.15294330000E+03 0.  0.
<mgrwt>
<rscale>  0 0.71917799E+03</rscale>
<asrwt>0</asrwt>
<pdfrwt beam="1">  1        2 0.24352108E+00 0.81221284E+03</pdfrwt>
<pdfrwt beam="2">  1       -2 0.99634221E-01 0.81221284E+03</pdfrwt>
<totfact> 0.96683937E+00</totfact>
</mgrwt>
</event>
<event>
 4    2  0.3747163E-007  0.9850721E+03  0.7818608E-02  0.9401354E-01
          2   -1    0    0  501    0  0.00000000000E+00  0.00000000000E+00  0.11570187361E+04  0.11570187362E+04  0.25500000000E-02 0. -1.
         -2   -1    0    0    0  501 -0.00000000000E+00 -0.00000000000E+00 -0.81836002103E+03  0.81836002103E+03  0.25500000000E-02 0.  1.
    8880023    1    1    2    0    0  0.51309989136E+03  0.52276691975E+03  0.63338871632E+03  0.11711311725E+04  0.65864270000E+03 0.  0.
    8880022    1    1    2    0    0 -0.51309989136E+03 -0.52276691975E+03 -0.29473000120E+03  0.80424758471E+03  0.15294330000E+03 0.  0.
<mgrwt>
<rscale>  0 0.91964349E+03</rscale>
<asrwt>0</asrwt>
<pdfrwt beam="1">  1        2 0.17800288E+00 0.98507206E+03</pdfrwt>
<pdfrwt beam="2">  1       -2 0.12590154E+00 0.98507206E+03</pdfrwt>
<totfact> 0.94070020E+00</totfact>
</mgrwt>
</event>
<event>
 4    2  0.3747163E-007  0.7509630E+03  0.7818608E-02  0.9829091E-01
          2   -1    0    0  501    0  0.00000000000E+00  0.00000000000E+00  0.73211641447E+03  0.73211641447E+03  0.25500000000E-02 0. -1.
         -2   -1    0    0    0  501 -0.00000000000E+00 -0.00000000000E+00 -0.76215362014E+03  0.76215362014E+03  0.25500000000E-02 0.  1.
    8880023    1    1    2    0    0 -0.97668527067E+02 -0.34726952697E+03  0.44934338011E+03  0.87513138731E+03  0.65864270000E+03 0. -1.
    8880022    1    1    2    0    0  0.97668527067E+02  0.34726952697E+03 -0.47938058579E+03  0.61913864730E+03  0.15294330000E+03 0.  0.
<mgrwt>
<rscale>  0 0.63824436E+03</rscale>
<asrwt>0</asrwt>
<pdfrwt beam="1">  1        2 0.11263330E+00 0.75096303E+03</pdfrwt>
<pdfrwt beam="2">  1       -2 0.11725440E+00 0.75096303E+03</pdfrwt>
<totfact> 0.22055652E+01</totfact>
</mgrwt>
</event>
<event>
 4    2  0.3747163E-007  0.6928079E+03  0.7818608E-02  0.1002846E+00
          2   -1    0    0  501    0  0.00000000000E+00  0.00000000000E+00  0.11454414169E+04  0.11454414169E+04  0.25500000000E-02 0. -1.
         -2   -1    0    0    0  501 -0.00000000000E+00 -0.00000000000E+00 -0.19977317756E+03  0.19977317757E+03  0.25500000000E-02 0.  1.
    8880023    1    1    2    0    0  0.12214120080E+03  0.17678816766E+03  0.67377604882E+03  0.96641445529E+03  0.65864270000E+03 0.  0.
    8880022    1    1    2    0    0 -0.12214120080E+03 -0.17678816766E+03  0.27189219047E+03  0.37880013914E+03  0.15294330000E+03 0. -1.
<mgrwt>
<rscale>  0 0.54419910E+03</rscale>
<asrwt>0</asrwt>
<pdfrwt beam="1">  1        2 0.17622176E+00 0.69280786E+03</pdfrwt>
<pdfrwt beam="2">  1       -2 0.30734335E-01 0.69280786E+03</pdfrwt>
<totfact> 0.20315167E+02</totfact>
</mgrwt>
</event>
<event>
 4    2  0.3747163E-007  0.1238501E+04  0.7818608E-02  0.9120575E-01
          2   -1    0    0  501    0  0.00000000000E+00  0.00000000000E+00  0.21727668395E+04  0.21727668395E+04  0.25500000000E-02 0. -1.
         -2   -1    0    0    0  501 -0.00000000000E+00 -0.00000000000E+00 -0.14556300097E+04  0.14556300097E+04  0.25500000000E-02 0.  1.
    8880023    1    1    2    0    0  0.31011888107E+03 -0.10019489722E+04  0.17529845350E+04  0.21463551545E+04  0.65864270000E+03 0. -1.
    8880022    1    1    2    0    0 -0.31011888107E+03  0.10019489722E+04 -0.10358477053E+04  0.14820416947E+04  0.15294330000E+03 0.  0.
<mgrwt>
<rscale>  0 0.11912212E+04</rscale>
<asrwt>0</asrwt>
<pdfrwt beam="1">  1        2 0.33427182E+00 0.12385014E+04</pdfrwt>
<pdfrwt beam="2">  1       -2 0.22394308E+00 0.12385014E+04</pdfrwt>
<totfact> 0.48315332E-01</totfact>
</mgrwt>
</event>
<event>
 4    2  0.3747163E-007  0.7530333E+03  0.7818608E-02  0.9823489E-01
          2   -1    0    0  501    0  0.00000000000E+00  0.00000000000E+00  0.69069339742E+03  0.69069339742E+03  0.25500000000E-02 0. -1.
         -2   -1    0    0    0  501 -0.00000000000E+00 -0.00000000000E+00 -0.94957722120E+03  0.94957722120E+03  0.25500000000E-02 0.  1.
    8880023    1    1    2    0    0 -0.15190523707E+03 -0.33192426183E+03  0.41421377280E+03  0.85943712538E+03  0.65864270000E+03 0. -1.
    8880022    1    1    2    0    0  0.15190523707E+03  0.33192426183E+03 -0.67309759658E+03  0.78083349325E+03  0.15294330000E+03 0.  0.
<mgrwt>
<rscale>  0 0.64117069E+03</rscale>
<asrwt>0</asrwt>
<pdfrwt beam="1">  1        2 0.10626052E+00 0.75303328E+03</pdfrwt>
<pdfrwt beam="2">  1       -2 0.14608880E+00 0.75303328E+03</pdfrwt>
<totfact> 0.13584644E+01</totfact>
</mgrwt>
</event>
<event>
 4    2  0.3747163E-007  0.1513925E+04  0.7818608E-02  0.8899865E-01
          2   -1    0    0  501    0  0.00000000000E+00  0.00000000000E+00  0.24739817899E+04  0.24739817899E+04  0.25500000000E-02 0. -1.
         -2   -1    0    0    0  501 -0.00000000000E+00 -0.00000000000E+00 -0.93137877955E+03  0.93137877955E+03  0.25500000000E-02 0.  1.
    8880023    1    1    2    0    0 -0.10561425812E+03 -0.13590455517E+04  0.27711572679E+03  0.15390784630E+04  0.65864270000E+03 0.  0.
    8880022    1    1    2    0    0  0.10561425812E+03  0.13590455517E+04  0.12654872836E+04  0.18662821065E+04  0.15294330000E+03 0.  0.
<mgrwt>
<rscale>  0 0.14770418E+04</rscale>
<asrwt>0</asrwt>
<pdfrwt beam="1">  1        2 0.38061258E+00 0.15139252E+04</pdfrwt>
<pdfrwt beam="2">  1       -2 0.14328904E+00 0.15139252E+04</pdfrwt>
<totfact> 0.11506249E+00</totfact>
</mgrwt>
</event>
<event>
 4    2  0.3747163E-007  0.8412926E+03  0.7818608E-02  0.9627748E-01
         -2   -1    0    0    0  501 -0.00000000000E+00  0.00000000000E+00  0.68186642667E+03  0.68186642667E+03  0.25500000000E-02 0.  1.
          2   -1    0    0  501    0  0.00000000000E+00 -0.00000000000E+00 -0.12062820707E+04  0.12062820707E+04  0.25500000000E-02 0. -1.
    8880023    1    1    2    0    0  0.49579037239E+03 -0.16779443149E+03 -0.89539400914E+03  0.12286186155E+04  0.65864270000E+03 0. -1.
    8880022    1    1    2    0    0 -0.49579037239E+03  0.16779443149E+03  0.37097836513E+03  0.65952988181E+03  0.15294330000E+03 0.  0.
<mgrwt>
<rscale>  0 0.75486565E+03</rscale>
<asrwt>0</asrwt>
<pdfrwt beam="1">  1        2 0.18558186E+00 0.84129262E+03</pdfrwt>
<pdfrwt beam="2">  1       -2 0.10490253E+00 0.84129262E+03</pdfrwt>
<totfact> 0.13960528E+01</totfact>
</mgrwt>
</event>
<event>
 4    2  0.3747163E-007  0.7109272E+03  0.7818608E-02  0.9954574E-01
         -2   -1    0    0    0  501 -0.00000000000E+00  0.00000000000E+00  0.14165506182E+04  0.14165506182E+04  0.25500000000E-02 0.  1.
          2   -1    0    0  501    0  0.00000000000E+00 -0.00000000000E+00 -0.89847358908E+03  0.89847358908E+03  0.25500000000E-02 0. -1.
    8880023    1    1    2    0    0 -0.26757944034E+03  0.29163341905E+01 -0.73620163719E+03  0.10234306614E+04  0.65864270000E+03 0. -1.
    8880022    1    1    2    0    0  0.26757944034E+03 -0.29163341905E+01  0.12542786664E+04  0.12915935459E+04  0.15294330000E+03 0.  0.
<mgrwt>
<rscale>  0 0.57687760E+03</rscale>
<asrwt>0</asrwt>
<pdfrwt beam="1">  1        2 0.13822671E+00 0.71092719E+03</pdfrwt>
<pdfrwt beam="2">  1       -2 0.21793086E+00 0.71092719E+03</pdfrwt>
<totfact> 0.30905988E+00</totfact>
</mgrwt>
</event>
<event>
 4    2  0.3747163E-007  0.7104595E+03  0.7818608E-02  0.9956299E-01
         -2   -1    0    0    0  501 -0.00000000000E+00  0.00000000000E+00  0.12277211406E+04  0.12277211406E+04  0.25500000000E-02 0.  1.
          2   -1    0    0  501    0  0.00000000000E+00 -0.00000000000E+00 -0.33661564235E+03  0.33661564236E+03  0.25500000000E-02 0. -1.
    8880023    1    1    2    0    0 -0.22136787259E+03  0.14811739023E+03  0.10222630591E+03  0.71777637199E+03  0.65864270000E+03 0. -1.
    8880022    1    1    2    0    0  0.22136787259E+03 -0.14811739023E+03  0.78887919233E+03  0.84656041096E+03  0.15294330000E+03 0.  0.
<mgrwt>
<rscale>  0 0.57608705E+03</rscale>
<asrwt>0</asrwt>
<pdfrwt beam="1">  1        2 0.51787021E-01 0.71045950E+03</pdfrwt>
<pdfrwt beam="2">  1       -2 0.18888018E+00 0.71045950E+03</pdfrwt>
<totfact> 0.15529057E+01</totfact>
</mgrwt>
</event>
<event>
 4    2  0.3747163E-007  0.6888264E+03  0.7818608E-02  0.1004715E+00
          2   -1    0    0  501    0  0.00000000000E+00  0.00000000000E+00  0.10396125940E+04  0.10396125940E+04  0.25500000000E-02 0. -1.
         -2   -1    0    0    0  501 -0.00000000000E+00 -0.00000000000E+00 -0.48020624565E+03  0.48020624566E+03  0.25500000000E-02 0.  1.
    8880023    1    1    2    0    0  0.17872730664E+03 -0.93424510196E+02  0.87606328279E+03  0.11144364813E+04  0.65864270000E+03 0. -1.
    8880022    1    1    2    0    0 -0.17872730664E+03  0.93424510196E+02 -0.31665693447E+03  0.40538235828E+03  0.15294330000E+03 0.  0.
<mgrwt>
<rscale>  0 0.53630080E+03</rscale>
<asrwt>0</asrwt>
<pdfrwt beam="1">  1        2 0.15994040E+00 0.68882639E+03</pdfrwt>
<pdfrwt beam="2">  1       -2 0.73877885E-01 0.68882639E+03</pdfrwt>
<totfact> 0.40110889E+01</totfact>
</mgrwt>
</event>
<event>
 4    2  0.3747163E-007  0.7132498E+03  0.7818608E-02  0.9946126E-01
         -2   -1    0    0    0  501 -0.00000000000E+00  0.00000000000E+00  0.21193879334E+03  0.21193879335E+03  0.25500000000E-02 0.  1.
          2   -1    0    0  501    0  0.00000000000E+00 -0.00000000000E+00 -0.16435899200E+04  0.16435899200E+04  0.25500000000E-02 0. -1.
    8880023    1    1    2    0    0  0.21161287872E+03  0.17359446561E+03 -0.13573019614E+04  0.15332951019E+04  0.65864270000E+03 0.  0.
    8880022    1    1    2    0    0 -0.21161287872E+03 -0.17359446561E+03 -0.74349165251E+02  0.32223361140E+03  0.15294330000E+03 0.  0.
<mgrwt>
<rscale>  0 0.58076994E+03</rscale>
<asrwt>0</asrwt>
<pdfrwt beam="1">  1        2 0.25285998E+00 0.71324978E+03</pdfrwt>
<pdfrwt beam="2">  1       -2 0.32605969E-01 0.71324978E+03</pdfrwt>
<totfact> 0.94661492E+01</totfact>
</mgrwt>
</event>
<event>
 4    2  0.3747163E-007  0.1490558E+04  0.7818608E-02  0.8916332E-01
         -2   -1    0    0    0  501 -0.00000000000E+00  0.00000000000E+00  0.14207000435E+04  0.14207000435E+04  0.25500000000E-02 0.  1.
          2   -1    0    0  501    0  0.00000000000E+00 -0.00000000000E+00 -0.17021081045E+04  0.17021081045E+04  0.25500000000E-02 0. -1.
    8880023    1    1    2    0    0 -0.31136368405E+03 -0.13003865537E+04 -0.78644673691E+03  0.16853074524E+04  0.65864270000E+03 0.  0.
    8880022    1    1    2    0    0  0.31136368405E+03  0.13003865537E+04  0.50503867586E+03  0.14375006956E+04  0.15294330000E+03 0.  0.
<mgrwt>
<rscale>  0 0.14529871E+04</rscale>
<asrwt>0</asrwt>
<pdfrwt beam="1">  1        2 0.26186279E+00 0.14905579E+04</pdfrwt>
<pdfrwt beam="2">  1       -2 0.21856924E+00 0.14905579E+04</pdfrwt>
<totfact> 0.92837571E-01</totfact>
</mgrwt>
</event>
<event>
 4    2  0.3747163E-007  0.1082731E+04  0.7818608E-02  0.9280531E-01
         -2   -1    0    0    0  501 -0.00000000000E+00  0.00000000000E+00  0.47237623889E+03  0.47237623890E+03  0.25500000000E-02 0.  1.
          2   -1    0    0  501    0  0.00000000000E+00 -0.00000000000E+00 -0.30263779207E+04  0.30263779207E+04  0.25500000000E-02 0. -1.
    8880023    1    1    2    0    0  0.49895479619E+03 -0.69967181418E+03 -0.23715595637E+04  0.26070292493E+04  0.65864270000E+03 0.  0.
    8880022    1    1    2    0    0 -0.49895479619E+03  0.69967181418E+03 -0.18244211811E+03  0.89172491031E+03  0.15294330000E+03 0.  0.
<mgrwt>
<rscale>  0 0.10259516E+04</rscale>
<asrwt>0</asrwt>
<pdfrwt beam="1">  1        2 0.46559659E+00 0.10827311E+04</pdfrwt>
<pdfrwt beam="2">  1       -2 0.72673269E-01 0.10827311E+04</pdfrwt>
<totfact> 0.28991109E+00</totfact>
</mgrwt>
</event>
<event>
 4    2  0.3747163E-007  0.6695598E+03  0.7818608E-02  0.1015980E+00
         -2   -1    0    0    0  501 -0.00000000000E+00  0.00000000000E+00  0.21189800326E+03  0.21189800327E+03  0.25500000000E-02 0.  1.
          2   -1    0    0  501    0  0.00000000000E+00 -0.00000000000E+00 -0.95062153943E+03  0.95062153943E+03  0.25500000000E-02 0. -1.
    8880023    1    1    2    0    0 -0.15343796851E+02  0.11943512349E+03 -0.69082490876E+03  0.96205480179E+03  0.65864270000E+03 0.  0.
    8880022    1    1    2    0    0  0.15343796851E+02 -0.11943512349E+03 -0.47898627405E+02  0.20046474091E+03  0.15294330000E+03 0.  0.
<mgrwt>
<rscale>  0 0.49165477E+03</rscale>
<asrwt>0</asrwt>
<pdfrwt beam="1">  1        2 0.14624946E+00 0.66955985E+03</pdfrwt>
<pdfrwt beam="2">  1       -2 0.32599693E-01 0.66955985E+03</pdfrwt>
<totfact> 0.24106964E+02</totfact>
</mgrwt>
</event>
<event>
 4    2  0.3747163E-007  0.9445437E+03  0.7818608E-02  0.9458008E-01
          2   -1    0    0  501    0  0.00000000000E+00  0.00000000000E+00  0.10305072759E+04  0.10305072759E+04  0.25500000000E-02 0. -1.
         -2   -1    0    0    0  501 -0.00000000000E+00 -0.00000000000E+00 -0.13289626663E+04  0.13289626663E+04  0.25500000000E-02 0.  1.
    8880023    1    1    2    0    0  0.33018973343E+01  0.67700941890E+03  0.67712591451E+03  0.11621800059E+04  0.65864270000E+03 0. -1.
    8880022    1    1    2    0    0 -0.33018973343E+01 -0.67700941890E+03 -0.97558130494E+03  0.11972899362E+04  0.15294330000E+03 0.  0.
<mgrwt>
<rscale>  0 0.87451775E+03</rscale>
<asrwt>0</asrwt>
<pdfrwt beam="1">  1        2 0.15853958E+00 0.94454373E+03</pdfrwt>
<pdfrwt beam="2">  1       -2 0.20445580E+00 0.94454373E+03</pdfrwt>
<totfact> 0.29916579E+00</totfact>
</mgrwt>
</event>
<event>
 4    2  0.3747163E-007  0.1103915E+04  0.7818608E-02  0.9256710E-01
         -2   -1    0    0    0  501 -0.00000000000E+00  0.00000000000E+00  0.15494782900E+04  0.15494782900E+04  0.25500000000E-02 0.  1.
          2   -1    0    0  501    0  0.00000000000E+00 -0.00000000000E+00 -0.12769240938E+04  0.12769240938E+04  0.25500000000E-02 0. -1.
    8880023    1    1    2    0    0 -0.88149572785E+03 -0.88217618875E+02 -0.84639224979E+03  0.13910453311E+04  0.65864270000E+03 0. -1.
    8880022    1    1    2    0    0  0.88149572785E+03  0.88217618875E+02  0.11189464460E+04  0.14353570526E+04  0.15294330000E+03 0.  0.
<mgrwt>
<rscale>  0 0.10486777E+04</rscale>
<asrwt>0</asrwt>
<pdfrwt beam="1">  1        2 0.19644986E+00 0.11039145E+04</pdfrwt>
<pdfrwt beam="2">  1       -2 0.23838128E+00 0.11039145E+04</pdfrwt>
<totfact> 0.12702901E+00</totfact>
</mgrwt>
</event>
<event>
 4    2  0.3747163E-007  0.7773464E+03  0.7818608E-02  0.9762108E-01
          2   -1    0    0  501    0  0.00000000000E+00  0.00000000000E+00  0.54215809032E+03  0.54215809032E+03  0.25500000000E-02 0. -1.
         -2   -1    0    0    0  501 -0.00000000000E+00 -0.00000000000E+00 -0.23130088624E+04  0.23130088624E+04  0.25500000000E-02 0.  1.
    8880023    1    1    2    0    0 -0.14414586926E+03  0.38688400893E+03  0.22665333933E+03  0.80971551206E+03  0.65864270000E+03 0.  0.
    8880022    1    1    2    0    0  0.14414586926E+03 -0.38688400893E+03 -0.19975041114E+04  0.20454514406E+04  0.15294330000E+03 0.  0.
<mgrwt>
<rscale>  0 0.67436323E+03</rscale>
<asrwt>0</asrwt>
<pdfrwt beam="1">  1        2 0.83408938E-01 0.77734643E+03</pdfrwt>
<pdfrwt beam="2">  1       -2 0.35584751E+00 0.77734643E+03</pdfrwt>
<totfact> 0.84058261E-01</totfact>
</mgrwt>
</event>
<event>
 4    2  0.3747163E-007  0.8280318E+03  0.7818608E-02  0.9653174E-01
         -2   -1    0    0    0  501 -0.00000000000E+00  0.00000000000E+00  0.55141626481E+03  0.55141626481E+03  0.25500000000E-02 0.  1.
          2   -1    0    0  501    0  0.00000000000E+00 -0.00000000000E+00 -0.83935876965E+03  0.83935876965E+03  0.25500000000E-02 0. -1.
    8880023    1    1    2    0    0  0.40111140741E+03 -0.30155620056E+03 -0.24927433257E+03  0.86473949973E+03  0.65864270000E+03 0. -1.
    8880022    1    1    2    0    0 -0.40111140741E+03  0.30155620056E+03 -0.38668172271E+02  0.52603553474E+03  0.15294330000E+03 0.  1.
<mgrwt>
<rscale>  0 0.73874560E+03</rscale>
<asrwt>0</asrwt>
<pdfrwt beam="1">  1        2 0.12913212E+00 0.82803183E+03</pdfrwt>
<pdfrwt beam="2">  1       -2 0.84833271E-01 0.82803183E+03</pdfrwt>
<totfact> 0.39386474E+01</totfact>
</mgrwt>
</event>
<event>
 4    2  0.3747163E-007  0.9225649E+03  0.7818608E-02  0.9490737E-01
         -2   -1    0    0    0  501 -0.00000000000E+00  0.00000000000E+00  0.53472175019E+03  0.53472175020E+03  0.25500000000E-02 0.  1.
          2   -1    0    0  501    0  0.00000000000E+00 -0.00000000000E+00 -0.12308814455E+04  0.12308814455E+04  0.25500000000E-02 0. -1.
    8880023    1    1    2    0    0  0.30722999805E+03  0.56826538356E+03 -0.58526136428E+03  0.10925460579E+04  0.65864270000E+03 0.  0.
    8880022    1    1    2    0    0 -0.30722999805E+03 -0.56826538356E+03 -0.11089833098E+03  0.67305713775E+03  0.15294330000E+03 0.  1.
<mgrwt>
<rscale>  0 0.84970173E+03</rscale>
<asrwt>0</asrwt>
<pdfrwt beam="1">  1        2 0.18936638E+00 0.92256492E+03</pdfrwt>
<pdfrwt beam="2">  1       -2 0.82264885E-01 0.92256492E+03</pdfrwt>
<totfact> 0.23614961E+01</totfact>
</mgrwt>
</event>
<event>
 4    2  0.3747163E-007  0.7198289E+03  0.7818608E-02  0.9923165E-01
          2   -1    0    0  501    0  0.00000000000E+00  0.00000000000E+00  0.27590836968E+04  0.27590836968E+04  0.25500000000E-02 0. -1.
         -2   -1    0    0    0  501 -0.00000000000E+00 -0.00000000000E+00 -0.30055789814E+03  0.30055789815E+03  0.25500000000E-02 0.  1.
    8880023    1    1    2    0    0  0.13619190457E+03  0.25650576962E+03  0.26032380975E+04  0.27009261824E+04  0.65864270000E+03 0. -1.
    8880022    1    1    2    0    0 -0.13619190457E+03 -0.25650576962E+03 -0.14471229881E+03  0.35871541249E+03  0.15294330000E+03 0.  0.
<mgrwt>
<rscale>  0 0.59151616E+03</rscale>
<asrwt>0</asrwt>
<pdfrwt beam="1">  1        2 0.42447441E+00 0.71982890E+03</pdfrwt>
<pdfrwt beam="2">  1       -2 0.46239677E-01 0.71982890E+03</pdfrwt>
<totfact> 0.11515490E+01</totfact>
</mgrwt>
</event>
<event>
 4    2  0.3747163E-007  0.7585529E+03  0.7818608E-02  0.9808868E-01
         -2   -1    0    0    0  501 -0.00000000000E+00  0.00000000000E+00  0.74563987582E+03  0.74563987582E+03  0.25500000000E-02 0.  1.
          2   -1    0    0  501    0  0.00000000000E+00 -0.00000000000E+00 -0.79248345886E+03  0.79248345886E+03  0.25500000000E-02 0. -1.
    8880023    1    1    2    0    0  0.34043728994E+03  0.16029593448E+03  0.46113344352E+03  0.88771988487E+03  0.65864270000E+03 0.  0.
    8880022    1    1    2    0    0 -0.34043728994E+03 -0.16029593448E+03 -0.50797702656E+03  0.65040344981E+03  0.15294330000E+03 0.  0.
<mgrwt>
<rscale>  0 0.64888785E+03</rscale>
<asrwt>0</asrwt>
<pdfrwt beam="1">  1        2 0.12192053E+00 0.75855293E+03</pdfrwt>
<pdfrwt beam="2">  1       -2 0.11471383E+00 0.75855293E+03</pdfrwt>
<totfact> 0.20975703E+01</totfact>
</mgrwt>
</event>
<event>
 4    2  0.3747163E-007  0.8318225E+03  0.7818608E-02  0.9645797E-01
          2   -1    0    0  501    0  0.00000000000E+00  0.00000000000E+00  0.26314052242E+04  0.26314052242E+04  0.25500000000E-02 0. -1.
         -2   -1    0    0    0  501 -0.00000000000E+00 -0.00000000000E+00 -0.40962678650E+03  0.40962678651E+03  0.25500000000E-02 0.  1.
    8880023    1    1    2    0    0 -0.86944652370E+02 -0.50055884376E+03  0.23519566954E+04  0.24947202312E+04  0.65864270000E+03 0.  0.
    8880022    1    1    2    0    0  0.86944652370E+02  0.50055884376E+03 -0.13017825769E+03  0.54631177952E+03  0.15294330000E+03 0.  0.
<mgrwt>
<rscale>  0 0.74337812E+03</rscale>
<asrwt>0</asrwt>
<pdfrwt beam="1">  1        2 0.40483157E+00 0.83182254E+03</pdfrwt>
<pdfrwt beam="2">  1       -2 0.63019507E-01 0.83182254E+03</pdfrwt>
<totfact> 0.70687586E+00</totfact>
</mgrwt>
</event>
<event>
 4    2  0.3747163E-007  0.6592921E+03  0.7818608E-02  0.1024894E+00
         -2   -1    0    0    0  501 -0.00000000000E+00  0.00000000000E+00  0.96220714453E+03  0.96220714454E+03  0.25500000000E-02 0.  1.
          2   -1    0    0  501    0  0.00000000000E+00 -0.00000000000E+00 -0.77734985753E+03  0.77734985754E+03  0.25500000000E-02 0. -1.
    8880023    1    1    2    0    0 -0.15784591189E+02 -0.24631961260E+02 -0.62883559699E+03  0.91109840365E+03  0.65864270000E+03 0. -1.
    8880022    1    1    2    0    0  0.15784591189E+02  0.24631961260E+02  0.81369288399E+03  0.82845859842E+03  0.15294330000E+03 0.  0.
<mgrwt>
<rscale>  0 0.45961254E+03</rscale>
<asrwt>0</asrwt>
<pdfrwt beam="1">  1        2 0.11959229E+00 0.65929212E+03</pdfrwt>
<pdfrwt beam="2">  1       -2 0.14803187E+00 0.65929212E+03</pdfrwt>
<totfact> 0.11398877E+01</totfact>
</mgrwt>
</event>
<event>
 4    2  0.3747163E-007  0.6833892E+03  0.7818608E-02  0.1007468E+00
         -2   -1    0    0    0  501 -0.00000000000E+00  0.00000000000E+00  0.33642656753E+03  0.33642656754E+03  0.25500000000E-02 0.  1.
          2   -1    0    0  501    0  0.00000000000E+00 -0.00000000000E+00 -0.12431092753E+04  0.12431092753E+04  0.25500000000E-02 0. -1.
    8880023    1    1    2    0    0  0.13865338857E+03  0.11826194584E+03 -0.10849543798E+04  0.12822429031E+04  0.65864270000E+03 0. -1.
    8880022    1    1    2    0    0 -0.13865338857E+03 -0.11826194584E+03  0.17827167199E+03  0.29729293979E+03  0.15294330000E+03 0.  0.
<mgrwt>
<rscale>  0 0.52493480E+03</rscale>
<asrwt>0</asrwt>
<pdfrwt beam="1">  1        2 0.19124758E+00 0.68338924E+03</pdfrwt>
<pdfrwt beam="2">  1       -2 0.51757934E-01 0.68338924E+03</pdfrwt>
<totfact> 0.64451324E+01</totfact>
</mgrwt>
</event>
<event>
 4    2  0.3747163E-007  0.1042676E+04  0.7818608E-02  0.9327737E-01
          2   -1    0    0  501    0  0.00000000000E+00  0.00000000000E+00  0.28511735202E+04  0.28511735202E+04  0.25500000000E-02 0. -1.
         -2   -1    0    0    0  501 -0.00000000000E+00 -0.00000000000E+00 -0.50158554635E+03  0.50158554636E+03  0.25500000000E-02 0.  1.
    8880023    1    1    2    0    0  0.47592555699E+03  0.65334438251E+03  0.23038771172E+04  0.25288384676E+04  0.65864270000E+03 0. -1.
    8880022    1    1    2    0    0 -0.47592555699E+03 -0.65334438251E+03  0.45710856684E+02  0.82392059896E+03  0.15294330000E+03 0.  0.
<mgrwt>
<rscale>  0 0.98268917E+03</rscale>
<asrwt>0</asrwt>
<pdfrwt beam="1">  1        2 0.43864209E+00 0.10426765E+04</pdfrwt>
<pdfrwt beam="2">  1       -2 0.77167006E-01 0.10426765E+04</pdfrwt>
<totfact> 0.32636798E+00</totfact>
</mgrwt>
</event>
<event>
 4    2  0.3747163E-007  0.8997315E+03  0.7818608E-02  0.9526463E-01
         -2   -1    0    0    0  501 -0.00000000000E+00  0.00000000000E+00  0.55517132659E+03  0.55517132660E+03  0.25500000000E-02 0.  1.
          2   -1    0    0  501    0  0.00000000000E+00 -0.00000000000E+00 -0.14315326104E+04  0.14315326104E+04  0.25500000000E-02 0. -1.
    8880023    1    1    2    0    0  0.44656144935E+03 -0.41986844293E+03 -0.99763614283E+03  0.13434264837E+04  0.65864270000E+03 0. -1.
    8880022    1    1    2    0    0 -0.44656144935E+03  0.41986844293E+03  0.12127485904E+03  0.64327745326E+03  0.15294330000E+03 0.  0.
<mgrwt>
<rscale>  0 0.82360636E+03</rscale>
<asrwt>0</asrwt>
<pdfrwt beam="1">  1        2 0.22023578E+00 0.89973154E+03</pdfrwt>
<pdfrwt beam="2">  1       -2 0.85410974E-01 0.89973154E+03</pdfrwt>
<totfact> 0.16642123E+01</totfact>
</mgrwt>
</event>
<event>
 4    2  0.3747163E-007  0.7166275E+03  0.7818608E-02  0.9934167E-01
         -2   -1    0    0    0  501 -0.00000000000E+00  0.00000000000E+00  0.37711301302E+03  0.37711301303E+03  0.25500000000E-02 0.  1.
          2   -1    0    0  501    0  0.00000000000E+00 -0.00000000000E+00 -0.14589051584E+04  0.14589051584E+04  0.25500000000E-02 0. -1.
    8880023    1    1    2    0    0  0.13006050866E+03  0.25065723354E+03 -0.12740167637E+04  0.14617365375E+04  0.65864270000E+03 0.  0.
    8880022    1    1    2    0    0 -0.13006050866E+03 -0.25065723354E+03  0.19222461827E+03  0.37428163396E+03  0.15294330000E+03 0.  0.
<mgrwt>
<rscale>  0 0.58633609E+03</rscale>
<asrwt>0</asrwt>
<pdfrwt beam="1">  1        2 0.22444695E+00 0.71662751E+03</pdfrwt>
<pdfrwt beam="2">  1       -2 0.58017387E-01 0.71662751E+03</pdfrwt>
<totfact> 0.38196036E+01</totfact>
</mgrwt>
</event>
<event>
 4    2  0.3747163E-007  0.6683050E+03  0.7818608E-02  0.1016908E+00
          2   -1    0    0  501    0  0.00000000000E+00  0.00000000000E+00  0.19332032459E+04  0.19332032459E+04  0.25500000000E-02 0. -1.
         -2   -1    0    0    0  501 -0.00000000000E+00 -0.00000000000E+00 -0.15056858246E+03  0.15056858248E+03  0.25500000000E-02 0.  1.
    8880023    1    1    2    0    0 -0.23255750878E+01  0.11320746210E+03  0.17712500077E+04  0.18931344733E+04  0.65864270000E+03 0. -1.
    8880022    1    1    2    0    0  0.23255750878E+01 -0.11320746210E+03  0.11384655743E+02  0.19063735514E+03  0.15294330000E+03 0.  0.
<mgrwt>
<rscale>  0 0.48819022E+03</rscale>
<asrwt>0</asrwt>
<pdfrwt beam="1">  1        2 0.29741588E+00 0.66830498E+03</pdfrwt>
<pdfrwt beam="2">  1       -2 0.23164398E-01 0.66830498E+03</pdfrwt>
<totfact> 0.12361867E+02</totfact>
</mgrwt>
</event>
<event>
 4    2  0.3747163E-007  0.1287350E+04  0.7818608E-02  0.9076562E-01
         -2   -1    0    0    0  501 -0.00000000000E+00  0.00000000000E+00  0.80585476393E+03  0.80585476393E+03  0.25500000000E-02 0.  1.
          2   -1    0    0  501    0  0.00000000000E+00 -0.00000000000E+00 -0.18156271158E+04  0.18156271158E+04  0.25500000000E-02 0. -1.
    8880023    1    1    2    0    0 -0.10270679101E+04 -0.41059877354E+03 -0.68674597473E+03  0.14590716517E+04  0.65864270000E+03 0. -1.
    8880022    1    1    2    0    0  0.10270679101E+04  0.41059877354E+03 -0.32302637716E+03  0.11624102280E+04  0.15294330000E+03 0.  1.
<mgrwt>
<rscale>  0 0.12423653E+04</rscale>
<asrwt>0</asrwt>
<pdfrwt beam="1">  1        2 0.27932725E+00 0.12873500E+04</pdfrwt>
<pdfrwt beam="2">  1       -2 0.12397766E+00 0.12873500E+04</pdfrwt>
<totfact> 0.40025758E+00</totfact>
</mgrwt>
</event>
<event>
 4    2  0.3747163E-007  0.8124267E+03  0.7818608E-02  0.9684544E-01
         -2   -1    0    0    0  501 -0.00000000000E+00  0.00000000000E+00  0.34447976793E+03  0.34447976793E+03  0.25500000000E-02 0.  1.
          2   -1    0    0  501    0  0.00000000000E+00 -0.00000000000E+00 -0.26635233178E+04  0.26635233178E+04  0.25500000000E-02 0. -1.
    8880023    1    1    2    0    0 -0.18322650394E+03 -0.43892479723E+03 -0.23703924270E+04  0.25057528596E+04  0.65864270000E+03 0. -1.
    8880022    1    1    2    0    0  0.18322650394E+03  0.43892479723E+03  0.51348877158E+02  0.50225022606E+03  0.15294330000E+03 0.  0.
<mgrwt>
<rscale>  0 0.71944526E+03</rscale>
<asrwt>0</asrwt>
<pdfrwt beam="1">  1        2 0.40977281E+00 0.81242670E+03</pdfrwt>
<pdfrwt beam="2">  1       -2 0.52996889E-01 0.81242670E+03</pdfrwt>
<totfact> 0.97715541E+00</totfact>
</mgrwt>
</event>
<event>
 4    2  0.3747163E-007  0.8043453E+03  0.7818608E-02  0.9701478E-01
          2   -1    0    0  501    0  0.00000000000E+00  0.00000000000E+00  0.39944600333E+04  0.39944600333E+04  0.25500000000E-02 0. -1.
         -2   -1    0    0    0  501 -0.00000000000E+00 -0.00000000000E+00 -0.13715800524E+03  0.13715800526E+03  0.25500000000E-02 0.  1.
    8880023    1    1    2    0    0 -0.23030975697E+03  0.40014827522E+03  0.32778766515E+04  0.33751217422E+04  0.65864270000E+03 0. -1.
    8880022    1    1    2    0    0  0.23030975697E+03 -0.40014827522E+03  0.57942537657E+03  0.75649629632E+03  0.15294330000E+03 0.  0.
<mgrwt>
<rscale>  0 0.70928854E+03</rscale>
<asrwt>0</asrwt>
<pdfrwt beam="1">  1        2 0.61453219E+00 0.80434534E+03</pdfrwt>
<pdfrwt beam="2">  1       -2 0.21101236E-01 0.80434534E+03</pdfrwt>
<totfact> 0.73184941E+00</totfact>
</mgrwt>
</event>
<event>
 4    2  0.3747163E-007  0.6814603E+03  0.7818608E-02  0.1008509E+00
          2   -1    0    0  501    0  0.00000000000E+00  0.00000000000E+00  0.27624481431E+04  0.27624481431E+04  0.25500000000E-02 0. -1.
         -2   -1    0    0    0  501 -0.00000000000E+00 -0.00000000000E+00 -0.43406403831E+03  0.43406403832E+03  0.25500000000E-02 0.  1.
    8880023    1    1    2    0    0 -0.15311481739E+03 -0.84461486321E+02  0.26854275955E+04  0.27705431718E+04  0.65864270000E+03 0. -1.
    8880022    1    1    2    0    0  0.15311481739E+03  0.84461486321E+02 -0.35704349064E+03  0.42596900967E+03  0.15294330000E+03 0.  0.
<mgrwt>
<rscale>  0 0.52071369E+03</rscale>
<asrwt>0</asrwt>
<pdfrwt beam="1">  1        2 0.42499202E+00 0.68146027E+03</pdfrwt>
<pdfrwt beam="2">  1       -2 0.66779083E-01 0.68146027E+03</pdfrwt>
<totfact> 0.53803456E+00</totfact>
</mgrwt>
</event>
<event>
 4    2  0.3747163E-007  0.9791942E+03  0.7818608E-02  0.9409299E-01
          2   -1    0    0  501    0  0.00000000000E+00  0.00000000000E+00  0.18520806566E+04  0.18520806566E+04  0.25500000000E-02 0. -1.
         -2   -1    0    0    0  501 -0.00000000000E+00 -0.00000000000E+00 -0.54885555780E+03  0.54885555781E+03  0.25500000000E-02 0.  1.
    8880023    1    1    2    0    0  0.67509229236E+03  0.26317580790E+03  0.13398092105E+04  0.16594908966E+04  0.65864270000E+03 0.  0.
    8880022    1    1    2    0    0 -0.67509229236E+03 -0.26317580790E+03 -0.36584111709E+02  0.74144531781E+03  0.15294330000E+03 0.  0.
<mgrwt>
<rscale>  0 0.91314361E+03</rscale>
<asrwt>0</asrwt>
<pdfrwt beam="1">  1        2 0.28493548E+00 0.97919422E+03</pdfrwt>
<pdfrwt beam="2">  1       -2 0.84439317E-01 0.97919422E+03</pdfrwt>
<totfact> 0.98973737E+00</totfact>
</mgrwt>
</event>
<event>
 4    2  0.3747163E-007  0.6612552E+03  0.7818608E-02  0.1022906E+00
          2   -1    0    0  501    0  0.00000000000E+00  0.00000000000E+00  0.30962356589E+04  0.30962356589E+04  0.25500000000E-02 0. -1.
         -2   -1    0    0    0  501 -0.00000000000E+00 -0.00000000000E+00 -0.17945741215E+03  0.17945741217E+03  0.25500000000E-02 0.  1.
    8880023    1    1    2    0    0  0.38659533566E+02 -0.44201029540E+02  0.30136656652E+04  0.30853588508E+04  0.65864270000E+03 0. -1.
    8880022    1    1    2    0    0 -0.38659533566E+02  0.44201029540E+02 -0.96887418404E+02  0.19033422028E+03  0.15294330000E+03 0.  0.
<mgrwt>
<rscale>  0 0.46652460E+03</rscale>
<asrwt>0</asrwt>
<pdfrwt beam="1">  1        2 0.47634393E+00 0.66125524E+03</pdfrwt>
<pdfrwt beam="2">  1       -2 0.27608834E-01 0.66125524E+03</pdfrwt>
<totfact> 0.19534422E+01</totfact>
</mgrwt>
</event>
<event>
 4    2  0.3747163E-007  0.1023041E+04  0.7818608E-02  0.9352014E-01
         -2   -1    0    0    0  501 -0.00000000000E+00  0.00000000000E+00  0.57303232327E+03  0.57303232328E+03  0.25500000000E-02 0.  1.
          2   -1    0    0  501    0  0.00000000000E+00 -0.00000000000E+00 -0.23516884695E+04  0.23516884695E+04  0.25500000000E-02 0. -1.
    8880023    1    1    2    0    0  0.20545984803E+03 -0.75537383790E+03 -0.53896511624E+02  0.10244600648E+04  0.65864270000E+03 0.  1.
    8880022    1    1    2    0    0 -0.20545984803E+03  0.75537383790E+03 -0.17247596346E+04  0.19002607280E+04  0.15294330000E+03 0.  0.
<mgrwt>
<rscale>  0 0.96132154E+03</rscale>
<asrwt>0</asrwt>
<pdfrwt beam="1">  1        2 0.36179822E+00 0.10230413E+04</pdfrwt>
<pdfrwt beam="2">  1       -2 0.88158820E-01 0.10230413E+04</pdfrwt>
<totfact> 0.47139771E+00</totfact>
</mgrwt>
</event>
<event>
 4    2  0.3747163E-007  0.9998833E+03  0.7818608E-02  0.9381710E-01
          2   -1    0    0  501    0  0.00000000000E+00  0.00000000000E+00  0.12343651653E+04  0.12343651653E+04  0.25500000000E-02 0. -1.
         -2   -1    0    0    0  501 -0.00000000000E+00 -0.00000000000E+00 -0.13038319760E+04  0.13038319760E+04  0.25500000000E-02 0.  1.
    8880023    1    1    2    0    0 -0.74349685255E+03  0.11475559107E+03  0.86969687415E+03  0.13251940517E+04  0.65864270000E+03 0. -1.
    8880022    1    1    2    0    0  0.74349685255E+03 -0.11475559107E+03 -0.93916368486E+03  0.12130030896E+04  0.15294330000E+03 0.  0.
<mgrwt>
<rscale>  0 0.93596255E+03</rscale>
<asrwt>0</asrwt>
<pdfrwt beam="1">  1        2 0.18990233E+00 0.99988330E+03</pdfrwt>
<pdfrwt beam="2">  1       -2 0.20058954E+00 0.99988330E+03</pdfrwt>
<totfact> 0.23637138E+00</totfact>
</mgrwt>
</event>
<event>
 4    2  0.3747163E-007  0.6961624E+03  0.7818608E-02  0.1001351E+00
          2   -1    0    0  501    0  0.00000000000E+00  0.00000000000E+00  0.53809507008E+03  0.53809507009E+03  0.25500000000E-02 0. -1.
         -2   -1    0    0    0  501 -0.00000000000E+00 -0.00000000000E+00 -0.62098465868E+03  0.62098465868E+03  0.25500000000E-02 0.  1.
    8880023    1    1    2    0    0 -0.12626758694E+03 -0.18678432521E+03  0.24021866932E+03  0.73644219258E+03  0.65864270000E+03 0. -1.
    8880022    1    1    2    0    0  0.12626758694E+03  0.18678432521E+03 -0.32310825792E+03  0.42263753620E+03  0.15294330000E+03 0.  0.
<mgrwt>
<rscale>  0 0.55061829E+03</rscale>
<asrwt>0</asrwt>
<pdfrwt beam="1">  1        2 0.82783857E-01 0.69616240E+03</pdfrwt>
<pdfrwt beam="2">  1       -2 0.95536101E-01 0.69616240E+03</pdfrwt>
<totfact> 0.52781997E+01</totfact>
</mgrwt>
</event>
<event>
 4    2  0.3747163E-007  0.7091209E+03  0.7818608E-02  0.9961280E-01
         -2   -1    0    0    0  501 -0.00000000000E+00  0.00000000000E+00  0.63650782575E+03  0.63650782576E+03  0.25500000000E-02 0.  1.
          2   -1    0    0  501    0  0.00000000000E+00 -0.00000000000E+00 -0.12309136159E+04  0.12309136159E+04  0.25500000000E-02 0. -1.
    8880023    1    1    2    0    0 -0.14328238256E+03  0.22025534788E+03 -0.10814889060E+04  0.12932403951E+04  0.65864270000E+03 0. -1.
    8880022    1    1    2    0    0  0.14328238256E+03 -0.22025534788E+03  0.48708311588E+03  0.57418104655E+03  0.15294330000E+03 0.  0.
<mgrwt>
<rscale>  0 0.57381135E+03</rscale>
<asrwt>0</asrwt>
<pdfrwt beam="1">  1        2 0.18937132E+00 0.70912091E+03</pdfrwt>
<pdfrwt beam="2">  1       -2 0.97924281E-01 0.70912091E+03</pdfrwt>
<totfact> 0.16147920E+01</totfact>
</mgrwt>
</event>
<event>
 4    2  0.3747163E-007  0.8807863E+03  0.7818608E-02  0.9557608E-01
         -2   -1    0    0    0  501 -0.00000000000E+00  0.00000000000E+00  0.76891072019E+03  0.76891072020E+03  0.25500000000E-02 0.  1.
          2   -1    0    0  501    0  0.00000000000E+00 -0.00000000000E+00 -0.77005370960E+03  0.77005370960E+03  0.25500000000E-02 0. -1.
    8880023    1    1    2    0    0  0.55830013054E+03 -0.17399777062E+03 -0.19893197539E+03  0.90297198021E+03  0.65864270000E+03 0. -1.
    8880022    1    1    2    0    0 -0.55830013054E+03  0.17399777062E+03  0.19778898599E+03  0.63599244959E+03  0.15294330000E+03 0.  1.
<mgrwt>
<rscale>  0 0.80166682E+03</rscale>
<asrwt>0</asrwt>
<pdfrwt beam="1">  1        2 0.11846980E+00 0.88078628E+03</pdfrwt>
<pdfrwt beam="2">  1       -2 0.11829396E+00 0.88078628E+03</pdfrwt>
<totfact> 0.19986942E+01</totfact>
</mgrwt>
</event>
<event>
 4    2  0.3747163E-007  0.7583834E+03  0.7818608E-02  0.9809311E-01
         -2   -1    0    0    0  501 -0.00000000000E+00  0.00000000000E+00  0.24172834424E+04  0.24172834424E+04  0.25500000000E-02 0.  1.
          2   -1    0    0  501    0  0.00000000000E+00 -0.00000000000E+00 -0.75373231943E+03  0.75373231943E+03  0.25500000000E-02 0. -1.
    8880023    1    1    2    0    0  0.28352693966E+03  0.24687565264E+03 -0.53962083433E+03  0.93077170374E+03  0.65864270000E+03 0.  0.
    8880022    1    1    2    0    0 -0.28352693966E+03 -0.24687565264E+03  0.22031719573E+04  0.22402440581E+04  0.15294330000E+03 0.  0.
<mgrwt>
<rscale>  0 0.64865253E+03</rscale>
<asrwt>0</asrwt>
<pdfrwt beam="1">  1        2 0.11595882E+00 0.75838336E+03</pdfrwt>
<pdfrwt beam="2">  1       -2 0.37188976E+00 0.75838336E+03</pdfrwt>
<totfact> 0.44558289E-01</totfact>
</mgrwt>
</event>
<event>
 4    2  0.3747163E-007  0.1271567E+04  0.7818608E-02  0.9090511E-01
          2   -1    0    0  501    0  0.00000000000E+00  0.00000000000E+00  0.43686086121E+04  0.43686086121E+04  0.25500000000E-02 0. -1.
         -2   -1    0    0    0  501 -0.00000000000E+00 -0.00000000000E+00 -0.51312272744E+03  0.51312272745E+03  0.25500000000E-02 0.  1.
    8880023    1    1    2    0    0  0.97750653743E+03 -0.47702532508E+03  0.35053939155E+04  0.37288964722E+04  0.65864270000E+03 0. -1.
    8880022    1    1    2    0    0 -0.97750653743E+03  0.47702532508E+03  0.35009196918E+03  0.11528348674E+04  0.15294330000E+03 0.  0.
<mgrwt>
<rscale>  0 0.12258680E+04</rscale>
<asrwt>0</asrwt>
<pdfrwt beam="1">  1        2 0.67209363E+00 0.12715669E+04</pdfrwt>
<pdfrwt beam="2">  1       -2 0.78941958E-01 0.12715669E+04</pdfrwt>
<totfact> 0.23757698E-01</totfact>
</mgrwt>
</event>
<event>
 4    2  0.3747163E-007  0.6884633E+03  0.7818608E-02  0.1004892E+00
         -2   -1    0    0    0  501 -0.00000000000E+00  0.00000000000E+00  0.74742838450E+03  0.74742838450E+03  0.25500000000E-02 0.  1.
          2   -1    0    0  501    0  0.00000000000E+00 -0.00000000000E+00 -0.68626710456E+03  0.68626710457E+03  0.25500000000E-02 0. -1.
    8880023    1    1    2    0    0  0.43142033857E+02  0.19573008338E+03 -0.47824887542E+03  0.83827423539E+03  0.65864270000E+03 0. -1.
    8880022    1    1    2    0    0 -0.43142033857E+02 -0.19573008338E+03  0.53941015535E+03  0.59542125368E+03  0.15294330000E+03 0.  0.
<mgrwt>
<rscale>  0 0.53556387E+03</rscale>
<asrwt>0</asrwt>
<pdfrwt beam="1">  1        2 0.10557955E+00 0.68846329E+03</pdfrwt>
<pdfrwt beam="2">  1       -2 0.11498898E+00 0.68846329E+03</pdfrwt>
<totfact> 0.25255904E+01</totfact>
</mgrwt>
</event>
<event>
 4    2  0.3747163E-007  0.8614359E+03  0.7818608E-02  0.9591014E-01
          2   -1    0    0  501    0  0.00000000000E+00  0.00000000000E+00  0.20122321637E+04  0.20122321637E+04  0.25500000000E-02 0. -1.
         -2   -1    0    0    0  501 -0.00000000000E+00 -0.00000000000E+00 -0.84102181878E+03  0.84102181878E+03  0.25500000000E-02 0.  1.
    8880023    1    1    2    0    0  0.22093727201E+03 -0.50936066150E+03  0.18030971833E+04  0.19983070886E+04  0.65864270000E+03 0.  0.
    8880022    1    1    2    0    0 -0.22093727201E+03  0.50936066150E+03 -0.63188683844E+03  0.85494689382E+03  0.15294330000E+03 0.  0.
<mgrwt>
<rscale>  0 0.77893773E+03</rscale>
<asrwt>0</asrwt>
<pdfrwt beam="1">  1        2 0.30957418E+00 0.86143588E+03</pdfrwt>
<pdfrwt beam="2">  1       -2 0.12938797E+00 0.86143588E+03</pdfrwt>
<totfact> 0.29437896E+00</totfact>
</mgrwt>
</event>
<event>
 4    2  0.3747163E-007  0.1188970E+04  0.7818608E-02  0.9167919E-01
          2   -1    0    0  501    0  0.00000000000E+00  0.00000000000E+00  0.74081515078E+03  0.74081515079E+03  0.25500000000E-02 0. -1.
         -2   -1    0    0    0  501 -0.00000000000E+00 -0.00000000000E+00 -0.25858943897E+04  0.25858943897E+04  0.25500000000E-02 0.  1.
    8880023    1    1    2    0    0  0.83317551501E+03 -0.53447010241E+03  0.42626547811E+02  0.11897339862E+04  0.65864270000E+03 0.  0.
    8880022    1    1    2    0    0 -0.83317551501E+03  0.53447010241E+03 -0.18877057868E+04  0.21369755543E+04  0.15294330000E+03 0.  0.
<mgrwt>
<rscale>  0 0.11390777E+04</rscale>
<asrwt>0</asrwt>
<pdfrwt beam="1">  1        2 0.11397156E+00 0.11889701E+04</pdfrwt>
<pdfrwt beam="2">  1       -2 0.39782990E+00 0.11889701E+04</pdfrwt>
<totfact> 0.28948375E-01</totfact>
</mgrwt>
</event>
<event>
 4    2  0.3747163E-007  0.8721188E+03  0.7818608E-02  0.9572360E-01
          2   -1    0    0  501    0  0.00000000000E+00  0.00000000000E+00  0.31011053084E+04  0.31011053084E+04  0.25500000000E-02 0. -1.
         -2   -1    0    0    0  501 -0.00000000000E+00 -0.00000000000E+00 -0.34839774487E+03  0.34839774488E+03  0.25500000000E-02 0.  1.
    8880023    1    1    2    0    0  0.54514269812E+03 -0.17204796957E+03  0.27205026177E+04  0.28568734246E+04  0.65864270000E+03 0. -1.
    8880022    1    1    2    0    0 -0.54514269812E+03  0.17204796957E+03  0.32204945766E+02  0.59262962860E+03  0.15294330000E+03 0.  0.
<mgrwt>
<rscale>  0 0.79152938E+03</rscale>
<asrwt>0</asrwt>
<pdfrwt beam="1">  1        2 0.47709314E+00 0.87211884E+03</pdfrwt>
<pdfrwt beam="2">  1       -2 0.53599651E-01 0.87211884E+03</pdfrwt>
<totfact> 0.51545647E+00</totfact>
</mgrwt>
</event>
<event>
 4    2  0.3747163E-007  0.7161723E+03  0.7818608E-02  0.9935757E-01
          2   -1    0    0  501    0  0.00000000000E+00  0.00000000000E+00  0.12306857429E+04  0.12306857429E+04  0.25500000000E-02 0. -1.
         -2   -1    0    0    0  501 -0.00000000000E+00 -0.00000000000E+00 -0.22521760093E+03  0.22521760095E+03  0.25500000000E-02 0.  1.
    8880023    1    1    2    0    0 -0.14442261615E+02  0.28086283813E+03  0.56940272709E+03  0.91494381502E+03  0.65864270000E+03 0. -1.
    8880022    1    1    2    0    0  0.14442261615E+02 -0.28086283813E+03  0.43606541490E+03  0.54095952885E+03  0.15294330000E+03 0.  0.
<mgrwt>
<rscale>  0 0.58559212E+03</rscale>
<asrwt>0</asrwt>
<pdfrwt beam="1">  1        2 0.18933627E+00 0.71617227E+03</pdfrwt>
<pdfrwt beam="2">  1       -2 0.34648862E-01 0.71617227E+03</pdfrwt>
<totfact> 0.14409391E+02</totfact>
</mgrwt>
</event>
<event>
 4    2  0.3747163E-007  0.6795996E+03  0.7818608E-02  0.1009551E+00
          2   -1    0    0  501    0  0.00000000000E+00  0.00000000000E+00  0.28290899990E+04  0.28290899990E+04  0.25500000000E-02 0. -1.
         -2   -1    0    0    0  501 -0.00000000000E+00 -0.00000000000E+00 -0.73480566197E+02  0.73480566242E+02  0.25500000000E-02 0.  1.
    8880023    1    1    2    0    0 -0.15432261720E+03 -0.65037724285E+02  0.19198588818E+04  0.20365936531E+04  0.65864270000E+03 0. -1.
    8880022    1    1    2    0    0  0.15432261720E+03  0.65037724285E+02  0.83575055100E+03  0.86597691209E+03  0.15294330000E+03 0.  1.
<mgrwt>
<rscale>  0 0.51653447E+03</rscale>
<asrwt>0</asrwt>
<pdfrwt beam="1">  1        2 0.43524459E+00 0.67959957E+03</pdfrwt>
<pdfrwt beam="2">  1       -2 0.11304703E-01 0.67959957E+03</pdfrwt>
<totfact> 0.13192091E+02</totfact>
</mgrwt>
</event>
<event>
 4    2  0.3747163E-007  0.8136005E+03  0.7818608E-02  0.9682125E-01
         -2   -1    0    0    0  501 -0.00000000000E+00  0.00000000000E+00  0.18946133407E+03  0.18946133409E+03  0.25500000000E-02 0.  1.
          2   -1    0    0  501    0  0.00000000000E+00 -0.00000000000E+00 -0.33745789336E+04  0.33745789336E+04  0.25500000000E-02 0. -1.
    8880023    1    1    2    0    0 -0.11220903172E+03 -0.46426791342E+03 -0.28425300236E+04  0.29566742640E+04  0.65864270000E+03 0. -1.
    8880022    1    1    2    0    0  0.11220903172E+03  0.46426791342E+03 -0.34258757597E+03  0.60736600370E+03  0.15294330000E+03 0.  0.
<mgrwt>
<rscale>  0 0.72091079E+03</rscale>
<asrwt>0</asrwt>
<pdfrwt beam="1">  1        2 0.51916594E+00 0.81360050E+03</pdfrwt>
<pdfrwt beam="2">  1       -2 0.29147900E-01 0.81360050E+03</pdfrwt>
<totfact> 0.11402355E+01</totfact>
</mgrwt>
</event>
<event>
 4    2  0.3747163E-007  0.6658327E+03  0.7818608E-02  0.1018845E+00
         -2   -1    0    0    0  501 -0.00000000000E+00  0.00000000000E+00  0.30349106187E+03  0.30349106188E+03  0.25500000000E-02 0.  1.
          2   -1    0    0  501    0  0.00000000000E+00 -0.00000000000E+00 -0.59622251959E+03  0.59622251960E+03  0.25500000000E-02 0. -1.
    8880023    1    1    2    0    0 -0.97094607396E+02  0.97812793330E+01 -0.26288734650E+03  0.71585124113E+03  0.65864270000E+03 0. -1.
    8880022    1    1    2    0    0  0.97094607396E+02 -0.97812793330E+01 -0.29844111217E+02  0.18386234035E+03  0.15294330000E+03 0. -1.
<mgrwt>
<rscale>  0 0.48105816E+03</rscale>
<asrwt>0</asrwt>
<pdfrwt beam="1">  1        2 0.91726541E-01 0.66583274E+03</pdfrwt>
<pdfrwt beam="2">  1       -2 0.46690933E-01 0.66583274E+03</pdfrwt>
<totfact> 0.22011932E+02</totfact>
</mgrwt>
</event>
<event>
 4    2  0.3747163E-007  0.9437711E+03  0.7818608E-02  0.9459133E-01
         -2   -1    0    0    0  501 -0.00000000000E+00  0.00000000000E+00  0.52965340623E+03  0.52965340623E+03  0.25500000000E-02 0.  1.
          2   -1    0    0  501    0  0.00000000000E+00 -0.00000000000E+00 -0.13831987759E+04  0.13831987759E+04  0.25500000000E-02 0. -1.
    8880023    1    1    2    0    0 -0.67522829595E+03 -0.30990501721E+02 -0.76363291182E+03  0.12140177483E+04  0.65864270000E+03 0.  0.
    8880022    1    1    2    0    0  0.67522829595E+03  0.30990501721E+02 -0.89912457840E+02  0.69883443385E+03  0.15294330000E+03 0.  0.
<mgrwt>
<rscale>  0 0.87364987E+03</rscale>
<asrwt>0</asrwt>
<pdfrwt beam="1">  1        2 0.21279981E+00 0.94377109E+03</pdfrwt>
<pdfrwt beam="2">  1       -2 0.81485140E-01 0.94377109E+03</pdfrwt>
<totfact> 0.19648157E+01</totfact>
</mgrwt>
</event>
<event>
 4    2  0.3747163E-007  0.8118652E+03  0.7818608E-02  0.9685705E-01
          2   -1    0    0  501    0  0.00000000000E+00  0.00000000000E+00  0.32683822576E+04  0.32683822576E+04  0.25500000000E-02 0. -1.
         -2   -1    0    0    0  501 -0.00000000000E+00 -0.00000000000E+00 -0.26085751411E+03  0.26085751412E+03  0.25500000000E-02 0.  1.
    8880023    1    1    2    0    0  0.42529515287E+03  0.21080538815E+03  0.29099466268E+04  0.30210783598E+04  0.65864270000E+03 0.  0.
    8880022    1    1    2    0    0 -0.42529515287E+03 -0.21080538815E+03  0.97578116686E+02  0.50816141195E+03  0.15294330000E+03 0.  1.
<mgrwt>
<rscale>  0 0.71874335E+03</rscale>
<asrwt>0</asrwt>
<pdfrwt beam="1">  1        2 0.50282805E+00 0.81186519E+03</pdfrwt>
<pdfrwt beam="2">  1       -2 0.40131924E-01 0.81186519E+03</pdfrwt>
<totfact> 0.72913172E+00</totfact>
</mgrwt>
</event>
<event>
 4    2  0.3747163E-007  0.7140644E+03  0.7818608E-02  0.9943207E-01
         -2   -1    0    0    0  501 -0.00000000000E+00  0.00000000000E+00  0.12571114835E+03  0.12571114838E+03  0.25500000000E-02 0.  1.
          2   -1    0    0  501    0  0.00000000000E+00 -0.00000000000E+00 -0.40612504559E+04  0.40612504559E+04  0.25500000000E-02 0. -1.
    8880023    1    1    2    0    0  0.21110521322E+03  0.17751718560E+03 -0.37575887846E+04  0.38248348256E+04  0.65864270000E+03 0. -1.
    8880022    1    1    2    0    0 -0.21110521322E+03 -0.17751718560E+03 -0.17795052290E+03  0.36212677870E+03  0.15294330000E+03 0.  0.
<mgrwt>
<rscale>  0 0.58212229E+03</rscale>
<asrwt>0</asrwt>
<pdfrwt beam="1">  1        2 0.62480766E+00 0.71406440E+03</pdfrwt>
<pdfrwt beam="2">  1       -2 0.19340180E-01 0.71406440E+03</pdfrwt>
<totfact> 0.76851608E+00</totfact>
</mgrwt>
</event>
<event>
 4    2  0.3747163E-007  0.6587426E+03  0.7818608E-02  0.1025483E+00
         -2   -1    0    0    0  501 -0.00000000000E+00  0.00000000000E+00  0.10462305246E+04  0.10462305246E+04  0.25500000000E-02 0.  1.
          2   -1    0    0  501    0  0.00000000000E+00 -0.00000000000E+00 -0.40530738848E+03  0.40530738849E+03  0.25500000000E-02 0. -1.
    8880023    1    1    2    0    0 -0.94392647598E+01  0.65168156211E+01 -0.12492473428E+03  0.67048338093E+03  0.65864270000E+03 0. -1.
    8880022    1    1    2    0    0  0.94392647598E+01 -0.65168156211E+01  0.76584787037E+03  0.78105453213E+03  0.15294330000E+03 0.  0.
<mgrwt>
<rscale>  0 0.45758723E+03</rscale>
<asrwt>0</asrwt>
<pdfrwt beam="1">  1        2 0.62354983E-01 0.65874257E+03</pdfrwt>
<pdfrwt beam="2">  1       -2 0.16095854E+00 0.65874257E+03</pdfrwt>
<totfact> 0.19844921E+01</totfact>
</mgrwt>
</event>
<event>
 4    2  0.3747163E-007  0.7206655E+03  0.7818608E-02  0.9920341E-01
         -2   -1    0    0    0  501 -0.00000000000E+00  0.00000000000E+00  0.47779208757E+03  0.47779208758E+03  0.25500000000E-02 0.  1.
          2   -1    0    0  501    0  0.00000000000E+00 -0.00000000000E+00 -0.10223833695E+04  0.10223833695E+04  0.25500000000E-02 0. -1.
    8880023    1    1    2    0    0 -0.11113807460E+03 -0.27054911657E+03 -0.80448700422E+03  0.10800731653E+04  0.65864270000E+03 0. -1.
    8880022    1    1    2    0    0  0.11113807460E+03  0.27054911657E+03  0.25989572230E+03  0.42010229181E+03  0.15294330000E+03 0.  0.
<mgrwt>
<rscale>  0 0.59285539E+03</rscale>
<asrwt>0</asrwt>
<pdfrwt beam="1">  1        2 0.15728975E+00 0.72066546E+03</pdfrwt>
<pdfrwt beam="2">  1       -2 0.73506475E-01 0.72066546E+03</pdfrwt>
<totfact> 0.41452440E+01</totfact>
</mgrwt>
</event>
<event>
 4    2  0.3747163E-007  0.6929588E+03  0.7818608E-02  0.1002777E+00
         -2   -1    0    0    0  501 -0.00000000000E+00  0.00000000000E+00  0.26582668911E+03  0.26582668912E+03  0.25500000000E-02 0.  1.
          2   -1    0    0  501    0  0.00000000000E+00 -0.00000000000E+00 -0.11560342428E+04  0.11560342428E+04  0.25500000000E-02 0. -1.
    8880023    1    1    2    0    0  0.11265221719E+03  0.18355164485E+03 -0.92463171868E+03  0.11554807440E+04  0.65864270000E+03 0. -1.
    8880022    1    1    2    0    0 -0.11265221719E+03 -0.18355164485E+03  0.34424164965E+02  0.26638018792E+03  0.15294330000E+03 0.  0.
<mgrwt>
<rscale>  0 0.54449236E+03</rscale>
<asrwt>0</asrwt>
<pdfrwt beam="1">  1        2 0.17785142E+00 0.69295883E+03</pdfrwt>
<pdfrwt beam="2">  1       -2 0.40896415E-01 0.69295883E+03</pdfrwt>
<totfact> 0.11611346E+02</totfact>
</mgrwt>
</event>
<event>
 4    2  0.3747163E-007  0.7860439E+03  0.7818608E-02  0.9741827E-01
          2   -1    0    0  501    0  0.00000000000E+00  0.00000000000E+00  0.18721930474E+04  0.18721930474E+04  0.25500000000E-02 0. -1.
         -2   -1    0    0    0  501 -0.00000000000E+00 -0.00000000000E+00 -0.65798648548E+03  0.65798648549E+03  0.25500000000E-02 0.  1.
    8880023    1    1    2    0    0  0.94889576838E+02 -0.41839062584E+03  0.16947010309E+04  0.18681211251E+04  0.65864270000E+03 0.  0.
    8880022    1    1    2    0    0 -0.94889576838E+02  0.41839062584E+03 -0.48049446900E+03  0.66205840779E+03  0.15294330000E+03 0.  0.
<mgrwt>
<rscale>  0 0.68580133E+03</rscale>
<asrwt>0</asrwt>
<pdfrwt beam="1">  1        2 0.28802970E+00 0.78604386E+03</pdfrwt>
<pdfrwt beam="2">  1       -2 0.10122869E+00 0.78604386E+03</pdfrwt>
<totfact> 0.64844946E+00</totfact>
</mgrwt>
</event>
<event>
 4    2  0.3747163E-007  0.6981166E+03  0.7818608E-02  0.1000511E+00
         -2   -1    0    0    0  501 -0.00000000000E+00  0.00000000000E+00  0.57391957747E+03  0.57391957747E+03  0.25500000000E-02 0.  1.
          2   -1    0    0  501    0  0.00000000000E+00 -0.00000000000E+00 -0.77753429445E+03  0.77753429446E+03  0.25500000000E-02 0. -1.
    8880023    1    1    2    0    0  0.19674322641E+03 -0.12185545442E+03 -0.56343464285E+03  0.89712064514E+03  0.65864270000E+03 0. -1.
    8880022    1    1    2    0    0 -0.19674322641E+03  0.12185545442E+03  0.35981992586E+03  0.45433322679E+03  0.15294330000E+03 0.  0.
<mgrwt>
<rscale>  0 0.55426937E+03</rscale>
<asrwt>0</asrwt>
<pdfrwt beam="1">  1        2 0.11962066E+00 0.69811665E+03</pdfrwt>
<pdfrwt beam="2">  1       -2 0.88295319E-01 0.69811665E+03</pdfrwt>
<totfact> 0.40226782E+01</totfact>
</mgrwt>
</event>
<event>
 4    2  0.3747163E-007  0.6748737E+03  0.7818608E-02  0.1012386E+00
         -2   -1    0    0    0  501 -0.00000000000E+00  0.00000000000E+00  0.22771165516E+03  0.22771165518E+03  0.25500000000E-02 0.  1.
          2   -1    0    0  501    0  0.00000000000E+00 -0.00000000000E+00 -0.11499733814E+04  0.11499733814E+04  0.25500000000E-02 0. -1.
    8880023    1    1    2    0    0 -0.10489512178E+03 -0.10315708241E+03 -0.94824561321E+03  0.11638832929E+04  0.65864270000E+03 0. -1.
    8880022    1    1    2    0    0  0.10489512178E+03  0.10315708241E+03  0.25983886941E+02  0.21380174373E+03  0.15294330000E+03 0.  0.
<mgrwt>
<rscale>  0 0.50537285E+03</rscale>
<asrwt>0</asrwt>
<pdfrwt beam="1">  1        2 0.17691898E+00 0.67487375E+03</pdfrwt>
<pdfrwt beam="2">  1       -2 0.35032563E-01 0.67487375E+03</pdfrwt>
<totfact> 0.15802942E+02</totfact>
</mgrwt>
</event>
<event>
 4    2  0.3747163E-007  0.6994967E+03  0.7818608E-02  0.9999296E-01
          2   -1    0    0  501    0  0.00000000000E+00  0.00000000000E+00  0.61110361754E+03  0.61110361754E+03  0.25500000000E-02 0. -1.
         -2   -1    0    0    0  501 -0.00000000000E+00 -0.00000000000E+00 -0.12283308607E+04  0.12283308607E+04  0.25500000000E-02 0.  1.
    8880023    1    1    2    0    0  0.16934241979E+03 -0.16373316268E+03  0.38510454170E+03  0.79849929118E+03  0.65864270000E+03 0.  0.
    8880022    1    1    2    0    0 -0.16934241979E+03  0.16373316268E+03 -0.10023317849E+04  0.10409351871E+04  0.15294330000E+03 0.  0.
<mgrwt>
<rscale>  0 0.55681135E+03</rscale>
<asrwt>0</asrwt>
<pdfrwt beam="1">  1        2 0.94015941E-01 0.69949668E+03</pdfrwt>
<pdfrwt beam="2">  1       -2 0.18897398E+00 0.69949668E+03</pdfrwt>
<totfact> 0.78274807E+00</totfact>
</mgrwt>
</event>
<event>
 4    2  0.5046724E-007  0.8135867E+03  0.7818608E-02  0.9682154E-01
          2   -1    0    0  501    0  0.00000000000E+00  0.00000000000E+00  0.28767505980E+04  0.28767505980E+04  0.25500000000E-02 0. -1.
         -2   -1    0    0    0  501 -0.00000000000E+00 -0.00000000000E+00 -0.10748313919E+04  0.10748313920E+04  0.25500000000E-02 0.  1.
    8880023    1    1    2    0    0  0.23802555625E+03 -0.41407358000E+03  0.27560790751E+04  0.28736553672E+04  0.65864270000E+03 0.  0.
    8880022    1    1    2    0    0 -0.23802555625E+03  0.41407358000E+03 -0.95415986910E+03  0.10779266227E+04  0.15294330000E+03 0.  0.
<mgrwt>
<rscale>  0 0.72089357E+03</rscale>
<asrwt>0</asrwt>
<pdfrwt beam="1">  1        2 0.44257700E+00 0.81358669E+03</pdfrwt>
<pdfrwt beam="2">  1       -2 0.16535868E+00 0.81358669E+03</pdfrwt>
<totfact> 0.50233353E-01</totfact>
</mgrwt>
</event>
<event>
 4    2  0.3747163E-007  0.1068728E+04  0.7818608E-02  0.9296699E-01
         -2   -1    0    0    0  501 -0.00000000000E+00  0.00000000000E+00  0.67624418483E+03  0.67624418483E+03  0.25500000000E-02 0.  1.
          2   -1    0    0  501    0  0.00000000000E+00 -0.00000000000E+00 -0.20535882546E+04  0.20535882546E+04  0.25500000000E-02 0. -1.
    8880023    1    1    2    0    0 -0.75814942978E+03 -0.36548562344E+03 -0.15245420275E+04  0.18618294494E+04  0.65864270000E+03 0.  0.
    8880022    1    1    2    0    0  0.75814942978E+03  0.36548562344E+03  0.14719795778E+03  0.86800298998E+03  0.15294330000E+03 0.  0.
<mgrwt>
<rscale>  0 0.10108734E+04</rscale>
<asrwt>0</asrwt>
<pdfrwt beam="1">  1        2 0.31593665E+00 0.10687285E+04</pdfrwt>
<pdfrwt beam="2">  1       -2 0.10403757E+00 0.10687285E+04</pdfrwt>
<totfact> 0.46532464E+00</totfact>
</mgrwt>
</event>
<event>
 4    2  0.3747163E-007  0.7430748E+03  0.7818608E-02  0.9851079E-01
          2   -1    0    0  501    0  0.00000000000E+00  0.00000000000E+00  0.67646120048E+03  0.67646120049E+03  0.25500000000E-02 0. -1.
         -2   -1    0    0    0  501 -0.00000000000E+00 -0.00000000000E+00 -0.92313862861E+03  0.92313862861E+03  0.25500000000E-02 0.  1.
    8880023    1    1    2    0    0 -0.10605591355E+03  0.32726452112E+03  0.40552830996E+03  0.84653017668E+03  0.65864270000E+03 0.  0.
    8880022    1    1    2    0    0  0.10605591355E+03 -0.32726452112E+03 -0.65220573809E+03  0.75306965242E+03  0.15294330000E+03 0.  0.
<mgrwt>
<rscale>  0 0.62691917E+03</rscale>
<asrwt>0</asrwt>
<pdfrwt beam="1">  1        2 0.10407095E+00 0.74307478E+03</pdfrwt>
<pdfrwt beam="2">  1       -2 0.14202133E+00 0.74307478E+03</pdfrwt>
<totfact> 0.15026721E+01</totfact>
</mgrwt>
</event>
<event>
 4    2  0.3747163E-007  0.6874597E+03  0.7818608E-02  0.1005384E+00
         -2   -1    0    0    0  501 -0.00000000000E+00  0.00000000000E+00  0.40067705281E+03  0.40067705281E+03  0.25500000000E-02 0.  1.
          2   -1    0    0  501    0  0.00000000000E+00 -0.00000000000E+00 -0.87052449097E+03  0.87052449098E+03  0.25500000000E-02 0. -1.
    8880023    1    1    2    0    0 -0.15560784808E+03  0.12073454083E+03 -0.66353934538E+03  0.95545031313E+03  0.65864270000E+03 0. -1.
    8880022    1    1    2    0    0  0.15560784808E+03 -0.12073454083E+03  0.19369190721E+03  0.31575123066E+03  0.15294330000E+03 0.  0.
<mgrwt>
<rscale>  0 0.53351148E+03</rscale>
<asrwt>0</asrwt>
<pdfrwt beam="1">  1        2 0.13392684E+00 0.68745970E+03</pdfrwt>
<pdfrwt beam="2">  1       -2 0.61642624E-01 0.68745970E+03</pdfrwt>
<totfact> 0.76494780E+01</totfact>
</mgrwt>
</event>
<event>
 4    2  0.3747163E-007  0.7807533E+03  0.7818608E-02  0.9754070E-01
         -2   -1    0    0    0  501 -0.00000000000E+00  0.00000000000E+00  0.40695711577E+03  0.40695711578E+03  0.25500000000E-02 0.  1.
          2   -1    0    0  501    0  0.00000000000E+00 -0.00000000000E+00 -0.22424512585E+04  0.22424512585E+04  0.25500000000E-02 0. -1.
    8880023    1    1    2    0    0  0.14798173561E+03 -0.39225871694E+03 -0.20206581889E+04  0.21662491126E+04  0.65864270000E+03 0. -1.
    8880022    1    1    2    0    0 -0.14798173561E+03  0.39225871694E+03  0.18516404623E+03  0.48315926165E+03  0.15294330000E+03 0.  0.
<mgrwt>
<rscale>  0 0.67886725E+03</rscale>
<asrwt>0</asrwt>
<pdfrwt beam="1">  1        2 0.34499250E+00 0.78075329E+03</pdfrwt>
<pdfrwt beam="2">  1       -2 0.62608788E-01 0.78075329E+03</pdfrwt>
<totfact> 0.11981277E+01</totfact>
</mgrwt>
</event>
<event>
 4    2  0.3747163E-007  0.6915115E+03  0.7818608E-02  0.1003442E+00
         -2   -1    0    0    0  501 -0.00000000000E+00  0.00000000000E+00  0.19105669311E+03  0.19105669312E+03  0.25500000000E-02 0.  1.
          2   -1    0    0  501    0  0.00000000000E+00 -0.00000000000E+00 -0.18912052295E+04  0.18912052295E+04  0.25500000000E-02 0. -1.
    8880023    1    1    2    0    0  0.77371589181E+02  0.19593770183E+03 -0.16851370661E+04  0.18215035228E+04  0.65864270000E+03 0. -1.
    8880022    1    1    2    0    0 -0.77371589181E+02 -0.19593770183E+03 -0.15011470274E+02  0.26075839980E+03  0.15294330000E+03 0.  1.
<mgrwt>
<rscale>  0 0.54166269E+03</rscale>
<asrwt>0</asrwt>
<pdfrwt beam="1">  1        2 0.29095464E+00 0.69151150E+03</pdfrwt>
<pdfrwt beam="2">  1       -2 0.29393339E-01 0.69151150E+03</pdfrwt>
<totfact> 0.84371067E+01</totfact>
</mgrwt>
</event>
<event>
 4    2  0.3747163E-007  0.6883040E+03  0.7818608E-02  0.1004969E+00
         -2   -1    0    0    0  501 -0.00000000000E+00  0.00000000000E+00  0.16819463369E+03  0.16819463371E+03  0.25500000000E-02 0.  1.
          2   -1    0    0  501    0  0.00000000000E+00 -0.00000000000E+00 -0.31764860881E+04  0.31764860881E+04  0.25500000000E-02 0. -1.
    8880023    1    1    2    0    0 -0.18167390996E+03  0.83347527357E+02 -0.30153387726E+04  0.30928999886E+04  0.65864270000E+03 0.  0.
    8880022    1    1    2    0    0  0.18167390996E+03 -0.83347527357E+02  0.70473182190E+01  0.25178073315E+03  0.15294330000E+03 0.  0.
<mgrwt>
<rscale>  0 0.53523969E+03</rscale>
<asrwt>0</asrwt>
<pdfrwt beam="1">  1        2 0.48869012E+00 0.68830402E+03</pdfrwt>
<pdfrwt beam="2">  1       -2 0.25876100E-01 0.68830402E+03</pdfrwt>
<totfact> 0.19476625E+01</totfact>
</mgrwt>
</event>
<event>
 4    2  0.3747163E-007  0.9698790E+03  0.7818608E-02  0.9422072E-01
         -2   -1    0    0    0  501 -0.00000000000E+00  0.00000000000E+00  0.70384696728E+03  0.70384696729E+03  0.25500000000E-02 0.  1.
          2   -1    0    0  501    0  0.00000000000E+00 -0.00000000000E+00 -0.19278877476E+04  0.19278877476E+04  0.25500000000E-02 0. -1.
    8880023    1    1    2    0    0 -0.47485145031E+02  0.71035221951E+03 -0.15543650303E+04  0.18321342659E+04  0.65864270000E+03 0. -1.
    8880022    1    1    2    0    0  0.47485145031E+02 -0.71035221951E+03  0.33032425000E+03  0.79960044892E+03  0.15294330000E+03 0.  0.
<mgrwt>
<rscale>  0 0.90281326E+03</rscale>
<asrwt>0</asrwt>
<pdfrwt beam="1">  1        2 0.29659811E+00 0.96987902E+03</pdfrwt>
<pdfrwt beam="2">  1       -2 0.10828415E+00 0.96987902E+03</pdfrwt>
<totfact> 0.50142388E+00</totfact>
</mgrwt>
</event>
<event>
 4    2  0.3747163E-007  0.7585645E+03  0.7818608E-02  0.9808838E-01
          2   -1    0    0  501    0  0.00000000000E+00  0.00000000000E+00  0.23445321371E+04  0.23445321371E+04  0.25500000000E-02 0. -1.
         -2   -1    0    0    0  501 -0.00000000000E+00 -0.00000000000E+00 -0.17573064882E+03  0.17573064884E+03  0.25500000000E-02 0.  1.
    8880023    1    1    2    0    0  0.37602482461E+03 -0.14670868646E+02  0.18639339698E+04  0.20123791773E+04  0.65864270000E+03 0.  0.
    8880022    1    1    2    0    0 -0.37602482461E+03  0.14670868646E+02  0.30486751846E+03  0.50788360865E+03  0.15294330000E+03 0.  0.
<mgrwt>
<rscale>  0 0.64890391E+03</rscale>
<asrwt>0</asrwt>
<pdfrwt beam="1">  1        2 0.36069722E+00 0.75856451E+03</pdfrwt>
<pdfrwt beam="2">  1       -2 0.27035487E-01 0.75856451E+03</pdfrwt>
<totfact> 0.55031295E+01</totfact>
</mgrwt>
</event>
<event>
 4    2  0.3747163E-007  0.6607567E+03  0.7818608E-02  0.1023394E+00
         -2   -1    0    0    0  501 -0.00000000000E+00  0.00000000000E+00  0.18657984126E+03  0.18657984128E+03  0.25500000000E-02 0.  1.
          2   -1    0    0  501    0  0.00000000000E+00 -0.00000000000E+00 -0.36420965283E+04  0.36420965283E+04  0.25500000000E-02 0. -1.
    8880023    1    1    2    0    0 -0.16141465582E+02 -0.50286051004E+02 -0.35698927480E+04  0.36305280157E+04  0.65864270000E+03 0. -1.
    8880022    1    1    2    0    0  0.16141465582E+02  0.50286051004E+02  0.11437606096E+03  0.19814835395E+03  0.15294330000E+03 0.  0.
<mgrwt>
<rscale>  0 0.46481404E+03</rscale>
<asrwt>0</asrwt>
<pdfrwt beam="1">  1        2 0.56032249E+00 0.66075672E+03</pdfrwt>
<pdfrwt beam="2">  1       -2 0.28704594E-01 0.66075672E+03</pdfrwt>
<totfact> 0.79337452E+00</totfact>
</mgrwt>
</event>
<event>
 4    2  0.3747163E-007  0.7717979E+03  0.7818608E-02  0.9775469E-01
         -2   -1    0    0    0  501 -0.00000000000E+00  0.00000000000E+00  0.30153668380E+03  0.30153668381E+03  0.25500000000E-02 0.  1.
          2   -1    0    0  501    0  0.00000000000E+00 -0.00000000000E+00 -0.21932106346E+04  0.21932106346E+04  0.25500000000E-02 0. -1.
    8880023    1    1    2    0    0 -0.34973827422E+03  0.19885890158E+03 -0.19140071700E+04  0.20637575866E+04  0.65864270000E+03 0. -1.
    8880022    1    1    2    0    0  0.34973827422E+03 -0.19885890158E+03  0.22333219235E+02  0.43098973177E+03  0.15294330000E+03 0.  0.
<mgrwt>
<rscale>  0 0.66695793E+03</rscale>
<asrwt>0</asrwt>
<pdfrwt beam="1">  1        2 0.33741701E+00 0.77179786E+03</pdfrwt>
<pdfrwt beam="2">  1       -2 0.46390260E-01 0.77179786E+03</pdfrwt>
<totfact> 0.23743276E+01</totfact>
</mgrwt>
</event>
<event>
 4    2  0.3747163E-007  0.7175560E+03  0.7818608E-02  0.9930944E-01
         -2   -1    0    0    0  501 -0.00000000000E+00  0.00000000000E+00  0.22027148361E+03  0.22027148362E+03  0.25500000000E-02 0.  1.
          2   -1    0    0  501    0  0.00000000000E+00 -0.00000000000E+00 -0.17360221680E+04  0.17360221680E+04  0.25500000000E-02 0. -1.
    8880023    1    1    2    0    0 -0.12512899362E+03  0.25577177911E+03 -0.14620568527E+04  0.16286488003E+04  0.65864270000E+03 0.  0.
    8880022    1    1    2    0    0  0.12512899362E+03 -0.25577177911E+03 -0.53693831753E+02  0.32764485135E+03  0.15294330000E+03 0.  0.
<mgrwt>
<rscale>  0 0.58784773E+03</rscale>
<asrwt>0</asrwt>
<pdfrwt beam="1">  1        2 0.26708032E+00 0.71755604E+03</pdfrwt>
<pdfrwt beam="2">  1       -2 0.33887922E-01 0.71755604E+03</pdfrwt>
<totfact> 0.78313403E+01</totfact>
</mgrwt>
</event>
<event>
 4    2  0.3747163E-007  0.7891620E+03  0.7818608E-02  0.9734739E-01
          2   -1    0    0  501    0  0.00000000000E+00  0.00000000000E+00  0.38341379199E+04  0.38341379199E+04  0.25500000000E-02 0. -1.
         -2   -1    0    0    0  501 -0.00000000000E+00 -0.00000000000E+00 -0.13224250008E+03  0.13224250011E+03  0.25500000000E-02 0.  1.
    8880023    1    1    2    0    0  0.27283759344E+03  0.33841716708E+03  0.31502032320E+04  0.32475463261E+04  0.65864270000E+03 0.  0.
    8880022    1    1    2    0    0 -0.27283759344E+03 -0.33841716708E+03  0.55169218784E+03  0.71883409387E+03  0.15294330000E+03 0.  0.
<mgrwt>
<rscale>  0 0.68985572E+03</rscale>
<asrwt>0</asrwt>
<pdfrwt beam="1">  1        2 0.58986748E+00 0.78916205E+03</pdfrwt>
<pdfrwt beam="2">  1       -2 0.20344996E-01 0.78916205E+03</pdfrwt>
<totfact> 0.10393367E+01</totfact>
</mgrwt>
</event>
<event>
 4    2  0.3747163E-007  0.6619708E+03  0.7818608E-02  0.1022222E+00
          2   -1    0    0  501    0  0.00000000000E+00  0.00000000000E+00  0.13609287926E+04  0.13609287926E+04  0.25500000000E-02 0. -1.
         -2   -1    0    0    0  501 -0.00000000000E+00 -0.00000000000E+00 -0.34400794118E+03  0.34400794119E+03  0.25500000000E-02 0.  1.
    8880023    1    1    2    0    0 -0.15789048822E+02 -0.64388122316E+02  0.12523081532E+04  0.14165031032E+04  0.65864270000E+03 0. -1.
    8880022    1    1    2    0    0  0.15789048822E+02  0.64388122316E+02 -0.23538730186E+03  0.28843363058E+03  0.15294330000E+03 0.  0.
<mgrwt>
<rscale>  0 0.46893095E+03</rscale>
<asrwt>0</asrwt>
<pdfrwt beam="1">  1        2 0.20937366E+00 0.66197079E+03</pdfrwt>
<pdfrwt beam="2">  1       -2 0.52924298E-01 0.66197079E+03</pdfrwt>
<totfact> 0.52805961E+01</totfact>
</mgrwt>
</event>
<event>
 4    2  0.3747163E-007  0.8379811E+03  0.7818608E-02  0.9633999E-01
         -2   -1    0    0    0  501 -0.00000000000E+00  0.00000000000E+00  0.74804128977E+03  0.74804128977E+03  0.25500000000E-02 0.  1.
          2   -1    0    0  501    0  0.00000000000E+00 -0.00000000000E+00 -0.15268782011E+04  0.15268782011E+04  0.25500000000E-02 0. -1.
    8880023    1    1    2    0    0  0.10412705556E+03  0.50750330771E+03 -0.12853687847E+04  0.15344005898E+04  0.65864270000E+03 0.  0.
    8880022    1    1    2    0    0 -0.10412705556E+03 -0.50750330771E+03  0.50653187339E+03  0.74051890105E+03  0.15294330000E+03 0.  0.
<mgrwt>
<rscale>  0 0.75086203E+03</rscale>
<asrwt>0</asrwt>
<pdfrwt beam="1">  1        2 0.23490434E+00 0.83798106E+03</pdfrwt>
<pdfrwt beam="2">  1       -2 0.11508328E+00 0.83798106E+03</pdfrwt>
<totfact> 0.73118068E+00</totfact>
</mgrwt>
</event>
<event>
 4    2  0.3747163E-007  0.1153892E+04  0.7818608E-02  0.9203300E-01
         -2   -1    0    0    0  501 -0.00000000000E+00  0.00000000000E+00  0.46665491669E+03  0.46665491670E+03  0.25500000000E-02 0.  1.
          2   -1    0    0  501    0  0.00000000000E+00 -0.00000000000E+00 -0.33743203385E+04  0.33743203385E+04  0.25500000000E-02 0. -1.
    8880023    1    1    2    0    0  0.94640277488E+03 -0.44489831391E+02 -0.25809932395E+04  0.28271883323E+04  0.65864270000E+03 0.  0.
    8880022    1    1    2    0    0 -0.94640277488E+03  0.44489831391E+02 -0.32667218229E+03  0.10137869229E+04  0.15294330000E+03 0.  0.
<mgrwt>
<rscale>  0 0.11019436E+04</rscale>
<asrwt>0</asrwt>
<pdfrwt beam="1">  1        2 0.51912619E+00 0.11538924E+04</pdfrwt>
<pdfrwt beam="2">  1       -2 0.71793066E-01 0.11538924E+04</pdfrwt>
<totfact> 0.17602153E+00</totfact>
</mgrwt>
</event>
<event>
 4    2  0.3747163E-007  0.8291549E+03  0.7818608E-02  0.9650979E-01
         -2   -1    0    0    0  501 -0.00000000000E+00  0.00000000000E+00  0.60513629956E+03  0.60513629956E+03  0.25500000000E-02 0.  1.
          2   -1    0    0  501    0  0.00000000000E+00 -0.00000000000E+00 -0.12746101095E+04  0.12746101095E+04  0.25500000000E-02 0. -1.
    8880023    1    1    2    0    0  0.26405868946E+03  0.42890643532E+03 -0.96802930372E+03  0.12745896049E+04  0.65864270000E+03 0.  0.
    8880022    1    1    2    0    0 -0.26405868946E+03 -0.42890643532E+03  0.29855549379E+03  0.60515680417E+03  0.15294330000E+03 0.  0.
<mgrwt>
<rscale>  0 0.74012027E+03</rscale>
<asrwt>0</asrwt>
<pdfrwt beam="1">  1        2 0.19609386E+00 0.82915495E+03</pdfrwt>
<pdfrwt beam="2">  1       -2 0.93097892E-01 0.82915495E+03</pdfrwt>
<totfact> 0.16904939E+01</totfact>
</mgrwt>
</event>
<event>
 4    2  0.3747163E-007  0.7712017E+03  0.7818608E-02  0.9776926E-01
         -2   -1    0    0    0  501 -0.00000000000E+00  0.00000000000E+00  0.12674729269E+04  0.12674729269E+04  0.25500000000E-02 0.  1.
          2   -1    0    0  501    0  0.00000000000E+00 -0.00000000000E+00 -0.35043347082E+03  0.35043347083E+03  0.25500000000E-02 0. -1.
    8880023    1    1    2    0    0  0.36043936292E+03  0.17613994323E+03  0.22473696822E+03  0.80327997927E+03  0.65864270000E+03 0.  0.
    8880022    1    1    2    0    0 -0.36043936292E+03 -0.17613994323E+03  0.69230248790E+03  0.81462641849E+03  0.15294330000E+03 0.  0.
<mgrwt>
<rscale>  0 0.66615685E+03</rscale>
<asrwt>0</asrwt>
<pdfrwt beam="1">  1        2 0.53912842E-01 0.77120167E+03</pdfrwt>
<pdfrwt beam="2">  1       -2 0.19499584E+00 0.77120167E+03</pdfrwt>
<totfact> 0.13447884E+01</totfact>
</mgrwt>
</event>
<event>
 4    2  0.3747163E-007  0.6943242E+03  0.7818608E-02  0.1002161E+00
          2   -1    0    0  501    0  0.00000000000E+00  0.00000000000E+00  0.15889115038E+04  0.15889115038E+04  0.25500000000E-02 0. -1.
         -2   -1    0    0    0  501 -0.00000000000E+00 -0.00000000000E+00 -0.36065105004E+03  0.36065105005E+03  0.25500000000E-02 0.  1.
    8880023    1    1    2    0    0  0.11413107803E+03 -0.18774970440E+03  0.14462790658E+04  0.16043095702E+04  0.65864270000E+03 0. -1.
    8880022    1    1    2    0    0 -0.11413107803E+03  0.18774970440E+03 -0.21801861209E+03  0.34525298364E+03  0.15294330000E+03 0.  0.
<mgrwt>
<rscale>  0 0.54712556E+03</rscale>
<asrwt>0</asrwt>
<pdfrwt beam="1">  1        2 0.24444792E+00 0.69432418E+03</pdfrwt>
<pdfrwt beam="2">  1       -2 0.55484778E-01 0.69432418E+03</pdfrwt>
<totfact> 0.35607781E+01</totfact>
</mgrwt>
</event>
<event>
 4    2  0.3747163E-007  0.7540176E+03  0.7818608E-02  0.9820849E-01
          2   -1    0    0  501    0  0.00000000000E+00  0.00000000000E+00  0.43650790695E+03  0.43650790696E+03  0.25500000000E-02 0. -1.
         -2   -1    0    0    0  501 -0.00000000000E+00 -0.00000000000E+00 -0.15518946330E+04  0.15518946330E+04  0.25500000000E-02 0.  1.
    8880023    1    1    2    0    0 -0.28574476874E+03  0.23039601764E+03  0.51349520421E+02  0.75576410163E+03  0.65864270000E+03 0. -1.
    8880022    1    1    2    0    0  0.28574476874E+03 -0.23039601764E+03 -0.11667362465E+04  0.12326384383E+04  0.15294330000E+03 0.  0.
<mgrwt>
<rscale>  0 0.64255584E+03</rscale>
<asrwt>0</asrwt>
<pdfrwt beam="1">  1        2 0.67155063E-01 0.75401764E+03</pdfrwt>
<pdfrwt beam="2">  1       -2 0.23875302E+00 0.75401764E+03</pdfrwt>
<totfact> 0.55695539E+00</totfact>
</mgrwt>
</event>
<event>
 4    2  0.3747163E-007  0.6688873E+03  0.7818608E-02  0.1016473E+00
          2   -1    0    0  501    0  0.00000000000E+00  0.00000000000E+00  0.18499834707E+04  0.18499834707E+04  0.25500000000E-02 0. -1.
         -2   -1    0    0    0  501 -0.00000000000E+00 -0.00000000000E+00 -0.10548795160E+03  0.10548795163E+03  0.25500000000E-02 0.  1.
    8880023    1    1    2    0    0 -0.73863168762E+02  0.90245386941E+02  0.15146526264E+04  0.16557725636E+04  0.65864270000E+03 0. -1.
    8880022    1    1    2    0    0  0.73863168762E+02 -0.90245386941E+02  0.22984289274E+03  0.29969885873E+03  0.15294330000E+03 0.  1.
<mgrwt>
<rscale>  0 0.48981003E+03</rscale>
<asrwt>0</asrwt>
<pdfrwt beam="1">  1        2 0.28461286E+00 0.66888729E+03</pdfrwt>
<pdfrwt beam="2">  1       -2 0.16228915E-01 0.66888729E+03</pdfrwt>
<totfact> 0.25479637E+02</totfact>
</mgrwt>
</event>
<event>
 4    2  0.3747163E-007  0.6718758E+03  0.7818608E-02  0.1014352E+00
         -2   -1    0    0    0  501 -0.00000000000E+00  0.00000000000E+00  0.46495029847E+04  0.46495029847E+04  0.25500000000E-02 0.  1.
          2   -1    0    0  501    0  0.00000000000E+00 -0.00000000000E+00 -0.99478817861E+02  0.99478817893E+02  0.25500000000E-02 0. -1.
    8880023    1    1    2    0    0 -0.83759121373E+02  0.10291398349E+03  0.10725298203E+04  0.12655976059E+04  0.65864270000E+03 0. -1.
    8880022    1    1    2    0    0  0.83759121373E+02 -0.10291398349E+03  0.34774943466E+04  0.34833841967E+04  0.15294330000E+03 0.  0.
<mgrwt>
<rscale>  0 0.49780905E+03</rscale>
<asrwt>0</asrwt>
<pdfrwt beam="1">  1        2 0.15304433E-01 0.67187580E+03</pdfrwt>
<pdfrwt beam="2">  1       -2 0.71530819E+00 0.67187580E+03</pdfrwt>
<totfact> 0.85065421E-02</totfact>
</mgrwt>
</event>
<event>
 4    2  0.3747163E-007  0.1034850E+04  0.7818608E-02  0.9337319E-01
          2   -1    0    0  501    0  0.00000000000E+00  0.00000000000E+00  0.17078309769E+04  0.17078309769E+04  0.25500000000E-02 0. -1.
         -2   -1    0    0    0  501 -0.00000000000E+00 -0.00000000000E+00 -0.86796183647E+03  0.86796183647E+03  0.25500000000E-02 0.  1.
    8880023    1    1    2    0    0 -0.79197948966E+03 -0.99366716461E+02  0.12844235793E+04  0.16494421462E+04  0.65864270000E+03 0. -1.
    8880022    1    1    2    0    0  0.79197948966E+03  0.99366716461E+02 -0.44455443888E+03  0.92635066715E+03  0.15294330000E+03 0.  0.
<mgrwt>
<rscale>  0 0.97418636E+03</rscale>
<asrwt>0</asrwt>
<pdfrwt beam="1">  1        2 0.26274323E+00 0.10348505E+04</pdfrwt>
<pdfrwt beam="2">  1       -2 0.13353259E+00 0.10348505E+04</pdfrwt>
<totfact> 0.39028317E+00</totfact>
</mgrwt>
</event>
<event>
 4    2  0.3747163E-007  0.1193786E+04  0.7818608E-02  0.9163186E-01
         -2   -1    0    0    0  501 -0.00000000000E+00  0.00000000000E+00  0.10956189060E+04  0.10956189060E+04  0.25500000000E-02 0.  1.
          2   -1    0    0  501    0  0.00000000000E+00 -0.00000000000E+00 -0.13087965260E+04  0.13087965260E+04  0.25500000000E-02 0. -1.
    8880023    1    1    2    0    0 -0.99116292193E+03 -0.94401980697E+02  0.35814149898E+03  0.12463511589E+04  0.65864270000E+03 0.  1.
    8880022    1    1    2    0    0  0.99116292193E+03  0.94401980697E+02 -0.57131911905E+03  0.11580642731E+04  0.15294330000E+03 0.  0.
<mgrwt>
<rscale>  0 0.11441621E+04</rscale>
<asrwt>0</asrwt>
<pdfrwt beam="1">  1        2 0.20135331E+00 0.11937864E+04</pdfrwt>
<pdfrwt beam="2">  1       -2 0.16855676E+00 0.11937864E+04</pdfrwt>
<totfact> 0.34654293E+00</totfact>
</mgrwt>
</event>
<event>
 4    2  0.3747163E-007  0.1209754E+04  0.7818608E-02  0.9147699E-01
          2   -1    0    0  501    0  0.00000000000E+00  0.00000000000E+00  0.20517432572E+04  0.20517432572E+04  0.25500000000E-02 0. -1.
         -2   -1    0    0    0  501 -0.00000000000E+00 -0.00000000000E+00 -0.11288091796E+04  0.11288091796E+04  0.25500000000E-02 0.  1.
    8880023    1    1    2    0    0  0.24906455745E+03 -0.98369740759E+03  0.15589210931E+04  0.19732559196E+04  0.65864270000E+03 0.  0.
    8880022    1    1    2    0    0 -0.24906455745E+03  0.98369740759E+03 -0.63598701554E+03  0.12072965172E+04  0.15294330000E+03 0.  0.
<mgrwt>
<rscale>  0 0.11609958E+04</rscale>
<asrwt>0</asrwt>
<pdfrwt beam="1">  1        2 0.31565280E+00 0.12097537E+04</pdfrwt>
<pdfrwt beam="2">  1       -2 0.17366295E+00 0.12097537E+04</pdfrwt>
<totfact> 0.12190608E+00</totfact>
</mgrwt>
</event>
<event>
 4    2  0.3747163E-007  0.9506827E+03  0.7818608E-02  0.9449132E-01
          2   -1    0    0  501    0  0.00000000000E+00  0.00000000000E+00  0.62632888934E+03  0.62632888934E+03  0.25500000000E-02 0. -1.
         -2   -1    0    0    0  501 -0.00000000000E+00 -0.00000000000E+00 -0.14769664901E+04  0.14769664901E+04  0.25500000000E-02 0.  1.
    8880023    1    1    2    0    0 -0.54021235489E+03  0.42208771610E+03 -0.10057588739E+04  0.13839611798E+04  0.65864270000E+03 0.  0.
    8880022    1    1    2    0    0  0.54021235489E+03 -0.42208771610E+03  0.15512127312E+03  0.71933419969E+03  0.15294330000E+03 0.  0.
<mgrwt>
<rscale>  0 0.88140253E+03</rscale>
<asrwt>0</asrwt>
<pdfrwt beam="1">  1        2 0.96358291E-01 0.95068272E+03</pdfrwt>
<pdfrwt beam="2">  1       -2 0.22722561E+00 0.95068272E+03</pdfrwt>
<totfact> 0.41938552E+00</totfact>
</mgrwt>
</event>
<event>
 4    2  0.3747163E-007  0.6813303E+03  0.7818608E-02  0.1008581E+00
         -2   -1    0    0    0  501 -0.00000000000E+00  0.00000000000E+00  0.28414773076E+03  0.28414773077E+03  0.25500000000E-02 0.  1.
          2   -1    0    0  501    0  0.00000000000E+00 -0.00000000000E+00 -0.16289311719E+04  0.16289311719E+04  0.25500000000E-02 0. -1.
    8880023    1    1    2    0    0 -0.83958607395E+02  0.15281281173E+03 -0.14907282846E+04  0.16390490621E+04  0.65864270000E+03 0. -1.
    8880022    1    1    2    0    0  0.83958607395E+02 -0.15281281173E+03  0.14594484346E+03  0.27402984059E+03  0.15294330000E+03 0.  0.
<mgrwt>
<rscale>  0 0.52042537E+03</rscale>
<asrwt>0</asrwt>
<pdfrwt beam="1">  1        2 0.25060479E+00 0.68133032E+03</pdfrwt>
<pdfrwt beam="2">  1       -2 0.43715037E-01 0.68133032E+03</pdfrwt>
<totfact> 0.54975203E+01</totfact>
</mgrwt>
</event>
<event>
 4    2  0.3747163E-007  0.6707061E+03  0.7818608E-02  0.1015162E+00
         -2   -1    0    0    0  501 -0.00000000000E+00  0.00000000000E+00  0.25035829772E+03  0.25035829774E+03  0.25500000000E-02 0.  1.
          2   -1    0    0  501    0  0.00000000000E+00 -0.00000000000E+00 -0.15774382484E+04  0.15774382484E+04  0.25500000000E-02 0. -1.
    8880023    1    1    2    0    0  0.10137095826E+03 -0.75897017503E+02 -0.14476629248E+04  0.15954856874E+04  0.65864270000E+03 0. -1.
    8880022    1    1    2    0    0 -0.10137095826E+03  0.75897017503E+02  0.12058297413E+03  0.23231085878E+03  0.15294330000E+03 0.  0.
<mgrwt>
<rscale>  0 0.49473756E+03</rscale>
<asrwt>0</asrwt>
<pdfrwt beam="1">  1        2 0.24268280E+00 0.67070607E+03</pdfrwt>
<pdfrwt beam="2">  1       -2 0.38516662E-01 0.67070607E+03</pdfrwt>
<totfact> 0.75255746E+01</totfact>
</mgrwt>
</event>
<event>
 4    2  0.3747163E-007  0.7133199E+03  0.7818608E-02  0.9945873E-01
          2   -1    0    0  501    0  0.00000000000E+00  0.00000000000E+00  0.62591077211E+03  0.62591077212E+03  0.25500000000E-02 0. -1.
         -2   -1    0    0    0  501 -0.00000000000E+00 -0.00000000000E+00 -0.10916896621E+04  0.10916896621E+04  0.25500000000E-02 0.  1.
    8880023    1    1    2    0    0 -0.76222309943E+02  0.26306899203E+03  0.38517278243E+03  0.81066849802E+03  0.65864270000E+03 0. -1.
    8880022    1    1    2    0    0  0.76222309943E+02 -0.26306899203E+03 -0.85095167244E+03  0.90693193622E+03  0.15294330000E+03 0.  0.
<mgrwt>
<rscale>  0 0.58088667E+03</rscale>
<asrwt>0</asrwt>
<pdfrwt beam="1">  1        2 0.96293965E-01 0.71331994E+03</pdfrwt>
<pdfrwt beam="2">  1       -2 0.16795226E+00 0.71331994E+03</pdfrwt>
<totfact> 0.10594311E+01</totfact>
</mgrwt>
</event>
<event>
 4    2  0.3747163E-007  0.8617144E+03  0.7818608E-02  0.9590521E-01
         -2   -1    0    0    0  501 -0.00000000000E+00  0.00000000000E+00  0.25528989411E+03  0.25528989412E+03  0.25500000000E-02 0.  1.
          2   -1    0    0  501    0  0.00000000000E+00 -0.00000000000E+00 -0.24366903322E+04  0.24366903322E+04  0.25500000000E-02 0. -1.
    8880023    1    1    2    0    0 -0.39283624073E+03 -0.39296455660E+03 -0.18146867628E+04  0.20088901682E+04  0.65864270000E+03 0.  1.
    8880022    1    1    2    0    0  0.39283624073E+03  0.39296455660E+03 -0.36671367530E+03  0.68309005808E+03  0.15294330000E+03 0.  0.
<mgrwt>
<rscale>  0 0.77926743E+03</rscale>
<asrwt>0</asrwt>
<pdfrwt beam="1">  1        2 0.37487542E+00 0.86171437E+03</pdfrwt>
<pdfrwt beam="2">  1       -2 0.39275370E-01 0.86171437E+03</pdfrwt>
<totfact> 0.23848781E+01</totfact>
</mgrwt>
</event>
<event>
 4    2  0.3747163E-007  0.7333467E+03  0.7818608E-02  0.9879769E-01
         -2   -1    0    0    0  501 -0.00000000000E+00  0.00000000000E+00  0.83496267855E+03  0.83496267856E+03  0.25500000000E-02 0.  1.
          2   -1    0    0  501    0  0.00000000000E+00 -0.00000000000E+00 -0.58786526317E+03  0.58786526318E+03  0.25500000000E-02 0. -1.
    8880023    1    1    2    0    0  0.26447584119E+03 -0.18449869407E+03 -0.28108296482E+03  0.78536938956E+03  0.65864270000E+03 0. -1.
    8880022    1    1    2    0    0 -0.26447584119E+03  0.18449869407E+03  0.52818038021E+03  0.63745855217E+03  0.15294330000E+03 0.  0.
<mgrwt>
<rscale>  0 0.61251850E+03</rscale>
<asrwt>0</asrwt>
<pdfrwt beam="1">  1        2 0.90440809E-01 0.73334674E+03</pdfrwt>
<pdfrwt beam="2">  1       -2 0.12845580E+00 0.73334674E+03</pdfrwt>
<totfact> 0.23089199E+01</totfact>
</mgrwt>
</event>
<event>
 4    2  0.3747163E-007  0.8551694E+03  0.7818608E-02  0.9602215E-01
          2   -1    0    0  501    0  0.00000000000E+00  0.00000000000E+00  0.25155717633E+04  0.25155717633E+04  0.25500000000E-02 0. -1.
         -2   -1    0    0    0  501 -0.00000000000E+00 -0.00000000000E+00 -0.28775065545E+03  0.28775065546E+03  0.25500000000E-02 0.  1.
    8880023    1    1    2    0    0 -0.53853565012E+03  0.86509381698E+02  0.20308836606E+04  0.22035887022E+04  0.65864270000E+03 0. -1.
    8880022    1    1    2    0    0  0.53853565012E+03 -0.86509381698E+02  0.19693744726E+03  0.59973371652E+03  0.15294330000E+03 0.  0.
<mgrwt>
<rscale>  0 0.77149779E+03</rscale>
<asrwt>0</asrwt>
<pdfrwt beam="1">  1        2 0.38701104E+00 0.85516941E+03</pdfrwt>
<pdfrwt beam="2">  1       -2 0.44269332E-01 0.85516941E+03</pdfrwt>
<totfact> 0.17008800E+01</totfact>
</mgrwt>
</event>
<event>
 4    2  0.3747163E-007  0.7946067E+03  0.7818608E-02  0.9722581E-01
          2   -1    0    0  501    0  0.00000000000E+00  0.00000000000E+00  0.14095488429E+04  0.14095488429E+04  0.25500000000E-02 0. -1.
         -2   -1    0    0    0  501 -0.00000000000E+00 -0.00000000000E+00 -0.61031477879E+03  0.61031477880E+03  0.25500000000E-02 0.  1.
    8880023    1    1    2    0    0 -0.29598457389E+03  0.33163633654E+03  0.11747178169E+04  0.14182248353E+04  0.65864270000E+03 0.  0.
    8880022    1    1    2    0    0  0.29598457389E+03 -0.33163633654E+03 -0.37548375282E+03  0.60163878643E+03  0.15294330000E+03 0.  0.
<mgrwt>
<rscale>  0 0.69688090E+03</rscale>
<asrwt>0</asrwt>
<pdfrwt beam="1">  1        2 0.21685367E+00 0.79460665E+03</pdfrwt>
<pdfrwt beam="2">  1       -2 0.93894581E-01 0.79460665E+03</pdfrwt>
<totfact> 0.13922460E+01</totfact>
</mgrwt>
</event>
<event>
 4    2  0.3747163E-007  0.9452892E+03  0.7818608E-02  0.9456925E-01
          2   -1    0    0  501    0  0.00000000000E+00  0.00000000000E+00  0.22078206015E+04  0.22078206015E+04  0.25500000000E-02 0. -1.
         -2   -1    0    0    0  501 -0.00000000000E+00 -0.00000000000E+00 -0.38512658473E+03  0.38512658474E+03  0.25500000000E-02 0.  1.
    8880023    1    1    2    0    0  0.64220886845E+03 -0.21755283969E+03  0.16083223836E+04  0.18655488642E+04  0.65864270000E+03 0.  0.
    8880022    1    1    2    0    0 -0.64220886845E+03  0.21755283969E+03  0.21437163314E+03  0.72739832203E+03  0.15294330000E+03 0.  0.
<mgrwt>
<rscale>  0 0.87535481E+03</rscale>
<asrwt>0</asrwt>
<pdfrwt beam="1">  1        2 0.33966471E+00 0.94528920E+03</pdfrwt>
<pdfrwt beam="2">  1       -2 0.59250243E-01 0.94528920E+03</pdfrwt>
<totfact> 0.13773544E+01</totfact>
</mgrwt>
</event>
<event>
 4    2  0.3747163E-007  0.8352040E+03  0.7818608E-02  0.9639291E-01
         -2   -1    0    0    0  501 -0.00000000000E+00  0.00000000000E+00  0.22324963525E+04  0.22324963525E+04  0.25500000000E-02 0.  1.
          2   -1    0    0  501    0  0.00000000000E+00 -0.00000000000E+00 -0.35061772677E+03  0.35061772678E+03  0.25500000000E-02 0. -1.
    8880023    1    1    2    0    0 -0.50267454929E+03  0.10523239986E+03  0.25959049577E+03  0.87461591127E+03  0.65864270000E+03 0. -1.
    8880022    1    1    2    0    0  0.50267454929E+03 -0.10523239986E+03  0.16222881300E+04  0.17084981680E+04  0.15294330000E+03 0.  0.
<mgrwt>
<rscale>  0 0.74749365E+03</rscale>
<asrwt>0</asrwt>
<pdfrwt beam="1">  1        2 0.53941188E-01 0.83520403E+03</pdfrwt>
<pdfrwt beam="2">  1       -2 0.34346098E+00 0.83520403E+03</pdfrwt>
<totfact> 0.16368504E+00</totfact>
</mgrwt>
</event>
<event>
 4    2  0.3747163E-007  0.6686850E+03  0.7818608E-02  0.1016624E+00
         -2   -1    0    0    0  501 -0.00000000000E+00  0.00000000000E+00  0.52537592759E+03  0.52537592760E+03  0.25500000000E-02 0.  1.
          2   -1    0    0  501    0  0.00000000000E+00 -0.00000000000E+00 -0.58985763913E+03  0.58985763914E+03  0.25500000000E-02 0. -1.
    8880023    1    1    2    0    0  0.46473118506E+02 -0.10568676422E+03 -0.36272833520E+03  0.76073089479E+03  0.65864270000E+03 0. -1.
    8880022    1    1    2    0    0 -0.46473118506E+02  0.10568676422E+03  0.29824662366E+03  0.35450267194E+03  0.15294330000E+03 0.  0.
<mgrwt>
<rscale>  0 0.48924979E+03</rscale>
<asrwt>0</asrwt>
<pdfrwt beam="1">  1        2 0.90747329E-01 0.66868501E+03</pdfrwt>
<pdfrwt beam="2">  1       -2 0.80827065E-01 0.66868501E+03</pdfrwt>
<totfact> 0.69578002E+01</totfact>
</mgrwt>
</event>
<event>
 4    2  0.3747163E-007  0.7265210E+03  0.7818608E-02  0.9901109E-01
          2   -1    0    0  501    0  0.00000000000E+00  0.00000000000E+00  0.10246138141E+04  0.10246138141E+04  0.25500000000E-02 0. -1.
         -2   -1    0    0    0  501 -0.00000000000E+00 -0.00000000000E+00 -0.35723284287E+03  0.35723284288E+03  0.25500000000E-02 0.  1.
    8880023    1    1    2    0    0  0.22419040919E+02 -0.30581034320E+03  0.73401694278E+03  0.10327698959E+04  0.65864270000E+03 0. -1.
    8880022    1    1    2    0    0 -0.22419040919E+02  0.30581034320E+03 -0.66635971518E+02  0.34907676107E+03  0.15294330000E+03 0.  1.
<mgrwt>
<rscale>  0 0.60207588E+03</rscale>
<asrwt>0</asrwt>
<pdfrwt beam="1">  1        2 0.15763289E+00 0.72652102E+03</pdfrwt>
<pdfrwt beam="2">  1       -2 0.54958899E-01 0.72652102E+03</pdfrwt>
<totfact> 0.76892354E+01</totfact>
</mgrwt>
</event>
<event>
 4    2  0.3747163E-007  0.7195016E+03  0.7818608E-02  0.9924276E-01
          2   -1    0    0  501    0  0.00000000000E+00  0.00000000000E+00  0.27396844974E+04  0.27396844974E+04  0.25500000000E-02 0. -1.
         -2   -1    0    0    0  501 -0.00000000000E+00 -0.00000000000E+00 -0.13091894958E+03  0.13091894960E+03  0.25500000000E-02 0.  1.
    8880023    1    1    2    0    0 -0.18129248196E+03  0.22584373189E+03  0.10187668776E+04  0.12472243232E+04  0.65864270000E+03 0.  1.
    8880022    1    1    2    0    0  0.18129248196E+03 -0.22584373189E+03  0.15899986702E+04  0.16233791237E+04  0.15294330000E+03 0.  0.
<mgrwt>
<rscale>  0 0.59099061E+03</rscale>
<asrwt>0</asrwt>
<pdfrwt beam="1">  1        2 0.42148992E+00 0.71950161E+03</pdfrwt>
<pdfrwt beam="2">  1       -2 0.20141377E-01 0.71950161E+03</pdfrwt>
<totfact> 0.55716397E+01</totfact>
</mgrwt>
</event>
<event>
 4    2  0.3747163E-007  0.6698193E+03  0.7818608E-02  0.1015793E+00
         -2   -1    0    0    0  501 -0.00000000000E+00  0.00000000000E+00  0.34102113746E+03  0.34102113747E+03  0.25500000000E-02 0.  1.
          2   -1    0    0  501    0  0.00000000000E+00 -0.00000000000E+00 -0.73010911989E+03  0.73010911989E+03  0.25500000000E-02 0. -1.
    8880023    1    1    2    0    0 -0.72563539539E+02 -0.97888855334E+02 -0.50941768738E+03  0.84152497393E+03  0.65864270000E+03 0. -1.
    8880022    1    1    2    0    0  0.72563539539E+02  0.97888855334E+02  0.12032970496E+03  0.22960528343E+03  0.15294330000E+03 0.  0.
<mgrwt>
<rscale>  0 0.49235920E+03</rscale>
<asrwt>0</asrwt>
<pdfrwt beam="1">  1        2 0.11232448E+00 0.66981931E+03</pdfrwt>
<pdfrwt beam="2">  1       -2 0.52464791E-01 0.66981931E+03</pdfrwt>
<totfact> 0.13524040E+02</totfact>
</mgrwt>
</event>
<event>
 4    2  0.3747163E-007  0.8007541E+03  0.7818608E-02  0.9709168E-01
         -2   -1    0    0    0  501 -0.00000000000E+00  0.00000000000E+00  0.41331782773E+03  0.41331782774E+03  0.25500000000E-02 0.  1.
          2   -1    0    0  501    0  0.00000000000E+00 -0.00000000000E+00 -0.18868503538E+04  0.18868503538E+04  0.25500000000E-02 0. -1.
    8880023    1    1    2    0    0 -0.28299667888E+03  0.35680490390E+03 -0.16122349798E+04  0.18001412989E+04  0.65864270000E+03 0. -1.
    8880022    1    1    2    0    0  0.28299667888E+03 -0.35680490390E+03  0.13870245369E+03  0.50002688266E+03  0.15294330000E+03 0.  0.
<mgrwt>
<rscale>  0 0.70473548E+03</rscale>
<asrwt>0</asrwt>
<pdfrwt beam="1">  1        2 0.29028467E+00 0.80075406E+03</pdfrwt>
<pdfrwt beam="2">  1       -2 0.63587359E-01 0.80075406E+03</pdfrwt>
<totfact> 0.18113675E+01</totfact>
</mgrwt>
</event>
<event>
 4    2  0.3747163E-007  0.9541992E+03  0.7818608E-02  0.9444098E-01
          2   -1    0    0  501    0  0.00000000000E+00  0.00000000000E+00  0.39873631677E+03  0.39873631678E+03  0.25500000000E-02 0. -1.
         -2   -1    0    0    0  501 -0.00000000000E+00 -0.00000000000E+00 -0.21128577242E+04  0.21128577242E+04  0.25500000000E-02 0.  1.
    8880023    1    1    2    0    0  0.12984809082E+03 -0.67810421280E+03 -0.43211139116E+03  0.10474809357E+04  0.65864270000E+03 0. -1.
    8880022    1    1    2    0    0 -0.12984809082E+03  0.67810421280E+03 -0.12820100163E+04  0.14641131052E+04  0.15294330000E+03 0.  0.
<mgrwt>
<rscale>  0 0.88533766E+03</rscale>
<asrwt>0</asrwt>
<pdfrwt beam="1">  1        2 0.61344050E-01 0.95419917E+03</pdfrwt>
<pdfrwt beam="2">  1       -2 0.32505503E+00 0.95419917E+03</pdfrwt>
<totfact> 0.18096009E+00</totfact>
</mgrwt>
</event>
<event>
 4    2  0.3747163E-007  0.9475336E+03  0.7818608E-02  0.9453672E-01
         -2   -1    0    0    0  501 -0.00000000000E+00  0.00000000000E+00  0.81859058700E+03  0.81859058700E+03  0.25500000000E-02 0.  1.
          2   -1    0    0  501    0  0.00000000000E+00 -0.00000000000E+00 -0.14717930834E+04  0.14717930834E+04  0.25500000000E-02 0. -1.
    8880023    1    1    2    0    0  0.66258974744E+03  0.15806516858E+03 -0.11074390941E+04  0.14574777269E+04  0.65864270000E+03 0. -1.
    8880022    1    1    2    0    0 -0.66258974744E+03 -0.15806516858E+03  0.45423659776E+03  0.83290594348E+03  0.15294330000E+03 0.  0.
<mgrwt>
<rscale>  0 0.87787327E+03</rscale>
<asrwt>0</asrwt>
<pdfrwt beam="1">  1        2 0.22642971E+00 0.94753363E+03</pdfrwt>
<pdfrwt beam="2">  1       -2 0.12593701E+00 0.94753363E+03</pdfrwt>
<totfact> 0.61923782E+00</totfact>
</mgrwt>
</event>
<event>
 4    2  0.3747163E-007  0.6802022E+03  0.7818608E-02  0.1009209E+00
         -2   -1    0    0    0  501 -0.00000000000E+00  0.00000000000E+00  0.13413793608E+04  0.13413793608E+04  0.25500000000E-02 0.  1.
          2   -1    0    0  501    0  0.00000000000E+00 -0.00000000000E+00 -0.94508054112E+03  0.94508054113E+03  0.25500000000E-02 0. -1.
    8880023    1    1    2    0    0 -0.77685250075E+02 -0.15109553201E+03 -0.81055514672E+03  0.10581468282E+04  0.65864270000E+03 0. -1.
    8880022    1    1    2    0    0  0.77685250075E+02  0.15109553201E+03  0.12068539664E+04  0.12283130737E+04  0.15294330000E+03 0.  0.
<mgrwt>
<rscale>  0 0.51790021E+03</rscale>
<asrwt>0</asrwt>
<pdfrwt beam="1">  1        2 0.14539701E+00 0.68020222E+03</pdfrwt>
<pdfrwt beam="2">  1       -2 0.20636605E+00 0.68020222E+03</pdfrwt>
<totfact> 0.34241378E+00</totfact>
</mgrwt>
</event>
<event>
 4    2  0.3747163E-007  0.9073529E+03  0.7818608E-02  0.9514329E-01
          2   -1    0    0  501    0  0.00000000000E+00  0.00000000000E+00  0.68901310514E+03  0.68901310514E+03  0.25500000000E-02 0. -1.
         -2   -1    0    0    0  501 -0.00000000000E+00 -0.00000000000E+00 -0.10765988051E+04  0.10765988051E+04  0.25500000000E-02 0.  1.
    8880023    1    1    2    0    0 -0.47055526254E+03  0.40994743293E+03  0.16003891172E+03  0.92135867739E+03  0.65864270000E+03 0. -1.
    8880022    1    1    2    0    0  0.47055526254E+03 -0.40994743293E+03 -0.54762461168E+03  0.84425323287E+03  0.15294330000E+03 0.  0.
<mgrwt>
<rscale>  0 0.83235570E+03</rscale>
<asrwt>0</asrwt>
<pdfrwt beam="1">  1        2 0.10600202E+00 0.90735294E+03</pdfrwt>
<pdfrwt beam="2">  1       -2 0.16563059E+00 0.90735294E+03</pdfrwt>
<totfact> 0.95818737E+00</totfact>
</mgrwt>
</event>
<event>
 4    2  0.3747163E-007  0.7593383E+03  0.7818608E-02  0.9806823E-01
         -2   -1    0    0    0  501 -0.00000000000E+00  0.00000000000E+00  0.13589325931E+04  0.13589325931E+04  0.25500000000E-02 0.  1.
          2   -1    0    0  501    0  0.00000000000E+00 -0.00000000000E+00 -0.59090600855E+03  0.59090600856E+03  0.25500000000E-02 0. -1.
    8880023    1    1    2    0    0 -0.35157845816E+03 -0.13848135643E+03 -0.29245157037E+03  0.81370917753E+03  0.65864270000E+03 0. -1.
    8880022    1    1    2    0    0  0.35157845816E+03  0.13848135643E+03  0.10604781549E+04  0.11361294241E+04  0.15294330000E+03 0.  0.
<mgrwt>
<rscale>  0 0.64997639E+03</rscale>
<asrwt>0</asrwt>
<pdfrwt beam="1">  1        2 0.90908617E-01 0.75933833E+03</pdfrwt>
<pdfrwt beam="2">  1       -2 0.20906655E+00 0.75933833E+03</pdfrwt>
<totfact> 0.59855383E+00</totfact>
</mgrwt>
</event>
<event>
 4    2  0.3747163E-007  0.1068796E+04  0.7818608E-02  0.9296620E-01
          2   -1    0    0  501    0  0.00000000000E+00  0.00000000000E+00  0.19394465784E+04  0.19394465784E+04  0.25500000000E-02 0. -1.
         -2   -1    0    0    0  501 -0.00000000000E+00 -0.00000000000E+00 -0.83127560782E+03  0.83127560782E+03  0.25500000000E-02 0.  1.
    8880023    1    1    2    0    0  0.31614389113E+02  0.84113929258E+03  0.14901427609E+04  0.18338076326E+04  0.65864270000E+03 0.  0.
    8880022    1    1    2    0    0 -0.31614389113E+02 -0.84113929258E+03 -0.38197179036E+03  0.93691455361E+03  0.15294330000E+03 0.  0.
<mgrwt>
<rscale>  0 0.10109463E+04</rscale>
<asrwt>0</asrwt>
<pdfrwt beam="1">  1        2 0.29837640E+00 0.10687960E+04</pdfrwt>
<pdfrwt beam="2">  1       -2 0.12788855E+00 0.10687960E+04</pdfrwt>
<totfact> 0.32335918E+00</totfact>
</mgrwt>
</event>
<event>
 4    2  0.3747163E-007  0.8200136E+03  0.7818608E-02  0.9669084E-01
          2   -1    0    0  501    0  0.00000000000E+00  0.00000000000E+00  0.19441701187E+04  0.19441701187E+04  0.25500000000E-02 0. -1.
         -2   -1    0    0    0  501 -0.00000000000E+00 -0.00000000000E+00 -0.46705856193E+03  0.46705856194E+03  0.25500000000E-02 0.  1.
    8880023    1    1    2    0    0 -0.43823804048E+03  0.21577671145E+03  0.16730052589E+04  0.18631610161E+04  0.65864270000E+03 0.  0.
    8880022    1    1    2    0    0  0.43823804048E+03 -0.21577671145E+03 -0.19589370216E+03  0.54806766452E+03  0.15294330000E+03 0.  0.
<mgrwt>
<rscale>  0 0.72887703E+03</rscale>
<asrwt>0</asrwt>
<pdfrwt beam="1">  1        2 0.29910310E+00 0.82001364E+03</pdfrwt>
<pdfrwt beam="2">  1       -2 0.71855163E-01 0.82001364E+03</pdfrwt>
<totfact> 0.12896003E+01</totfact>
</mgrwt>
</event>
<event>
 4    2  0.3747163E-007  0.7064453E+03  0.7818608E-02  0.9971446E-01
          2   -1    0    0  501    0  0.00000000000E+00  0.00000000000E+00  0.15518393018E+04  0.15518393018E+04  0.25500000000E-02 0. -1.
         -2   -1    0    0    0  501 -0.00000000000E+00 -0.00000000000E+00 -0.62095322342E+03  0.62095322342E+03  0.25500000000E-02 0.  1.
    8880023    1    1    2    0    0 -0.74149325884E+02 -0.24445176205E+03  0.14280847676E+04  0.15932642895E+04  0.65864270000E+03 0. -1.
    8880022    1    1    2    0    0  0.74149325884E+02  0.24445176205E+03 -0.49719868918E+03  0.57952823575E+03  0.15294330000E+03 0.  0.
<mgrwt>
<rscale>  0 0.56920221E+03</rscale>
<asrwt>0</asrwt>
<pdfrwt beam="1">  1        2 0.23874451E+00 0.70644532E+03</pdfrwt>
<pdfrwt beam="2">  1       -2 0.95531266E-01 0.70644532E+03</pdfrwt>
<totfact> 0.11264339E+01</totfact>
</mgrwt>
</event>
<event>
 4    2  0.3747163E-007  0.7616702E+03  0.7818608E-02  0.9800803E-01
          2   -1    0    0  501    0  0.00000000000E+00  0.00000000000E+00  0.13876128495E+04  0.13876128495E+04  0.25500000000E-02 0. -1.
         -2   -1    0    0    0  501 -0.00000000000E+00 -0.00000000000E+00 -0.47574890619E+03  0.47574890620E+03  0.25500000000E-02 0.  1.
    8880023    1    1    2    0    0  0.71351901037E+02  0.37581937942E+03  0.11560843780E+04  0.13844394515E+04  0.65864270000E+03 0. -1.
    8880022    1    1    2    0    0 -0.71351901037E+02 -0.37581937942E+03 -0.24422043465E+03  0.47892230418E+03  0.15294330000E+03 0.  0.
<mgrwt>
<rscale>  0 0.65319492E+03</rscale>
<asrwt>0</asrwt>
<pdfrwt beam="1">  1        2 0.21347890E+00 0.76167021E+03</pdfrwt>
<pdfrwt beam="2">  1       -2 0.73192140E-01 0.76167021E+03</pdfrwt>
<totfact> 0.25296863E+01</totfact>
</mgrwt>
</event>
<event>
 4    2  0.3747163E-007  0.6873456E+03  0.7818608E-02  0.1005441E+00
          2   -1    0    0  501    0  0.00000000000E+00  0.00000000000E+00  0.22914497460E+04  0.22914497460E+04  0.25500000000E-02 0. -1.
         -2   -1    0    0    0  501 -0.00000000000E+00 -0.00000000000E+00 -0.12249731721E+03  0.12249731724E+03  0.25500000000E-02 0.  1.
    8880023    1    1    2    0    0 -0.59296743974E+01  0.19646541777E+03  0.19952017945E+04  0.21102782348E+04  0.65864270000E+03 0. -1.
    8880022    1    1    2    0    0  0.59296743974E+01 -0.19646541777E+03  0.17375063432E+03  0.30366882843E+03  0.15294330000E+03 0.  0.
<mgrwt>
<rscale>  0 0.53327675E+03</rscale>
<asrwt>0</asrwt>
<pdfrwt beam="1">  1        2 0.35253072E+00 0.68734564E+03</pdfrwt>
<pdfrwt beam="2">  1       -2 0.18845742E-01 0.68734564E+03</pdfrwt>
<totfact> 0.11287897E+02</totfact>
</mgrwt>
</event>
<event>
 4    2  0.3747163E-007  0.8133466E+03  0.7818608E-02  0.9682648E-01
          2   -1    0    0  501    0  0.00000000000E+00  0.00000000000E+00  0.89329235281E+03  0.89329235281E+03  0.25500000000E-02 0. -1.
         -2   -1    0    0    0  501 -0.00000000000E+00 -0.00000000000E+00 -0.72909269725E+03  0.72909269725E+03  0.25500000000E-02 0.  1.
    8880023    1    1    2    0    0 -0.47575693668E+03 -0.37118435547E+02  0.55689848459E+03  0.98573250401E+03  0.65864270000E+03 0.  0.
    8880022    1    1    2    0    0  0.47575693668E+03  0.37118435547E+02 -0.39269882903E+03  0.63665254605E+03  0.15294330000E+03 0.  0.
<mgrwt>
<rscale>  0 0.72059396E+03</rscale>
<asrwt>0</asrwt>
<pdfrwt beam="1">  1        2 0.13742959E+00 0.81334657E+03</pdfrwt>
<pdfrwt beam="2">  1       -2 0.11216811E+00 0.81334657E+03</pdfrwt>
<totfact> 0.18737554E+01</totfact>
</mgrwt>
</event>
<event>
 4    2  0.3747163E-007  0.1048576E+04  0.7818608E-02  0.9320595E-01
         -2   -1    0    0    0  501 -0.00000000000E+00  0.00000000000E+00  0.46360062249E+03  0.46360062250E+03  0.25500000000E-02 0.  1.
          2   -1    0    0  501    0  0.00000000000E+00 -0.00000000000E+00 -0.21907541361E+04  0.21907541361E+04  0.25500000000E-02 0. -1.
    8880023    1    1    2    0    0  0.28298288728E+03  0.76525940472E+03 -0.14287344489E+04  0.17722284285E+04  0.65864270000E+03 0.  0.
    8880022    1    1    2    0    0 -0.28298288728E+03 -0.76525940472E+03 -0.29841906464E+03  0.88212633005E+03  0.15294330000E+03 0.  0.
<mgrwt>
<rscale>  0 0.98908732E+03</rscale>
<asrwt>0</asrwt>
<pdfrwt beam="1">  1        2 0.33703909E+00 0.10485759E+04</pdfrwt>
<pdfrwt beam="2">  1       -2 0.71323174E-01 0.10485759E+04</pdfrwt>
<totfact> 0.93243452E+00</totfact>
</mgrwt>
</event>
<event>
 4    2  0.3747163E-007  0.7799330E+03  0.7818608E-02  0.9755994E-01
         -2   -1    0    0    0  501 -0.00000000000E+00  0.00000000000E+00  0.68123189169E+03  0.68123189170E+03  0.25500000000E-02 0.  1.
          2   -1    0    0  501    0  0.00000000000E+00 -0.00000000000E+00 -0.83014878368E+03  0.83014878368E+03  0.25500000000E-02 0. -1.
    8880023    1    1    2    0    0 -0.74120721424E+02 -0.41108560029E+03 -0.51555208906E+03  0.93492749179E+03  0.65864270000E+03 0. -1.
    8880022    1    1    2    0    0  0.74120721424E+02  0.41108560029E+03  0.36663519708E+03  0.57645318358E+03  0.15294330000E+03 0.  0.
<mgrwt>
<rscale>  0 0.67778563E+03</rscale>
<asrwt>0</asrwt>
<pdfrwt beam="1">  1        2 0.12771520E+00 0.77993298E+03</pdfrwt>
<pdfrwt beam="2">  1       -2 0.10480491E+00 0.77993298E+03</pdfrwt>
<totfact> 0.24487143E+01</totfact>
</mgrwt>
</event>
<event>
 4    2  0.3747163E-007  0.1029619E+04  0.7818608E-02  0.9343794E-01
         -2   -1    0    0    0  501 -0.00000000000E+00  0.00000000000E+00  0.77136430494E+03  0.77136430495E+03  0.25500000000E-02 0.  1.
          2   -1    0    0  501    0  0.00000000000E+00 -0.00000000000E+00 -0.13991626643E+04  0.13991626643E+04  0.25500000000E-02 0. -1.
    8880023    1    1    2    0    0  0.33680751018E+03 -0.71614597220E+03 -0.84919854075E+03  0.13346358006E+04  0.65864270000E+03 0.  0.
    8880022    1    1    2    0    0 -0.33680751018E+03  0.71614597220E+03  0.22140018142E+03  0.83589116861E+03  0.15294330000E+03 0.  0.
<mgrwt>
<rscale>  0 0.96849208E+03</rscale>
<asrwt>0</asrwt>
<pdfrwt beam="1">  1        2 0.21525579E+00 0.10296186E+04</pdfrwt>
<pdfrwt beam="2">  1       -2 0.11867143E+00 0.10296186E+04</pdfrwt>
<totfact> 0.78333817E+00</totfact>
</mgrwt>
</event>
<event>
 4    2  0.3747163E-007  0.1502865E+04  0.7818608E-02  0.8907615E-01
          2   -1    0    0  501    0  0.00000000000E+00  0.00000000000E+00  0.11142960938E+04  0.11142960938E+04  0.25500000000E-02 0. -1.
         -2   -1    0    0    0  501 -0.00000000000E+00 -0.00000000000E+00 -0.23580682513E+04  0.23580682513E+04  0.25500000000E-02 0.  1.
    8880023    1    1    2    0    0  0.12057973005E+04  0.60897163659E+03  0.16826262290E+03  0.15122553027E+04  0.65864270000E+03 0.  1.
    8880022    1    1    2    0    0 -0.12057973005E+04 -0.60897163659E+03 -0.14120347804E+04  0.19601090424E+04  0.15294330000E+03 0.  0.
<mgrwt>
<rscale>  0 0.14656599E+04</rscale>
<asrwt>0</asrwt>
<pdfrwt beam="1">  1        2 0.17143017E+00 0.15028652E+04</pdfrwt>
<pdfrwt beam="2">  1       -2 0.36277973E+00 0.15028652E+04</pdfrwt>
<totfact> 0.26106748E-01</totfact>
</mgrwt>
</event>
<event>
 4    2  0.3747163E-007  0.1018788E+04  0.7818608E-02  0.9357380E-01
          2   -1    0    0  501    0  0.00000000000E+00  0.00000000000E+00  0.34182371177E+04  0.34182371177E+04  0.25500000000E-02 0. -1.
         -2   -1    0    0    0  501 -0.00000000000E+00 -0.00000000000E+00 -0.25547013492E+03  0.25547013494E+03  0.25500000000E-02 0.  1.
    8880023    1    1    2    0    0  0.31352216685E+03  0.71121205087E+03  0.22179754432E+04  0.24407670932E+04  0.65864270000E+03 0.  1.
    8880022    1    1    2    0    0 -0.31352216685E+03 -0.71121205087E+03  0.94479153952E+03  0.12329401594E+04  0.15294330000E+03 0. -1.
<mgrwt>
<rscale>  0 0.95667731E+03</rscale>
<asrwt>0</asrwt>
<pdfrwt beam="1">  1        2 0.52588264E+00 0.10187880E+04</pdfrwt>
<pdfrwt beam="2">  1       -2 0.39303097E-01 0.10187880E+04</pdfrwt>
<totfact> 0.58499360E+00</totfact>
</mgrwt>
</event>
<event>
 4    2  0.9159629E-007  0.9649961E+03  0.7818608E-02  0.9428859E-01
          2   -1    0    0  501    0  0.00000000000E+00  0.00000000000E+00  0.25794534882E+04  0.25794534882E+04  0.25500000000E-02 0. -1.
         -2   -1    0    0    0  501 -0.00000000000E+00 -0.00000000000E+00 -0.17123871250E+04  0.17123871250E+04  0.25500000000E-02 0.  1.
    8880023    1    1    2    0    0  0.41068348812E+02  0.70407426914E+03  0.24058877457E+04  0.25922023912E+04  0.65864270000E+03 0.  0.
    8880022    1    1    2    0    0 -0.41068348812E+02 -0.70407426914E+03 -0.15388213824E+04  0.16996382220E+04  0.15294330000E+03 0.  1.
<mgrwt>
<rscale>  0 0.89738314E+03</rscale>
<asrwt>0</asrwt>
<pdfrwt beam="1">  1        2 0.39683900E+00 0.96499606E+03</pdfrwt>
<pdfrwt beam="2">  1       -2 0.26344417E+00 0.96499606E+03</pdfrwt>
<totfact> 0.16994968E-01</totfact>
</mgrwt>
</event>
<event>
 4    2  0.3747163E-007  0.9936701E+03  0.7818608E-02  0.9389886E-01
         -2   -1    0    0    0  501 -0.00000000000E+00  0.00000000000E+00  0.34546900012E+03  0.34546900013E+03  0.25500000000E-02 0.  1.
          2   -1    0    0  501    0  0.00000000000E+00 -0.00000000000E+00 -0.30303184156E+04  0.30303184156E+04  0.25500000000E-02 0. -1.
    8880023    1    1    2    0    0 -0.71605657178E+03 -0.20207206183E+03 -0.23387207629E+04  0.25410618145E+04  0.65864270000E+03 0.  0.
    8880022    1    1    2    0    0  0.71605657178E+03  0.20207206183E+03 -0.34612865258E+03  0.83472560121E+03  0.15294330000E+03 0.  0.
<mgrwt>
<rscale>  0 0.92912695E+03</rscale>
<asrwt>0</asrwt>
<pdfrwt beam="1">  1        2 0.46620281E+00 0.99367014E+03</pdfrwt>
<pdfrwt beam="2">  1       -2 0.53149079E-01 0.99367014E+03</pdfrwt>
<totfact> 0.56994930E+00</totfact>
</mgrwt>
</event>
<event>
 4    2  0.3747163E-007  0.8034290E+03  0.7818608E-02  0.9703430E-01
         -2   -1    0    0    0  501 -0.00000000000E+00  0.00000000000E+00  0.56606289749E+03  0.56606289749E+03  0.25500000000E-02 0.  1.
          2   -1    0    0  501    0  0.00000000000E+00 -0.00000000000E+00 -0.89066468103E+03  0.89066468103E+03  0.25500000000E-02 0. -1.
    8880023    1    1    2    0    0  0.30254516968E+03  0.34663280081E+03 -0.49398342200E+03  0.94314246313E+03  0.65864270000E+03 0. -1.
    8880022    1    1    2    0    0 -0.30254516968E+03 -0.34663280081E+03  0.16938163845E+03  0.51358511539E+03  0.15294330000E+03 0.  0.
<mgrwt>
<rscale>  0 0.70812913E+03</rscale>
<asrwt>0</asrwt>
<pdfrwt beam="1">  1        2 0.13702534E+00 0.80342895E+03</pdfrwt>
<pdfrwt beam="2">  1       -2 0.87086599E-01 0.80342895E+03</pdfrwt>
<totfact> 0.34261160E+01</totfact>
</mgrwt>
</event>
<event>
 4    2  0.4742952E-007  0.7385482E+03  0.7818608E-02  0.9864196E-01
          2   -1    0    0  501    0  0.00000000000E+00  0.00000000000E+00  0.17148100234E+04  0.17148100234E+04  0.25500000000E-02 0. -1.
         -2   -1    0    0    0  501 -0.00000000000E+00 -0.00000000000E+00 -0.11601119116E+04  0.11601119116E+04  0.25500000000E-02 0.  1.
    8880023    1    1    2    0    0 -0.33388582408E+03  0.12787182160E+02  0.16025276001E+04  0.17645249136E+04  0.65864270000E+03 0. -1.
    8880022    1    1    2    0    0  0.33388582408E+03 -0.12787182160E+02 -0.10478294883E+04  0.11103970214E+04  0.15294330000E+03 0.  0.
<mgrwt>
<rscale>  0 0.62028302E+03</rscale>
<asrwt>0</asrwt>
<pdfrwt beam="1">  1        2 0.26381692E+00 0.73854821E+03</pdfrwt>
<pdfrwt beam="2">  1       -2 0.17847876E+00 0.73854821E+03</pdfrwt>
<totfact> 0.18521419E+00</totfact>
</mgrwt>
</event>
<event>
 4    2  0.3747163E-007  0.8585999E+03  0.7818608E-02  0.9596059E-01
          2   -1    0    0  501    0  0.00000000000E+00  0.00000000000E+00  0.11361035810E+04  0.11361035810E+04  0.25500000000E-02 0. -1.
         -2   -1    0    0    0  501 -0.00000000000E+00 -0.00000000000E+00 -0.13224442065E+04  0.13224442065E+04  0.25500000000E-02 0.  1.
    8880023    1    1    2    0    0  0.50483830140E+03  0.22027677854E+03  0.89198274112E+03  0.12380739018E+04  0.65864270000E+03 0.  0.
    8880022    1    1    2    0    0 -0.50483830140E+03 -0.22027677854E+03 -0.10783233666E+04  0.12204738857E+04  0.15294330000E+03 0.  0.
<mgrwt>
<rscale>  0 0.77557582E+03</rscale>
<asrwt>0</asrwt>
<pdfrwt beam="1">  1        2 0.17478517E+00 0.85859989E+03</pdfrwt>
<pdfrwt beam="2">  1       -2 0.20345296E+00 0.85859989E+03</pdfrwt>
<totfact> 0.26406436E+00</totfact>
</mgrwt>
</event>
<event>
 4    2  0.3747163E-007  0.8229134E+03  0.7818608E-02  0.9663281E-01
         -2   -1    0    0    0  501 -0.00000000000E+00  0.00000000000E+00  0.57825274749E+03  0.57825274750E+03  0.25500000000E-02 0.  1.
          2   -1    0    0  501    0  0.00000000000E+00 -0.00000000000E+00 -0.92188098790E+03  0.92188098791E+03  0.25500000000E-02 0. -1.
    8880023    1    1    2    0    0 -0.18249983435E+03 -0.45833402336E+03 -0.49699556908E+03  0.96134856762E+03  0.65864270000E+03 0. -1.
    8880022    1    1    2    0    0  0.18249983435E+03  0.45833402336E+03  0.15336732866E+03  0.53878516779E+03  0.15294330000E+03 0.  0.
<mgrwt>
<rscale>  0 0.73245729E+03</rscale>
<asrwt>0</asrwt>
<pdfrwt beam="1">  1        2 0.14182784E+00 0.82291341E+03</pdfrwt>
<pdfrwt beam="2">  1       -2 0.88961961E-01 0.82291341E+03</pdfrwt>
<totfact> 0.31033981E+01</totfact>
</mgrwt>
</event>
<event>
 4    2  0.3747163E-007  0.8126780E+03  0.7818608E-02  0.9684026E-01
         -2   -1    0    0    0  501 -0.00000000000E+00  0.00000000000E+00  0.43778412201E+03  0.43778412202E+03  0.25500000000E-02 0.  1.
          2   -1    0    0  501    0  0.00000000000E+00 -0.00000000000E+00 -0.11568474215E+04  0.11568474215E+04  0.25500000000E-02 0. -1.
    8880023    1    1    2    0    0  0.56225428651E+02 -0.47273035737E+03 -0.13174287828E+03  0.82328711993E+03  0.65864270000E+03 0.  1.
    8880022    1    1    2    0    0 -0.56225428651E+02  0.47273035737E+03 -0.58732042121E+03  0.77134442358E+03  0.15294330000E+03 0. -1.
<mgrwt>
<rscale>  0 0.71975919E+03</rscale>
<asrwt>0</asrwt>
<pdfrwt beam="1">  1        2 0.17797653E+00 0.81267798E+03</pdfrwt>
<pdfrwt beam="2">  1       -2 0.67351404E-01 0.81267798E+03</pdfrwt>
<totfact> 0.41133047E+01</totfact>
</mgrwt>
</event>
<event>
 4    2  0.3747163E-007  0.7452956E+03  0.7818608E-02  0.9844781E-01
         -2   -1    0    0    0  501 -0.00000000000E+00  0.00000000000E+00  0.15679017330E+04  0.15679017330E+04  0.25500000000E-02 0.  1.
          2   -1    0    0  501    0  0.00000000000E+00 -0.00000000000E+00 -0.95801487777E+03  0.95801487777E+03  0.25500000000E-02 0. -1.
    8880023    1    1    2    0    0  0.12824860332E+03  0.32435724014E+03 -0.78353527116E+03  0.10813847839E+04  0.65864270000E+03 0. -1.
    8880022    1    1    2    0    0 -0.12824860332E+03 -0.32435724014E+03  0.13934221264E+04  0.14445318269E+04  0.15294330000E+03 0.  0.
<mgrwt>
<rscale>  0 0.63013703E+03</rscale>
<asrwt>0</asrwt>
<pdfrwt beam="1">  1        2 0.14738690E+00 0.74529560E+03</pdfrwt>
<pdfrwt beam="2">  1       -2 0.24121565E+00 0.74529560E+03</pdfrwt>
<totfact> 0.20158402E+00</totfact>
</mgrwt>
</event>
<event>
 4    2  0.3747163E-007  0.7566292E+03  0.7818608E-02  0.9813914E-01
          2   -1    0    0  501    0  0.00000000000E+00  0.00000000000E+00  0.12211986641E+04  0.12211986641E+04  0.25500000000E-02 0. -1.
         -2   -1    0    0    0  501 -0.00000000000E+00 -0.00000000000E+00 -0.34124069253E+03  0.34124069254E+03  0.25500000000E-02 0.  1.
    8880023    1    1    2    0    0  0.16400694355E+03  0.33433403962E+03  0.87908363814E+03  0.11598602402E+04  0.65864270000E+03 0. -1.
    8880022    1    1    2    0    0 -0.16400694355E+03 -0.33433403962E+03  0.87433345346E+00  0.40257911651E+03  0.15294330000E+03 0.  0.
<mgrwt>
<rscale>  0 0.64621179E+03</rscale>
<asrwt>0</asrwt>
<pdfrwt beam="1">  1        2 0.18787672E+00 0.75662919E+03</pdfrwt>
<pdfrwt beam="2">  1       -2 0.52498567E-01 0.75662919E+03</pdfrwt>
<totfact> 0.64033189E+01</totfact>
</mgrwt>
</event>
<event>
 4    2  0.3747163E-007  0.7113010E+03  0.7818608E-02  0.9953201E-01
         -2   -1    0    0    0  501 -0.00000000000E+00  0.00000000000E+00  0.48241959801E+03  0.48241959802E+03  0.25500000000E-02 0.  1.
          2   -1    0    0  501    0  0.00000000000E+00 -0.00000000000E+00 -0.10894982263E+04  0.10894982263E+04  0.25500000000E-02 0. -1.
    8880023    1    1    2    0    0 -0.22582602077E+03  0.14540111429E+03 -0.89927773285E+03  0.11465816686E+04  0.65864270000E+03 0.  0.
    8880022    1    1    2    0    0  0.22582602077E+03 -0.14540111429E+03  0.29219910453E+03  0.42533615576E+03  0.15294330000E+03 0.  0.
<mgrwt>
<rscale>  0 0.57750776E+03</rscale>
<asrwt>0</asrwt>
<pdfrwt beam="1">  1        2 0.16761511E+00 0.71130098E+03</pdfrwt>
<pdfrwt beam="2">  1       -2 0.74218400E-01 0.71130098E+03</pdfrwt>
<totfact> 0.36896238E+01</totfact>
</mgrwt>
</event>
<event>
 4    2  0.3747163E-007  0.6904848E+03  0.7818608E-02  0.1003923E+00
          2   -1    0    0  501    0  0.00000000000E+00  0.00000000000E+00  0.46214126188E+03  0.46214126189E+03  0.25500000000E-02 0. -1.
         -2   -1    0    0    0  501 -0.00000000000E+00 -0.00000000000E+00 -0.50574256479E+03  0.50574256479E+03  0.25500000000E-02 0.  1.
    8880023    1    1    2    0    0  0.12300567874E+03 -0.16681933693E+03 -0.11635578863E+03  0.70021993972E+03  0.65864270000E+03 0.  1.
    8880022    1    1    2    0    0 -0.12300567874E+03  0.16681933693E+03  0.72754485725E+02  0.26766388696E+03  0.15294330000E+03 0. -1.
<mgrwt>
<rscale>  0 0.53963030E+03</rscale>
<asrwt>0</asrwt>
<pdfrwt beam="1">  1        2 0.71098655E-01 0.69048483E+03</pdfrwt>
<pdfrwt beam="2">  1       -2 0.77806549E-01 0.69048483E+03</pdfrwt>
<totfact> 0.10064130E+02</totfact>
</mgrwt>
</event>
<event>
 4    2  0.3747163E-007  0.7208839E+03  0.7818608E-02  0.9919607E-01
         -2   -1    0    0    0  501 -0.00000000000E+00  0.00000000000E+00  0.37202938605E+03  0.37202938606E+03  0.25500000000E-02 0.  1.
          2   -1    0    0  501    0  0.00000000000E+00 -0.00000000000E+00 -0.82119077667E+03  0.82119077667E+03  0.25500000000E-02 0. -1.
    8880023    1    1    2    0    0 -0.67203233252E+02 -0.28521408601E+03 -0.47238039245E+03  0.86186819808E+03  0.65864270000E+03 0. -1.
    8880022    1    1    2    0    0  0.67203233252E+02  0.28521408601E+03  0.23219001841E+02  0.33135196466E+03  0.15294330000E+03 0. -1.
<mgrwt>
<rscale>  0 0.59320411E+03</rscale>
<asrwt>0</asrwt>
<pdfrwt beam="1">  1        2 0.12633704E+00 0.72088387E+03</pdfrwt>
<pdfrwt beam="2">  1       -2 0.57235290E-01 0.72088387E+03</pdfrwt>
<totfact> 0.96530391E+01</totfact>
</mgrwt>
</event>
<event>
 4    2  0.3747163E-007  0.7878407E+03  0.7818608E-02  0.9737731E-01
          2   -1    0    0  501    0  0.00000000000E+00  0.00000000000E+00  0.10335095477E+04  0.10335095477E+04  0.25500000000E-02 0. -1.
         -2   -1    0    0    0  501 -0.00000000000E+00 -0.00000000000E+00 -0.95706002871E+03  0.95706002871E+03  0.25500000000E-02 0.  1.
    8880023    1    1    2    0    0 -0.39319557669E+03 -0.17966655613E+03  0.80714310968E+03  0.11279064849E+04  0.65864270000E+03 0.  0.
    8880022    1    1    2    0    0  0.39319557669E+03  0.17966655613E+03 -0.73069359071E+03  0.86266309150E+03  0.15294330000E+03 0.  0.
<mgrwt>
<rscale>  0 0.68814055E+03</rscale>
<asrwt>0</asrwt>
<pdfrwt beam="1">  1        2 0.15900147E+00 0.78784074E+03</pdfrwt>
<pdfrwt beam="2">  1       -2 0.14724000E+00 0.78784074E+03</pdfrwt>
<totfact> 0.76511382E+00</totfact>
</mgrwt>
</event>
<event>
 4    2  0.3747163E-007  0.8217926E+03  0.7818608E-02  0.9665518E-01
          2   -1    0    0  501    0  0.00000000000E+00  0.00000000000E+00  0.96252301967E+03  0.96252301968E+03  0.25500000000E-02 0. -1.
         -2   -1    0    0    0  501 -0.00000000000E+00 -0.00000000000E+00 -0.14918686296E+04  0.14918686296E+04  0.25500000000E-02 0.  1.
    8880023    1    1    2    0    0  0.16632840861E+03  0.46245828373E+03  0.72667767589E+03  0.10969974725E+04  0.65864270000E+03 0. -1.
    8880022    1    1    2    0    0 -0.16632840861E+03 -0.46245828373E+03 -0.12560232858E+04  0.13573941768E+04  0.15294330000E+03 0.  0.
<mgrwt>
<rscale>  0 0.73107496E+03</rscale>
<asrwt>0</asrwt>
<pdfrwt beam="1">  1        2 0.14808046E+00 0.82179256E+03</pdfrwt>
<pdfrwt beam="2">  1       -2 0.22951825E+00 0.82179256E+03</pdfrwt>
<totfact> 0.23347940E+00</totfact>
</mgrwt>
</event>
<event>
 4    2  0.3747163E-007  0.8803092E+03  0.7818608E-02  0.9558411E-01
         -2   -1    0    0    0  501 -0.00000000000E+00  0.00000000000E+00  0.69505600768E+03  0.69505600769E+03  0.25500000000E-02 0.  1.
          2   -1    0    0  501    0  0.00000000000E+00 -0.00000000000E+00 -0.12586241247E+04  0.12586241247E+04  0.25500000000E-02 0. -1.
    8880023    1    1    2    0    0 -0.18439884652E+03 -0.55419419404E+03 -0.90296310116E+03  0.12610657031E+04  0.65864270000E+03 0. -1.
    8880022    1    1    2    0    0  0.18439884652E+03  0.55419419404E+03  0.33939498416E+03  0.69261442924E+03  0.15294330000E+03 0.  1.
<mgrwt>
<rscale>  0 0.80111059E+03</rscale>
<asrwt>0</asrwt>
<pdfrwt beam="1">  1        2 0.19363448E+00 0.88030923E+03</pdfrwt>
<pdfrwt beam="2">  1       -2 0.10693169E+00 0.88030923E+03</pdfrwt>
<totfact> 0.12365868E+01</totfact>
</mgrwt>
</event>
<event>
 4    2  0.3747163E-007  0.6837374E+03  0.7818608E-02  0.1007284E+00
          2   -1    0    0  501    0  0.00000000000E+00  0.00000000000E+00  0.87168695355E+03  0.87168695355E+03  0.25500000000E-02 0. -1.
         -2   -1    0    0    0  501 -0.00000000000E+00 -0.00000000000E+00 -0.43098088340E+03  0.43098088341E+03  0.25500000000E-02 0.  1.
    8880023    1    1    2    0    0 -0.46085636397E+02 -0.17765900869E+03  0.68015180917E+03  0.96441863267E+03  0.65864270000E+03 0. -1.
    8880022    1    1    2    0    0  0.46085636397E+02  0.17765900869E+03 -0.23944573902E+03  0.33824920429E+03  0.15294330000E+03 0.  0.
<mgrwt>
<rscale>  0 0.52568531E+03</rscale>
<asrwt>0</asrwt>
<pdfrwt beam="1">  1        2 0.13410568E+00 0.68373739E+03</pdfrwt>
<pdfrwt beam="2">  1       -2 0.66304752E-01 0.68373739E+03</pdfrwt>
<totfact> 0.65355583E+01</totfact>
</mgrwt>
</event>
<event>
 4    2  0.3747163E-007  0.7089190E+03  0.7818608E-02  0.9962037E-01
          2   -1    0    0  501    0  0.00000000000E+00  0.00000000000E+00  0.18062949242E+04  0.18062949242E+04  0.25500000000E-02 0. -1.
         -2   -1    0    0    0  501 -0.00000000000E+00 -0.00000000000E+00 -0.53859149528E+03  0.53859149529E+03  0.25500000000E-02 0.  1.
    8880023    1    1    2    0    0  0.14990544365E+03  0.21513795890E+03  0.16854637468E+04  0.18284841349E+04  0.65864270000E+03 0.  0.
    8880022    1    1    2    0    0 -0.14990544365E+03 -0.21513795890E+03 -0.41776031786E+03  0.51640228465E+03  0.15294330000E+03 0.  1.
<mgrwt>
<rscale>  0 0.57346643E+03</rscale>
<asrwt>0</asrwt>
<pdfrwt beam="1">  1        2 0.27789152E+00 0.70891903E+03</pdfrwt>
<pdfrwt beam="2">  1       -2 0.82860231E-01 0.70891903E+03</pdfrwt>
<totfact> 0.11333601E+01</totfact>
</mgrwt>
</event>
<event>
 4    2  0.3747163E-007  0.9405024E+03  0.7818608E-02  0.9463913E-01
         -2   -1    0    0    0  501 -0.00000000000E+00  0.00000000000E+00  0.38385937272E+03  0.38385937273E+03  0.25500000000E-02 0.  1.
          2   -1    0    0  501    0  0.00000000000E+00 -0.00000000000E+00 -0.17525183291E+04  0.17525183291E+04  0.25500000000E-02 0. -1.
    8880023    1    1    2    0    0 -0.32205701709E+03  0.58907873144E+03 -0.91249487960E+03  0.13104165695E+04  0.65864270000E+03 0.  0.
    8880022    1    1    2    0    0  0.32205701709E+03 -0.58907873144E+03 -0.45616407674E+03  0.82596113227E+03  0.15294330000E+03 0.  0.
<mgrwt>
<rscale>  0 0.86997476E+03</rscale>
<asrwt>0</asrwt>
<pdfrwt beam="1">  1        2 0.26961820E+00 0.94050236E+03</pdfrwt>
<pdfrwt beam="2">  1       -2 0.59055289E-01 0.94050236E+03</pdfrwt>
<totfact> 0.24718561E+01</totfact>
</mgrwt>
</event>
<event>
 4    2  0.3747163E-007  0.6862855E+03  0.7818608E-02  0.1005970E+00
         -2   -1    0    0    0  501 -0.00000000000E+00  0.00000000000E+00  0.72557932846E+03  0.72557932846E+03  0.25500000000E-02 0.  1.
          2   -1    0    0  501    0  0.00000000000E+00 -0.00000000000E+00 -0.38786414992E+03  0.38786414993E+03  0.25500000000E-02 0. -1.
    8880023    1    1    2    0    0 -0.98441186801E+02  0.16579195122E+03 -0.11304990814E+02  0.68637864727E+03  0.65864270000E+03 0. -1.
    8880022    1    1    2    0    0  0.98441186801E+02 -0.16579195122E+03  0.34902016936E+03  0.42706483112E+03  0.15294330000E+03 0.  0.
<mgrwt>
<rscale>  0 0.53108031E+03</rscale>
<asrwt>0</asrwt>
<pdfrwt beam="1">  1        2 0.59671407E-01 0.68628554E+03</pdfrwt>
<pdfrwt beam="2">  1       -2 0.11162759E+00 0.68628554E+03</pdfrwt>
<totfact> 0.52991191E+01</totfact>
</mgrwt>
</event>
<event>
 4    2  0.3747163E-007  0.1077087E+04  0.7818608E-02  0.9287007E-01
         -2   -1    0    0    0  501 -0.00000000000E+00  0.00000000000E+00  0.35990014796E+03  0.35990014797E+03  0.25500000000E-02 0.  1.
          2   -1    0    0  501    0  0.00000000000E+00 -0.00000000000E+00 -0.48331460246E+04  0.48331460246E+04  0.25500000000E-02 0. -1.
    8880023    1    1    2    0    0 -0.70568978346E+03 -0.47781488577E+03 -0.41190601622E+04  0.42575546927E+04  0.65864270000E+03 0.  0.
    8880022    1    1    2    0    0  0.70568978346E+03  0.47781488577E+03 -0.35418571446E+03  0.93549147986E+03  0.15294330000E+03 0.  0.
<mgrwt>
<rscale>  0 0.10198790E+04</rscale>
<asrwt>0</asrwt>
<pdfrwt beam="1">  1        2 0.74356088E+00 0.10770865E+04</pdfrwt>
<pdfrwt beam="2">  1       -2 0.55369257E-01 0.10770865E+04</pdfrwt>
<totfact> 0.18001877E-01</totfact>
</mgrwt>
</event>
<event>
 4    2  0.3747163E-007  0.8233979E+03  0.7818608E-02  0.9662317E-01
          2   -1    0    0  501    0  0.00000000000E+00  0.00000000000E+00  0.29815319631E+04  0.29815319631E+04  0.25500000000E-02 0. -1.
         -2   -1    0    0    0  501 -0.00000000000E+00 -0.00000000000E+00 -0.57513357153E+03  0.57513357153E+03  0.25500000000E-02 0.  1.
    8880023    1    1    2    0    0  0.48922582188E+03  0.69513012301E+02  0.27923875601E+04  0.29112561646E+04  0.65864270000E+03 0.  0.
    8880022    1    1    2    0    0 -0.48922582188E+03 -0.69513012301E+02 -0.38598916856E+03  0.64540937004E+03  0.15294330000E+03 0.  0.
<mgrwt>
<rscale>  0 0.73305426E+03</rscale>
<asrwt>0</asrwt>
<pdfrwt beam="1">  1        2 0.45869722E+00 0.82339794E+03</pdfrwt>
<pdfrwt beam="2">  1       -2 0.88482090E-01 0.82339794E+03</pdfrwt>
<totfact> 0.20661727E+00</totfact>
</mgrwt>
</event>
<event>
 4    2  0.3747163E-007  0.8174808E+03  0.7818608E-02  0.9674200E-01
         -2   -1    0    0    0  501 -0.00000000000E+00  0.00000000000E+00  0.75048699199E+03  0.75048699199E+03  0.25500000000E-02 0.  1.
          2   -1    0    0  501    0  0.00000000000E+00 -0.00000000000E+00 -0.97256498906E+03  0.97256498907E+03  0.25500000000E-02 0. -1.
    8880023    1    1    2    0    0  0.75406428281E+02 -0.47830790609E+03 -0.66144392698E+03  0.10515621034E+04  0.65864270000E+03 0. -1.
    8880022    1    1    2    0    0 -0.75406428281E+02  0.47830790609E+03  0.43936592990E+03  0.67148987768E+03  0.15294330000E+03 0.  0.
<mgrwt>
<rscale>  0 0.72573883E+03</rscale>
<asrwt>0</asrwt>
<pdfrwt beam="1">  1        2 0.14962538E+00 0.81748076E+03</pdfrwt>
<pdfrwt beam="2">  1       -2 0.11545954E+00 0.81748076E+03</pdfrwt>
<totfact> 0.15466050E+01</totfact>
</mgrwt>
</event>
<event>
 4    2  0.3747163E-007  0.7056226E+03  0.7818608E-02  0.9974630E-01
          2   -1    0    0  501    0  0.00000000000E+00  0.00000000000E+00  0.17153956621E+04  0.17153956621E+04  0.25500000000E-02 0. -1.
         -2   -1    0    0    0  501 -0.00000000000E+00 -0.00000000000E+00 -0.59348586006E+03  0.59348586007E+03  0.25500000000E-02 0.  1.
    8880023    1    1    2    0    0  0.16374190173E+03  0.19308464867E+03  0.15988712420E+04  0.17476534401E+04  0.65864270000E+03 0. -1.
    8880022    1    1    2    0    0 -0.16374190173E+03 -0.19308464867E+03 -0.47696143994E+03  0.56122808210E+03  0.15294330000E+03 0.  0.
<mgrwt>
<rscale>  0 0.56776801E+03</rscale>
<asrwt>0</asrwt>
<pdfrwt beam="1">  1        2 0.26390702E+00 0.70562263E+03</pdfrwt>
<pdfrwt beam="2">  1       -2 0.91305518E-01 0.70562263E+03</pdfrwt>
<totfact> 0.10178955E+01</totfact>
</mgrwt>
</event>
<event>
 4    2  0.3747163E-007  0.7272600E+03  0.7818608E-02  0.9898745E-01
         -2   -1    0    0    0  501 -0.00000000000E+00  0.00000000000E+00  0.91103639567E+03  0.91103639567E+03  0.25500000000E-02 0.  1.
          2   -1    0    0  501    0  0.00000000000E+00 -0.00000000000E+00 -0.62873434247E+03  0.62873434248E+03  0.25500000000E-02 0. -1.
    8880023    1    1    2    0    0 -0.20417863784E+03 -0.23110164681E+03 -0.35966863722E+03  0.81133755131E+03  0.65864270000E+03 0. -1.
    8880022    1    1    2    0    0  0.20417863784E+03  0.23110164681E+03  0.64197069042E+03  0.72843318683E+03  0.15294330000E+03 0.  1.
<mgrwt>
<rscale>  0 0.60322150E+03</rscale>
<asrwt>0</asrwt>
<pdfrwt beam="1">  1        2 0.96728360E-01 0.72725999E+03</pdfrwt>
<pdfrwt beam="2">  1       -2 0.14015945E+00 0.72725999E+03</pdfrwt>
<totfact> 0.17047778E+01</totfact>
</mgrwt>
</event>
<event>
 4    2  0.3747163E-007  0.7112699E+03  0.7818608E-02  0.9953315E-01
         -2   -1    0    0    0  501 -0.00000000000E+00  0.00000000000E+00  0.15839497091E+04  0.15839497091E+04  0.25500000000E-02 0.  1.
          2   -1    0    0  501    0  0.00000000000E+00 -0.00000000000E+00 -0.19039441634E+03  0.19039441636E+03  0.25500000000E-02 0. -1.
    8880023    1    1    2    0    0  0.24819040799E+03  0.10245079696E+03  0.62822082907E+03  0.94898169675E+03  0.65864270000E+03 0.  0.
    8880022    1    1    2    0    0 -0.24819040799E+03 -0.10245079696E+03  0.76533446372E+03  0.82536242875E+03  0.15294330000E+03 0.  0.
<mgrwt>
<rscale>  0 0.57745540E+03</rscale>
<asrwt>0</asrwt>
<pdfrwt beam="1">  1        2 0.29291449E-01 0.71126989E+03</pdfrwt>
<pdfrwt beam="2">  1       -2 0.24368456E+00 0.71126989E+03</pdfrwt>
<totfact> 0.13221298E+01</totfact>
</mgrwt>
</event>
<event>
 4    2  0.3747163E-007  0.8292181E+03  0.7818608E-02  0.9650856E-01
          2   -1    0    0  501    0  0.00000000000E+00  0.00000000000E+00  0.38542834751E+04  0.38542834751E+04  0.25500000000E-02 0. -1.
         -2   -1    0    0    0  501 -0.00000000000E+00 -0.00000000000E+00 -0.23551976636E+03  0.23551976637E+03  0.25500000000E-02 0.  1.
    8880023    1    1    2    0    0 -0.48908947280E+03  0.12076414656E+03  0.59513473952E+03  0.10206801928E+04  0.65864270000E+03 0.  1.
    8880022    1    1    2    0    0  0.48908947280E+03 -0.12076414656E+03  0.30236289693E+04  0.30691230487E+04  0.15294330000E+03 0.  0.
<mgrwt>
<rscale>  0 0.74019754E+03</rscale>
<asrwt>0</asrwt>
<pdfrwt beam="1">  1        2 0.59296669E+00 0.82921812E+03</pdfrwt>
<pdfrwt beam="2">  1       -2 0.36233810E-01 0.82921812E+03</pdfrwt>
<totfact> 0.34595916E+00</totfact>
</mgrwt>
</event>
<event>
 4    2  0.3747163E-007  0.7844808E+03  0.7818608E-02  0.9745415E-01
          2   -1    0    0  501    0  0.00000000000E+00  0.00000000000E+00  0.17411913186E+04  0.17411913186E+04  0.25500000000E-02 0. -1.
         -2   -1    0    0    0  501 -0.00000000000E+00 -0.00000000000E+00 -0.30542097170E+03  0.30542097172E+03  0.25500000000E-02 0.  1.
    8880023    1    1    2    0    0  0.40862690013E+03  0.12092978295E+03  0.13840429334E+04  0.15909069751E+04  0.65864270000E+03 0.  0.
    8880022    1    1    2    0    0 -0.40862690013E+03 -0.12092978295E+03  0.51727413489E+02  0.45570531513E+03  0.15294330000E+03 0.  0.
<mgrwt>
<rscale>  0 0.68376011E+03</rscale>
<asrwt>0</asrwt>
<pdfrwt beam="1">  1        2 0.26787559E+00 0.78448082E+03</pdfrwt>
<pdfrwt beam="2">  1       -2 0.46987841E-01 0.78448082E+03</pdfrwt>
<totfact> 0.40832631E+01</totfact>
</mgrwt>
</event>
<event>
 4    2  0.3747163E-007  0.6786503E+03  0.7818608E-02  0.1010098E+00
          2   -1    0    0  501    0  0.00000000000E+00  0.00000000000E+00  0.13300223522E+04  0.13300223522E+04  0.25500000000E-02 0. -1.
         -2   -1    0    0    0  501 -0.00000000000E+00 -0.00000000000E+00 -0.29336500199E+03  0.29336500200E+03  0.25500000000E-02 0.  1.
    8880023    1    1    2    0    0 -0.74893141573E+02  0.14542011967E+03  0.11773365898E+04  0.13589288597E+04  0.65864270000E+03 0. -1.
    8880022    1    1    2    0    0  0.74893141573E+02 -0.14542011967E+03 -0.14067923956E+03  0.26445849451E+03  0.15294330000E+03 0.  0.
<mgrwt>
<rscale>  0 0.51435841E+03</rscale>
<asrwt>0</asrwt>
<pdfrwt beam="1">  1        2 0.20461883E+00 0.67865028E+03</pdfrwt>
<pdfrwt beam="2">  1       -2 0.45133077E-01 0.67865028E+03</pdfrwt>
<totfact> 0.75755768E+01</totfact>
</mgrwt>
</event>
<event>
 4    2  0.3747163E-007  0.7125032E+03  0.7818608E-02  0.9948820E-01
         -2   -1    0    0    0  501 -0.00000000000E+00  0.00000000000E+00  0.28473359543E+03  0.28473359544E+03  0.25500000000E-02 0.  1.
          2   -1    0    0  501    0  0.00000000000E+00 -0.00000000000E+00 -0.31220560016E+04  0.31220560016E+04  0.25500000000E-02 0. -1.
    8880023    1    1    2    0    0  0.17947769169E+03 -0.20405495653E+03 -0.29799048695E+04  0.30639017452E+04  0.65864270000E+03 0. -1.
    8880022    1    1    2    0    0 -0.17947769169E+03  0.20405495653E+03  0.14258246327E+03  0.34288785185E+03  0.15294330000E+03 0.  0.
<mgrwt>
<rscale>  0 0.57952483E+03</rscale>
<asrwt>0</asrwt>
<pdfrwt beam="1">  1        2 0.48031629E+00 0.71250324E+03</pdfrwt>
<pdfrwt beam="2">  1       -2 0.43805171E-01 0.71250324E+03</pdfrwt>
<totfact> 0.77465067E+00</totfact>
</mgrwt>
</event>
<event>
 4    2  0.3747163E-007  0.7623501E+03  0.7818608E-02  0.9799061E-01
         -2   -1    0    0    0  501 -0.00000000000E+00  0.00000000000E+00  0.51081039636E+03  0.51081039637E+03  0.25500000000E-02 0.  1.
          2   -1    0    0  501    0  0.00000000000E+00 -0.00000000000E+00 -0.98222268123E+03  0.98222268123E+03  0.25500000000E-02 0. -1.
    8880023    1    1    2    0    0 -0.38308885589E+03  0.24706344720E+02 -0.68763266946E+03  0.10266529936E+04  0.65864270000E+03 0.  0.
    8880022    1    1    2    0    0  0.38308885589E+03 -0.24706344720E+02  0.21622038460E+03  0.46638008395E+03  0.15294330000E+03 0.  0.
<mgrwt>
<rscale>  0 0.65412966E+03</rscale>
<asrwt>0</asrwt>
<pdfrwt beam="1">  1        2 0.15111118E+00 0.76235010E+03</pdfrwt>
<pdfrwt beam="2">  1       -2 0.78586215E-01 0.76235010E+03</pdfrwt>
<totfact> 0.37754254E+01</totfact>
</mgrwt>
</event>
<event>
 4    2  0.3747163E-007  0.9723962E+03  0.7818608E-02  0.9418598E-01
          2   -1    0    0  501    0  0.00000000000E+00  0.00000000000E+00  0.17871652454E+04  0.17871652454E+04  0.25500000000E-02 0. -1.
         -2   -1    0    0    0  501 -0.00000000000E+00 -0.00000000000E+00 -0.52980836299E+03  0.52980836300E+03  0.25500000000E-02 0.  1.
    8880023    1    1    2    0    0  0.94849274035E+01  0.71530012598E+03  0.12522060717E+04  0.15854256483E+04  0.65864270000E+03 0. -1.
    8880022    1    1    2    0    0 -0.94849274035E+01 -0.71530012598E+03  0.51508107348E+01  0.73154796011E+03  0.15294330000E+03 0.  0.
<mgrwt>
<rscale>  0 0.90560844E+03</rscale>
<asrwt>0</asrwt>
<pdfrwt beam="1">  1        2 0.27494850E+00 0.97239624E+03</pdfrwt>
<pdfrwt beam="2">  1       -2 0.81508979E-01 0.97239624E+03</pdfrwt>
<totfact> 0.11652793E+01</totfact>
</mgrwt>
</event>
<event>
 4    2  0.3747163E-007  0.8234616E+03  0.7818608E-02  0.9662191E-01
          2   -1    0    0  501    0  0.00000000000E+00  0.00000000000E+00  0.29370896240E+04  0.29370896240E+04  0.25500000000E-02 0. -1.
         -2   -1    0    0    0  501 -0.00000000000E+00 -0.00000000000E+00 -0.26448459579E+03  0.26448459580E+03  0.25500000000E-02 0.  1.
    8880023    1    1    2    0    0  0.48238953867E+03 -0.10760647625E+03  0.25361893354E+04  0.26665230867E+04  0.65864270000E+03 0.  0.
    8880022    1    1    2    0    0 -0.48238953867E+03  0.10760647625E+03  0.13641569280E+03  0.53505113307E+03  0.15294330000E+03 0.  0.
<mgrwt>
<rscale>  0 0.73313268E+03</rscale>
<asrwt>0</asrwt>
<pdfrwt beam="1">  1        2 0.45185993E+00 0.82346161E+03</pdfrwt>
<pdfrwt beam="2">  1       -2 0.40689939E-01 0.82346161E+03</pdfrwt>
<totfact> 0.11418425E+01</totfact>
</mgrwt>
</event>
<event>
 4    2  0.3747163E-007  0.8159972E+03  0.7818608E-02  0.9677218E-01
         -2   -1    0    0    0  501 -0.00000000000E+00  0.00000000000E+00  0.30729019348E+03  0.30729019349E+03  0.25500000000E-02 0.  1.
          2   -1    0    0  501    0  0.00000000000E+00 -0.00000000000E+00 -0.16236808506E+04  0.16236808506E+04  0.25500000000E-02 0. -1.
    8880023    1    1    2    0    0 -0.36041001365E+03 -0.31960251157E+03 -0.46042145874E+03  0.93693077080E+03  0.65864270000E+03 0. -1.
    8880022    1    1    2    0    0  0.36041001365E+03  0.31960251157E+03 -0.85596919841E+03  0.99404027332E+03  0.15294330000E+03 0.  0.
<mgrwt>
<rscale>  0 0.72389581E+03</rscale>
<asrwt>0</asrwt>
<pdfrwt beam="1">  1        2 0.24979705E+00 0.81599715E+03</pdfrwt>
<pdfrwt beam="2">  1       -2 0.47275415E-01 0.81599715E+03</pdfrwt>
<totfact> 0.46639795E+01</totfact>
</mgrwt>
</event>
<event>
 4    2  0.3747163E-007  0.7733990E+03  0.7818608E-02  0.9771578E-01
          2   -1    0    0  501    0  0.00000000000E+00  0.00000000000E+00  0.58539137413E+03  0.58539137413E+03  0.25500000000E-02 0. -1.
         -2   -1    0    0    0  501 -0.00000000000E+00 -0.00000000000E+00 -0.91715612408E+03  0.91715612409E+03  0.25500000000E-02 0.  1.
    8880023    1    1    2    0    0  0.52420570735E+01  0.40534965085E+03  0.21708503750E+03  0.80328820381E+03  0.65864270000E+03 0. -1.
    8880022    1    1    2    0    0 -0.52420570735E+01 -0.40534965085E+03 -0.54884978746E+03  0.69925929441E+03  0.15294330000E+03 0.  0.
<mgrwt>
<rscale>  0 0.66910409E+03</rscale>
<asrwt>0</asrwt>
<pdfrwt beam="1">  1        2 0.90060212E-01 0.77339901E+03</pdfrwt>
<pdfrwt beam="2">  1       -2 0.14110094E+00 0.77339901E+03</pdfrwt>
<totfact> 0.18189536E+01</totfact>
</mgrwt>
</event>
<event>
 4    2  0.3747163E-007  0.6685932E+03  0.7818608E-02  0.1016692E+00
          2   -1    0    0  501    0  0.00000000000E+00  0.00000000000E+00  0.18824142503E+04  0.18824142503E+04  0.25500000000E-02 0. -1.
         -2   -1    0    0    0  501 -0.00000000000E+00 -0.00000000000E+00 -0.12333331832E+03  0.12333331834E+03  0.25500000000E-02 0.  1.
    8880023    1    1    2    0    0 -0.11378919484E+03  0.16081567117E+02  0.16615297816E+04  0.17910047512E+04  0.65864270000E+03 0. -1.
    8880022    1    1    2    0    0  0.11378919484E+03 -0.16081567117E+02  0.97551150414E+02  0.21474281740E+03  0.15294330000E+03 0.  0.
<mgrwt>
<rscale>  0 0.48899451E+03</rscale>
<asrwt>0</asrwt>
<pdfrwt beam="1">  1        2 0.28960218E+00 0.66859315E+03</pdfrwt>
<pdfrwt beam="2">  1       -2 0.18974358E-01 0.66859315E+03</pdfrwt>
<totfact> 0.18705357E+02</totfact>
</mgrwt>
</event>
<event>
 4    2  0.3747163E-007  0.7375803E+03  0.7818608E-02  0.9867052E-01
          2   -1    0    0  501    0  0.00000000000E+00  0.00000000000E+00  0.20081624261E+04  0.20081624261E+04  0.25500000000E-02 0. -1.
         -2   -1    0    0    0  501 -0.00000000000E+00 -0.00000000000E+00 -0.22292036360E+03  0.22292036361E+03  0.25500000000E-02 0.  1.
    8880023    1    1    2    0    0 -0.13979260954E+03  0.30111868695E+03  0.17037987850E+04  0.18565976795E+04  0.65864270000E+03 0. -1.
    8880022    1    1    2    0    0  0.13979260954E+03 -0.30111868695E+03  0.81443277442E+02  0.37448511021E+03  0.15294330000E+03 0.  0.
<mgrwt>
<rscale>  0 0.61884979E+03</rscale>
<asrwt>0</asrwt>
<pdfrwt beam="1">  1        2 0.30894807E+00 0.73758026E+03</pdfrwt>
<pdfrwt beam="2">  1       -2 0.34295440E-01 0.73758026E+03</pdfrwt>
<totfact> 0.54293935E+01</totfact>
</mgrwt>
</event>
<event>
 4    2  0.3747163E-007  0.7404926E+03  0.7818608E-02  0.9858514E-01
          2   -1    0    0  501    0  0.00000000000E+00  0.00000000000E+00  0.14917556721E+04  0.14917556721E+04  0.25500000000E-02 0. -1.
         -2   -1    0    0    0  501 -0.00000000000E+00 -0.00000000000E+00 -0.20797214716E+03  0.20797214717E+03  0.25500000000E-02 0.  1.
    8880023    1    1    2    0    0 -0.10650000857E+03  0.32121151233E+03  0.90379329526E+03  0.11684055864E+04  0.65864270000E+03 0.  0.
    8880022    1    1    2    0    0  0.10650000857E+03 -0.32121151233E+03  0.37999022967E+03  0.53132223287E+03  0.15294330000E+03 0. -1.
<mgrwt>
<rscale>  0 0.62314671E+03</rscale>
<asrwt>0</asrwt>
<pdfrwt beam="1">  1        2 0.22950087E+00 0.74049260E+03</pdfrwt>
<pdfrwt beam="2">  1       -2 0.31995716E-01 0.74049260E+03</pdfrwt>
<totfact> 0.11867050E+02</totfact>
</mgrwt>
</event>
<event>
 4    2  0.3747163E-007  0.1352523E+04  0.7818608E-02  0.9021480E-01
          2   -1    0    0  501    0  0.00000000000E+00  0.00000000000E+00  0.19885812138E+04  0.19885812138E+04  0.25500000000E-02 0. -1.
         -2   -1    0    0    0  501 -0.00000000000E+00 -0.00000000000E+00 -0.12168663297E+04  0.12168663297E+04  0.25500000000E-02 0.  1.
    8880023    1    1    2    0    0 -0.10960168390E+04 -0.44074465208E+03  0.13237958395E+04  0.18925523482E+04  0.65864270000E+03 0.  0.
    8880022    1    1    2    0    0  0.10960168390E+04  0.44074465208E+03 -0.55208095539E+03  0.13128951954E+04  0.15294330000E+03 0.  0.
<mgrwt>
<rscale>  0 0.13102451E+04</rscale>
<asrwt>0</asrwt>
<pdfrwt beam="1">  1        2 0.30593557E+00 0.13525232E+04</pdfrwt>
<pdfrwt beam="2">  1       -2 0.18721021E+00 0.13525232E+04</pdfrwt>
<totfact> 0.10476246E+00</totfact>
</mgrwt>
</event>
<event>
 4    2  0.3747163E-007  0.7497077E+03  0.7818608E-02  0.9832521E-01
          2   -1    0    0  501    0  0.00000000000E+00  0.00000000000E+00  0.31500738056E+04  0.31500738056E+04  0.25500000000E-02 0. -1.
         -2   -1    0    0    0  501 -0.00000000000E+00 -0.00000000000E+00 -0.28648650211E+03  0.28648650212E+03  0.25500000000E-02 0.  1.
    8880023    1    1    2    0    0  0.67127658895E+02  0.35177450495E+03  0.29448285188E+04  0.30387623528E+04  0.65864270000E+03 0.  0.
    8880022    1    1    2    0    0 -0.67127658895E+02 -0.35177450495E+03 -0.81241215308E+02  0.39779795500E+03  0.15294330000E+03 0.  1.
<mgrwt>
<rscale>  0 0.63646101E+03</rscale>
<asrwt>0</asrwt>
<pdfrwt beam="1">  1        2 0.48462675E+00 0.74970770E+03</pdfrwt>
<pdfrwt beam="2">  1       -2 0.44074845E-01 0.74970770E+03</pdfrwt>
<totfact> 0.72965109E+00</totfact>
</mgrwt>
</event>
<event>
 4    2  0.3747163E-007  0.7602760E+03  0.7818608E-02  0.9804394E-01
          2   -1    0    0  501    0  0.00000000000E+00  0.00000000000E+00  0.85060890037E+03  0.85060890038E+03  0.25500000000E-02 0. -1.
         -2   -1    0    0    0  501 -0.00000000000E+00 -0.00000000000E+00 -0.13539496160E+04  0.13539496160E+04  0.25500000000E-02 0.  1.
    8880023    1    1    2    0    0 -0.19453206981E+03  0.32613896430E+03  0.63769204668E+03  0.99230575070E+03  0.65864270000E+03 0. -1.
    8880022    1    1    2    0    0  0.19453206981E+03 -0.32613896430E+03 -0.11410327623E+04  0.12122527656E+04  0.15294330000E+03 0.  0.
<mgrwt>
<rscale>  0 0.65127293E+03</rscale>
<asrwt>0</asrwt>
<pdfrwt beam="1">  1        2 0.13086291E+00 0.76027597E+03</pdfrwt>
<pdfrwt beam="2">  1       -2 0.20829994E+00 0.76027597E+03</pdfrwt>
<totfact> 0.38067169E+00</totfact>
</mgrwt>
</event>
<event>
 4    2  0.3747163E-007  0.9759787E+03  0.7818608E-02  0.9413682E-01
         -2   -1    0    0    0  501 -0.00000000000E+00  0.00000000000E+00  0.51159941137E+03  0.51159941138E+03  0.25500000000E-02 0.  1.
          2   -1    0    0  501    0  0.00000000000E+00 -0.00000000000E+00 -0.23643502312E+04  0.23643502312E+04  0.25500000000E-02 0. -1.
    8880023    1    1    2    0    0  0.37509832445E+03  0.61483777912E+03 -0.19022414280E+04  0.21380030179E+04  0.65864270000E+03 0. -1.
    8880022    1    1    2    0    0 -0.37509832445E+03 -0.61483777912E+03  0.49490608181E+02  0.73794662473E+03  0.15294330000E+03 0.  0.
<mgrwt>
<rscale>  0 0.90958183E+03</rscale>
<asrwt>0</asrwt>
<pdfrwt beam="1">  1        2 0.36374618E+00 0.97597872E+03</pdfrwt>
<pdfrwt beam="2">  1       -2 0.78707603E-01 0.97597872E+03</pdfrwt>
<totfact> 0.60401764E+00</totfact>
</mgrwt>
</event>
<event>
 4    2  0.3747163E-007  0.9279256E+03  0.7818608E-02  0.9482612E-01
          2   -1    0    0  501    0  0.00000000000E+00  0.00000000000E+00  0.13338728452E+04  0.13338728452E+04  0.25500000000E-02 0. -1.
         -2   -1    0    0    0  501 -0.00000000000E+00 -0.00000000000E+00 -0.64141551056E+03  0.64141551057E+03  0.25500000000E-02 0.  1.
    8880023    1    1    2    0    0  0.14144668557E+03  0.63814468576E+03  0.87942452085E+03  0.12784496466E+04  0.65864270000E+03 0.  0.
    8880022    1    1    2    0    0 -0.14144668557E+03 -0.63814468576E+03 -0.18696718621E+03  0.69683870914E+03  0.15294330000E+03 0.  0.
<mgrwt>
<rscale>  0 0.85577992E+03</rscale>
<asrwt>0</asrwt>
<pdfrwt beam="1">  1        2 0.20521120E+00 0.92792565E+03</pdfrwt>
<pdfrwt beam="2">  1       -2 0.98679310E-01 0.92792565E+03</pdfrwt>
<totfact> 0.13487138E+01</totfact>
</mgrwt>
</event>
<event>
 4    2  0.3747163E-007  0.8763236E+03  0.7818608E-02  0.9565162E-01
         -2   -1    0    0    0  501 -0.00000000000E+00  0.00000000000E+00  0.22928818933E+04  0.22928818933E+04  0.25500000000E-02 0.  1.
          2   -1    0    0  501    0  0.00000000000E+00 -0.00000000000E+00 -0.39980443717E+03  0.39980443717E+03  0.25500000000E-02 0. -1.
    8880023    1    1    2    0    0 -0.21641899147E+03 -0.53599966593E+03  0.20240613750E+03  0.89939494801E+03  0.65864270000E+03 0.  0.
    8880022    1    1    2    0    0  0.21641899147E+03  0.53599966593E+03  0.16906713186E+04  0.17932913824E+04  0.15294330000E+03 0.  0.
<mgrwt>
<rscale>  0 0.79645565E+03</rscale>
<asrwt>0</asrwt>
<pdfrwt beam="1">  1        2 0.61508374E-01 0.87632359E+03</pdfrwt>
<pdfrwt beam="2">  1       -2 0.35275107E+00 0.87632359E+03</pdfrwt>
<totfact> 0.12288168E+00</totfact>
</mgrwt>
</event>
<event>
 4    2  0.3747163E-007  0.7707300E+03  0.7818608E-02  0.9778081E-01
          2   -1    0    0  501    0  0.00000000000E+00  0.00000000000E+00  0.26851665985E+04  0.26851665985E+04  0.25500000000E-02 0. -1.
         -2   -1    0    0    0  501 -0.00000000000E+00 -0.00000000000E+00 -0.26195337637E+03  0.26195337639E+03  0.25500000000E-02 0.  1.
    8880023    1    1    2    0    0 -0.40013524128E+03 -0.10313864449E+02  0.23969584603E+04  0.25178233960E+04  0.65864270000E+03 0. -1.
    8880022    1    1    2    0    0  0.40013524128E+03  0.10313864449E+02  0.26254761904E+02  0.42929657890E+03  0.15294330000E+03 0.  0.
<mgrwt>
<rscale>  0 0.66552235E+03</rscale>
<asrwt>0</asrwt>
<pdfrwt beam="1">  1        2 0.41310253E+00 0.77073004E+03</pdfrwt>
<pdfrwt beam="2">  1       -2 0.40300522E-01 0.77073004E+03</pdfrwt>
<totfact> 0.16553588E+01</totfact>
</mgrwt>
</event>
<event>
 4    2  0.3747163E-007  0.9017761E+03  0.7818608E-02  0.9523186E-01
         -2   -1    0    0    0  501 -0.00000000000E+00  0.00000000000E+00  0.75958123714E+03  0.75958123714E+03  0.25500000000E-02 0.  1.
          2   -1    0    0  501    0  0.00000000000E+00 -0.00000000000E+00 -0.14128408836E+04  0.14128408836E+04  0.25500000000E-02 0. -1.
    8880023    1    1    2    0    0 -0.24356914176E+03  0.56574202542E+03 -0.10804971355E+04  0.14073642856E+04  0.65864270000E+03 0.  0.
    8880022    1    1    2    0    0  0.24356914176E+03 -0.56574202542E+03  0.42723748904E+03  0.76505783520E+03  0.15294330000E+03 0.  0.
<mgrwt>
<rscale>  0 0.82595760E+03</rscale>
<asrwt>0</asrwt>
<pdfrwt beam="1">  1        2 0.21736014E+00 0.90177612E+03</pdfrwt>
<pdfrwt beam="2">  1       -2 0.11685865E+00 0.90177612E+03</pdfrwt>
<totfact> 0.81004498E+00</totfact>
</mgrwt>
</event>
<event>
 4    2  0.3747163E-007  0.6755359E+03  0.7818608E-02  0.1011971E+00
          2   -1    0    0  501    0  0.00000000000E+00  0.00000000000E+00  0.14328176806E+04  0.14328176806E+04  0.25500000000E-02 0. -1.
         -2   -1    0    0    0  501 -0.00000000000E+00 -0.00000000000E+00 -0.96639966710E+03  0.96639966711E+03  0.25500000000E-02 0.  1.
    8880023    1    1    2    0    0  0.10474912877E+03 -0.10754584434E+03  0.13395073273E+04  0.15002095103E+04  0.65864270000E+03 0. -1.
    8880022    1    1    2    0    0 -0.10474912877E+03  0.10754584434E+03 -0.87308931387E+03  0.89900783735E+03  0.15294330000E+03 0.  0.
<mgrwt>
<rscale>  0 0.50698899E+03</rscale>
<asrwt>0</asrwt>
<pdfrwt beam="1">  1        2 0.22043349E+00 0.67553586E+03</pdfrwt>
<pdfrwt beam="2">  1       -2 0.14867687E+00 0.67553586E+03</pdfrwt>
<totfact> 0.44107258E+00</totfact>
</mgrwt>
</event>
<event>
 4    2  0.3747163E-007  0.9042311E+03  0.7818608E-02  0.9519273E-01
         -2   -1    0    0    0  501 -0.00000000000E+00  0.00000000000E+00  0.79294842007E+03  0.79294842008E+03  0.25500000000E-02 0.  1.
          2   -1    0    0  501    0  0.00000000000E+00 -0.00000000000E+00 -0.86688621208E+03  0.86688621208E+03  0.25500000000E-02 0. -1.
    8880023    1    1    2    0    0 -0.24267836592E+03  0.57002709187E+03 -0.34326326174E+03  0.96719364549E+03  0.65864270000E+03 0.  0.
    8880022    1    1    2    0    0  0.24267836592E+03 -0.57002709187E+03  0.26932546973E+03  0.69264098667E+03  0.15294330000E+03 0.  0.
<mgrwt>
<rscale>  0 0.82877682E+03</rscale>
<asrwt>0</asrwt>
<pdfrwt beam="1">  1        2 0.13336711E+00 0.90423110E+03</pdfrwt>
<pdfrwt beam="2">  1       -2 0.12199206E+00 0.90423110E+03</pdfrwt>
<totfact> 0.15754880E+01</totfact>
</mgrwt>
</event>
<event>
 4    2  0.3747163E-007  0.8318370E+03  0.7818608E-02  0.9645769E-01
         -2   -1    0    0    0  501 -0.00000000000E+00  0.00000000000E+00  0.39282064838E+03  0.39282064839E+03  0.25500000000E-02 0.  1.
          2   -1    0    0  501    0  0.00000000000E+00 -0.00000000000E+00 -0.12625410723E+04  0.12625410723E+04  0.25500000000E-02 0. -1.
    8880023    1    1    2    0    0  0.46839193179E+03  0.19685409459E+03 -0.72986506086E+03  0.11066416537E+04  0.65864270000E+03 0.  0.
    8880022    1    1    2    0    0 -0.46839193179E+03 -0.19685409459E+03 -0.13985536302E+03  0.54872006698E+03  0.15294330000E+03 0.  0.
<mgrwt>
<rscale>  0 0.74339572E+03</rscale>
<asrwt>0</asrwt>
<pdfrwt beam="1">  1        2 0.19423709E+00 0.83183697E+03</pdfrwt>
<pdfrwt beam="2">  1       -2 0.60433947E-01 0.83183697E+03</pdfrwt>
<totfact> 0.44842085E+01</totfact>
</mgrwt>
</event>
<event>
 4    2  0.3747163E-007  0.7815239E+03  0.7818608E-02  0.9752269E-01
          2   -1    0    0  501    0  0.00000000000E+00  0.00000000000E+00  0.10011345040E+04  0.10011345040E+04  0.25500000000E-02 0. -1.
         -2   -1    0    0    0  501 -0.00000000000E+00 -0.00000000000E+00 -0.49559151927E+03  0.49559151927E+03  0.25500000000E-02 0.  1.
    8880023    1    1    2    0    0 -0.29922235053E+03  0.29569476813E+03  0.66029057860E+03  0.10231144928E+04  0.65864270000E+03 0. -1.
    8880022    1    1    2    0    0  0.29922235053E+03 -0.29569476813E+03 -0.15474759387E+03  0.47361153046E+03  0.15294330000E+03 0.  0.
<mgrwt>
<rscale>  0 0.67988172E+03</rscale>
<asrwt>0</asrwt>
<pdfrwt beam="1">  1        2 0.15402069E+00 0.78152391E+03</pdfrwt>
<pdfrwt beam="2">  1       -2 0.76244850E-01 0.78152391E+03</pdfrwt>
<totfact> 0.39213135E+01</totfact>
</mgrwt>
</event>
<event>
 4    2  0.3747163E-007  0.1154717E+04  0.7818608E-02  0.9202449E-01
         -2   -1    0    0    0  501 -0.00000000000E+00  0.00000000000E+00  0.84076797419E+03  0.84076797420E+03  0.25500000000E-02 0.  1.
          2   -1    0    0  501    0  0.00000000000E+00 -0.00000000000E+00 -0.18486518940E+04  0.18486518940E+04  0.25500000000E-02 0. -1.
    8880023    1    1    2    0    0  0.89444887472E+03  0.31547204895E+03 -0.12468782790E+04  0.16994343329E+04  0.65864270000E+03 0.  0.
    8880022    1    1    2    0    0 -0.89444887472E+03 -0.31547204895E+03  0.23899435921E+03  0.98998553520E+03  0.15294330000E+03 0.  0.
<mgrwt>
<rscale>  0 0.11028188E+04</rscale>
<asrwt>0</asrwt>
<pdfrwt beam="1">  1        2 0.28440798E+00 0.11547171E+04</pdfrwt>
<pdfrwt beam="2">  1       -2 0.12934892E+00 0.11547171E+04</pdfrwt>
<totfact> 0.34922286E+00</totfact>
</mgrwt>
</event>
<event>
 4    2  0.3747163E-007  0.1129254E+04  0.7818608E-02  0.9229164E-01
         -2   -1    0    0    0  501 -0.00000000000E+00  0.00000000000E+00  0.60592914037E+03  0.60592914037E+03  0.25500000000E-02 0.  1.
          2   -1    0    0  501    0  0.00000000000E+00 -0.00000000000E+00 -0.21960491300E+04  0.21960491300E+04  0.25500000000E-02 0. -1.
    8880023    1    1    2    0    0 -0.60470544639E+03  0.68973572592E+03 -0.14857576383E+04  0.18661966709E+04  0.65864270000E+03 0.  0.
    8880022    1    1    2    0    0  0.60470544639E+03 -0.68973572592E+03 -0.10436235135E+03  0.93578159947E+03  0.15294330000E+03 0.  0.
<mgrwt>
<rscale>  0 0.10757414E+04</rscale>
<asrwt>0</asrwt>
<pdfrwt beam="1">  1        2 0.33785371E+00 0.11292538E+04</pdfrwt>
<pdfrwt beam="2">  1       -2 0.93219869E-01 0.11292538E+04</pdfrwt>
<totfact> 0.49988582E+00</totfact>
</mgrwt>
</event>
<event>
 4    2  0.3747163E-007  0.7898681E+03  0.7818608E-02  0.9733147E-01
          2   -1    0    0  501    0  0.00000000000E+00  0.00000000000E+00  0.19383299662E+04  0.19383299662E+04  0.25500000000E-02 0. -1.
         -2   -1    0    0    0  501 -0.00000000000E+00 -0.00000000000E+00 -0.38259219384E+03  0.38259219385E+03  0.25500000000E-02 0.  1.
    8880023    1    1    2    0    0  0.38490078667E+03 -0.20477502106E+03  0.16678958582E+04  0.18454723582E+04  0.65864270000E+03 0. -1.
    8880022    1    1    2    0    0 -0.38490078667E+03  0.20477502106E+03 -0.11215808585E+03  0.47544980184E+03  0.15294330000E+03 0.  0.
<mgrwt>
<rscale>  0 0.69077057E+03</rscale>
<asrwt>0</asrwt>
<pdfrwt beam="1">  1        2 0.29820461E+00 0.78986811E+03</pdfrwt>
<pdfrwt beam="2">  1       -2 0.58860338E-01 0.78986811E+03</pdfrwt>
<totfact> 0.20031135E+01</totfact>
</mgrwt>
</event>
<event>
 4    2  0.3747163E-007  0.8028168E+03  0.7818608E-02  0.9704738E-01
          2   -1    0    0  501    0  0.00000000000E+00  0.00000000000E+00  0.19752523072E+04  0.19752523072E+04  0.25500000000E-02 0. -1.
         -2   -1    0    0    0  501 -0.00000000000E+00 -0.00000000000E+00 -0.27931188571E+03  0.27931188572E+03  0.25500000000E-02 0.  1.
    8880023    1    1    2    0    0 -0.24261636078E+03 -0.38966892081E+03  0.15559968944E+04  0.17508972294E+04  0.65864270000E+03 0. -1.
    8880022    1    1    2    0    0  0.24261636078E+03  0.38966892081E+03  0.13994352714E+03  0.50366696355E+03  0.15294330000E+03 0.  0.
<mgrwt>
<rscale>  0 0.70735370E+03</rscale>
<asrwt>0</asrwt>
<pdfrwt beam="1">  1        2 0.30388496E+00 0.80281677E+03</pdfrwt>
<pdfrwt beam="2">  1       -2 0.42971061E-01 0.80281677E+03</pdfrwt>
<totfact> 0.36279969E+01</totfact>
</mgrwt>
</event>
<event>
 4    2  0.3747163E-007  0.9166964E+03  0.7818608E-02  0.9499743E-01
          2   -1    0    0  501    0  0.00000000000E+00  0.00000000000E+00  0.15094824957E+04  0.15094824957E+04  0.25500000000E-02 0. -1.
         -2   -1    0    0    0  501 -0.00000000000E+00 -0.00000000000E+00 -0.56895034646E+03  0.56895034646E+03  0.25500000000E-02 0.  1.
    8880023    1    1    2    0    0  0.20431655439E+03  0.60396762690E+03  0.10711655186E+04  0.14098680517E+04  0.65864270000E+03 0.  0.
    8880022    1    1    2    0    0 -0.20431655439E+03 -0.60396762690E+03 -0.13063336942E+03  0.66856479040E+03  0.15294330000E+03 0.  0.
<mgrwt>
<rscale>  0 0.84302767E+03</rscale>
<asrwt>0</asrwt>
<pdfrwt beam="1">  1        2 0.23222807E+00 0.91669644E+03</pdfrwt>
<pdfrwt beam="2">  1       -2 0.87530824E-01 0.91669644E+03</pdfrwt>
<totfact> 0.14196084E+01</totfact>
</mgrwt>
</event>
<event>
 4    2  0.3747163E-007  0.6915925E+03  0.7818608E-02  0.1003405E+00
          2   -1    0    0  501    0  0.00000000000E+00  0.00000000000E+00  0.12163209185E+04  0.12163209185E+04  0.25500000000E-02 0. -1.
         -2   -1    0    0    0  501 -0.00000000000E+00 -0.00000000000E+00 -0.22755325618E+03  0.22755325619E+03  0.25500000000E-02 0.  1.
    8880023    1    1    2    0    0  0.15421828283E+03 -0.14389814787E+03  0.39735651395E+03  0.79761667558E+03  0.65864270000E+03 0. -1.
    8880022    1    1    2    0    0 -0.15421828283E+03  0.14389814787E+03  0.59141114833E+03  0.64625749907E+03  0.15294330000E+03 0.  0.
<mgrwt>
<rscale>  0 0.54182210E+03</rscale>
<asrwt>0</asrwt>
<pdfrwt beam="1">  1        2 0.18712629E+00 0.69159248E+03</pdfrwt>
<pdfrwt beam="2">  1       -2 0.35008193E-01 0.69159248E+03</pdfrwt>
<totfact> 0.14434284E+02</totfact>
</mgrwt>
</event>
<event>
 4    2  0.3747163E-007  0.9046654E+03  0.7818608E-02  0.9518583E-01
          2   -1    0    0  501    0  0.00000000000E+00  0.00000000000E+00  0.97715460511E+03  0.97715460511E+03  0.25500000000E-02 0. -1.
         -2   -1    0    0    0  501 -0.00000000000E+00 -0.00000000000E+00 -0.14193249863E+04  0.14193249864E+04  0.25500000000E-02 0.  1.
    8880023    1    1    2    0    0  0.10811143340E+03 -0.61067273083E+03  0.66190025095E+03  0.11209511206E+04  0.65864270000E+03 0. -1.
    8880022    1    1    2    0    0 -0.10811143340E+03  0.61067273083E+03 -0.11040706322E+04  0.12755284709E+04  0.15294330000E+03 0.  0.
<mgrwt>
<rscale>  0 0.82927510E+03</rscale>
<asrwt>0</asrwt>
<pdfrwt beam="1">  1        2 0.15033148E+00 0.90466539E+03</pdfrwt>
<pdfrwt beam="2">  1       -2 0.21835769E+00 0.90466539E+03</pdfrwt>
<totfact> 0.26516031E+00</totfact>
</mgrwt>
</event>
<event>
 4    2  0.3747163E-007  0.7070157E+03  0.7818608E-02  0.9969255E-01
         -2   -1    0    0    0  501 -0.00000000000E+00  0.00000000000E+00  0.40021121934E+03  0.40021121935E+03  0.25500000000E-02 0.  1.
          2   -1    0    0  501    0  0.00000000000E+00 -0.00000000000E+00 -0.90635671459E+03  0.90635671459E+03  0.25500000000E-02 0. -1.
    8880023    1    1    2    0    0  0.24437157419E+03 -0.79645858133E+02 -0.66265075854E+03  0.96900834003E+03  0.65864270000E+03 0. -1.
    8880022    1    1    2    0    0 -0.24437157419E+03  0.79645858133E+02  0.15650526330E+03  0.33755959391E+03  0.15294330000E+03 0.  0.
<mgrwt>
<rscale>  0 0.57019169E+03</rscale>
<asrwt>0</asrwt>
<pdfrwt beam="1">  1        2 0.13943949E+00 0.70701565E+03</pdfrwt>
<pdfrwt beam="2">  1       -2 0.61570957E-01 0.70701565E+03</pdfrwt>
<totfact> 0.72409556E+01</totfact>
</mgrwt>
</event>
<event>
 4    2  0.3747163E-007  0.1032188E+04  0.7818608E-02  0.9340607E-01
          2   -1    0    0  501    0  0.00000000000E+00  0.00000000000E+00  0.29819717461E+04  0.29819717461E+04  0.25500000000E-02 0. -1.
         -2   -1    0    0    0  501 -0.00000000000E+00 -0.00000000000E+00 -0.34290210375E+03  0.34290210376E+03  0.25500000000E-02 0.  1.
    8880023    1    1    2    0    0 -0.79366460972E+03 -0.41210499247E+02  0.21349899481E+04  0.23714118374E+04  0.65864270000E+03 0. -1.
    8880022    1    1    2    0    0  0.79366460972E+03  0.41210499247E+02  0.50407969424E+03  0.95346201242E+03  0.15294330000E+03 0.  0.
<mgrwt>
<rscale>  0 0.97128956E+03</rscale>
<asrwt>0</asrwt>
<pdfrwt beam="1">  1        2 0.45876489E+00 0.10321880E+04</pdfrwt>
<pdfrwt beam="2">  1       -2 0.52754169E-01 0.10321880E+04</pdfrwt>
<totfact> 0.61669478E+00</totfact>
</mgrwt>
</event>
<event>
 4    2  0.3747163E-007  0.9524455E+03  0.7818608E-02  0.9446604E-01
         -2   -1    0    0    0  501 -0.00000000000E+00  0.00000000000E+00  0.33836887058E+03  0.33836887059E+03  0.25500000000E-02 0.  1.
          2   -1    0    0  501    0  0.00000000000E+00 -0.00000000000E+00 -0.36700914128E+04  0.36700914128E+04  0.25500000000E-02 0. -1.
    8880023    1    1    2    0    0 -0.47414572887E+03  0.49852584746E+03 -0.31353464389E+04  0.32768200578E+04  0.65864270000E+03 0.  0.
    8880022    1    1    2    0    0  0.47414572887E+03 -0.49852584746E+03 -0.19637610333E+03  0.73164022564E+03  0.15294330000E+03 0.  0.
<mgrwt>
<rscale>  0 0.88337594E+03</rscale>
<asrwt>0</asrwt>
<pdfrwt beam="1">  1        2 0.56462942E+00 0.95244548E+03</pdfrwt>
<pdfrwt beam="2">  1       -2 0.52056752E-01 0.95244548E+03</pdfrwt>
<totfact> 0.22488317E+00</totfact>
</mgrwt>
</event>
<event>
 4    2  0.3747163E-007  0.7280643E+03  0.7818608E-02  0.9896187E-01
          2   -1    0    0  501    0  0.00000000000E+00  0.00000000000E+00  0.28388918724E+04  0.28388918724E+04  0.25500000000E-02 0. -1.
         -2   -1    0    0    0  501 -0.00000000000E+00 -0.00000000000E+00 -0.14618049927E+03  0.14618049929E+03  0.25500000000E-02 0.  1.
    8880023    1    1    2    0    0  0.11543766460E+03 -0.28799589446E+03  0.24666071914E+04  0.25718142882E+04  0.65864270000E+03 0.  0.
    8880022    1    1    2    0    0 -0.11543766460E+03  0.28799589446E+03  0.22610418173E+03  0.41325808358E+03  0.15294330000E+03 0.  0.
<mgrwt>
<rscale>  0 0.60446417E+03</rscale>
<asrwt>0</asrwt>
<pdfrwt beam="1">  1        2 0.43675259E+00 0.72806435E+03</pdfrwt>
<pdfrwt beam="2">  1       -2 0.22489308E-01 0.72806435E+03</pdfrwt>
<totfact> 0.40041598E+01</totfact>
</mgrwt>
</event>
<event>
 4    2  0.3747163E-007  0.6788525E+03  0.7818608E-02  0.1009980E+00
          2   -1    0    0  501    0  0.00000000000E+00  0.00000000000E+00  0.24800707953E+04  0.24800707953E+04  0.25500000000E-02 0. -1.
         -2   -1    0    0    0  501 -0.00000000000E+00 -0.00000000000E+00 -0.15239858382E+03  0.15239858384E+03  0.25500000000E-02 0.  1.
    8880023    1    1    2    0    0 -0.14168034301E+03 -0.83409461562E+02  0.23094802173E+04  0.24071849821E+04  0.65864270000E+03 0. -1.
    8880022    1    1    2    0    0  0.14168034301E+03  0.83409461562E+02  0.18191994198E+02  0.22528439702E+03  0.15294330000E+03 0.  0.
<mgrwt>
<rscale>  0 0.51482446E+03</rscale>
<asrwt>0</asrwt>
<pdfrwt beam="1">  1        2 0.38154936E+00 0.67885246E+03</pdfrwt>
<pdfrwt beam="2">  1       -2 0.23445935E-01 0.67885246E+03</pdfrwt>
<totfact> 0.60380763E+01</totfact>
</mgrwt>
</event>
<event>
 4    2  0.3747163E-007  0.6825915E+03  0.7818608E-02  0.1007894E+00
         -2   -1    0    0    0  501 -0.00000000000E+00  0.00000000000E+00  0.29783044504E+03  0.29783044505E+03  0.25500000000E-02 0.  1.
          2   -1    0    0  501    0  0.00000000000E+00 -0.00000000000E+00 -0.18223171932E+04  0.18223171932E+04  0.25500000000E-02 0. -1.
    8880023    1    1    2    0    0 -0.80982812951E+02 -0.15988336658E+03 -0.16963379296E+04  0.18285222133E+04  0.65864270000E+03 0. -1.
    8880022    1    1    2    0    0  0.80982812951E+02  0.15988336658E+03  0.17185118143E+03  0.29162542495E+03  0.15294330000E+03 0.  0.
<mgrwt>
<rscale>  0 0.52320218E+03</rscale>
<asrwt>0</asrwt>
<pdfrwt beam="1">  1        2 0.28035648E+00 0.68259147E+03</pdfrwt>
<pdfrwt beam="2">  1       -2 0.45820070E-01 0.68259147E+03</pdfrwt>
<totfact> 0.39268000E+01</totfact>
</mgrwt>
</event>
<event>
 4    2  0.3747163E-007  0.6948342E+03  0.7818608E-02  0.1001935E+00
         -2   -1    0    0    0  501 -0.00000000000E+00  0.00000000000E+00  0.19613389083E+03  0.19613389085E+03  0.25500000000E-02 0.  1.
          2   -1    0    0  501    0  0.00000000000E+00 -0.00000000000E+00 -0.32912561972E+04  0.32912561972E+04  0.25500000000E-02 0. -1.
    8880023    1    1    2    0    0 -0.15694906431E+03  0.15604904040E+03 -0.31388457596E+04  0.32148323783E+04  0.65864270000E+03 0. -1.
    8880022    1    1    2    0    0  0.15694906431E+03 -0.15604904040E+03  0.43723453171E+02  0.27255770980E+03  0.15294330000E+03 0.  0.
<mgrwt>
<rscale>  0 0.54810046E+03</rscale>
<asrwt>0</asrwt>
<pdfrwt beam="1">  1        2 0.50634707E+00 0.69483417E+03</pdfrwt>
<pdfrwt beam="2">  1       -2 0.30174447E-01 0.69483417E+03</pdfrwt>
<totfact> 0.12393740E+01</totfact>
</mgrwt>
</event>
<event>
 4    2  0.3747163E-007  0.7192821E+03  0.7818608E-02  0.9925023E-01
         -2   -1    0    0    0  501 -0.00000000000E+00  0.00000000000E+00  0.13323485829E+04  0.13323485829E+04  0.25500000000E-02 0.  1.
          2   -1    0    0  501    0  0.00000000000E+00 -0.00000000000E+00 -0.71525855123E+03  0.71525855123E+03  0.25500000000E-02 0. -1.
    8880023    1    1    2    0    0  0.26850551454E+03 -0.10705773305E+03 -0.50498320631E+03  0.87884857311E+03  0.65864270000E+03 0. -1.
    8880022    1    1    2    0    0 -0.26850551454E+03  0.10705773305E+03  0.11220732380E+04  0.11687585610E+04  0.15294330000E+03 0.  0.
<mgrwt>
<rscale>  0 0.59063768E+03</rscale>
<asrwt>0</asrwt>
<pdfrwt beam="1">  1        2 0.11003978E+00 0.71928213E+03</pdfrwt>
<pdfrwt beam="2">  1       -2 0.20497670E+00 0.71928213E+03</pdfrwt>
<totfact> 0.50475398E+00</totfact>
</mgrwt>
</event>
<event>
 4    2  0.3747163E-007  0.6761271E+03  0.7818608E-02  0.1011605E+00
          2   -1    0    0  501    0  0.00000000000E+00  0.00000000000E+00  0.21319911194E+04  0.21319911194E+04  0.25500000000E-02 0. -1.
         -2   -1    0    0    0  501 -0.00000000000E+00 -0.00000000000E+00 -0.15462224033E+03  0.15462224035E+03  0.25500000000E-02 0.  1.
    8880023    1    1    2    0    0  0.53984994852E+02  0.14290992313E+03  0.19557978457E+04  0.20693702050E+04  0.65864270000E+03 0. -1.
    8880022    1    1    2    0    0 -0.53984994852E+02 -0.14290992313E+03  0.21571033370E+02  0.21724315477E+03  0.15294330000E+03 0.  0.
<mgrwt>
<rscale>  0 0.50841679E+03</rscale>
<asrwt>0</asrwt>
<pdfrwt beam="1">  1        2 0.32799864E+00 0.67612708E+03</pdfrwt>
<pdfrwt beam="2">  1       -2 0.23788036E-01 0.67612708E+03</pdfrwt>
<totfact> 0.91796556E+01</totfact>
</mgrwt>
</event>
<event>
 4    2  0.3747163E-007  0.8330642E+03  0.7818608E-02  0.9643400E-01
         -2   -1    0    0    0  501 -0.00000000000E+00  0.00000000000E+00  0.34842753164E+03  0.34842753165E+03  0.25500000000E-02 0.  1.
          2   -1    0    0  501    0  0.00000000000E+00 -0.00000000000E+00 -0.15348757983E+04  0.15348757983E+04  0.25500000000E-02 0. -1.
    8880023    1    1    2    0    0  0.49421459528E+03 -0.12624478855E+03 -0.10370690446E+04  0.13302286354E+04  0.65864270000E+03 0. -1.
    8880022    1    1    2    0    0 -0.49421459528E+03  0.12624478855E+03 -0.14937922211E+03  0.55307469463E+03  0.15294330000E+03 0.  1.
<mgrwt>
<rscale>  0 0.74489118E+03</rscale>
<asrwt>0</asrwt>
<pdfrwt beam="1">  1        2 0.23613473E+00 0.83306423E+03</pdfrwt>
<pdfrwt beam="2">  1       -2 0.53604236E-01 0.83306423E+03</pdfrwt>
<totfact> 0.40348966E+01</totfact>
</mgrwt>
</event>
<event>
 4    2  0.3747163E-007  0.6778027E+03  0.7818608E-02  0.1010595E+00
         -2   -1    0    0    0  501 -0.00000000000E+00  0.00000000000E+00  0.18415787264E+04  0.18415787264E+04  0.25500000000E-02 0.  1.
          2   -1    0    0  501    0  0.00000000000E+00 -0.00000000000E+00 -0.21996174201E+03  0.21996174202E+03  0.25500000000E-02 0. -1.
    8880023    1    1    2    0    0 -0.15372818858E+03 -0.44428882402E+02  0.33508998767E+03  0.75610963997E+03  0.65864270000E+03 0. -1.
    8880022    1    1    2    0    0  0.15372818858E+03  0.44428882402E+02  0.12865269967E+04  0.13054308284E+04  0.15294330000E+03 0.  0.
<mgrwt>
<rscale>  0 0.51238887E+03</rscale>
<asrwt>0</asrwt>
<pdfrwt beam="1">  1        2 0.33840270E-01 0.67780269E+03</pdfrwt>
<pdfrwt beam="2">  1       -2 0.28331979E+00 0.67780269E+03</pdfrwt>
<totfact> 0.65172081E+00</totfact>
</mgrwt>
</event>
<event>
 4    2  0.3747163E-007  0.1335539E+04  0.7818608E-02  0.9035461E-01
          2   -1    0    0  501    0  0.00000000000E+00  0.00000000000E+00  0.32837440606E+04  0.32837440606E+04  0.25500000000E-02 0. -1.
         -2   -1    0    0    0  501 -0.00000000000E+00 -0.00000000000E+00 -0.60794848808E+03  0.60794848808E+03  0.25500000000E-02 0.  1.
    8880023    1    1    2    0    0  0.86120014767E+03  0.77986519531E+03  0.23025307205E+04  0.26618251900E+04  0.65864270000E+03 0. -1.
    8880022    1    1    2    0    0 -0.86120014767E+03 -0.77986519531E+03  0.37326485210E+03  0.12298673587E+04  0.15294330000E+03 0.  0.
<mgrwt>
<rscale>  0 0.12925910E+04</rscale>
<asrwt>0</asrwt>
<pdfrwt beam="1">  1        2 0.50519140E+00 0.13355395E+04</pdfrwt>
<pdfrwt beam="2">  1       -2 0.93530536E-01 0.13355395E+04</pdfrwt>
<totfact> 0.10809138E+00</totfact>
</mgrwt>
</event>
<event>
 4    2  0.3747163E-007  0.1054851E+04  0.7818608E-02  0.9313072E-01
         -2   -1    0    0    0  501 -0.00000000000E+00  0.00000000000E+00  0.63625242909E+03  0.63625242910E+03  0.25500000000E-02 0.  1.
          2   -1    0    0  501    0  0.00000000000E+00 -0.00000000000E+00 -0.27815683437E+04  0.27815683437E+04  0.25500000000E-02 0. -1.
    8880023    1    1    2    0    0  0.36805266830E+03 -0.73718264823E+03 -0.23317967119E+04  0.25592942651E+04  0.65864270000E+03 0. -1.
    8880022    1    1    2    0    0 -0.36805266830E+03  0.73718264823E+03  0.18648079737E+03  0.85852650762E+03  0.15294330000E+03 0.  0.
<mgrwt>
<rscale>  0 0.99588271E+03</rscale>
<asrwt>0</asrwt>
<pdfrwt beam="1">  1        2 0.42793358E+00 0.10548513E+04</pdfrwt>
<pdfrwt beam="2">  1       -2 0.97884991E-01 0.10548513E+04</pdfrwt>
<totfact> 0.20745422E+00</totfact>
</mgrwt>
</event>
<event>
 4    2  0.3747163E-007  0.7716227E+03  0.7818608E-02  0.9775897E-01
         -2   -1    0    0    0  501 -0.00000000000E+00  0.00000000000E+00  0.38488030942E+03  0.38488030943E+03  0.25500000000E-02 0.  1.
          2   -1    0    0  501    0  0.00000000000E+00 -0.00000000000E+00 -0.22188401729E+04  0.22188401729E+04  0.25500000000E-02 0. -1.
    8880023    1    1    2    0    0 -0.10612542233E+03  0.38772255801E+03 -0.19992244289E+04  0.21429652145E+04  0.65864270000E+03 0. -1.
    8880022    1    1    2    0    0  0.10612542233E+03 -0.38772255801E+03  0.16526456539E+03  0.46075526784E+03  0.15294330000E+03 0.  0.
<mgrwt>
<rscale>  0 0.66672269E+03</rscale>
<asrwt>0</asrwt>
<pdfrwt beam="1">  1        2 0.34136002E+00 0.77162270E+03</pdfrwt>
<pdfrwt beam="2">  1       -2 0.59212357E-01 0.77162270E+03</pdfrwt>
<totfact> 0.13915093E+01</totfact>
</mgrwt>
</event>
<event>
 4    2  0.3747163E-007  0.8804709E+03  0.7818608E-02  0.9558139E-01
         -2   -1    0    0    0  501 -0.00000000000E+00  0.00000000000E+00  0.39005131186E+03  0.39005131186E+03  0.25500000000E-02 0.  1.
          2   -1    0    0  501    0  0.00000000000E+00 -0.00000000000E+00 -0.24047462819E+04  0.24047462819E+04  0.25500000000E-02 0. -1.
    8880023    1    1    2    0    0  0.29652846194E+03  0.50347756442E+03 -0.20060190089E+04  0.21907398880E+04  0.65864270000E+03 0.  0.
    8880022    1    1    2    0    0 -0.29652846194E+03 -0.50347756442E+03 -0.86759611922E+01  0.60405770580E+03  0.15294330000E+03 0.  0.
<mgrwt>
<rscale>  0 0.80129911E+03</rscale>
<asrwt>0</asrwt>
<pdfrwt beam="1">  1        2 0.36996096E+00 0.88047089E+03</pdfrwt>
<pdfrwt beam="2">  1       -2 0.60007896E-01 0.88047089E+03</pdfrwt>
<totfact> 0.10490421E+01</totfact>
</mgrwt>
</event>
<event>
 4    2  0.3747163E-007  0.7359146E+03  0.7818608E-02  0.9872011E-01
         -2   -1    0    0    0  501 -0.00000000000E+00  0.00000000000E+00  0.39627548047E+03  0.39627548047E+03  0.25500000000E-02 0.  1.
          2   -1    0    0  501    0  0.00000000000E+00 -0.00000000000E+00 -0.10663052268E+04  0.10663052268E+04  0.25500000000E-02 0. -1.
    8880023    1    1    2    0    0 -0.25169588916E+03 -0.21073502014E+03 -0.79135062359E+03  0.10806507692E+04  0.65864270000E+03 0. -1.
    8880022    1    1    2    0    0  0.25169588916E+03  0.21073502014E+03  0.12132087723E+03  0.38192993807E+03  0.15294330000E+03 0.  1.
<mgrwt>
<rscale>  0 0.61637116E+03</rscale>
<asrwt>0</asrwt>
<pdfrwt beam="1">  1        2 0.16404696E+00 0.73591458E+03</pdfrwt>
<pdfrwt beam="2">  1       -2 0.60965459E-01 0.73591458E+03</pdfrwt>
<totfact> 0.58220673E+01</totfact>
</mgrwt>
</event>
<event>
 4    2  0.3747163E-007  0.7380609E+03  0.7818608E-02  0.9865632E-01
         -2   -1    0    0    0  501 -0.00000000000E+00  0.00000000000E+00  0.43975896190E+03  0.43975896191E+03  0.25500000000E-02 0.  1.
          2   -1    0    0  501    0  0.00000000000E+00 -0.00000000000E+00 -0.79806288934E+03  0.79806288935E+03  0.25500000000E-02 0. -1.
    8880023    1    1    2    0    0  0.15744427391E+03 -0.29348752007E+03 -0.44417072449E+03  0.86140667665E+03  0.65864270000E+03 0.  0.
    8880022    1    1    2    0    0 -0.15744427391E+03  0.29348752007E+03  0.85866797053E+02  0.37641517461E+03  0.15294330000E+03 0.  0.
<mgrwt>
<rscale>  0 0.61956205E+03</rscale>
<asrwt>0</asrwt>
<pdfrwt beam="1">  1        2 0.12277891E+00 0.73806086E+03</pdfrwt>
<pdfrwt beam="2">  1       -2 0.67655225E-01 0.73806086E+03</pdfrwt>
<totfact> 0.70160448E+01</totfact>
</mgrwt>
</event>
<event>
 4    2  0.3747163E-007  0.6695588E+03  0.7818608E-02  0.1015981E+00
          2   -1    0    0  501    0  0.00000000000E+00  0.00000000000E+00  0.83823916599E+03  0.83823916600E+03  0.25500000000E-02 0. -1.
         -2   -1    0    0    0  501 -0.00000000000E+00 -0.00000000000E+00 -0.31493581430E+03  0.31493581431E+03  0.25500000000E-02 0.  1.
    8880023    1    1    2    0    0  0.61004014100E+02 -0.10381362512E+03  0.63998866834E+03  0.92622592296E+03  0.65864270000E+03 0. -1.
    8880022    1    1    2    0    0 -0.61004014100E+02  0.10381362512E+03 -0.11668531665E+03  0.22694905735E+03  0.15294330000E+03 0.  0.
<mgrwt>
<rscale>  0 0.49165187E+03</rscale>
<asrwt>0</asrwt>
<pdfrwt beam="1">  1        2 0.12895987E+00 0.66955878E+03</pdfrwt>
<pdfrwt beam="2">  1       -2 0.48451664E-01 0.66955878E+03</pdfrwt>
<totfact> 0.13271245E+02</totfact>
</mgrwt>
</event>
<event>
 4    2  0.3747163E-007  0.6808369E+03  0.7818608E-02  0.1008854E+00
          2   -1    0    0  501    0  0.00000000000E+00  0.00000000000E+00  0.23797898605E+04  0.23797898605E+04  0.25500000000E-02 0. -1.
         -2   -1    0    0    0  501 -0.00000000000E+00 -0.00000000000E+00 -0.17064394618E+03  0.17064394620E+03  0.25500000000E-02 0.  1.
    8880023    1    1    2    0    0 -0.10648993548E+03  0.13560424757E+03  0.22176402905E+04  0.23197989747E+04  0.65864270000E+03 0. -1.
    8880022    1    1    2    0    0  0.10648993548E+03 -0.13560424757E+03 -0.84943762036E+01  0.23063483206E+03  0.15294330000E+03 0.  0.
<mgrwt>
<rscale>  0 0.51932572E+03</rscale>
<asrwt>0</asrwt>
<pdfrwt beam="1">  1        2 0.36612151E+00 0.68083686E+03</pdfrwt>
<pdfrwt beam="2">  1       -2 0.26252915E-01 0.68083686E+03</pdfrwt>
<totfact> 0.56059431E+01</totfact>
</mgrwt>
</event>
<event>
 4    2  0.3747163E-007  0.7548076E+03  0.7818608E-02  0.9818740E-01
          2   -1    0    0  501    0  0.00000000000E+00  0.00000000000E+00  0.77292548036E+03  0.77292548037E+03  0.25500000000E-02 0. -1.
         -2   -1    0    0    0  501 -0.00000000000E+00 -0.00000000000E+00 -0.14009735878E+04  0.14009735878E+04  0.25500000000E-02 0.  1.
    8880023    1    1    2    0    0 -0.25221883385E+03 -0.26890508368E+03  0.54748150891E+03  0.93245401658E+03  0.65864270000E+03 0.  0.
    8880022    1    1    2    0    0  0.25221883385E+03  0.26890508368E+03 -0.11755296164E+04  0.12414450516E+04  0.15294330000E+03 0.  0.
<mgrwt>
<rscale>  0 0.64366456E+03</rscale>
<asrwt>0</asrwt>
<pdfrwt beam="1">  1        2 0.11891161E+00 0.75480759E+03</pdfrwt>
<pdfrwt beam="2">  1       -2 0.21553440E+00 0.75480759E+03</pdfrwt>
<totfact> 0.38940386E+00</totfact>
</mgrwt>
</event>
<event>
 4    2  0.3747163E-007  0.6884177E+03  0.7818608E-02  0.1004914E+00
         -2   -1    0    0    0  501 -0.00000000000E+00  0.00000000000E+00  0.32742471328E+03  0.32742471329E+03  0.25500000000E-02 0.  1.
          2   -1    0    0  501    0  0.00000000000E+00 -0.00000000000E+00 -0.99602817102E+03  0.99602817102E+03  0.25500000000E-02 0. -1.
    8880023    1    1    2    0    0  0.19307483654E+03 -0.53205268059E+02 -0.78651414493E+03  0.10452384414E+04  0.65864270000E+03 0.  0.
    8880022    1    1    2    0    0 -0.19307483654E+03  0.53205268059E+02  0.11791068719E+03  0.27821444287E+03  0.15294330000E+03 0.  1.
<mgrwt>
<rscale>  0 0.53547108E+03</rscale>
<asrwt>0</asrwt>
<pdfrwt beam="1">  1        2 0.15323510E+00 0.68841768E+03</pdfrwt>
<pdfrwt beam="2">  1       -2 0.50373033E-01 0.68841768E+03</pdfrwt>
<totfact> 0.96184193E+01</totfact>
</mgrwt>
</event>
<event>
 4    2  0.3747163E-007  0.6826785E+03  0.7818608E-02  0.1007847E+00
         -2   -1    0    0    0  501 -0.00000000000E+00  0.00000000000E+00  0.57839799263E+03  0.57839799264E+03  0.25500000000E-02 0.  1.
          2   -1    0    0  501    0  0.00000000000E+00 -0.00000000000E+00 -0.23163171232E+04  0.23163171232E+04  0.25500000000E-02 0. -1.
    8880023    1    1    2    0    0 -0.15847367506E+03  0.84414911236E+02 -0.22390725423E+04  0.23408322962E+04  0.65864270000E+03 0. -1.
    8880022    1    1    2    0    0  0.15847367506E+03 -0.84414911236E+02  0.50115341167E+03  0.55388281971E+03  0.15294330000E+03 0.  0.
<mgrwt>
<rscale>  0 0.52339217E+03</rscale>
<asrwt>0</asrwt>
<pdfrwt beam="1">  1        2 0.35635647E+00 0.68267854E+03</pdfrwt>
<pdfrwt beam="2">  1       -2 0.88984308E-01 0.68267854E+03</pdfrwt>
<totfact> 0.50908120E+00</totfact>
</mgrwt>
</event>
<event>
 4    2  0.3747163E-007  0.6927678E+03  0.7818608E-02  0.1002864E+00
          2   -1    0    0  501    0  0.00000000000E+00  0.00000000000E+00  0.23385044713E+04  0.23385044713E+04  0.25500000000E-02 0. -1.
         -2   -1    0    0    0  501 -0.00000000000E+00 -0.00000000000E+00 -0.15050212344E+03  0.15050212346E+03  0.25500000000E-02 0.  1.
    8880023    1    1    2    0    0  0.21371760309E+03 -0.21017598588E+02  0.20995957350E+04  0.22109340583E+04  0.65864270000E+03 0.  0.
    8880022    1    1    2    0    0 -0.21371760309E+03  0.21017598588E+02  0.88406612809E+02  0.27807253644E+03  0.15294330000E+03 0.  0.
<mgrwt>
<rscale>  0 0.54412110E+03</rscale>
<asrwt>0</asrwt>
<pdfrwt beam="1">  1        2 0.35976990E+00 0.69276775E+03</pdfrwt>
<pdfrwt beam="2">  1       -2 0.23154174E-01 0.69276775E+03</pdfrwt>
<totfact> 0.73963714E+01</totfact>
</mgrwt>
</event>
<event>
 4    2  0.6802436E-007  0.1299941E+04  0.7818608E-02  0.9065611E-01
          2   -1    0    0  501    0  0.00000000000E+00  0.00000000000E+00  0.25877603617E+04  0.25877603617E+04  0.25500000000E-02 0. -1.
         -2   -1    0    0    0  501 -0.00000000000E+00 -0.00000000000E+00 -0.20074675770E+04  0.20074675770E+04  0.25500000000E-02 0.  1.
    8880023    1    1    2    0    0 -0.17686069468E+03 -0.11066867729E+04  0.22381422852E+04  0.25882670677E+04  0.65864270000E+03 0. -1.
    8880022    1    1    2    0    0  0.17686069468E+03  0.11066867729E+04 -0.16578495004E+04  0.20069608710E+04  0.15294330000E+03 0.  0.
<mgrwt>
<rscale>  0 0.12555082E+04</rscale>
<asrwt>0</asrwt>
<pdfrwt beam="1">  1        2 0.39811698E+00 0.12999406E+04</pdfrwt>
<pdfrwt beam="2">  1       -2 0.30884117E+00 0.12999406E+04</pdfrwt>
<totfact> 0.83925613E-02</totfact>
</mgrwt>
</event>
<event>
 4    2  0.3747163E-007  0.7260035E+03  0.7818608E-02  0.9902772E-01
         -2   -1    0    0    0  501 -0.00000000000E+00  0.00000000000E+00  0.14149858074E+03  0.14149858077E+03  0.25500000000E-02 0.  1.
          2   -1    0    0  501    0  0.00000000000E+00 -0.00000000000E+00 -0.20143395858E+04  0.20143395858E+04  0.25500000000E-02 0. -1.
    8880023    1    1    2    0    0  0.35764878683E+02  0.30330143118E+03 -0.12543275237E+04  0.14492821077E+04  0.65864270000E+03 0.  1.
    8880022    1    1    2    0    0 -0.35764878683E+02 -0.30330143118E+03 -0.61851348141E+03  0.70655605893E+03  0.15294330000E+03 0. -1.
<mgrwt>
<rscale>  0 0.60127129E+03</rscale>
<asrwt>0</asrwt>
<pdfrwt beam="1">  1        2 0.30989838E+00 0.72600351E+03</pdfrwt>
<pdfrwt beam="2">  1       -2 0.21769014E-01 0.72600351E+03</pdfrwt>
<totfact> 0.12391625E+02</totfact>
</mgrwt>
</event>
<event>
 4    2  0.3747163E-007  0.6937854E+03  0.7818608E-02  0.1002403E+00
         -2   -1    0    0    0  501 -0.00000000000E+00  0.00000000000E+00  0.11740008835E+03  0.11740008837E+03  0.25500000000E-02 0.  1.
          2   -1    0    0  501    0  0.00000000000E+00 -0.00000000000E+00 -0.21441398535E+04  0.21441398535E+04  0.25500000000E-02 0. -1.
    8880023    1    1    2    0    0  0.17147685970E+02 -0.21733358041E+03 -0.17238629404E+04  0.18582361454E+04  0.65864270000E+03 0. -1.
    8880022    1    1    2    0    0 -0.17147685970E+02  0.21733358041E+03 -0.30287682473E+03  0.40330379652E+03  0.15294330000E+03 0.  0.
<mgrwt>
<rscale>  0 0.54609050E+03</rscale>
<asrwt>0</asrwt>
<pdfrwt beam="1">  1        2 0.32986764E+00 0.69378537E+03</pdfrwt>
<pdfrwt beam="2">  1       -2 0.18061554E-01 0.69378537E+03</pdfrwt>
<totfact> 0.14632429E+02</totfact>
</mgrwt>
</event>
<event>
 4    2  0.3747163E-007  0.7428979E+03  0.7818608E-02  0.9851585E-01
          2   -1    0    0  501    0  0.00000000000E+00  0.00000000000E+00  0.25493707935E+04  0.25493707935E+04  0.25500000000E-02 0. -1.
         -2   -1    0    0    0  501 -0.00000000000E+00 -0.00000000000E+00 -0.18000755290E+03  0.18000755291E+03  0.25500000000E-02 0.  1.
    8880023    1    1    2    0    0  0.17351032656E+03 -0.29661629143E+03  0.21901769225E+04  0.23127412773E+04  0.65864270000E+03 0.  0.
    8880022    1    1    2    0    0 -0.17351032656E+03  0.29661629143E+03  0.17918631819E+03  0.41663706917E+03  0.15294330000E+03 0.  0.
<mgrwt>
<rscale>  0 0.62666181E+03</rscale>
<asrwt>0</asrwt>
<pdfrwt beam="1">  1        2 0.39221088E+00 0.74289788E+03</pdfrwt>
<pdfrwt beam="2">  1       -2 0.27693471E-01 0.74289788E+03</pdfrwt>
<totfact> 0.40450425E+01</totfact>
</mgrwt>
</event>
<event>
 4    2  0.3747163E-007  0.7883628E+03  0.7818608E-02  0.9736547E-01
         -2   -1    0    0    0  501 -0.00000000000E+00  0.00000000000E+00  0.60137381424E+03  0.60137381425E+03  0.25500000000E-02 0.  1.
          2   -1    0    0  501    0  0.00000000000E+00 -0.00000000000E+00 -0.19708390650E+04  0.19708390650E+04  0.25500000000E-02 0. -1.
    8880023    1    1    2    0    0 -0.39182589661E+03  0.18487354216E+03 -0.17858705015E+04  0.19521397015E+04  0.65864270000E+03 0. -1.
    8880022    1    1    2    0    0  0.39182589661E+03 -0.18487354216E+03  0.41640525076E+03  0.62007317771E+03  0.15294330000E+03 0.  0.
<mgrwt>
<rscale>  0 0.68881877E+03</rscale>
<asrwt>0</asrwt>
<pdfrwt beam="1">  1        2 0.30320601E+00 0.78836284E+03</pdfrwt>
<pdfrwt beam="2">  1       -2 0.92519049E-01 0.78836284E+03</pdfrwt>
<totfact> 0.70747666E+00</totfact>
</mgrwt>
</event>
<event>
 4    2  0.3747163E-007  0.1458879E+04  0.7818608E-02  0.8939232E-01
         -2   -1    0    0    0  501 -0.00000000000E+00  0.00000000000E+00  0.79533648646E+03  0.79533648647E+03  0.25500000000E-02 0.  1.
          2   -1    0    0  501    0  0.00000000000E+00 -0.00000000000E+00 -0.27808274537E+04  0.27808274537E+04  0.25500000000E-02 0. -1.
    8880023    1    1    2    0    0 -0.90596695911E+03  0.93474129183E+03 -0.16899898151E+04  0.22325754624E+04  0.65864270000E+03 0.  0.
    8880022    1    1    2    0    0  0.90596695911E+03 -0.93474129183E+03 -0.29550115204E+03  0.13435884777E+04  0.15294330000E+03 0.  0.
<mgrwt>
<rscale>  0 0.14203306E+04</rscale>
<asrwt>0</asrwt>
<pdfrwt beam="1">  1        2 0.42781960E+00 0.14588789E+04</pdfrwt>
<pdfrwt beam="2">  1       -2 0.12235946E+00 0.14588789E+04</pdfrwt>
<totfact> 0.11469913E+00</totfact>
</mgrwt>
</event>
<event>
 4    2  0.3747163E-007  0.6895753E+03  0.7818608E-02  0.1004355E+00
          2   -1    0    0  501    0  0.00000000000E+00  0.00000000000E+00  0.31204337639E+04  0.31204337639E+04  0.25500000000E-02 0. -1.
         -2   -1    0    0    0  501 -0.00000000000E+00 -0.00000000000E+00 -0.80311607759E+02  0.80311607799E+02  0.25500000000E-02 0.  1.
    8880023    1    1    2    0    0  0.19612737162E+03 -0.56903406983E+02  0.16648992477E+04  0.18020553973E+04  0.65864270000E+03 0.  0.
    8880022    1    1    2    0    0 -0.19612737162E+03  0.56903406983E+02  0.13752229084E+04  0.13986899744E+04  0.15294330000E+03 0.  0.
<mgrwt>
<rscale>  0 0.53781170E+03</rscale>
<asrwt>0</asrwt>
<pdfrwt beam="1">  1        2 0.48006666E+00 0.68957534E+03</pdfrwt>
<pdfrwt beam="2">  1       -2 0.12355634E-01 0.68957534E+03</pdfrwt>
<totfact> 0.75679512E+01</totfact>
</mgrwt>
</event>
<event>
 4    2  0.3747163E-007  0.7540899E+03  0.7818608E-02  0.9820656E-01
          2   -1    0    0  501    0  0.00000000000E+00  0.00000000000E+00  0.10614361149E+04  0.10614361149E+04  0.25500000000E-02 0. -1.
         -2   -1    0    0    0  501 -0.00000000000E+00 -0.00000000000E+00 -0.38452607674E+03  0.38452607675E+03  0.25500000000E-02 0.  1.
    8880023    1    1    2    0    0 -0.25238501960E+03 -0.26672672663E+03  0.12305895739E+03  0.76406482583E+03  0.65864270000E+03 0.  0.
    8880022    1    1    2    0    0  0.25238501960E+03  0.26672672663E+03  0.55385108073E+03  0.68189736578E+03  0.15294330000E+03 0.  0.
<mgrwt>
<rscale>  0 0.64265733E+03</rscale>
<asrwt>0</asrwt>
<pdfrwt beam="1">  1        2 0.16329787E+00 0.75408988E+03</pdfrwt>
<pdfrwt beam="2">  1       -2 0.59157857E-01 0.75408988E+03</pdfrwt>
<totfact> 0.62377252E+01</totfact>
</mgrwt>
</event>
<event>
 4    2  0.3747163E-007  0.7487752E+03  0.7818608E-02  0.9835085E-01
         -2   -1    0    0    0  501 -0.00000000000E+00  0.00000000000E+00  0.71285910074E+03  0.71285910075E+03  0.25500000000E-02 0.  1.
          2   -1    0    0  501    0  0.00000000000E+00 -0.00000000000E+00 -0.13408457796E+04  0.13408457796E+04  0.25500000000E-02 0. -1.
    8880023    1    1    2    0    0 -0.33818083854E+03 -0.11174913149E+03 -0.11689523659E+04  0.13882053119E+04  0.65864270000E+03 0.  0.
    8880022    1    1    2    0    0  0.33818083854E+03  0.11174913149E+03  0.54096568709E+03  0.66549956842E+03  0.15294330000E+03 0.  0.
<mgrwt>
<rscale>  0 0.63513186E+03</rscale>
<asrwt>0</asrwt>
<pdfrwt beam="1">  1        2 0.20628397E+00 0.74877524E+03</pdfrwt>
<pdfrwt beam="2">  1       -2 0.10967063E+00 0.74877524E+03</pdfrwt>
<totfact> 0.10586785E+01</totfact>
</mgrwt>
</event>
<event>
 4    2  0.3747163E-007  0.7009215E+03  0.7818608E-02  0.9993400E-01
          2   -1    0    0  501    0  0.00000000000E+00  0.00000000000E+00  0.96390492374E+03  0.96390492374E+03  0.25500000000E-02 0. -1.
         -2   -1    0    0    0  501 -0.00000000000E+00 -0.00000000000E+00 -0.86428870962E+03  0.86428870962E+03  0.25500000000E-02 0.  1.
    8880023    1    1    2    0    0 -0.26890013963E+02 -0.23823860399E+03  0.80515143783E+03  0.10675016391E+04  0.65864270000E+03 0. -1.
    8880022    1    1    2    0    0  0.26890013963E+02  0.23823860399E+03 -0.70553522371E+03  0.76069199430E+03  0.15294330000E+03 0.  0.
<mgrwt>
<rscale>  0 0.55940589E+03</rscale>
<asrwt>0</asrwt>
<pdfrwt beam="1">  1        2 0.14829306E+00 0.70092147E+03</pdfrwt>
<pdfrwt beam="2">  1       -2 0.13296749E+00 0.70092147E+03</pdfrwt>
<totfact> 0.11152869E+01</totfact>
</mgrwt>
</event>
<event>
 4    2  0.3747163E-007  0.9624237E+03  0.7818608E-02  0.9432460E-01
          2   -1    0    0  501    0  0.00000000000E+00  0.00000000000E+00  0.20624504177E+04  0.20624504177E+04  0.25500000000E-02 0. -1.
         -2   -1    0    0    0  501 -0.00000000000E+00 -0.00000000000E+00 -0.54467196666E+03  0.54467196666E+03  0.25500000000E-02 0.  1.
    8880023    1    1    2    0    0  0.32678844091E+02  0.70098590848E+03  0.16173409542E+04  0.18820337720E+04  0.65864270000E+03 0. -1.
    8880022    1    1    2    0    0 -0.32678844091E+02 -0.70098590848E+03 -0.99562503107E+02  0.72508861236E+03  0.15294330000E+03 0.  0.
<mgrwt>
<rscale>  0 0.89451822E+03</rscale>
<asrwt>0</asrwt>
<pdfrwt beam="1">  1        2 0.31730007E+00 0.96242369E+03</pdfrwt>
<pdfrwt beam="2">  1       -2 0.83795687E-01 0.96242369E+03</pdfrwt>
<totfact> 0.77308069E+00</totfact>
</mgrwt>
</event>
<event>
 4    2  0.3747163E-007  0.1006434E+04  0.7818608E-02  0.9373188E-01
          2   -1    0    0  501    0  0.00000000000E+00  0.00000000000E+00  0.26004695171E+04  0.26004695171E+04  0.25500000000E-02 0. -1.
         -2   -1    0    0    0  501 -0.00000000000E+00 -0.00000000000E+00 -0.48821529532E+03  0.48821529533E+03  0.25500000000E-02 0.  1.
    8880023    1    1    2    0    0  0.10974704145E+03  0.75303054457E+03  0.20812999605E+04  0.23118648633E+04  0.65864270000E+03 0. -1.
    8880022    1    1    2    0    0 -0.10974704145E+03 -0.75303054457E+03  0.30954261311E+02  0.77681994920E+03  0.15294330000E+03 0.  0.
<mgrwt>
<rscale>  0 0.94315449E+03</rscale>
<asrwt>0</asrwt>
<pdfrwt beam="1">  1        2 0.40007223E+00 0.10064341E+04</pdfrwt>
<pdfrwt beam="2">  1       -2 0.75110046E-01 0.10064341E+04</pdfrwt>
<totfact> 0.48976063E+00</totfact>
</mgrwt>
</event>
<event>
 4    2  0.3747163E-007  0.8157590E+03  0.7818608E-02  0.9677704E-01
          2   -1    0    0  501    0  0.00000000000E+00  0.00000000000E+00  0.11963175708E+04  0.11963175708E+04  0.25500000000E-02 0. -1.
         -2   -1    0    0    0  501 -0.00000000000E+00 -0.00000000000E+00 -0.11019085575E+04  0.11019085575E+04  0.25500000000E-02 0.  1.
    8880023    1    1    2    0    0 -0.40278663720E+03  0.26346828696E+03  0.98223737432E+03  0.12768136431E+04  0.65864270000E+03 0.  0.
    8880022    1    1    2    0    0  0.40278663720E+03 -0.26346828696E+03 -0.88782836105E+03  0.10214124853E+04  0.15294330000E+03 0.  0.
<mgrwt>
<rscale>  0 0.72359968E+03</rscale>
<asrwt>0</asrwt>
<pdfrwt beam="1">  1        2 0.18404886E+00 0.81575905E+03</pdfrwt>
<pdfrwt beam="2">  1       -2 0.16952439E+00 0.81575905E+03</pdfrwt>
<totfact> 0.41447823E+00</totfact>
</mgrwt>
</event>
<event>
 4    2  0.3747163E-007  0.6830407E+03  0.7818608E-02  0.1007653E+00
         -2   -1    0    0    0  501 -0.00000000000E+00  0.00000000000E+00  0.82281066732E+03  0.82281066733E+03  0.25500000000E-02 0.  1.
          2   -1    0    0  501    0  0.00000000000E+00 -0.00000000000E+00 -0.25795153471E+03  0.25795153472E+03  0.25500000000E-02 0. -1.
    8880023    1    1    2    0    0 -0.15030162478E+03  0.10071630896E+03  0.44549417940E+03  0.81548122200E+03  0.65864270000E+03 0.  0.
    8880022    1    1    2    0    0  0.15030162478E+03 -0.10071630896E+03  0.11936495322E+03  0.26528098004E+03  0.15294330000E+03 0.  1.
<mgrwt>
<rscale>  0 0.52417999E+03</rscale>
<asrwt>0</asrwt>
<pdfrwt beam="1">  1        2 0.39684852E-01 0.68304067E+03</pdfrwt>
<pdfrwt beam="2">  1       -2 0.12658625E+00 0.68304067E+03</pdfrwt>
<totfact> 0.61186703E+01</totfact>
</mgrwt>
</event>
<event>
 4    2  0.3747163E-007  0.8689566E+03  0.7818608E-02  0.9577826E-01
          2   -1    0    0  501    0  0.00000000000E+00  0.00000000000E+00  0.80092802828E+03  0.80092802829E+03  0.25500000000E-02 0. -1.
         -2   -1    0    0    0  501 -0.00000000000E+00 -0.00000000000E+00 -0.69976198473E+03  0.69976198474E+03  0.25500000000E-02 0.  1.
    8880023    1    1    2    0    0 -0.13865904741E+03 -0.54958985633E+03  0.23160156234E+03  0.89929129405E+03  0.65864270000E+03 0.  0.
    8880022    1    1    2    0    0  0.13865904741E+03  0.54958985633E+03 -0.13043551878E+03  0.60139871898E+03  0.15294330000E+03 0.  0.
<mgrwt>
<rscale>  0 0.78781369E+03</rscale>
<asrwt>0</asrwt>
<pdfrwt beam="1">  1        2 0.12321970E+00 0.86895659E+03</pdfrwt>
<pdfrwt beam="2">  1       -2 0.10765569E+00 0.86895659E+03</pdfrwt>
<totfact> 0.23900123E+01</totfact>
</mgrwt>
</event>
<event>
 4    2  0.3747163E-007  0.1578696E+04  0.7818608E-02  0.8855976E-01
         -2   -1    0    0    0  501 -0.00000000000E+00  0.00000000000E+00  0.85338267058E+03  0.85338267059E+03  0.25500000000E-02 0.  1.
          2   -1    0    0  501    0  0.00000000000E+00 -0.00000000000E+00 -0.36708929908E+04  0.36708929908E+04  0.25500000000E-02 0. -1.
    8880023    1    1    2    0    0 -0.62932703718E+02  0.14333560155E+04 -0.26325196982E+04  0.30695993484E+04  0.65864270000E+03 0.  0.
    8880022    1    1    2    0    0  0.62932703718E+02 -0.14333560155E+04 -0.18499062205E+03  0.14546763130E+04  0.15294330000E+03 0.  0.
<mgrwt>
<rscale>  0 0.15435841E+04</rscale>
<asrwt>0</asrwt>
<pdfrwt beam="1">  1        2 0.56475276E+00 0.15786957E+04</pdfrwt>
<pdfrwt beam="2">  1       -2 0.13128964E+00 0.15786957E+04</pdfrwt>
<totfact> 0.24653659E-01</totfact>
</mgrwt>
</event>
<event>
 4    2  0.3747163E-007  0.7883873E+03  0.7818608E-02  0.9736491E-01
          2   -1    0    0  501    0  0.00000000000E+00  0.00000000000E+00  0.13386845341E+04  0.13386845341E+04  0.25500000000E-02 0. -1.
         -2   -1    0    0    0  501 -0.00000000000E+00 -0.00000000000E+00 -0.10521657273E+04  0.10521657274E+04  0.25500000000E-02 0.  1.
    8880023    1    1    2    0    0  0.59611184366E+02 -0.42917463341E+03  0.11607765234E+04  0.14031951763E+04  0.65864270000E+03 0. -1.
    8880022    1    1    2    0    0 -0.59611184366E+02  0.42917463341E+03 -0.87425771660E+03  0.98765508519E+03  0.15294330000E+03 0.  0.
<mgrwt>
<rscale>  0 0.68885055E+03</rscale>
<asrwt>0</asrwt>
<pdfrwt beam="1">  1        2 0.20595147E+00 0.78838732E+03</pdfrwt>
<pdfrwt beam="2">  1       -2 0.16187165E+00 0.78838732E+03</pdfrwt>
<totfact> 0.39022253E+00</totfact>
</mgrwt>
</event>
<event>
 4    2  0.3747163E-007  0.7221392E+03  0.7818608E-02  0.9915413E-01
          2   -1    0    0  501    0  0.00000000000E+00  0.00000000000E+00  0.10103874107E+04  0.10103874107E+04  0.25500000000E-02 0. -1.
         -2   -1    0    0    0  501 -0.00000000000E+00 -0.00000000000E+00 -0.40939266595E+03  0.40939266595E+03  0.25500000000E-02 0.  1.
    8880023    1    1    2    0    0  0.99687040445E+02  0.27881402084E+03  0.76185902277E+03  0.10497209825E+04  0.65864270000E+03 0. -1.
    8880022    1    1    2    0    0 -0.99687040445E+02 -0.27881402084E+03 -0.16086427798E+03  0.37005909420E+03  0.15294330000E+03 0.  0.
<mgrwt>
<rscale>  0 0.59520082E+03</rscale>
<asrwt>0</asrwt>
<pdfrwt beam="1">  1        2 0.15544422E+00 0.72213916E+03</pdfrwt>
<pdfrwt beam="2">  1       -2 0.62983487E-01 0.72213916E+03</pdfrwt>
<totfact> 0.58963849E+01</totfact>
</mgrwt>
</event>
<event>
 4    2  0.3747163E-007  0.7027926E+03  0.7818608E-02  0.9985808E-01
         -2   -1    0    0    0  501 -0.00000000000E+00  0.00000000000E+00  0.63098650918E+03  0.63098650918E+03  0.25500000000E-02 0.  1.
          2   -1    0    0  501    0  0.00000000000E+00 -0.00000000000E+00 -0.60574798802E+03  0.60574798803E+03  0.25500000000E-02 0. -1.
    8880023    1    1    2    0    0  0.20985612020E+03 -0.12675844139E+03 -0.33199416873E+03  0.77726290789E+03  0.65864270000E+03 0. -1.
    8880022    1    1    2    0    0 -0.20985612020E+03  0.12675844139E+03  0.35723268989E+03  0.45947158932E+03  0.15294330000E+03 0.  0.
<mgrwt>
<rscale>  0 0.56276947E+03</rscale>
<asrwt>0</asrwt>
<pdfrwt beam="1">  1        2 0.93191999E-01 0.70279264E+03</pdfrwt>
<pdfrwt beam="2">  1       -2 0.97074847E-01 0.70279264E+03</pdfrwt>
<totfact> 0.44133157E+01</totfact>
</mgrwt>
</event>
<event>
 4    2  0.3747163E-007  0.6793717E+03  0.7818608E-02  0.1009681E+00
          2   -1    0    0  501    0  0.00000000000E+00  0.00000000000E+00  0.89755106736E+03  0.89755106736E+03  0.25500000000E-02 0. -1.
         -2   -1    0    0    0  501 -0.00000000000E+00 -0.00000000000E+00 -0.61498561105E+03  0.61498561106E+03  0.25500000000E-02 0.  1.
    8880023    1    1    2    0    0 -0.14988534353E+03  0.72595765340E+02  0.73859465540E+03  0.10035277936E+04  0.65864270000E+03 0. -1.
    8880022    1    1    2    0    0  0.14988534353E+03 -0.72595765340E+02 -0.45602919909E+03  0.50900888479E+03  0.15294330000E+03 0.  0.
<mgrwt>
<rscale>  0 0.51601502E+03</rscale>
<asrwt>0</asrwt>
<pdfrwt beam="1">  1        2 0.13808478E+00 0.67937174E+03</pdfrwt>
<pdfrwt beam="2">  1       -2 0.94613171E-01 0.67937174E+03</pdfrwt>
<totfact> 0.28311158E+01</totfact>
</mgrwt>
</event>
<event>
 4    2  0.3747163E-007  0.7301051E+03  0.7818608E-02  0.9889768E-01
          2   -1    0    0  501    0  0.00000000000E+00  0.00000000000E+00  0.22390958031E+04  0.22390958031E+04  0.25500000000E-02 0. -1.
         -2   -1    0    0    0  501 -0.00000000000E+00 -0.00000000000E+00 -0.17413137564E+03  0.17413137566E+03  0.25500000000E-02 0.  1.
    8880023    1    1    2    0    0  0.30476186961E+03  0.79770959048E+02  0.18808488596E+04  0.20175841599E+04  0.65864270000E+03 0. -1.
    8880022    1    1    2    0    0 -0.30476186961E+03 -0.79770959048E+02  0.18411556784E+03  0.39564301891E+03  0.15294330000E+03 0.  0.
<mgrwt>
<rscale>  0 0.60759720E+03</rscale>
<asrwt>0</asrwt>
<pdfrwt beam="1">  1        2 0.34447632E+00 0.73010507E+03</pdfrwt>
<pdfrwt beam="2">  1       -2 0.26789439E-01 0.73010507E+03</pdfrwt>
<totfact> 0.64254570E+01</totfact>
</mgrwt>
</event>
<event>
 4    2  0.3747163E-007  0.7240917E+03  0.7818608E-02  0.9908977E-01
         -2   -1    0    0    0  501 -0.00000000000E+00  0.00000000000E+00  0.19734645276E+03  0.19734645278E+03  0.25500000000E-02 0.  1.
          2   -1    0    0  501    0  0.00000000000E+00 -0.00000000000E+00 -0.16656036862E+04  0.16656036862E+04  0.25500000000E-02 0. -1.
    8880023    1    1    2    0    0 -0.30070336735E+03  0.87214961062E+01 -0.12947797661E+04  0.14834970268E+04  0.65864270000E+03 0.  0.
    8880022    1    1    2    0    0  0.30070336735E+03 -0.87214961062E+01 -0.17347746734E+03  0.37945311215E+03  0.15294330000E+03 0.  0.
<mgrwt>
<rscale>  0 0.59828207E+03</rscale>
<asrwt>0</asrwt>
<pdfrwt beam="1">  1        2 0.25624671E+00 0.72409170E+03</pdfrwt>
<pdfrwt beam="2">  1       -2 0.30360994E-01 0.72409170E+03</pdfrwt>
<totfact> 0.10508860E+02</totfact>
</mgrwt>
</event>
<event>
 4    2  0.3747163E-007  0.1266920E+04  0.7818608E-02  0.9094667E-01
          2   -1    0    0  501    0  0.00000000000E+00  0.00000000000E+00  0.15081233781E+04  0.15081233781E+04  0.25500000000E-02 0. -1.
         -2   -1    0    0    0  501 -0.00000000000E+00 -0.00000000000E+00 -0.16689328940E+04  0.16689328940E+04  0.25500000000E-02 0.  1.
    8880023    1    1    2    0    0 -0.61074975058E+03 -0.89345379704E+03  0.97657388499E+03  0.15996192373E+04  0.65864270000E+03 0.  0.
    8880022    1    1    2    0    0  0.61074975058E+03  0.89345379704E+03 -0.11373834009E+04  0.15774370348E+04  0.15294330000E+03 0.  0.
<mgrwt>
<rscale>  0 0.12210055E+04</rscale>
<asrwt>0</asrwt>
<pdfrwt beam="1">  1        2 0.23201898E+00 0.12669196E+04</pdfrwt>
<pdfrwt beam="2">  1       -2 0.25675891E+00 0.12669196E+04</pdfrwt>
<totfact> 0.70729117E-01</totfact>
</mgrwt>
</event>
<event>
 4    2  0.3747163E-007  0.6785623E+03  0.7818608E-02  0.1010149E+00
          2   -1    0    0  501    0  0.00000000000E+00  0.00000000000E+00  0.15796115734E+03  0.15796115736E+03  0.25500000000E-02 0. -1.
         -2   -1    0    0    0  501 -0.00000000000E+00 -0.00000000000E+00 -0.14049559612E+04  0.14049559612E+04  0.25500000000E-02 0.  1.
    8880023    1    1    2    0    0 -0.10555882860E+03  0.12447452166E+03 -0.71458806193E+03  0.98543537452E+03  0.65864270000E+03 0.  0.
    8880022    1    1    2    0    0  0.10555882860E+03 -0.12447452166E+03 -0.53240674190E+03  0.57748174402E+03  0.15294330000E+03 0.  0.
<mgrwt>
<rscale>  0 0.51415513E+03</rscale>
<asrwt>0</asrwt>
<pdfrwt beam="1">  1        2 0.24301717E-01 0.67856229E+03</pdfrwt>
<pdfrwt beam="2">  1       -2 0.21614706E+00 0.67856229E+03</pdfrwt>
<totfact> 0.24270851E+01</totfact>
</mgrwt>
</event>
<event>
 4    2  0.3747163E-007  0.1037056E+04  0.7818608E-02  0.9334606E-01
          2   -1    0    0  501    0  0.00000000000E+00  0.00000000000E+00  0.11553942673E+04  0.11553942673E+04  0.25500000000E-02 0. -1.
         -2   -1    0    0    0  501 -0.00000000000E+00 -0.00000000000E+00 -0.77034315546E+03  0.77034315547E+03  0.25500000000E-02 0.  1.
    8880023    1    1    2    0    0  0.79033999607E+03  0.13052673139E+03  0.33284107726E+02  0.10375897913E+04  0.65864270000E+03 0.  1.
    8880022    1    1    2    0    0 -0.79033999607E+03 -0.13052673139E+03  0.35176700409E+03  0.88814763141E+03  0.15294330000E+03 0.  0.
<mgrwt>
<rscale>  0 0.97658422E+03</rscale>
<asrwt>0</asrwt>
<pdfrwt beam="1">  1        2 0.17775296E+00 0.10370558E+04</pdfrwt>
<pdfrwt beam="2">  1       -2 0.11851433E+00 0.10370558E+04</pdfrwt>
<totfact> 0.10919068E+01</totfact>
</mgrwt>
</event>
<event>
 4    2  0.4441211E-007  0.8521324E+03  0.7818608E-02  0.9607715E-01
          2   -1    0    0  501    0  0.00000000000E+00  0.00000000000E+00  0.13555794570E+04  0.13555794570E+04  0.25500000000E-02 0. -1.
         -2   -1    0    0    0  501 -0.00000000000E+00 -0.00000000000E+00 -0.22799340224E+04  0.22799340224E+04  0.25500000000E-02 0.  1.
    8880023    1    1    2    0    0  0.19829762335E+02 -0.54030195033E+03  0.11810802262E+04  0.14563928467E+04  0.65864270000E+03 0. -1.
    8880022    1    1    2    0    0 -0.19829762335E+02  0.54030195033E+03 -0.21054347916E+04  0.21791206327E+04  0.15294330000E+03 0.  0.
<mgrwt>
<rscale>  0 0.76787678E+03</rscale>
<asrwt>0</asrwt>
<pdfrwt beam="1">  1        2 0.20855069E+00 0.85213240E+03</pdfrwt>
<pdfrwt beam="2">  1       -2 0.35075908E+00 0.85213240E+03</pdfrwt>
<totfact> 0.24583060E-01</totfact>
</mgrwt>
</event>
<event>
 4    2  0.3747163E-007  0.7596007E+03  0.7818608E-02  0.9806142E-01
          2   -1    0    0  501    0  0.00000000000E+00  0.00000000000E+00  0.14310864088E+04  0.14310864088E+04  0.25500000000E-02 0. -1.
         -2   -1    0    0    0  501 -0.00000000000E+00 -0.00000000000E+00 -0.41438858087E+03  0.41438858087E+03  0.25500000000E-02 0.  1.
    8880023    1    1    2    0    0  0.36666083341E+03  0.93502883017E+02  0.11820838933E+04  0.14051033745E+04  0.65864270000E+03 0. -1.
    8880022    1    1    2    0    0 -0.36666083341E+03 -0.93502883017E+02 -0.16538606533E+03  0.44037161524E+03  0.15294330000E+03 0.  1.
<mgrwt>
<rscale>  0 0.65033945E+03</rscale>
<asrwt>0</asrwt>
<pdfrwt beam="1">  1        2 0.22016714E+00 0.75960066E+03</pdfrwt>
<pdfrwt beam="2">  1       -2 0.63752089E-01 0.75960066E+03</pdfrwt>
<totfact> 0.32275315E+01</totfact>
</mgrwt>
</event>
<event>
 4    2  0.3747163E-007  0.6845931E+03  0.7818608E-02  0.1006836E+00
          2   -1    0    0  501    0  0.00000000000E+00  0.00000000000E+00  0.10948685693E+04  0.10948685693E+04  0.25500000000E-02 0. -1.
         -2   -1    0    0    0  501 -0.00000000000E+00 -0.00000000000E+00 -0.67372660122E+03  0.67372660122E+03  0.25500000000E-02 0.  1.
    8880023    1    1    2    0    0 -0.25883521305E+02  0.18489892119E+03  0.95945609759E+03  0.11786533745E+04  0.65864270000E+03 0. -1.
    8880022    1    1    2    0    0  0.25883521305E+02 -0.18489892119E+03 -0.53831412948E+03  0.58994179606E+03  0.15294330000E+03 0.  0.
<mgrwt>
<rscale>  0 0.52751605E+03</rscale>
<asrwt>0</asrwt>
<pdfrwt beam="1">  1        2 0.16844132E+00 0.68459314E+03</pdfrwt>
<pdfrwt beam="2">  1       -2 0.10365025E+00 0.68459314E+03</pdfrwt>
<totfact> 0.17067488E+01</totfact>
</mgrwt>
</event>
<event>
 4    2  0.3747163E-007  0.9896495E+03  0.7818608E-02  0.9395226E-01
         -2   -1    0    0    0  501 -0.00000000000E+00  0.00000000000E+00  0.14594462377E+04  0.14594462377E+04  0.25500000000E-02 0.  1.
          2   -1    0    0  501    0  0.00000000000E+00 -0.00000000000E+00 -0.66754539074E+03  0.66754539075E+03  0.25500000000E-02 0. -1.
    8880023    1    1    2    0    0  0.28882321391E+03  0.67983604058E+03 -0.57108755836E+02  0.99129587269E+03  0.65864270000E+03 0. -1.
    8880022    1    1    2    0    0 -0.28882321391E+03 -0.67983604058E+03  0.84900960276E+03  0.11356957557E+04  0.15294330000E+03 0.  0.
<mgrwt>
<rscale>  0 0.92469582E+03</rscale>
<asrwt>0</asrwt>
<pdfrwt beam="1">  1        2 0.10269929E+00 0.98964948E+03</pdfrwt>
<pdfrwt beam="2">  1       -2 0.22453019E+00 0.98964948E+03</pdfrwt>
<totfact> 0.40114482E+00</totfact>
</mgrwt>
</event>
<event>
 4    2  0.3747163E-007  0.6846792E+03  0.7818608E-02  0.1006792E+00
         -2   -1    0    0    0  501 -0.00000000000E+00  0.00000000000E+00  0.16849893191E+03  0.16849893192E+03  0.25500000000E-02 0.  1.
          2   -1    0    0  501    0  0.00000000000E+00 -0.00000000000E+00 -0.14623453612E+04  0.14623453612E+04  0.25500000000E-02 0. -1.
    8880023    1    1    2    0    0 -0.16113391710E+03  0.94927922641E+02 -0.11788973548E+04  0.13632991708E+04  0.65864270000E+03 0.  0.
    8880022    1    1    2    0    0  0.16113391710E+03 -0.94927922641E+02 -0.11494907453E+03  0.26754512234E+03  0.15294330000E+03 0.  0.
<mgrwt>
<rscale>  0 0.52769914E+03</rscale>
<asrwt>0</asrwt>
<pdfrwt beam="1">  1        2 0.22497620E+00 0.68467924E+03</pdfrwt>
<pdfrwt beam="2">  1       -2 0.25922914E-01 0.68467924E+03</pdfrwt>
<totfact> 0.18250226E+02</totfact>
</mgrwt>
</event>
<event>
 4    2  0.3747163E-007  0.1237886E+04  0.7818608E-02  0.9121146E-01
          2   -1    0    0  501    0  0.00000000000E+00  0.00000000000E+00  0.85696098694E+03  0.85696098694E+03  0.25500000000E-02 0. -1.
         -2   -1    0    0    0  501 -0.00000000000E+00 -0.00000000000E+00 -0.21167455230E+04  0.21167455230E+04  0.25500000000E-02 0.  1.
    8880023    1    1    2    0    0 -0.95892573505E+03 -0.42309955668E+03 -0.14403557920E+04  0.18992068908E+04  0.65864270000E+03 0.  1.
    8880022    1    1    2    0    0  0.95892573505E+03  0.42309955668E+03  0.18057125589E+03  0.10744996192E+04  0.15294330000E+03 0. -1.
<mgrwt>
<rscale>  0 0.11905754E+04</rscale>
<asrwt>0</asrwt>
<pdfrwt beam="1">  1        2 0.13184015E+00 0.12378861E+04</pdfrwt>
<pdfrwt beam="2">  1       -2 0.32565316E+00 0.12378861E+04</pdfrwt>
<totfact> 0.67795446E-01</totfact>
</mgrwt>
</event>
<event>
 4    2  0.3747163E-007  0.9957494E+03  0.7818608E-02  0.9387140E-01
         -2   -1    0    0    0  501 -0.00000000000E+00  0.00000000000E+00  0.61010310164E+03  0.61010310164E+03  0.25500000000E-02 0.  1.
          2   -1    0    0  501    0  0.00000000000E+00 -0.00000000000E+00 -0.15567706299E+04  0.15567706299E+04  0.25500000000E-02 0. -1.
    8880023    1    1    2    0    0 -0.47389480381E+03  0.57717440657E+03 -0.59982967962E+02  0.99755438116E+03  0.65864270000E+03 0.  1.
    8880022    1    1    2    0    0  0.47389480381E+03 -0.57717440657E+03 -0.88668456028E+03  0.11693193504E+04  0.15294330000E+03 0.  0.
<mgrwt>
<rscale>  0 0.93141606E+03</rscale>
<asrwt>0</asrwt>
<pdfrwt beam="1">  1        2 0.23950317E+00 0.99574936E+03</pdfrwt>
<pdfrwt beam="2">  1       -2 0.93862016E-01 0.99574936E+03</pdfrwt>
<totfact> 0.11268156E+01</totfact>
</mgrwt>
</event>
<event>
 4    2  0.3747163E-007  0.7247179E+03  0.7818608E-02  0.9906934E-01
          2   -1    0    0  501    0  0.00000000000E+00  0.00000000000E+00  0.19574459985E+04  0.19574459985E+04  0.25500000000E-02 0. -1.
         -2   -1    0    0    0  501 -0.00000000000E+00 -0.00000000000E+00 -0.31611124675E+03  0.31611124676E+03  0.25500000000E-02 0.  1.
    8880023    1    1    2    0    0  0.77973182440E+02  0.29210618244E+03  0.17688362332E+04  0.19115432679E+04  0.65864270000E+03 0.  0.
    8880022    1    1    2    0    0 -0.77973182440E+02 -0.29210618244E+03 -0.12750148144E+03  0.36201397733E+03  0.15294330000E+03 0.  0.
<mgrwt>
<rscale>  0 0.59926415E+03</rscale>
<asrwt>0</asrwt>
<pdfrwt beam="1">  1        2 0.30114553E+00 0.72471791E+03</pdfrwt>
<pdfrwt beam="2">  1       -2 0.48632500E-01 0.72471791E+03</pdfrwt>
<totfact> 0.29246963E+01</totfact>
</mgrwt>
</event>
<event>
 4    2  0.3747163E-007  0.7766559E+03  0.7818608E-02  0.9763752E-01
         -2   -1    0    0    0  501 -0.00000000000E+00  0.00000000000E+00  0.11621302079E+04  0.11621302079E+04  0.25500000000E-02 0.  1.
          2   -1    0    0  501    0  0.00000000000E+00 -0.00000000000E+00 -0.92493825138E+03  0.92493825138E+03  0.25500000000E-02 0. -1.
    8880023    1    1    2    0    0 -0.72768612151E+02  0.40507891911E+03 -0.70416569463E+03  0.10483528668E+04  0.65864270000E+03 0. -1.
    8880022    1    1    2    0    0  0.72768612151E+02 -0.40507891911E+03  0.94135765113E+03  0.10387155924E+04  0.15294330000E+03 0.  0.
<mgrwt>
<rscale>  0 0.67344645E+03</rscale>
<asrwt>0</asrwt>
<pdfrwt beam="1">  1        2 0.14229819E+00 0.77665591E+03</pdfrwt>
<pdfrwt beam="2">  1       -2 0.17878926E+00 0.77665591E+03</pdfrwt>
<totfact> 0.53024025E+00</totfact>
</mgrwt>
</event>
<event>
 4    2  0.3747163E-007  0.9983279E+03  0.7818608E-02  0.9383749E-01
         -2   -1    0    0    0  501 -0.00000000000E+00  0.00000000000E+00  0.40765749672E+03  0.40765749673E+03  0.25500000000E-02 0.  1.
          2   -1    0    0  501    0  0.00000000000E+00 -0.00000000000E+00 -0.25802844882E+04  0.25802844882E+04  0.25500000000E-02 0. -1.
    8880023    1    1    2    0    0 -0.37376473436E+03 -0.65049853966E+03 -0.19497893030E+04  0.21905106617E+04  0.65864270000E+03 0.  0.
    8880022    1    1    2    0    0  0.37376473436E+03  0.65049853966E+03 -0.22283768843E+03  0.79743132316E+03  0.15294330000E+03 0.  0.
<mgrwt>
<rscale>  0 0.93425268E+03</rscale>
<asrwt>0</asrwt>
<pdfrwt beam="1">  1        2 0.39696683E+00 0.99832792E+03</pdfrwt>
<pdfrwt beam="2">  1       -2 0.62716540E-01 0.99832792E+03</pdfrwt>
<totfact> 0.74657481E+00</totfact>
</mgrwt>
</event>
<event>
 4    2  0.3747163E-007  0.7579042E+03  0.7818608E-02  0.9810564E-01
         -2   -1    0    0    0  501 -0.00000000000E+00  0.00000000000E+00  0.33260693746E+03  0.33260693747E+03  0.25500000000E-02 0.  1.
          2   -1    0    0  501    0  0.00000000000E+00 -0.00000000000E+00 -0.21774642483E+04  0.21774642483E+04  0.25500000000E-02 0. -1.
    8880023    1    1    2    0    0 -0.33848721537E+03  0.16135365977E+03 -0.19496335093E+04  0.20917671059E+04  0.65864270000E+03 0.  0.
    8880022    1    1    2    0    0  0.33848721537E+03 -0.16135365977E+03  0.10477619843E+03  0.41830407990E+03  0.15294330000E+03 0.  0.
<mgrwt>
<rscale>  0 0.64798702E+03</rscale>
<asrwt>0</asrwt>
<pdfrwt beam="1">  1        2 0.33499449E+00 0.75790422E+03</pdfrwt>
<pdfrwt beam="2">  1       -2 0.51170300E-01 0.75790422E+03</pdfrwt>
<totfact> 0.19896401E+01</totfact>
</mgrwt>
</event>
<event>
 4    2  0.3747163E-007  0.7650962E+03  0.7818608E-02  0.9792088E-01
          2   -1    0    0  501    0  0.00000000000E+00  0.00000000000E+00  0.17070888112E+04  0.17070888112E+04  0.25500000000E-02 0. -1.
         -2   -1    0    0    0  501 -0.00000000000E+00 -0.00000000000E+00 -0.33137855927E+03  0.33137855928E+03  0.25500000000E-02 0.  1.
    8880023    1    1    2    0    0  0.45965881865E+02 -0.38658656095E+03  0.14248938697E+04  0.16173109712E+04  0.65864270000E+03 0.  0.
    8880022    1    1    2    0    0 -0.45965881865E+02  0.38658656095E+03 -0.49183617748E+02  0.42115639930E+03  0.15294330000E+03 0.  0.
<mgrwt>
<rscale>  0 0.65788871E+03</rscale>
<asrwt>0</asrwt>
<pdfrwt beam="1">  1        2 0.26262905E+00 0.76509623E+03</pdfrwt>
<pdfrwt beam="2">  1       -2 0.50981316E-01 0.76509623E+03</pdfrwt>
<totfact> 0.36206073E+01</totfact>
</mgrwt>
</event>
<event>
 4    2  0.3747163E-007  0.6875258E+03  0.7818608E-02  0.1005351E+00
         -2   -1    0    0    0  501 -0.00000000000E+00  0.00000000000E+00  0.44518071650E+03  0.44518071651E+03  0.25500000000E-02 0.  1.
          2   -1    0    0  501    0  0.00000000000E+00 -0.00000000000E+00 -0.17494401841E+04  0.17494401841E+04  0.25500000000E-02 0. -1.
    8880023    1    1    2    0    0  0.19718330127E+03 -0.46800835439E+00 -0.16388480509E+04  0.17772210367E+04  0.65864270000E+03 0. -1.
    8880022    1    1    2    0    0 -0.19718330127E+03  0.46800835439E+00  0.33458858324E+03  0.41739986390E+03  0.15294330000E+03 0.  0.
<mgrwt>
<rscale>  0 0.53364730E+03</rscale>
<asrwt>0</asrwt>
<pdfrwt beam="1">  1        2 0.26914464E+00 0.68752577E+03</pdfrwt>
<pdfrwt beam="2">  1       -2 0.68489342E-01 0.68752577E+03</pdfrwt>
<totfact> 0.18624280E+01</totfact>
</mgrwt>
</event>
<event>
 4    2  0.3747163E-007  0.1997177E+04  0.7818608E-02  0.8620656E-01
         -2   -1    0    0    0  501 -0.00000000000E+00  0.00000000000E+00  0.15940008317E+04  0.15940008317E+04  0.25500000000E-02 0.  1.
          2   -1    0    0  501    0  0.00000000000E+00 -0.00000000000E+00 -0.25664059969E+04  0.25664059969E+04  0.25500000000E-02 0. -1.
    8880023    1    1    2    0    0 -0.10754621774E+04 -0.15486401472E+04 -0.10709613447E+04  0.22662024642E+04  0.65864270000E+03 0.  0.
    8880022    1    1    2    0    0  0.10754621774E+04  0.15486401472E+04  0.98556179415E+02  0.18942043644E+04  0.15294330000E+03 0.  0.
<mgrwt>
<rscale>  0 0.19702527E+04</rscale>
<asrwt>0</asrwt>
<pdfrwt beam="1">  1        2 0.39483169E+00 0.19971769E+04</pdfrwt>
<pdfrwt beam="2">  1       -2 0.24523090E+00 0.19971769E+04</pdfrwt>
<totfact> 0.19496345E-01</totfact>
</mgrwt>
</event>
<event>
 4    2  0.3747163E-007  0.8220398E+03  0.7818608E-02  0.9665024E-01
          2   -1    0    0  501    0  0.00000000000E+00  0.00000000000E+00  0.19589842492E+04  0.19589842492E+04  0.25500000000E-02 0. -1.
         -2   -1    0    0    0  501 -0.00000000000E+00 -0.00000000000E+00 -0.29697731827E+03  0.29697731828E+03  0.25500000000E-02 0.  1.
    8880023    1    1    2    0    0  0.18780302274E+03  0.45460896404E+03  0.15093943109E+04  0.17187264697E+04  0.65864270000E+03 0.  0.
    8880022    1    1    2    0    0 -0.18780302274E+03 -0.45460896404E+03  0.15261262009E+03  0.53723509785E+03  0.15294330000E+03 0.  0.
<mgrwt>
<rscale>  0 0.73138009E+03</rscale>
<asrwt>0</asrwt>
<pdfrwt beam="1">  1        2 0.30138219E+00 0.82203984E+03</pdfrwt>
<pdfrwt beam="2">  1       -2 0.45688818E-01 0.82203984E+03</pdfrwt>
<totfact> 0.32701927E+01</totfact>
</mgrwt>
</event>
<event>
 4    2  0.3747163E-007  0.9265992E+03  0.7818608E-02  0.9484614E-01
         -2   -1    0    0    0  501 -0.00000000000E+00  0.00000000000E+00  0.42044797273E+03  0.42044797274E+03  0.25500000000E-02 0.  1.
          2   -1    0    0  501    0  0.00000000000E+00 -0.00000000000E+00 -0.17515277394E+04  0.17515277394E+04  0.25500000000E-02 0. -1.
    8880023    1    1    2    0    0  0.64616006652E+03 -0.85165011111E+02 -0.36343145505E+03  0.99532333413E+03  0.65864270000E+03 0.  0.
    8880022    1    1    2    0    0 -0.64616006652E+03  0.85165011111E+02 -0.96764831160E+03  0.11766523780E+04  0.15294330000E+03 0.  0.
<mgrwt>
<rscale>  0 0.85427756E+03</rscale>
<asrwt>0</asrwt>
<pdfrwt beam="1">  1        2 0.26946580E+00 0.92659922E+03</pdfrwt>
<pdfrwt beam="2">  1       -2 0.64684305E-01 0.92659922E+03</pdfrwt>
<totfact> 0.20412165E+01</totfact>
</mgrwt>
</event>
<event>
 4    2  0.3747163E-007  0.7452786E+03  0.7818608E-02  0.9844829E-01
          2   -1    0    0  501    0  0.00000000000E+00  0.00000000000E+00  0.18796712330E+04  0.18796712330E+04  0.25500000000E-02 0. -1.
         -2   -1    0    0    0  501 -0.00000000000E+00 -0.00000000000E+00 -0.28894458728E+03  0.28894458729E+03  0.25500000000E-02 0.  1.
    8880023    1    1    2    0    0 -0.21369523512E+03  0.27561632980E+03  0.16235001633E+04  0.17863910550E+04  0.65864270000E+03 0. -1.
    8880022    1    1    2    0    0  0.21369523512E+03 -0.27561632980E+03 -0.32773517582E+02  0.38222476533E+03  0.15294330000E+03 0.  0.
<mgrwt>
<rscale>  0 0.63011252E+03</rscale>
<asrwt>0</asrwt>
<pdfrwt beam="1">  1        2 0.28918019E+00 0.74527862E+03</pdfrwt>
<pdfrwt beam="2">  1       -2 0.44453014E-01 0.74527862E+03</pdfrwt>
<totfact> 0.38511836E+01</totfact>
</mgrwt>
</event>
<event>
 4    2  0.3747163E-007  0.7401162E+03  0.7818608E-02  0.9859609E-01
          2   -1    0    0  501    0  0.00000000000E+00  0.00000000000E+00  0.24226297850E+04  0.24226297850E+04  0.25500000000E-02 0. -1.
         -2   -1    0    0    0  501 -0.00000000000E+00 -0.00000000000E+00 -0.12731306393E+03  0.12731306396E+03  0.25500000000E-02 0.  1.
    8880023    1    1    2    0    0  0.26238743223E+03 -0.21240199626E+03  0.15256860602E+04  0.16957269630E+04  0.65864270000E+03 0. -1.
    8880022    1    1    2    0    0 -0.26238743223E+03  0.21240199626E+03  0.76963066088E+03  0.85421588594E+03  0.15294330000E+03 0.  1.
<mgrwt>
<rscale>  0 0.62259391E+03</rscale>
<asrwt>0</asrwt>
<pdfrwt beam="1">  1        2 0.37271223E+00 0.74011619E+03</pdfrwt>
<pdfrwt beam="2">  1       -2 0.19586628E-01 0.74011619E+03</pdfrwt>
<totfact> 0.88628560E+01</totfact>
</mgrwt>
</event>
<event>
 4    2  0.3747163E-007  0.7469998E+03  0.7818608E-02  0.9840007E-01
          2   -1    0    0  501    0  0.00000000000E+00  0.00000000000E+00  0.23677324831E+04  0.23677324831E+04  0.25500000000E-02 0. -1.
         -2   -1    0    0    0  501 -0.00000000000E+00 -0.00000000000E+00 -0.30398518407E+03  0.30398518408E+03  0.25500000000E-02 0.  1.
    8880023    1    1    2    0    0 -0.61294477073E+02  0.34704677511E+03  0.21516355410E+04  0.22776180946E+04  0.65864270000E+03 0.  0.
    8880022    1    1    2    0    0  0.61294477073E+02 -0.34704677511E+03 -0.87888242012E+02  0.39409957261E+03  0.15294330000E+03 0.  0.
<mgrwt>
<rscale>  0 0.63259029E+03</rscale>
<asrwt>0</asrwt>
<pdfrwt beam="1">  1        2 0.36426652E+00 0.74699979E+03</pdfrwt>
<pdfrwt beam="2">  1       -2 0.46766953E-01 0.74699979E+03</pdfrwt>
<totfact> 0.18757670E+01</totfact>
</mgrwt>
</event>
<event>
 4    2  0.3747163E-007  0.7325241E+03  0.7818608E-02  0.9882285E-01
          2   -1    0    0  501    0  0.00000000000E+00  0.00000000000E+00  0.13619147762E+04  0.13619147762E+04  0.25500000000E-02 0. -1.
         -2   -1    0    0    0  501 -0.00000000000E+00 -0.00000000000E+00 -0.22554861927E+03  0.22554861928E+03  0.25500000000E-02 0.  1.
    8880023    1    1    2    0    0 -0.26245169516E+03  0.18412073777E+03  0.90166793770E+03  0.11617214014E+04  0.65864270000E+03 0.  1.
    8880022    1    1    2    0    0  0.26245169516E+03 -0.18412073777E+03  0.23469821919E+03  0.42574199403E+03  0.15294330000E+03 0.  0.
<mgrwt>
<rscale>  0 0.61127584E+03</rscale>
<asrwt>0</asrwt>
<pdfrwt beam="1">  1        2 0.20952536E+00 0.73252409E+03</pdfrwt>
<pdfrwt beam="2">  1       -2 0.34699786E-01 0.73252409E+03</pdfrwt>
<totfact> 0.12055067E+02</totfact>
</mgrwt>
</event>
<event>
 4    2  0.3747163E-007  0.6592288E+03  0.7818608E-02  0.1024961E+00
         -2   -1    0    0    0  501 -0.00000000000E+00  0.00000000000E+00  0.13807153695E+03  0.13807153697E+03  0.25500000000E-02 0.  1.
          2   -1    0    0  501    0  0.00000000000E+00 -0.00000000000E+00 -0.19205829815E+04  0.19205829815E+04  0.25500000000E-02 0. -1.
    8880023    1    1    2    0    0 -0.26438702513E+02 -0.85655084738E+01 -0.17853609550E+04  0.19031805796E+04  0.65864270000E+03 0. -1.
    8880022    1    1    2    0    0  0.26438702513E+02  0.85655084738E+01  0.28495104326E+01  0.15547393881E+03  0.15294330000E+03 0.  0.
<mgrwt>
<rscale>  0 0.45938126E+03</rscale>
<asrwt>0</asrwt>
<pdfrwt beam="1">  1        2 0.29547428E+00 0.65922878E+03</pdfrwt>
<pdfrwt beam="2">  1       -2 0.21241776E-01 0.65922878E+03</pdfrwt>
<totfact> 0.14655365E+02</totfact>
</mgrwt>
</event>
<event>
 4    2  0.3747163E-007  0.8483863E+03  0.7818608E-02  0.9614565E-01
          2   -1    0    0  501    0  0.00000000000E+00  0.00000000000E+00  0.26723771634E+04  0.26723771634E+04  0.25500000000E-02 0. -1.
         -2   -1    0    0    0  501 -0.00000000000E+00 -0.00000000000E+00 -0.53427856667E+03  0.53427856668E+03  0.25500000000E-02 0.  1.
    8880023    1    1    2    0    0  0.53133445288E+03  0.60273099039E+02  0.24333200107E+04  0.25769760627E+04  0.65864270000E+03 0.  0.
    8880022    1    1    2    0    0 -0.53133445288E+03 -0.60273099039E+02 -0.29522141391E+03  0.62967966739E+03  0.15294330000E+03 0.  0.
<mgrwt>
<rscale>  0 0.76339603E+03</rscale>
<asrwt>0</asrwt>
<pdfrwt beam="1">  1        2 0.41113496E+00 0.84838632E+03</pdfrwt>
<pdfrwt beam="2">  1       -2 0.82196701E-01 0.84838632E+03</pdfrwt>
<totfact> 0.37195974E+00</totfact>
</mgrwt>
</event>
<event>
 4    2  0.3747163E-007  0.7290069E+03  0.7818608E-02  0.9893210E-01
          2   -1    0    0  501    0  0.00000000000E+00  0.00000000000E+00  0.19570061335E+04  0.19570061335E+04  0.25500000000E-02 0. -1.
         -2   -1    0    0    0  501 -0.00000000000E+00 -0.00000000000E+00 -0.17161487276E+03  0.17161487278E+03  0.25500000000E-02 0.  1.
    8880023    1    1    2    0    0  0.10730209994E+03 -0.29347423177E+03  0.15370857869E+04  0.17012006900E+04  0.65864270000E+03 0. -1.
    8880022    1    1    2    0    0 -0.10730209994E+03  0.29347423177E+03  0.24830547389E+03  0.42742031625E+03  0.15294330000E+03 0.  0.
<mgrwt>
<rscale>  0 0.60591470E+03</rscale>
<asrwt>0</asrwt>
<pdfrwt beam="1">  1        2 0.30107786E+00 0.72900691E+03</pdfrwt>
<pdfrwt beam="2">  1       -2 0.26402289E-01 0.72900691E+03</pdfrwt>
<totfact> 0.94188276E+01</totfact>
</mgrwt>
</event>
<event>
 4    2  0.3747163E-007  0.7628317E+03  0.7818608E-02  0.9797831E-01
          2   -1    0    0  501    0  0.00000000000E+00  0.00000000000E+00  0.94796537430E+03  0.94796537430E+03  0.25500000000E-02 0. -1.
         -2   -1    0    0    0  501 -0.00000000000E+00 -0.00000000000E+00 -0.40367277497E+03  0.40367277498E+03  0.25500000000E-02 0.  1.
    8880023    1    1    2    0    0 -0.35911972368E+03 -0.13832939347E+03  0.14522830758E+03  0.77653297716E+03  0.65864270000E+03 0.  1.
    8880022    1    1    2    0    0  0.35911972368E+03  0.13832939347E+03  0.39906429175E+03  0.57510517212E+03  0.15294330000E+03 0.  0.
<mgrwt>
<rscale>  0 0.65479078E+03</rscale>
<asrwt>0</asrwt>
<pdfrwt beam="1">  1        2 0.14584083E+00 0.76283170E+03</pdfrwt>
<pdfrwt beam="2">  1       -2 0.62103504E-01 0.76283170E+03</pdfrwt>
<totfact> 0.66431930E+01</totfact>
</mgrwt>
</event>
<event>
 4    2  0.3747163E-007  0.1090064E+04  0.7818608E-02  0.9272200E-01
         -2   -1    0    0    0  501 -0.00000000000E+00  0.00000000000E+00  0.14585922443E+04  0.14585922443E+04  0.25500000000E-02 0.  1.
          2   -1    0    0  501    0  0.00000000000E+00 -0.00000000000E+00 -0.10300159222E+04  0.10300159222E+04  0.25500000000E-02 0. -1.
    8880023    1    1    2    0    0 -0.21077236683E+02  0.86832271457E+03 -0.50758147471E+03  0.12024465669E+04  0.65864270000E+03 0.  0.
    8880022    1    1    2    0    0  0.21077236683E+02 -0.86832271457E+03  0.93615779684E+03  0.12861615995E+04  0.15294330000E+03 0.  0.
<mgrwt>
<rscale>  0 0.10338292E+04</rscale>
<asrwt>0</asrwt>
<pdfrwt beam="1">  1        2 0.15846399E+00 0.10900637E+04</pdfrwt>
<pdfrwt beam="2">  1       -2 0.22439880E+00 0.10900637E+04</pdfrwt>
<totfact> 0.21981867E+00</totfact>
</mgrwt>
</event>
<event>
 4    2  0.3747163E-007  0.1167079E+04  0.7818608E-02  0.9189808E-01
         -2   -1    0    0    0  501 -0.00000000000E+00  0.00000000000E+00  0.30514263363E+03  0.30514263365E+03  0.25500000000E-02 0.  1.
          2   -1    0    0  501    0  0.00000000000E+00 -0.00000000000E+00 -0.39098437501E+04  0.39098437501E+04  0.25500000000E-02 0. -1.
    8880023    1    1    2    0    0  0.11639259634E+03 -0.95640769891E+03 -0.15479630903E+04  0.19386239600E+04  0.65864270000E+03 0.  0.
    8880022    1    1    2    0    0 -0.11639259634E+03  0.95640769891E+03 -0.20567380262E+04  0.22763624238E+04  0.15294330000E+03 0.  0.
<mgrwt>
<rscale>  0 0.11159252E+04</rscale>
<asrwt>0</asrwt>
<pdfrwt beam="1">  1        2 0.60151439E+00 0.11670789E+04</pdfrwt>
<pdfrwt beam="2">  1       -2 0.46945023E-01 0.11670789E+04</pdfrwt>
<totfact> 0.17781349E+00</totfact>
</mgrwt>
</event>
<event>
 4    2  0.3747163E-007  0.9526693E+03  0.7818608E-02  0.9446284E-01
         -2   -1    0    0    0  501 -0.00000000000E+00  0.00000000000E+00  0.95686342992E+03  0.95686342993E+03  0.25500000000E-02 0.  1.
          2   -1    0    0  501    0  0.00000000000E+00 -0.00000000000E+00 -0.28383232468E+04  0.28383232468E+04  0.25500000000E-02 0. -1.
    8880023    1    1    2    0    0 -0.63583606107E+03  0.26359274337E+03 -0.26117404152E+04  0.27800659765E+04  0.65864270000E+03 0.  0.
    8880022    1    1    2    0    0  0.63583606107E+03 -0.26359274337E+03  0.73028059828E+03  0.10151207003E+04  0.15294330000E+03 0.  0.
<mgrwt>
<rscale>  0 0.88362641E+03</rscale>
<asrwt>0</asrwt>
<pdfrwt beam="1">  1        2 0.43666511E+00 0.95266932E+03</pdfrwt>
<pdfrwt beam="2">  1       -2 0.14720976E+00 0.95266932E+03</pdfrwt>
<totfact> 0.70482813E-01</totfact>
</mgrwt>
</event>
<event>
 4    2  0.3747163E-007  0.7740345E+03  0.7818608E-02  0.9770041E-01
          2   -1    0    0  501    0  0.00000000000E+00  0.00000000000E+00  0.13045483943E+04  0.13045483943E+04  0.25500000000E-02 0. -1.
         -2   -1    0    0    0  501 -0.00000000000E+00 -0.00000000000E+00 -0.35338042457E+03  0.35338042458E+03  0.25500000000E-02 0.  1.
    8880023    1    1    2    0    0  0.17905159155E+03 -0.36504753992E+03  0.94754171685E+03  0.12235050839E+04  0.65864270000E+03 0. -1.
    8880022    1    1    2    0    0 -0.17905159155E+03  0.36504753992E+03  0.36262529089E+01  0.43442373504E+03  0.15294330000E+03 0.  0.
<mgrwt>
<rscale>  0 0.66995377E+03</rscale>
<asrwt>0</asrwt>
<pdfrwt beam="1">  1        2 0.20069975E+00 0.77403449E+03</pdfrwt>
<pdfrwt beam="2">  1       -2 0.54366220E-01 0.77403449E+03</pdfrwt>
<totfact> 0.53191961E+01</totfact>
</mgrwt>
</event>
<event>
 4    2  0.3747163E-007  0.6646412E+03  0.7818608E-02  0.1019836E+00
          2   -1    0    0  501    0  0.00000000000E+00  0.00000000000E+00  0.11042196271E+04  0.11042196271E+04  0.25500000000E-02 0. -1.
         -2   -1    0    0    0  501 -0.00000000000E+00 -0.00000000000E+00 -0.16065555933E+03  0.16065555935E+03  0.25500000000E-02 0.  1.
    8880023    1    1    2    0    0  0.38063399136E+02  0.80554089626E+02  0.72314748777E+03  0.98218647875E+03  0.65864270000E+03 0.  1.
    8880022    1    1    2    0    0 -0.38063399136E+02 -0.80554089626E+02  0.22041658005E+03  0.28268870774E+03  0.15294330000E+03 0. -1.
<mgrwt>
<rscale>  0 0.47745730E+03</rscale>
<asrwt>0</asrwt>
<pdfrwt beam="1">  1        2 0.16987994E+00 0.66464125E+03</pdfrwt>
<pdfrwt beam="2">  1       -2 0.24716240E-01 0.66464125E+03</pdfrwt>
<totfact> 0.32105465E+02</totfact>
</mgrwt>
</event>
<event>
 4    2  0.3747163E-007  0.7764720E+03  0.7818608E-02  0.9764191E-01
          2   -1    0    0  501    0  0.00000000000E+00  0.00000000000E+00  0.54285087652E+03  0.54285087653E+03  0.25500000000E-02 0. -1.
         -2   -1    0    0    0  501 -0.00000000000E+00 -0.00000000000E+00 -0.80580280402E+03  0.80580280402E+03  0.25500000000E-02 0.  1.
    8880023    1    1    2    0    0 -0.46655085825E+02  0.40856066509E+03  0.95210663120E+02  0.78228753712E+03  0.65864270000E+03 0. -1.
    8880022    1    1    2    0    0  0.46655085825E+02 -0.40856066509E+03 -0.35816259062E+03  0.56636614343E+03  0.15294330000E+03 0.  1.
<mgrwt>
<rscale>  0 0.67320201E+03</rscale>
<asrwt>0</asrwt>
<pdfrwt beam="1">  1        2 0.83515520E-01 0.77647197E+03</pdfrwt>
<pdfrwt beam="2">  1       -2 0.12396966E+00 0.77647197E+03</pdfrwt>
<totfact> 0.27658925E+01</totfact>
</mgrwt>
</event>
<event>
 4    2  0.3747163E-007  0.1004152E+04  0.7818608E-02  0.9376145E-01
          2   -1    0    0  501    0  0.00000000000E+00  0.00000000000E+00  0.13765135029E+04  0.13765135029E+04  0.25500000000E-02 0. -1.
         -2   -1    0    0    0  501 -0.00000000000E+00 -0.00000000000E+00 -0.11230716228E+04  0.11230716228E+04  0.25500000000E-02 0.  1.
    8880023    1    1    2    0    0  0.32743628179E+03 -0.68359133943E+03  0.10054230605E+04  0.14209846497E+04  0.65864270000E+03 0.  0.
    8880022    1    1    2    0    0 -0.32743628179E+03  0.68359133943E+03 -0.75198118036E+03  0.10786004759E+04  0.15294330000E+03 0.  0.
<mgrwt>
<rscale>  0 0.94065108E+03</rscale>
<asrwt>0</asrwt>
<pdfrwt beam="1">  1        2 0.21177131E+00 0.10041523E+04</pdfrwt>
<pdfrwt beam="2">  1       -2 0.17278025E+00 0.10041523E+04</pdfrwt>
<totfact> 0.30142679E+00</totfact>
</mgrwt>
</event>
<event>
 4    2  0.3747163E-007  0.8558570E+03  0.7818608E-02  0.9600976E-01
         -2   -1    0    0    0  501 -0.00000000000E+00  0.00000000000E+00  0.20298447729E+03  0.20298447731E+03  0.25500000000E-02 0.  1.
          2   -1    0    0  501    0  0.00000000000E+00 -0.00000000000E+00 -0.25217665715E+04  0.25217665715E+04  0.25500000000E-02 0. -1.
    8880023    1    1    2    0    0  0.35056316448E+03 -0.41926900365E+03 -0.12549457257E+04  0.15190062575E+04  0.65864270000E+03 0.  1.
    8880022    1    1    2    0    0 -0.35056316448E+03  0.41926900365E+03 -0.10638363685E+04  0.12057447913E+04  0.15294330000E+03 0. -1.
<mgrwt>
<rscale>  0 0.77231621E+03</rscale>
<asrwt>0</asrwt>
<pdfrwt beam="1">  1        2 0.38796406E+00 0.85585702E+03</pdfrwt>
<pdfrwt beam="2">  1       -2 0.31228383E-01 0.85585702E+03</pdfrwt>
<totfact> 0.33079520E+01</totfact>
</mgrwt>
</event>
<event>
 4    2  0.3747163E-007  0.1044372E+04  0.7818608E-02  0.9325677E-01
         -2   -1    0    0    0  501 -0.00000000000E+00  0.00000000000E+00  0.39260245222E+03  0.39260245222E+03  0.25500000000E-02 0.  1.
          2   -1    0    0  501    0  0.00000000000E+00 -0.00000000000E+00 -0.39269192291E+04  0.39269192291E+04  0.25500000000E-02 0. -1.
    8880023    1    1    2    0    0 -0.81028391557E+03 -0.18527774238E+02 -0.33011271677E+04  0.34623913825E+04  0.65864270000E+03 0.  0.
    8880022    1    1    2    0    0  0.81028391557E+03  0.18527774238E+02 -0.23318960918E+03  0.85713029879E+03  0.15294330000E+03 0.  0.
<mgrwt>
<rscale>  0 0.98452935E+03</rscale>
<asrwt>0</asrwt>
<pdfrwt beam="1">  1        2 0.60414139E+00 0.10443723E+04</pdfrwt>
<pdfrwt beam="2">  1       -2 0.60400380E-01 0.10443723E+04</pdfrwt>
<totfact> 0.10428771E+00</totfact>
</mgrwt>
</event>
<event>
 4    2  0.3747163E-007  0.6836961E+03  0.7818608E-02  0.1007306E+00
         -2   -1    0    0    0  501 -0.00000000000E+00  0.00000000000E+00  0.23024580846E+03  0.23024580848E+03  0.25500000000E-02 0.  1.
          2   -1    0    0  501    0  0.00000000000E+00 -0.00000000000E+00 -0.14409021106E+04  0.14409021106E+04  0.25500000000E-02 0. -1.
    8880023    1    1    2    0    0 -0.94630159208E+02 -0.15708349037E+03 -0.12541735647E+04  0.14284227759E+04  0.65864270000E+03 0. -1.
    8880022    1    1    2    0    0  0.94630159208E+02  0.15708349037E+03  0.43517262584E+02  0.24272514319E+03  0.15294330000E+03 0.  0.
<mgrwt>
<rscale>  0 0.52559638E+03</rscale>
<asrwt>0</asrwt>
<pdfrwt beam="1">  1        2 0.22167724E+00 0.68369606E+03</pdfrwt>
<pdfrwt beam="2">  1       -2 0.35422433E-01 0.68369606E+03</pdfrwt>
<totfact> 0.10507075E+02</totfact>
</mgrwt>
</event>
<event>
 4    2  0.3747163E-007  0.8509134E+03  0.7818608E-02  0.9609936E-01
          2   -1    0    0  501    0  0.00000000000E+00  0.00000000000E+00  0.22445655154E+04  0.22445655154E+04  0.25500000000E-02 0. -1.
         -2   -1    0    0    0  501 -0.00000000000E+00 -0.00000000000E+00 -0.50266150412E+03  0.50266150413E+03  0.25500000000E-02 0.  1.
    8880023    1    1    2    0    0  0.68961991514E+02 -0.53431041449E+03  0.19673794089E+04  0.21435100467E+04  0.65864270000E+03 0. -1.
    8880022    1    1    2    0    0 -0.68961991514E+02  0.53431041449E+03 -0.22547539766E+03  0.60371697283E+03  0.15294330000E+03 0.  0.
<mgrwt>
<rscale>  0 0.76642045E+03</rscale>
<asrwt>0</asrwt>
<pdfrwt beam="1">  1        2 0.34531777E+00 0.85091338E+03</pdfrwt>
<pdfrwt beam="2">  1       -2 0.77332539E-01 0.85091338E+03</pdfrwt>
<totfact> 0.74575541E+00</totfact>
</mgrwt>
</event>
<event>
 4    2  0.3747163E-007  0.9428833E+03  0.7818608E-02  0.9460428E-01
         -2   -1    0    0    0  501 -0.00000000000E+00  0.00000000000E+00  0.70455035415E+03  0.70455035415E+03  0.25500000000E-02 0.  1.
          2   -1    0    0  501    0  0.00000000000E+00 -0.00000000000E+00 -0.24097717422E+04  0.24097717422E+04  0.25500000000E-02 0. -1.
    8880023    1    1    2    0    0 -0.66579593875E+03  0.10924463973E+03 -0.21111986021E+04  0.23121825981E+04  0.65864270000E+03 0. -1.
    8880022    1    1    2    0    0  0.66579593875E+03 -0.10924463973E+03  0.40597721400E+03  0.80213949826E+03  0.15294330000E+03 0.  0.
<mgrwt>
<rscale>  0 0.87265221E+03</rscale>
<asrwt>0</asrwt>
<pdfrwt beam="1">  1        2 0.37073411E+00 0.94288325E+03</pdfrwt>
<pdfrwt beam="2">  1       -2 0.10839236E+00 0.94288325E+03</pdfrwt>
<totfact> 0.27110161E+00</totfact>
</mgrwt>
</event>
<event>
 4    2  0.3747163E-007  0.1235170E+04  0.7818608E-02  0.9123670E-01
          2   -1    0    0  501    0  0.00000000000E+00  0.00000000000E+00  0.38197218169E+04  0.38197218169E+04  0.25500000000E-02 0. -1.
         -2   -1    0    0    0  501 -0.00000000000E+00 -0.00000000000E+00 -0.59627666037E+03  0.59627666038E+03  0.25500000000E-02 0.  1.
    8880023    1    1    2    0    0 -0.16534595869E+02  0.10447781118E+04  0.31191612474E+04  0.33548191887E+04  0.65864270000E+03 0. -1.
    8880022    1    1    2    0    0  0.16534595869E+02 -0.10447781118E+04  0.10428390918E+03  0.10611792886E+04  0.15294330000E+03 0.  0.
<mgrwt>
<rscale>  0 0.11877237E+04</rscale>
<asrwt>0</asrwt>
<pdfrwt beam="1">  1        2 0.58764954E+00 0.12351700E+04</pdfrwt>
<pdfrwt beam="2">  1       -2 0.91734866E-01 0.12351700E+04</pdfrwt>
<totfact> 0.48166908E-01</totfact>
</mgrwt>
</event>
<event>
 4    2  0.3747163E-007  0.7241893E+03  0.7818608E-02  0.9908658E-01
          2   -1    0    0  501    0  0.00000000000E+00  0.00000000000E+00  0.18787571821E+04  0.18787571821E+04  0.25500000000E-02 0. -1.
         -2   -1    0    0    0  501 -0.00000000000E+00 -0.00000000000E+00 -0.18091796153E+03  0.18091796155E+03  0.25500000000E-02 0.  1.
    8880023    1    1    2    0    0  0.63148358760E+02 -0.29436745428E+03  0.15065601675E+04  0.16715781938E+04  0.65864270000E+03 0.  0.
    8880022    1    1    2    0    0 -0.63148358760E+02  0.29436745428E+03  0.19127905310E+03  0.38809694990E+03  0.15294330000E+03 0.  0.
<mgrwt>
<rscale>  0 0.59843531E+03</rscale>
<asrwt>0</asrwt>
<pdfrwt beam="1">  1        2 0.28903957E+00 0.72418928E+03</pdfrwt>
<pdfrwt beam="2">  1       -2 0.27833533E-01 0.72418928E+03</pdfrwt>
<totfact> 0.94399441E+01</totfact>
</mgrwt>
</event>
<event>
 4    2  0.3747163E-007  0.7099116E+03  0.7818608E-02  0.9958329E-01
         -2   -1    0    0    0  501 -0.00000000000E+00  0.00000000000E+00  0.10490821578E+04  0.10490821578E+04  0.25500000000E-02 0.  1.
          2   -1    0    0  501    0  0.00000000000E+00 -0.00000000000E+00 -0.39453031767E+03  0.39453031768E+03  0.25500000000E-02 0. -1.
    8880023    1    1    2    0    0 -0.34842017326E+02 -0.26258389545E+03 -0.12236236074E+02  0.71001704209E+03  0.65864270000E+03 0. -1.
    8880022    1    1    2    0    0  0.34842017326E+02  0.26258389545E+03  0.66678807618E+03  0.73359543338E+03  0.15294330000E+03 0.  0.
<mgrwt>
<rscale>  0 0.57515793E+03</rscale>
<asrwt>0</asrwt>
<pdfrwt beam="1">  1        2 0.60696972E-01 0.70991160E+03</pdfrwt>
<pdfrwt beam="2">  1       -2 0.16139725E+00 0.70991160E+03</pdfrwt>
<totfact> 0.20209244E+01</totfact>
</mgrwt>
</event>
<event>
 4    2  0.3747163E-007  0.7641075E+03  0.7818608E-02  0.9794587E-01
          2   -1    0    0  501    0  0.00000000000E+00  0.00000000000E+00  0.29480258302E+04  0.29480258302E+04  0.25500000000E-02 0. -1.
         -2   -1    0    0    0  501 -0.00000000000E+00 -0.00000000000E+00 -0.54513411876E+03  0.54513411876E+03  0.25500000000E-02 0.  1.
    8880023    1    1    2    0    0 -0.23160287018E+03  0.31049999523E+03  0.28092378694E+04  0.29113017277E+04  0.65864270000E+03 0. -1.
    8880022    1    1    2    0    0  0.23160287018E+03 -0.31049999523E+03 -0.40634615798E+03  0.58185822125E+03  0.15294330000E+03 0.  0.
<mgrwt>
<rscale>  0 0.65653833E+03</rscale>
<asrwt>0</asrwt>
<pdfrwt beam="1">  1        2 0.45354244E+00 0.76410755E+03</pdfrwt>
<pdfrwt beam="2">  1       -2 0.83866786E-01 0.76410755E+03</pdfrwt>
<totfact> 0.24762282E+00</totfact>
</mgrwt>
</event>
<event>
 4    2  0.3747163E-007  0.8844551E+03  0.7818608E-02  0.9551461E-01
          2   -1    0    0  501    0  0.00000000000E+00  0.00000000000E+00  0.57289968666E+04  0.57289968666E+04  0.25500000000E-02 0. -1.
         -2   -1    0    0    0  501 -0.00000000000E+00 -0.00000000000E+00 -0.13900683214E+03  0.13900683217E+03  0.25500000000E-02 0.  1.
    8880023    1    1    2    0    0 -0.42788319271E+03  0.40665294176E+03  0.47405432827E+04  0.48223450170E+04  0.65864270000E+03 0.  0.
    8880022    1    1    2    0    0  0.42788319271E+03 -0.40665294176E+03  0.84944675175E+03  0.10456586818E+04  0.15294330000E+03 0.  0.
<mgrwt>
<rscale>  0 0.80593812E+03</rscale>
<asrwt>0</asrwt>
<pdfrwt beam="1">  1        2 0.88138408E+00 0.88445511E+03</pdfrwt>
<pdfrwt beam="2">  1       -2 0.21385668E-01 0.88445511E+03</pdfrwt>
<totfact> 0.46015231E-02</totfact>
</mgrwt>
</event>
<event>
 4    2  0.3747163E-007  0.9392624E+03  0.7818608E-02  0.9465734E-01
         -2   -1    0    0    0  501 -0.00000000000E+00  0.00000000000E+00  0.83218021968E+03  0.83218021969E+03  0.25500000000E-02 0.  1.
          2   -1    0    0  501    0  0.00000000000E+00 -0.00000000000E+00 -0.17925785786E+04  0.17925785786E+04  0.25500000000E-02 0. -1.
    8880023    1    1    2    0    0  0.19096705872E+03 -0.64182178711E+03 -0.14873087942E+04  0.17590626139E+04  0.65864270000E+03 0. -1.
    8880022    1    1    2    0    0 -0.19096705872E+03  0.64182178711E+03  0.52691043528E+03  0.86569618443E+03  0.15294330000E+03 0.  0.
<mgrwt>
<rscale>  0 0.86857914E+03</rscale>
<asrwt>0</asrwt>
<pdfrwt beam="1">  1        2 0.27578132E+00 0.93926239E+03</pdfrwt>
<pdfrwt beam="2">  1       -2 0.12802773E+00 0.93926239E+03</pdfrwt>
<totfact> 0.39470304E+00</totfact>
</mgrwt>
</event>
<event>
 4    2  0.3747163E-007  0.7240915E+03  0.7818608E-02  0.9908977E-01
         -2   -1    0    0    0  501 -0.00000000000E+00  0.00000000000E+00  0.49696167740E+03  0.49696167740E+03  0.25500000000E-02 0.  1.
          2   -1    0    0  501    0  0.00000000000E+00 -0.00000000000E+00 -0.19309205884E+04  0.19309205884E+04  0.25500000000E-02 0. -1.
    8880023    1    1    2    0    0 -0.26322065044E+03  0.14564729835E+03 -0.17938720097E+04  0.19344987051E+04  0.65864270000E+03 0. -1.
    8880022    1    1    2    0    0  0.26322065044E+03 -0.14564729835E+03  0.35991309874E+03  0.49338356073E+03  0.15294330000E+03 0.  0.
<mgrwt>
<rscale>  0 0.59828171E+03</rscale>
<asrwt>0</asrwt>
<pdfrwt beam="1">  1        2 0.29706470E+00 0.72409147E+03</pdfrwt>
<pdfrwt beam="2">  1       -2 0.76455644E-01 0.72409147E+03</pdfrwt>
<totfact> 0.11586767E+01</totfact>
</mgrwt>
</event>
<event>
 4    2  0.3747163E-007  0.8051879E+03  0.7818608E-02  0.9699689E-01
          2   -1    0    0  501    0  0.00000000000E+00  0.00000000000E+00  0.19446706503E+04  0.19446706503E+04  0.25500000000E-02 0. -1.
         -2   -1    0    0    0  501 -0.00000000000E+00 -0.00000000000E+00 -0.35135701639E+03  0.35135701640E+03  0.25500000000E-02 0.  1.
    8880023    1    1    2    0    0 -0.29790637424E+03  0.35463950641E+03  0.21418795577E+03  0.83318909857E+03  0.65864270000E+03 0.  0.
    8880022    1    1    2    0    0  0.29790637424E+03 -0.35463950641E+03  0.13791256782E+04  0.14628385682E+04  0.15294330000E+03 0.  0.
<mgrwt>
<rscale>  0 0.71035315E+03</rscale>
<asrwt>0</asrwt>
<pdfrwt beam="1">  1        2 0.29918010E+00 0.80518792E+03</pdfrwt>
<pdfrwt beam="2">  1       -2 0.54054926E-01 0.80518792E+03</pdfrwt>
<totfact> 0.23692691E+01</totfact>
</mgrwt>
</event>
<event>
 4    2  0.3747163E-007  0.7483748E+03  0.7818608E-02  0.9836191E-01
         -2   -1    0    0    0  501 -0.00000000000E+00  0.00000000000E+00  0.34639708731E+03  0.34639708732E+03  0.25500000000E-02 0.  1.
          2   -1    0    0  501    0  0.00000000000E+00 -0.00000000000E+00 -0.47298580185E+04  0.47298580185E+04  0.25500000000E-02 0. -1.
    8880023    1    1    2    0    0 -0.54235800842E+02  0.35115966842E+03 -0.45811173797E+04  0.46418424454E+04  0.65864270000E+03 0. -1.
    8880022    1    1    2    0    0  0.54235800842E+02 -0.35115966842E+03  0.19765644858E+03  0.43441266038E+03  0.15294330000E+03 0.  0.
<mgrwt>
<rscale>  0 0.63455988E+03</rscale>
<asrwt>0</asrwt>
<pdfrwt beam="1">  1        2 0.72767042E+00 0.74837480E+03</pdfrwt>
<pdfrwt beam="2">  1       -2 0.53291863E-01 0.74837480E+03</pdfrwt>
<totfact> 0.27431669E-01</totfact>
</mgrwt>
</event>
<event>
 4    2  0.3747163E-007  0.1202196E+04  0.7818608E-02  0.9154991E-01
          2   -1    0    0  501    0  0.00000000000E+00  0.00000000000E+00  0.29628447299E+04  0.29628447299E+04  0.25500000000E-02 0. -1.
         -2   -1    0    0    0  501 -0.00000000000E+00 -0.00000000000E+00 -0.64621215507E+03  0.64621215508E+03  0.25500000000E-02 0.  1.
    8880023    1    1    2    0    0  0.90694978604E+03  0.43463388139E+03  0.22958525365E+04  0.25915658589E+04  0.65864270000E+03 0.  0.
    8880022    1    1    2    0    0 -0.90694978604E+03 -0.43463388139E+03  0.20780038353E+02  0.10174910261E+04  0.15294330000E+03 0.  0.
<mgrwt>
<rscale>  0 0.11530321E+04</rscale>
<asrwt>0</asrwt>
<pdfrwt beam="1">  1        2 0.45582227E+00 0.12021958E+04</pdfrwt>
<pdfrwt beam="2">  1       -2 0.99417254E-01 0.12021958E+04</pdfrwt>
<totfact> 0.15225704E+00</totfact>
</mgrwt>
</event>
<event>
 4    2  0.3747163E-007  0.6653238E+03  0.7818608E-02  0.1019263E+00
          2   -1    0    0  501    0  0.00000000000E+00  0.00000000000E+00  0.25365206669E+04  0.25365206669E+04  0.25500000000E-02 0. -1.
         -2   -1    0    0    0  501 -0.00000000000E+00 -0.00000000000E+00 -0.10058081097E+03  0.10058081100E+03  0.25500000000E-02 0.  1.
    8880023    1    1    2    0    0  0.19581247012E+02  0.91989870064E+02  0.23415854200E+04  0.24342715639E+04  0.65864270000E+03 0.  0.
    8880022    1    1    2    0    0 -0.19581247012E+02 -0.91989870064E+02  0.94354435988E+02  0.20282991405E+03  0.15294330000E+03 0.  0.
<mgrwt>
<rscale>  0 0.47953409E+03</rscale>
<asrwt>0</asrwt>
<pdfrwt beam="1">  1        2 0.39023394E+00 0.66532381E+03</pdfrwt>
<pdfrwt beam="2">  1       -2 0.15473971E-01 0.66532381E+03</pdfrwt>
<totfact> 0.11567752E+02</totfact>
</mgrwt>
</event>
<event>
 4    2  0.3747163E-007  0.8425506E+03  0.7818608E-02  0.9625390E-01
         -2   -1    0    0    0  501 -0.00000000000E+00  0.00000000000E+00  0.78860347565E+03  0.78860347566E+03  0.25500000000E-02 0.  1.
          2   -1    0    0  501    0  0.00000000000E+00 -0.00000000000E+00 -0.12120768532E+04  0.12120768532E+04  0.25500000000E-02 0. -1.
    8880023    1    1    2    0    0 -0.18918023095E+02 -0.52509369471E+03 -0.93006408438E+03  0.12549544562E+04  0.65864270000E+03 0.  0.
    8880022    1    1    2    0    0  0.18918023095E+02  0.52509369471E+03  0.50659070686E+03  0.74572587263E+03  0.15294330000E+03 0.  0.
<mgrwt>
<rscale>  0 0.75638287E+03</rscale>
<asrwt>0</asrwt>
<pdfrwt beam="1">  1        2 0.18647336E+00 0.84255058E+03</pdfrwt>
<pdfrwt beam="2">  1       -2 0.12132361E+00 0.84255058E+03</pdfrwt>
<totfact> 0.97100886E+00</totfact>
</mgrwt>
</event>
<event>
 4    2  0.3747163E-007  0.7472025E+03  0.7818608E-02  0.9839442E-01
          2   -1    0    0  501    0  0.00000000000E+00  0.00000000000E+00  0.17281257548E+03  0.17281257550E+03  0.25500000000E-02 0. -1.
         -2   -1    0    0    0  501 -0.00000000000E+00 -0.00000000000E+00 -0.19451623028E+04  0.19451623028E+04  0.25500000000E-02 0.  1.
    8880023    1    1    2    0    0 -0.21801150941E+03  0.27743891734E+03 -0.93775232296E+03  0.11990375293E+04  0.65864270000E+03 0.  0.
    8880022    1    1    2    0    0  0.21801150941E+03 -0.27743891734E+03 -0.83459740441E+03  0.91893734909E+03  0.15294330000E+03 0. -1.
<mgrwt>
<rscale>  0 0.63288121E+03</rscale>
<asrwt>0</asrwt>
<pdfrwt beam="1">  1        2 0.26586551E-01 0.74720250E+03</pdfrwt>
<pdfrwt beam="2">  1       -2 0.29925572E+00 0.74720250E+03</pdfrwt>
<totfact> 0.68122957E+00</totfact>
</mgrwt>
</event>
<event>
 4    2  0.3747163E-007  0.7716760E+03  0.7818608E-02  0.9775766E-01
         -2   -1    0    0    0  501 -0.00000000000E+00  0.00000000000E+00  0.84068865452E+03  0.84068865453E+03  0.25500000000E-02 0.  1.
          2   -1    0    0  501    0  0.00000000000E+00 -0.00000000000E+00 -0.15253558300E+04  0.15253558300E+04  0.25500000000E-02 0. -1.
    8880023    1    1    2    0    0  0.34541090119E+03  0.20582736124E+03 -0.13609665723E+04  0.15645171173E+04  0.65864270000E+03 0.  0.
    8880022    1    1    2    0    0 -0.34541090119E+03 -0.20582736124E+03  0.67629939678E+03  0.80152736722E+03  0.15294330000E+03 0.  0.
<mgrwt>
<rscale>  0 0.66679424E+03</rscale>
<asrwt>0</asrwt>
<pdfrwt beam="1">  1        2 0.23467013E+00 0.77167597E+03</pdfrwt>
<pdfrwt beam="2">  1       -2 0.12933672E+00 0.77167597E+03</pdfrwt>
<totfact> 0.55264017E+00</totfact>
</mgrwt>
</event>
<event>
 4    2  0.3747163E-007  0.9016627E+03  0.7818608E-02  0.9523368E-01
         -2   -1    0    0    0  501 -0.00000000000E+00  0.00000000000E+00  0.46098366087E+03  0.46098366087E+03  0.25500000000E-02 0.  1.
          2   -1    0    0  501    0  0.00000000000E+00 -0.00000000000E+00 -0.12845174886E+04  0.12845174886E+04  0.25500000000E-02 0. -1.
    8880023    1    1    2    0    0 -0.13711365545E+03  0.60032096051E+03 -0.53551332659E+03  0.10486992607E+04  0.65864270000E+03 0.  0.
    8880022    1    1    2    0    0  0.13711365545E+03 -0.60032096051E+03 -0.28802050113E+03  0.69680188879E+03  0.15294330000E+03 0.  1.
<mgrwt>
<rscale>  0 0.82582724E+03</rscale>
<asrwt>0</asrwt>
<pdfrwt beam="1">  1        2 0.19761807E+00 0.90166270E+03</pdfrwt>
<pdfrwt beam="2">  1       -2 0.70920564E-01 0.90166270E+03</pdfrwt>
<totfact> 0.30644778E+01</totfact>
</mgrwt>
</event>
<event>
 4    2  0.3747163E-007  0.7050776E+03  0.7818608E-02  0.9976755E-01
         -2   -1    0    0    0  501 -0.00000000000E+00  0.00000000000E+00  0.39921290248E+03  0.39921290249E+03  0.25500000000E-02 0.  1.
          2   -1    0    0  501    0  0.00000000000E+00 -0.00000000000E+00 -0.62733548246E+03  0.62733548246E+03  0.25500000000E-02 0. -1.
    8880023    1    1    2    0    0 -0.21829501608E+02 -0.25069447738E+03 -0.18488976682E+03  0.72891609961E+03  0.65864270000E+03 0. -1.
    8880022    1    1    2    0    0  0.21829501608E+02  0.25069447738E+03 -0.43232813154E+02  0.29763228534E+03  0.15294330000E+03 0.  1.
<mgrwt>
<rscale>  0 0.56681331E+03</rscale>
<asrwt>0</asrwt>
<pdfrwt beam="1">  1        2 0.96513151E-01 0.70507762E+03</pdfrwt>
<pdfrwt beam="2">  1       -2 0.61417370E-01 0.70507762E+03</pdfrwt>
<totfact> 0.11737727E+02</totfact>
</mgrwt>
</event>
<event>
 4    2  0.3747163E-007  0.7877924E+03  0.7818608E-02  0.9737841E-01
         -2   -1    0    0    0  501 -0.00000000000E+00  0.00000000000E+00  0.46008001693E+03  0.46008001694E+03  0.25500000000E-02 0.  1.
          2   -1    0    0  501    0  0.00000000000E+00 -0.00000000000E+00 -0.16001080116E+04  0.16001080116E+04  0.25500000000E-02 0. -1.
    8880023    1    1    2    0    0 -0.39483267015E+03  0.17582307027E+03 -0.13444099147E+04  0.15582216834E+04  0.65864270000E+03 0. -1.
    8880022    1    1    2    0    0  0.39483267015E+03 -0.17582307027E+03  0.20438192003E+03  0.50196634520E+03  0.15294330000E+03 0.  0.
<mgrwt>
<rscale>  0 0.68807766E+03</rscale>
<asrwt>0</asrwt>
<pdfrwt beam="1">  1        2 0.24617046E+00 0.78779236E+03</pdfrwt>
<pdfrwt beam="2">  1       -2 0.70781542E-01 0.78779236E+03</pdfrwt>
<totfact> 0.20655814E+01</totfact>
</mgrwt>
</event>
<event>
 4    2  0.3747163E-007  0.6668134E+03  0.7818608E-02  0.1018058E+00
         -2   -1    0    0    0  501 -0.00000000000E+00  0.00000000000E+00  0.10389563652E+04  0.10389563652E+04  0.25500000000E-02 0.  1.
          2   -1    0    0  501    0  0.00000000000E+00 -0.00000000000E+00 -0.26589050462E+03  0.26589050463E+03  0.25500000000E-02 0. -1.
    8880023    1    1    2    0    0 -0.64578045981E+02  0.81606554053E+02  0.19031816643E+03  0.69344153641E+03  0.65864270000E+03 0.  0.
    8880022    1    1    2    0    0  0.64578045981E+02 -0.81606554053E+02  0.58274769419E+03  0.61140533346E+03  0.15294330000E+03 0.  0.
<mgrwt>
<rscale>  0 0.48393920E+03</rscale>
<asrwt>0</asrwt>
<pdfrwt beam="1">  1        2 0.40906231E-01 0.66681344E+03</pdfrwt>
<pdfrwt beam="2">  1       -2 0.15983944E+00 0.66681344E+03</pdfrwt>
<totfact> 0.32306723E+01</totfact>
</mgrwt>
</event>
<event>
 4    2  0.3747163E-007  0.6882395E+03  0.7818608E-02  0.1005001E+00
          2   -1    0    0  501    0  0.00000000000E+00  0.00000000000E+00  0.21953003433E+04  0.21953003433E+04  0.25500000000E-02 0. -1.
         -2   -1    0    0    0  501 -0.00000000000E+00 -0.00000000000E+00 -0.24248044576E+03  0.24248044578E+03  0.25500000000E-02 0.  1.
    8880023    1    1    2    0    0  0.16380483902E+03  0.11415515854E+03  0.20543382948E+04  0.21665593602E+04  0.65864270000E+03 0. -1.
    8880022    1    1    2    0    0 -0.16380483902E+03 -0.11415515854E+03 -0.10151839723E+03  0.27122142891E+03  0.15294330000E+03 0.  0.
<mgrwt>
<rscale>  0 0.53510823E+03</rscale>
<asrwt>0</asrwt>
<pdfrwt beam="1">  1        2 0.33773851E+00 0.68823952E+03</pdfrwt>
<pdfrwt beam="2">  1       -2 0.37304684E-01 0.68823952E+03</pdfrwt>
<totfact> 0.36761949E+01</totfact>
</mgrwt>
</event>
<event>
 4    2  0.3747163E-007  0.8504683E+03  0.7818608E-02  0.9610749E-01
         -2   -1    0    0    0  501 -0.00000000000E+00  0.00000000000E+00  0.19236113976E+04  0.19236113976E+04  0.25500000000E-02 0.  1.
          2   -1    0    0  501    0  0.00000000000E+00 -0.00000000000E+00 -0.43580487479E+03  0.43580487480E+03  0.25500000000E-02 0. -1.
    8880023    1    1    2    0    0  0.53100610922E+03  0.86709825284E+02  0.91667288904E+02  0.85539416642E+03  0.65864270000E+03 0. -1.
    8880022    1    1    2    0    0 -0.53100610922E+03 -0.86709825284E+02  0.13961392340E+04  0.15040221060E+04  0.15294330000E+03 0.  0.
<mgrwt>
<rscale>  0 0.76588828E+03</rscale>
<asrwt>0</asrwt>
<pdfrwt beam="1">  1        2 0.67046903E-01 0.85046828E+03</pdfrwt>
<pdfrwt beam="2">  1       -2 0.29594022E+00 0.85046828E+03</pdfrwt>
<totfact> 0.24898219E+00</totfact>
</mgrwt>
</event>
<event>
 4    2  0.3747163E-007  0.6970980E+03  0.7818608E-02  0.1000946E+00
         -2   -1    0    0    0  501 -0.00000000000E+00  0.00000000000E+00  0.10121425827E+04  0.10121425827E+04  0.25500000000E-02 0.  1.
          2   -1    0    0  501    0  0.00000000000E+00 -0.00000000000E+00 -0.67540824575E+03  0.67540824575E+03  0.25500000000E-02 0. -1.
    8880023    1    1    2    0    0 -0.21666538620E+03 -0.72052675450E+02 -0.46637576482E+03  0.83872047661E+03  0.65864270000E+03 0. -1.
    8880022    1    1    2    0    0  0.21666538620E+03  0.72052675450E+02  0.80311010179E+03  0.84883035185E+03  0.15294330000E+03 0.  0.
<mgrwt>
<rscale>  0 0.55237406E+03</rscale>
<asrwt>0</asrwt>
<pdfrwt beam="1">  1        2 0.10390896E+00 0.69709804E+03</pdfrwt>
<pdfrwt beam="2">  1       -2 0.15571424E+00 0.69709804E+03</pdfrwt>
<totfact> 0.11870404E+01</totfact>
</mgrwt>
</event>
<event>
 4    2  0.3747163E-007  0.1053569E+04  0.7818608E-02  0.9314603E-01
          2   -1    0    0  501    0  0.00000000000E+00  0.00000000000E+00  0.29200868976E+04  0.29200868976E+04  0.25500000000E-02 0. -1.
         -2   -1    0    0    0  501 -0.00000000000E+00 -0.00000000000E+00 -0.64725522434E+03  0.64725522435E+03  0.25500000000E-02 0.  1.
    8880023    1    1    2    0    0  0.45016429225E+03 -0.68814980111E+03  0.24895502859E+04  0.27033070249E+04  0.65864270000E+03 0. -1.
    8880022    1    1    2    0    0 -0.45016429225E+03  0.68814980111E+03 -0.21671861264E+03  0.86403509701E+03  0.15294330000E+03 0.  0.
<mgrwt>
<rscale>  0 0.99449534E+03</rscale>
<asrwt>0</asrwt>
<pdfrwt beam="1">  1        2 0.44924414E+00 0.10535693E+04</pdfrwt>
<pdfrwt beam="2">  1       -2 0.99577727E-01 0.10535693E+04</pdfrwt>
<totfact> 0.16442709E+00</totfact>
</mgrwt>
</event>
<event>
 4    2  0.3747163E-007  0.7563302E+03  0.7818608E-02  0.9814703E-01
          2   -1    0    0  501    0  0.00000000000E+00  0.00000000000E+00  0.38648294851E+04  0.38648294851E+04  0.25500000000E-02 0. -1.
         -2   -1    0    0    0  501 -0.00000000000E+00 -0.00000000000E+00 -0.13048941072E+03  0.13048941074E+03  0.25500000000E-02 0.  1.
    8880023    1    1    2    0    0  0.35785376444E+03 -0.10082552747E+03  0.33664943348E+04  0.34504085868E+04  0.65864270000E+03 0.  0.
    8880022    1    1    2    0    0 -0.35785376444E+03  0.10082552747E+03  0.36784573963E+03  0.54491030904E+03  0.15294330000E+03 0.  0.
<mgrwt>
<rscale>  0 0.64579453E+03</rscale>
<asrwt>0</asrwt>
<pdfrwt beam="1">  1        2 0.59458916E+00 0.75633016E+03</pdfrwt>
<pdfrwt beam="2">  1       -2 0.20075294E-01 0.75633016E+03</pdfrwt>
<totfact> 0.10152170E+01</totfact>
</mgrwt>
</event>
<event>
 4    2  0.3747163E-007  0.9891800E+03  0.7818608E-02  0.9395852E-01
          2   -1    0    0  501    0  0.00000000000E+00  0.00000000000E+00  0.75558474242E+03  0.75558474243E+03  0.25500000000E-02 0. -1.
         -2   -1    0    0    0  501 -0.00000000000E+00 -0.00000000000E+00 -0.12351674167E+04  0.12351674167E+04  0.25500000000E-02 0.  1.
    8880023    1    1    2    0    0  0.60061564963E+03 -0.42886800412E+03  0.16027208709E+03  0.10020799727E+04  0.65864270000E+03 0.  0.
    8880022    1    1    2    0    0 -0.60061564963E+03  0.42886800412E+03 -0.63985476134E+03  0.98867218640E+03  0.15294330000E+03 0.  0.
<mgrwt>
<rscale>  0 0.92417804E+03</rscale>
<asrwt>0</asrwt>
<pdfrwt beam="1">  1        2 0.11624381E+00 0.98918003E+03</pdfrwt>
<pdfrwt beam="2">  1       -2 0.19002576E+00 0.98918003E+03</pdfrwt>
<totfact> 0.57178049E+00</totfact>
</mgrwt>
</event>
<event>
 4    2  0.3747163E-007  0.6712665E+03  0.7818608E-02  0.1014771E+00
         -2   -1    0    0    0  501 -0.00000000000E+00  0.00000000000E+00  0.53241012427E+03  0.53241012428E+03  0.25500000000E-02 0.  1.
          2   -1    0    0  501    0  0.00000000000E+00 -0.00000000000E+00 -0.46841612611E+03  0.46841612612E+03  0.25500000000E-02 0. -1.
    8880023    1    1    2    0    0  0.10863532527E+03 -0.70617926641E+02 -0.17025384532E+03  0.69252083259E+03  0.65864270000E+03 0. -1.
    8880022    1    1    2    0    0 -0.10863532527E+03  0.70617926641E+02  0.23424784349E+03  0.30830541781E+03  0.15294330000E+03 0.  0.
<mgrwt>
<rscale>  0 0.49621823E+03</rscale>
<asrwt>0</asrwt>
<pdfrwt beam="1">  1        2 0.72064019E-01 0.67126651E+03</pdfrwt>
<pdfrwt beam="2">  1       -2 0.81909250E-01 0.67126651E+03</pdfrwt>
<totfact> 0.88402532E+01</totfact>
</mgrwt>
</event>
<event>
 4    2  0.3747163E-007  0.7481425E+03  0.7818608E-02  0.9836833E-01
          2   -1    0    0  501    0  0.00000000000E+00  0.00000000000E+00  0.33200283945E+03  0.33200283946E+03  0.25500000000E-02 0. -1.
         -2   -1    0    0    0  501 -0.00000000000E+00 -0.00000000000E+00 -0.11268652356E+04  0.11268652356E+04  0.25500000000E-02 0.  1.
    8880023    1    1    2    0    0  0.12939808937E+03  0.33039853370E+03 -0.24582199344E+03  0.78749331129E+03  0.65864270000E+03 0. -1.
    8880022    1    1    2    0    0 -0.12939808937E+03 -0.33039853370E+03 -0.54904040267E+03  0.67137476373E+03  0.15294330000E+03 0. -1.
<mgrwt>
<rscale>  0 0.63422779E+03</rscale>
<asrwt>0</asrwt>
<pdfrwt beam="1">  1        2 0.51077360E-01 0.74814254E+03</pdfrwt>
<pdfrwt beam="2">  1       -2 0.17336388E+00 0.74814254E+03</pdfrwt>
<totfact> 0.20066002E+01</totfact>
</mgrwt>
</event>
<event>
 4    2  0.3747163E-007  0.6646169E+03  0.7818608E-02  0.1019857E+00
          2   -1    0    0  501    0  0.00000000000E+00  0.00000000000E+00  0.15579322854E+04  0.15579322854E+04  0.25500000000E-02 0. -1.
         -2   -1    0    0    0  501 -0.00000000000E+00 -0.00000000000E+00 -0.13142107646E+03  0.13142107649E+03  0.25500000000E-02 0.  1.
    8880023    1    1    2    0    0  0.37111755409E+02 -0.80796593732E+02  0.13324181293E+04  0.14889773838E+04  0.65864270000E+03 0. -1.
    8880022    1    1    2    0    0 -0.37111755409E+02  0.80796593732E+02  0.94093079667E+02  0.20037597811E+03  0.15294330000E+03 0.  0.
<mgrwt>
<rscale>  0 0.47738240E+03</rscale>
<asrwt>0</asrwt>
<pdfrwt beam="1">  1        2 0.23968187E+00 0.66461687E+03</pdfrwt>
<pdfrwt beam="2">  1       -2 0.20218629E-01 0.66461687E+03</pdfrwt>
<totfact> 0.25178791E+02</totfact>
</mgrwt>
</event>
<event>
 4    2  0.3747163E-007  0.8009685E+03  0.7818608E-02  0.9708706E-01
          2   -1    0    0  501    0  0.00000000000E+00  0.00000000000E+00  0.75604420452E+03  0.75604420452E+03  0.25500000000E-02 0. -1.
         -2   -1    0    0    0  501 -0.00000000000E+00 -0.00000000000E+00 -0.15783558438E+04  0.15783558438E+04  0.25500000000E-02 0.  1.
    8880023    1    1    2    0    0  0.15142169290E+03 -0.42989744788E+03  0.48851708974E+03  0.93818947873E+03  0.65864270000E+03 0. -1.
    8880022    1    1    2    0    0 -0.15142169290E+03  0.42989744788E+03 -0.13108287290E+04  0.13962105696E+04  0.15294330000E+03 0.  0.
<mgrwt>
<rscale>  0 0.70500807E+03</rscale>
<asrwt>0</asrwt>
<pdfrwt beam="1">  1        2 0.11631449E+00 0.80096851E+03</pdfrwt>
<pdfrwt beam="2">  1       -2 0.24282398E+00 0.80096851E+03</pdfrwt>
<totfact> 0.26988515E+00</totfact>
</mgrwt>
</event>
<event>
 4    2  0.3747163E-007  0.9774795E+03  0.7818608E-02  0.9411633E-01
          2   -1    0    0  501    0  0.00000000000E+00  0.00000000000E+00  0.13871823643E+04  0.13871823643E+04  0.25500000000E-02 0. -1.
         -2   -1    0    0    0  501 -0.00000000000E+00 -0.00000000000E+00 -0.83668134375E+03  0.83668134376E+03  0.25500000000E-02 0.  1.
    8880023    1    1    2    0    0  0.70657823116E+03 -0.14967687795E+03  0.96803245942E+03  0.13757009171E+04  0.65864270000E+03 0.  0.
    8880022    1    1    2    0    0 -0.70657823116E+03  0.14967687795E+03 -0.41753143886E+03  0.84816279098E+03  0.15294330000E+03 0.  0.
<mgrwt>
<rscale>  0 0.91124477E+03</rscale>
<asrwt>0</asrwt>
<pdfrwt beam="1">  1        2 0.21341267E+00 0.97747950E+03</pdfrwt>
<pdfrwt beam="2">  1       -2 0.12872021E+00 0.97747950E+03</pdfrwt>
<totfact> 0.65227970E+00</totfact>
</mgrwt>
</event>
<event>
 4    2  0.3747163E-007  0.1075112E+04  0.7818608E-02  0.9289285E-01
          2   -1    0    0  501    0  0.00000000000E+00  0.00000000000E+00  0.28176165883E+04  0.28176165883E+04  0.25500000000E-02 0. -1.
         -2   -1    0    0    0  501 -0.00000000000E+00 -0.00000000000E+00 -0.51587674102E+03  0.51587674103E+03  0.25500000000E-02 0.  1.
    8880023    1    1    2    0    0 -0.39463238613E+03  0.75254315567E+03  0.22195147033E+04  0.24661937567E+04  0.65864270000E+03 0.  0.
    8880022    1    1    2    0    0  0.39463238613E+03 -0.75254315567E+03  0.82225144006E+02  0.86729957261E+03  0.15294330000E+03 0.  0.
<mgrwt>
<rscale>  0 0.10177532E+04</rscale>
<asrwt>0</asrwt>
<pdfrwt beam="1">  1        2 0.43347946E+00 0.10751121E+04</pdfrwt>
<pdfrwt beam="2">  1       -2 0.79365654E-01 0.10751121E+04</pdfrwt>
<totfact> 0.31953210E+00</totfact>
</mgrwt>
</event>
<event>
 4    2  0.3747163E-007  0.1435184E+04  0.7818608E-02  0.8956815E-01
          2   -1    0    0  501    0  0.00000000000E+00  0.00000000000E+00  0.17176164756E+04  0.17176164756E+04  0.25500000000E-02 0. -1.
         -2   -1    0    0    0  501 -0.00000000000E+00 -0.00000000000E+00 -0.20309397331E+04  0.20309397331E+04  0.25500000000E-02 0.  1.
    8880023    1    1    2    0    0  0.49669308685E+03 -0.11744099004E+04 -0.14451566958E+04  0.20367205793E+04  0.65864270000E+03 0.  0.
    8880022    1    1    2    0    0 -0.49669308685E+03  0.11744099004E+04  0.11318334384E+04  0.17118356294E+04  0.15294330000E+03 0.  0.
<mgrwt>
<rscale>  0 0.13958677E+04</rscale>
<asrwt>0</asrwt>
<pdfrwt beam="1">  1        2 0.26424869E+00 0.14351839E+04</pdfrwt>
<pdfrwt beam="2">  1       -2 0.31245226E+00 0.14351839E+04</pdfrwt>
<totfact> 0.24195382E-01</totfact>
</mgrwt>
</event>
<event>
 4    2  0.3747163E-007  0.6833995E+03  0.7818608E-02  0.1007463E+00
         -2   -1    0    0    0  501 -0.00000000000E+00  0.00000000000E+00  0.63483401672E+03  0.63483401673E+03  0.25500000000E-02 0.  1.
          2   -1    0    0  501    0  0.00000000000E+00 -0.00000000000E+00 -0.12536256822E+04  0.12536256822E+04  0.25500000000E-02 0. -1.
    8880023    1    1    2    0    0 -0.14196773572E+03  0.11432337578E+03 -0.11322733446E+04  0.13225270528E+04  0.65864270000E+03 0. -1.
    8880022    1    1    2    0    0  0.14196773572E+03 -0.11432337578E+03  0.51348167908E+03  0.56593264617E+03  0.15294330000E+03 0.  0.
<mgrwt>
<rscale>  0 0.52495697E+03</rscale>
<asrwt>0</asrwt>
<pdfrwt beam="1">  1        2 0.19286549E+00 0.68339950E+03</pdfrwt>
<pdfrwt beam="2">  1       -2 0.97666772E-01 0.68339950E+03</pdfrwt>
<totfact> 0.15811796E+01</totfact>
</mgrwt>
</event>
<event>
 4    2  0.3747163E-007  0.6635004E+03  0.7818608E-02  0.1020826E+00
          2   -1    0    0  501    0  0.00000000000E+00  0.00000000000E+00  0.16232886812E+04  0.16232886812E+04  0.25500000000E-02 0. -1.
         -2   -1    0    0    0  501 -0.00000000000E+00 -0.00000000000E+00 -0.11009825741E+03  0.11009825744E+03  0.25500000000E-02 0.  1.
    8880023    1    1    2    0    0  0.69829752823E+02 -0.39323230668E+02  0.12955672212E+04  0.14555848109E+04  0.65864270000E+03 0. -1.
    8880022    1    1    2    0    0 -0.69829752823E+02  0.39323230668E+02  0.21762320257E+03  0.27780212771E+03  0.15294330000E+03 0.  0.
<mgrwt>
<rscale>  0 0.47389671E+03</rscale>
<asrwt>0</asrwt>
<pdfrwt beam="1">  1        2 0.24973667E+00 0.66350035E+03</pdfrwt>
<pdfrwt beam="2">  1       -2 0.16938197E-01 0.66350035E+03</pdfrwt>
<totfact> 0.31487643E+02</totfact>
</mgrwt>
</event>
<event>
 4    2  0.3747163E-007  0.1431798E+04  0.7818608E-02  0.8959360E-01
         -2   -1    0    0    0  501 -0.00000000000E+00  0.00000000000E+00  0.12723820566E+04  0.12723820566E+04  0.25500000000E-02 0.  1.
          2   -1    0    0  501    0  0.00000000000E+00 -0.00000000000E+00 -0.17022013420E+04  0.17022013420E+04  0.25500000000E-02 0. -1.
    8880023    1    1    2    0    0  0.12435257217E+04  0.26434906084E+03 -0.80199870780E+03  0.16411120559E+04  0.65864270000E+03 0. -1.
    8880022    1    1    2    0    0 -0.12435257217E+04 -0.26434906084E+03  0.37217942238E+03  0.13334713428E+04  0.15294330000E+03 0.  1.
<mgrwt>
<rscale>  0 0.13923698E+04</rscale>
<asrwt>0</asrwt>
<pdfrwt beam="1">  1        2 0.26187713E+00 0.14317985E+04</pdfrwt>
<pdfrwt beam="2">  1       -2 0.19575108E+00 0.14317985E+04</pdfrwt>
<totfact> 0.13139737E+00</totfact>
</mgrwt>
</event>
<event>
 4    2  0.3747163E-007  0.7026982E+03  0.7818608E-02  0.9986187E-01
          2   -1    0    0  501    0  0.00000000000E+00  0.00000000000E+00  0.32516257598E+03  0.32516257599E+03  0.25500000000E-02 0. -1.
         -2   -1    0    0    0  501 -0.00000000000E+00 -0.00000000000E+00 -0.14326686081E+04  0.14326686081E+04  0.25500000000E-02 0.  1.
    8880023    1    1    2    0    0 -0.22799920738E+03 -0.89392095113E+02 -0.10001113010E+03  0.70977955566E+03  0.65864270000E+03 0. -1.
    8880022    1    1    2    0    0  0.22799920738E+03  0.89392095113E+02 -0.10074949021E+04  0.10480516285E+04  0.15294330000E+03 0.  0.
<mgrwt>
<rscale>  0 0.56260089E+03</rscale>
<asrwt>0</asrwt>
<pdfrwt beam="1">  1        2 0.50025013E-01 0.70269822E+03</pdfrwt>
<pdfrwt beam="2">  1       -2 0.22041055E+00 0.70269822E+03</pdfrwt>
<totfact> 0.10119600E+01</totfact>
</mgrwt>
</event>
<event>
 4    2  0.3747163E-007  0.8710201E+03  0.7818608E-02  0.9574254E-01
         -2   -1    0    0    0  501 -0.00000000000E+00  0.00000000000E+00  0.23923101269E+03  0.23923101270E+03  0.25500000000E-02 0.  1.
          2   -1    0    0  501    0  0.00000000000E+00 -0.00000000000E+00 -0.28366035238E+04  0.28366035238E+04  0.25500000000E-02 0. -1.
    8880023    1    1    2    0    0 -0.61883453532E+02  0.56660057571E+03 -0.21952046923E+04  0.23616942270E+04  0.65864270000E+03 0.  0.
    8880022    1    1    2    0    0  0.61883453532E+02 -0.56660057571E+03 -0.40216781877E+03  0.71414030952E+03  0.15294330000E+03 0.  0.
<mgrwt>
<rscale>  0 0.79023939E+03</rscale>
<asrwt>0</asrwt>
<pdfrwt beam="1">  1        2 0.43640052E+00 0.87102008E+03</pdfrwt>
<pdfrwt beam="2">  1       -2 0.36804773E-01 0.87102008E+03</pdfrwt>
<totfact> 0.15834157E+01</totfact>
</mgrwt>
</event>
<event>
 4    2  0.3747163E-007  0.7290316E+03  0.7818608E-02  0.9893133E-01
         -2   -1    0    0    0  501 -0.00000000000E+00  0.00000000000E+00  0.37154376472E+03  0.37154376473E+03  0.25500000000E-02 0.  1.
          2   -1    0    0  501    0  0.00000000000E+00 -0.00000000000E+00 -0.12194846533E+04  0.12194846533E+04  0.25500000000E-02 0. -1.
    8880023    1    1    2    0    0  0.31243478448E+03  0.78382005688E+01 -0.97777619944E+03  0.12196447985E+04  0.65864270000E+03 0. -1.
    8880022    1    1    2    0    0 -0.31243478448E+03 -0.78382005688E+01  0.12983531085E+03  0.37138361959E+03  0.15294330000E+03 0.  0.
<mgrwt>
<rscale>  0 0.60595269E+03</rscale>
<asrwt>0</asrwt>
<pdfrwt beam="1">  1        2 0.18761302E+00 0.72903164E+03</pdfrwt>
<pdfrwt beam="2">  1       -2 0.57160580E-01 0.72903164E+03</pdfrwt>
<totfact> 0.53940461E+01</totfact>
</mgrwt>
</event>
<event>
 4    2  0.3747163E-007  0.8584878E+03  0.7818608E-02  0.9596259E-01
         -2   -1    0    0    0  501 -0.00000000000E+00  0.00000000000E+00  0.48309836976E+03  0.48309836977E+03  0.25500000000E-02 0.  1.
          2   -1    0    0  501    0  0.00000000000E+00 -0.00000000000E+00 -0.27555344845E+04  0.27555344845E+04  0.25500000000E-02 0. -1.
    8880023    1    1    2    0    0  0.24894802904E+03 -0.49113738510E+03 -0.24848417626E+04  0.26289617425E+04  0.65864270000E+03 0. -1.
    8880022    1    1    2    0    0 -0.24894802904E+03  0.49113738510E+03  0.21240564788E+03  0.60967111173E+03  0.15294330000E+03 0.  0.
<mgrwt>
<rscale>  0 0.77544274E+03</rscale>
<asrwt>0</asrwt>
<pdfrwt beam="1">  1        2 0.42392837E+00 0.85848777E+03</pdfrwt>
<pdfrwt beam="2">  1       -2 0.74322828E-01 0.85848777E+03</pdfrwt>
<totfact> 0.41598475E+00</totfact>
</mgrwt>
</event>
<event>
 4    2  0.3747163E-007  0.8378848E+03  0.7818608E-02  0.9634182E-01
         -2   -1    0    0    0  501 -0.00000000000E+00  0.00000000000E+00  0.91623651842E+03  0.91623651843E+03  0.25500000000E-02 0.  1.
          2   -1    0    0  501    0  0.00000000000E+00 -0.00000000000E+00 -0.16591351866E+04  0.16591351866E+04  0.25500000000E-02 0. -1.
    8880023    1    1    2    0    0  0.43164046085E+03 -0.28622922893E+03 -0.14565924922E+04  0.16803905955E+04  0.65864270000E+03 0.  0.
    8880022    1    1    2    0    0 -0.43164046085E+03  0.28622922893E+03  0.71369382401E+03  0.89498110951E+03  0.15294330000E+03 0.  0.
<mgrwt>
<rscale>  0 0.75074539E+03</rscale>
<asrwt>0</asrwt>
<pdfrwt beam="1">  1        2 0.25525157E+00 0.83788476E+03</pdfrwt>
<pdfrwt beam="2">  1       -2 0.14095946E+00 0.83788476E+03</pdfrwt>
<totfact> 0.37032204E+00</totfact>
</mgrwt>
</event>
<event>
 4    2  0.3747163E-007  0.9199306E+03  0.7818608E-02  0.9494765E-01
          2   -1    0    0  501    0  0.00000000000E+00  0.00000000000E+00  0.11818487995E+04  0.11818487995E+04  0.25500000000E-02 0. -1.
         -2   -1    0    0    0  501 -0.00000000000E+00 -0.00000000000E+00 -0.70034219548E+03  0.70034219548E+03  0.25500000000E-02 0.  1.
    8880023    1    1    2    0    0  0.59823390087E+03 -0.23361992107E+03 -0.19126268541E+03  0.93960294208E+03  0.65864270000E+03 0.  1.
    8880022    1    1    2    0    0 -0.59823390087E+03  0.23361992107E+03  0.67276928943E+03  0.94258805291E+03  0.15294330000E+03 0.  0.
<mgrwt>
<rscale>  0 0.84670844E+03</rscale>
<asrwt>0</asrwt>
<pdfrwt beam="1">  1        2 0.18182289E+00 0.91993058E+03</pdfrwt>
<pdfrwt beam="2">  1       -2 0.10774495E+00 0.91993058E+03</pdfrwt>
<totfact> 0.13428308E+01</totfact>
</mgrwt>
</event>
<event>
 4    2  0.3747163E-007  0.7751970E+03  0.7818608E-02  0.9767243E-01
         -2   -1    0    0    0  501 -0.00000000000E+00  0.00000000000E+00  0.41513751595E+03  0.41513751596E+03  0.25500000000E-02 0.  1.
          2   -1    0    0  501    0  0.00000000000E+00 -0.00000000000E+00 -0.10237549199E+04  0.10237549200E+04  0.25500000000E-02 0. -1.
    8880023    1    1    2    0    0  0.39102773433E+01  0.40878464029E+03 -0.63434160249E+03  0.10016584484E+04  0.65864270000E+03 0.  0.
    8880022    1    1    2    0    0 -0.39102773433E+01 -0.40878464029E+03  0.25724198490E+02  0.43723398748E+03  0.15294330000E+03 0.  0.
<mgrwt>
<rscale>  0 0.67150508E+03</rscale>
<asrwt>0</asrwt>
<pdfrwt beam="1">  1        2 0.15750076E+00 0.77519699E+03</pdfrwt>
<pdfrwt beam="2">  1       -2 0.63867310E-01 0.77519699E+03</pdfrwt>
<totfact> 0.55877276E+01</totfact>
</mgrwt>
</event>
<event>
 4    2  0.3747163E-007  0.7903166E+03  0.7818608E-02  0.9732138E-01
         -2   -1    0    0    0  501 -0.00000000000E+00  0.00000000000E+00  0.37885137219E+03  0.37885137220E+03  0.25500000000E-02 0.  1.
          2   -1    0    0  501    0  0.00000000000E+00 -0.00000000000E+00 -0.14163351968E+04  0.14163351968E+04  0.25500000000E-02 0. -1.
    8880023    1    1    2    0    0  0.38174440173E+03 -0.21227645239E+03 -0.10711671903E+04  0.13311646917E+04  0.65864270000E+03 0. -1.
    8880022    1    1    2    0    0 -0.38174440173E+03  0.21227645239E+03  0.33683365724E+02  0.46402187732E+03  0.15294330000E+03 0.  0.
<mgrwt>
<rscale>  0 0.69135104E+03</rscale>
<asrwt>0</asrwt>
<pdfrwt beam="1">  1        2 0.21789772E+00 0.79031657E+03</pdfrwt>
<pdfrwt beam="2">  1       -2 0.58284827E-01 0.79031657E+03</pdfrwt>
<totfact> 0.39658623E+01</totfact>
</mgrwt>
</event>
<event>
 4    2  0.3747163E-007  0.6652341E+03  0.7818608E-02  0.1019338E+00
          2   -1    0    0  501    0  0.00000000000E+00  0.00000000000E+00  0.78523956574E+03  0.78523956574E+03  0.25500000000E-02 0. -1.
         -2   -1    0    0    0  501 -0.00000000000E+00 -0.00000000000E+00 -0.36064500001E+03  0.36064500002E+03  0.25500000000E-02 0.  1.
    8880023    1    1    2    0    0  0.77162604577E+02 -0.52650837739E+02  0.59946804093E+03  0.89548775348E+03  0.65864270000E+03 0. -1.
    8880022    1    1    2    0    0 -0.77162604577E+02  0.52650837739E+02 -0.17487347521E+03  0.25039681229E+03  0.15294330000E+03 0.  0.
<mgrwt>
<rscale>  0 0.47926327E+03</rscale>
<asrwt>0</asrwt>
<pdfrwt beam="1">  1        2 0.12080609E+00 0.66523408E+03</pdfrwt>
<pdfrwt beam="2">  1       -2 0.55483847E-01 0.66523408E+03</pdfrwt>
<totfact> 0.10970554E+02</totfact>
</mgrwt>
</event>
<event>
 4    2  0.3747163E-007  0.7444950E+03  0.7818608E-02  0.9847042E-01
         -2   -1    0    0    0  501 -0.00000000000E+00  0.00000000000E+00  0.33146456842E+03  0.33146456843E+03  0.25500000000E-02 0.  1.
          2   -1    0    0  501    0  0.00000000000E+00 -0.00000000000E+00 -0.13350685247E+04  0.13350685247E+04  0.25500000000E-02 0. -1.
    8880023    1    1    2    0    0  0.33831805722E+03 -0.77482565508E+02 -0.10470715364E+04  0.12847691094E+04  0.65864270000E+03 0.  0.
    8880022    1    1    2    0    0 -0.33831805722E+03  0.77482565508E+02  0.43467580082E+02  0.38176398380E+03  0.15294330000E+03 0.  0.
<mgrwt>
<rscale>  0 0.62897982E+03</rscale>
<asrwt>0</asrwt>
<pdfrwt beam="1">  1        2 0.20539516E+00 0.74449504E+03</pdfrwt>
<pdfrwt beam="2">  1       -2 0.50994549E-01 0.74449504E+03</pdfrwt>
<totfact> 0.58443097E+01</totfact>
</mgrwt>
</event>
<event>
 4    2  0.3747163E-007  0.8047802E+03  0.7818608E-02  0.9700554E-01
         -2   -1    0    0    0  501 -0.00000000000E+00  0.00000000000E+00  0.97539192301E+03  0.97539192301E+03  0.25500000000E-02 0.  1.
          2   -1    0    0  501    0  0.00000000000E+00 -0.00000000000E+00 -0.46917694881E+03  0.46917694882E+03  0.25500000000E-02 0. -1.
    8880023    1    1    2    0    0  0.15523159211E+03  0.43561914718E+03  0.10124565455E+03  0.81112377441E+03  0.65864270000E+03 0.  0.
    8880022    1    1    2    0    0 -0.15523159211E+03 -0.43561914718E+03  0.40496931965E+03  0.63344509743E+03  0.15294330000E+03 0.  0.
<mgrwt>
<rscale>  0 0.70983809E+03</rscale>
<asrwt>0</asrwt>
<pdfrwt beam="1">  1        2 0.72181070E-01 0.80478015E+03</pdfrwt>
<pdfrwt beam="2">  1       -2 0.15006029E+00 0.80478015E+03</pdfrwt>
<totfact> 0.20016728E+01</totfact>
</mgrwt>
</event>
<event>
 4    2  0.3747163E-007  0.6667296E+03  0.7818608E-02  0.1018124E+00
         -2   -1    0    0    0  501 -0.00000000000E+00  0.00000000000E+00  0.43924755284E+03  0.43924755285E+03  0.25500000000E-02 0.  1.
          2   -1    0    0  501    0  0.00000000000E+00 -0.00000000000E+00 -0.53827124402E+03  0.53827124402E+03  0.25500000000E-02 0. -1.
    8880023    1    1    2    0    0 -0.86620868263E+02  0.56701001109E+02 -0.27611776978E+03  0.72164354594E+03  0.65864270000E+03 0. -1.
    8880022    1    1    2    0    0  0.86620868263E+02 -0.56701001109E+02  0.17709407860E+03  0.25587525093E+03  0.15294330000E+03 0.  1.
<mgrwt>
<rscale>  0 0.48369574E+03</rscale>
<asrwt>0</asrwt>
<pdfrwt beam="1">  1        2 0.82810961E-01 0.66672962E+03</pdfrwt>
<pdfrwt beam="2">  1       -2 0.67576547E-01 0.66672962E+03</pdfrwt>
<totfact> 0.11512626E+02</totfact>
</mgrwt>
</event>
<event>
 4    2  0.3747163E-007  0.6927936E+03  0.7818608E-02  0.1002852E+00
         -2   -1    0    0    0  501 -0.00000000000E+00  0.00000000000E+00  0.19088858888E+03  0.19088858890E+03  0.25500000000E-02 0.  1.
          2   -1    0    0  501    0  0.00000000000E+00 -0.00000000000E+00 -0.13283430664E+04  0.13283430664E+04  0.25500000000E-02 0. -1.
    8880023    1    1    2    0    0  0.18030008606E+03  0.11681007136E+03 -0.10139530735E+04  0.12280324733E+04  0.65864270000E+03 0. -1.
    8880022    1    1    2    0    0 -0.18030008606E+03 -0.11681007136E+03 -0.12350140396E+03  0.29119918200E+03  0.15294330000E+03 0.  0.
<mgrwt>
<rscale>  0 0.54417129E+03</rscale>
<asrwt>0</asrwt>
<pdfrwt beam="1">  1        2 0.20436047E+00 0.69279356E+03</pdfrwt>
<pdfrwt beam="2">  1       -2 0.29367476E-01 0.69279356E+03</pdfrwt>
<totfact> 0.17278039E+02</totfact>
</mgrwt>
</event>
<event>
 4    2  0.3747163E-007  0.9565688E+03  0.7818608E-02  0.9440725E-01
          2   -1    0    0  501    0  0.00000000000E+00  0.00000000000E+00  0.21470947189E+04  0.21470947189E+04  0.25500000000E-02 0. -1.
         -2   -1    0    0    0  501 -0.00000000000E+00 -0.00000000000E+00 -0.97242081850E+03  0.97242081850E+03  0.25500000000E-02 0.  1.
    8880023    1    1    2    0    0 -0.27556974974E+02 -0.69314806857E+03  0.18856994756E+04  0.21144470555E+04  0.65864270000E+03 0.  0.
    8880022    1    1    2    0    0  0.27556974974E+02  0.69314806857E+03 -0.71102557519E+03  0.10050684820E+04  0.15294330000E+03 0.  0.
<mgrwt>
<rscale>  0 0.88798602E+03</rscale>
<asrwt>0</asrwt>
<pdfrwt beam="1">  1        2 0.33032226E+00 0.95656878E+03</pdfrwt>
<pdfrwt beam="2">  1       -2 0.14960320E+00 0.95656878E+03</pdfrwt>
<totfact> 0.16787509E+00</totfact>
</mgrwt>
</event>
<event>
 4    2  0.3747163E-007  0.6905863E+03  0.7818608E-02  0.1003875E+00
          2   -1    0    0  501    0  0.00000000000E+00  0.00000000000E+00  0.85801758672E+03  0.85801758673E+03  0.25500000000E-02 0. -1.
         -2   -1    0    0    0  501 -0.00000000000E+00 -0.00000000000E+00 -0.33860576744E+03  0.33860576745E+03  0.25500000000E-02 0.  1.
    8880023    1    1    2    0    0 -0.19324166548E+03  0.75874136365E+02  0.61190400891E+03  0.92267868092E+03  0.65864270000E+03 0. -1.
    8880022    1    1    2    0    0  0.19324166548E+03 -0.75874136365E+02 -0.92492189630E+02  0.27394467326E+03  0.15294330000E+03 0.  0.
<mgrwt>
<rscale>  0 0.53983213E+03</rscale>
<asrwt>0</asrwt>
<pdfrwt beam="1">  1        2 0.13200271E+00 0.69058630E+03</pdfrwt>
<pdfrwt beam="2">  1       -2 0.52093195E-01 0.69058630E+03</pdfrwt>
<totfact> 0.11079803E+02</totfact>
</mgrwt>
</event>
<event>
 4    2  0.3747163E-007  0.7454084E+03  0.7818608E-02  0.9844464E-01
         -2   -1    0    0    0  501 -0.00000000000E+00  0.00000000000E+00  0.67004355940E+03  0.67004355941E+03  0.25500000000E-02 0.  1.
          2   -1    0    0  501    0  0.00000000000E+00 -0.00000000000E+00 -0.81932585510E+03  0.81932585510E+03  0.25500000000E-02 0. -1.
    8880023    1    1    2    0    0 -0.26033356060E+03  0.23248634240E+03 -0.55757553394E+03  0.93087278642E+03  0.65864270000E+03 0.  0.
    8880022    1    1    2    0    0  0.26033356060E+03 -0.23248634240E+03  0.40829323824E+03  0.55849662809E+03  0.15294330000E+03 0.  0.
<mgrwt>
<rscale>  0 0.63029982E+03</rscale>
<asrwt>0</asrwt>
<pdfrwt beam="1">  1        2 0.12605013E+00 0.74540839E+03</pdfrwt>
<pdfrwt beam="2">  1       -2 0.10308363E+00 0.74540839E+03</pdfrwt>
<totfact> 0.26013368E+01</totfact>
</mgrwt>
</event>
<event>
 4    2  0.3747163E-007  0.7730460E+03  0.7818608E-02  0.9772433E-01
         -2   -1    0    0    0  501 -0.00000000000E+00  0.00000000000E+00  0.55995847886E+03  0.55995847886E+03  0.25500000000E-02 0.  1.
          2   -1    0    0  501    0  0.00000000000E+00 -0.00000000000E+00 -0.13461225825E+04  0.13461225825E+04  0.25500000000E-02 0. -1.
    8880023    1    1    2    0    0  0.39635492028E+03  0.81808960840E+02 -0.11191141240E+04  0.13601531376E+04  0.65864270000E+03 0.  0.
    8880022    1    1    2    0    0 -0.39635492028E+03 -0.81808960840E+02  0.33295002035E+03  0.54592792379E+03  0.15294330000E+03 0.  0.
<mgrwt>
<rscale>  0 0.66863160E+03</rscale>
<asrwt>0</asrwt>
<pdfrwt beam="1">  1        2 0.20709578E+00 0.77304601E+03</pdfrwt>
<pdfrwt beam="2">  1       -2 0.86147458E-01 0.77304601E+03</pdfrwt>
<totfact> 0.18501401E+01</totfact>
</mgrwt>
</event>
<event>
 4    2  0.3747163E-007  0.6873376E+03  0.7818608E-02  0.1005445E+00
          2   -1    0    0  501    0  0.00000000000E+00  0.00000000000E+00  0.21827239908E+04  0.21827239908E+04  0.25500000000E-02 0. -1.
         -2   -1    0    0    0  501 -0.00000000000E+00 -0.00000000000E+00 -0.58291567063E+03  0.58291567063E+03  0.25500000000E-02 0.  1.
    8880023    1    1    2    0    0  0.13504082827E+02 -0.19606213949E+03  0.20985166531E+04  0.22082130949E+04  0.65864270000E+03 0.  0.
    8880022    1    1    2    0    0 -0.13504082827E+02  0.19606213949E+03 -0.49870833291E+03  0.55742656657E+03  0.15294330000E+03 0.  1.
<mgrwt>
<rscale>  0 0.53326012E+03</rscale>
<asrwt>0</asrwt>
<pdfrwt beam="1">  1        2 0.33580369E+00 0.68733757E+03</pdfrwt>
<pdfrwt beam="2">  1       -2 0.89679334E-01 0.68733757E+03</pdfrwt>
<totfact> 0.59201719E+00</totfact>
</mgrwt>
</event>
<event>
 4    2  0.3747163E-007  0.1079086E+04  0.7818608E-02  0.9284706E-01
          2   -1    0    0  501    0  0.00000000000E+00  0.00000000000E+00  0.19990875244E+04  0.19990875244E+04  0.25500000000E-02 0. -1.
         -2   -1    0    0    0  501 -0.00000000000E+00 -0.00000000000E+00 -0.89567400598E+03  0.89567400599E+03  0.25500000000E-02 0.  1.
    8880023    1    1    2    0    0 -0.79969093660E+03 -0.30184582579E+03  0.15730243404E+04  0.19075723521E+04  0.65864270000E+03 0.  0.
    8880022    1    1    2    0    0  0.79969093660E+03  0.30184582579E+03 -0.46961082199E+03  0.98718917831E+03  0.15294330000E+03 0.  0.
<mgrwt>
<rscale>  0 0.10220310E+04</rscale>
<asrwt>0</asrwt>
<pdfrwt beam="1">  1        2 0.30755192E+00 0.10790860E+04</pdfrwt>
<pdfrwt beam="2">  1       -2 0.13779600E+00 0.10790860E+04</pdfrwt>
<totfact> 0.24735879E+00</totfact>
</mgrwt>
</event>
<event>
 4    2  0.3747163E-007  0.7104295E+03  0.7818608E-02  0.9956409E-01
          2   -1    0    0  501    0  0.00000000000E+00  0.00000000000E+00  0.55040426011E+03  0.55040426011E+03  0.25500000000E-02 0. -1.
         -2   -1    0    0    0  501 -0.00000000000E+00 -0.00000000000E+00 -0.13319353624E+04  0.13319353624E+04  0.25500000000E-02 0.  1.
    8880023    1    1    2    0    0 -0.10189183171E+03 -0.24600397128E+03  0.29025265783E+03  0.76743515094E+03  0.65864270000E+03 0. -1.
    8880022    1    1    2    0    0  0.10189183171E+03  0.24600397128E+03 -0.10717837601E+04  0.11149044716E+04  0.15294330000E+03 0.  0.
<mgrwt>
<rscale>  0 0.57603629E+03</rscale>
<asrwt>0</asrwt>
<pdfrwt beam="1">  1        2 0.84677578E-01 0.71042952E+03</pdfrwt>
<pdfrwt beam="2">  1       -2 0.20491313E+00 0.71042952E+03</pdfrwt>
<totfact> 0.69667585E+00</totfact>
</mgrwt>
</event>
<event>
 4    2  0.3747163E-007  0.8754129E+03  0.7818608E-02  0.9566714E-01
         -2   -1    0    0    0  501 -0.00000000000E+00  0.00000000000E+00  0.35696099614E+03  0.35696099614E+03  0.25500000000E-02 0.  1.
          2   -1    0    0  501    0  0.00000000000E+00 -0.00000000000E+00 -0.24013671408E+04  0.24013671408E+04  0.25500000000E-02 0. -1.
    8880023    1    1    2    0    0 -0.25689132756E+03 -0.51627941425E+03 -0.19717187724E+04  0.21573184075E+04  0.65864270000E+03 0. -1.
    8880022    1    1    2    0    0  0.25689132756E+03  0.51627941425E+03 -0.72687372263E+02  0.60100972942E+03  0.15294330000E+03 0.  0.
<mgrwt>
<rscale>  0 0.79539009E+03</rscale>
<asrwt>0</asrwt>
<pdfrwt beam="1">  1        2 0.36944109E+00 0.87541293E+03</pdfrwt>
<pdfrwt beam="2">  1       -2 0.54917078E-01 0.87541293E+03</pdfrwt>
<totfact> 0.12698809E+01</totfact>
</mgrwt>
</event>
<event>
 4    2  0.3747163E-007  0.6682040E+03  0.7818608E-02  0.1016984E+00
          2   -1    0    0  501    0  0.00000000000E+00  0.00000000000E+00  0.22478856753E+04  0.22478856753E+04  0.25500000000E-02 0. -1.
         -2   -1    0    0    0  501 -0.00000000000E+00 -0.00000000000E+00 -0.36851077494E+03  0.36851077495E+03  0.25500000000E-02 0.  1.
    8880023    1    1    2    0    0  0.10551453323E+03  0.39408677623E+02  0.21692504790E+04  0.22698335198E+04  0.65864270000E+03 0.  0.
    8880022    1    1    2    0    0 -0.10551453323E+03 -0.39408677623E+02 -0.28987557870E+03  0.34656293042E+03  0.15294330000E+03 0.  1.
<mgrwt>
<rscale>  0 0.48790708E+03</rscale>
<asrwt>0</asrwt>
<pdfrwt beam="1">  1        2 0.34582857E+00 0.66820399E+03</pdfrwt>
<pdfrwt beam="2">  1       -2 0.56693965E-01 0.66820399E+03</pdfrwt>
<totfact> 0.14932800E+01</totfact>
</mgrwt>
</event>
<event>
 4    2  0.3747163E-007  0.8406145E+03  0.7818608E-02  0.9629023E-01
          2   -1    0    0  501    0  0.00000000000E+00  0.00000000000E+00  0.30920163747E+04  0.30920163747E+04  0.25500000000E-02 0. -1.
         -2   -1    0    0    0  501 -0.00000000000E+00 -0.00000000000E+00 -0.20814025377E+03  0.20814025379E+03  0.25500000000E-02 0.  1.
    8880023    1    1    2    0    0  0.11819191232E+03  0.50877610898E+03  0.24907261778E+04  0.26287543735E+04  0.65864270000E+03 0.  0.
    8880022    1    1    2    0    0 -0.11819191232E+03 -0.50877610898E+03  0.39314994315E+03  0.67140225500E+03  0.15294330000E+03 0.  0.
<mgrwt>
<rscale>  0 0.75404690E+03</rscale>
<asrwt>0</asrwt>
<pdfrwt beam="1">  1        2 0.47569483E+00 0.84061446E+03</pdfrwt>
<pdfrwt beam="2">  1       -2 0.32021577E-01 0.84061446E+03</pdfrwt>
<totfact> 0.14476917E+01</totfact>
</mgrwt>
</event>
<event>
 4    2  0.3747163E-007  0.9434877E+03  0.7818608E-02  0.9459546E-01
         -2   -1    0    0    0  501 -0.00000000000E+00  0.00000000000E+00  0.37415194819E+03  0.37415194820E+03  0.25500000000E-02 0.  1.
          2   -1    0    0  501    0  0.00000000000E+00 -0.00000000000E+00 -0.21426314277E+04  0.21426314277E+04  0.25500000000E-02 0. -1.
    8880023    1    1    2    0    0 -0.55040482143E+03 -0.39168008699E+03 -0.15038502391E+04  0.17753125094E+04  0.65864270000E+03 0. -1.
    8880022    1    1    2    0    0  0.55040482143E+03  0.39168008699E+03 -0.26462924036E+03  0.74147086650E+03  0.15294330000E+03 0.  0.
<mgrwt>
<rscale>  0 0.87333143E+03</rscale>
<asrwt>0</asrwt>
<pdfrwt beam="1">  1        2 0.32963560E+00 0.94348766E+03</pdfrwt>
<pdfrwt beam="2">  1       -2 0.57561840E-01 0.94348766E+03</pdfrwt>
<totfact> 0.15912127E+01</totfact>
</mgrwt>
</event>
<event>
 4    2  0.3747163E-007  0.1626946E+04  0.7818608E-02  0.8824835E-01
          2   -1    0    0  501    0  0.00000000000E+00  0.00000000000E+00  0.37631192773E+04  0.37631192773E+04  0.25500000000E-02 0. -1.
         -2   -1    0    0    0  501 -0.00000000000E+00 -0.00000000000E+00 -0.14140017957E+04  0.14140017957E+04  0.25500000000E-02 0.  1.
    8880023    1    1    2    0    0 -0.12850404414E+04 -0.74954320904E+03  0.31020229692E+04  0.35027847016E+04  0.65864270000E+03 0.  0.
    8880022    1    1    2    0    0  0.12850404414E+04  0.74954320904E+03 -0.75290548763E+03  0.16743363714E+04  0.15294330000E+03 0.  0.
<mgrwt>
<rscale>  0 0.15930407E+04</rscale>
<asrwt>0</asrwt>
<pdfrwt beam="1">  1        2 0.57894143E+00 0.16269463E+04</pdfrwt>
<pdfrwt beam="2">  1       -2 0.21753873E+00 0.16269463E+04</pdfrwt>
<totfact> 0.50111957E-02</totfact>
</mgrwt>
</event>
<event>
 4    2  0.3747163E-007  0.7690331E+03  0.7818608E-02  0.9782259E-01
          2   -1    0    0  501    0  0.00000000000E+00  0.00000000000E+00  0.36236972026E+04  0.36236972026E+04  0.25500000000E-02 0. -1.
         -2   -1    0    0    0  501 -0.00000000000E+00 -0.00000000000E+00 -0.24790000975E+03  0.24790000976E+03  0.25500000000E-02 0.  1.
    8880023    1    1    2    0    0  0.37101927648E+03  0.14123184482E+03  0.33589176326E+04  0.34458293060E+04  0.65864270000E+03 0.  0.
    8880022    1    1    2    0    0 -0.37101927648E+03 -0.14123184482E+03  0.16879560284E+02  0.42576790636E+03  0.15294330000E+03 0.  0.
<mgrwt>
<rscale>  0 0.66323376E+03</rscale>
<asrwt>0</asrwt>
<pdfrwt beam="1">  1        2 0.55749185E+00 0.76903312E+03</pdfrwt>
<pdfrwt beam="2">  1       -2 0.38138465E-01 0.76903312E+03</pdfrwt>
<totfact> 0.46728433E+00</totfact>
</mgrwt>
</event>
<event>
 4    2  0.5695359E-007  0.7075704E+03  0.7818608E-02  0.9967136E-01
         -2   -1    0    0    0  501 -0.00000000000E+00  0.00000000000E+00  0.26365663231E+04  0.26365663231E+04  0.25500000000E-02 0.  1.
          2   -1    0    0  501    0  0.00000000000E+00 -0.00000000000E+00 -0.12313984064E+04  0.12313984064E+04  0.25500000000E-02 0. -1.
    8880023    1    1    2    0    0 -0.21423726442E+03 -0.14473458235E+03 -0.11201124631E+04  0.13248803120E+04  0.65864270000E+03 0. -1.
    8880022    1    1    2    0    0  0.21423726442E+03  0.14473458235E+03  0.25252803798E+04  0.25430844175E+04  0.15294330000E+03 0.  0.
<mgrwt>
<rscale>  0 0.57115049E+03</rscale>
<asrwt>0</asrwt>
<pdfrwt beam="1">  1        2 0.18944591E+00 0.70757043E+03</pdfrwt>
<pdfrwt beam="2">  1       -2 0.40562558E+00 0.70757043E+03</pdfrwt>
<totfact> 0.13419103E-01</totfact>
</mgrwt>
</event>
<event>
 4    2  0.3747163E-007  0.6614029E+03  0.7818608E-02  0.1022763E+00
         -2   -1    0    0    0  501 -0.00000000000E+00  0.00000000000E+00  0.27771496594E+03  0.27771496595E+03  0.25500000000E-02 0.  1.
          2   -1    0    0  501    0  0.00000000000E+00 -0.00000000000E+00 -0.71141601469E+03  0.71141601470E+03  0.25500000000E-02 0. -1.
    8880023    1    1    2    0    0 -0.34454780164E+02 -0.49562413365E+02 -0.48126369065E+03  0.81796608175E+03  0.65864270000E+03 0. -1.
    8880022    1    1    2    0    0  0.34454780164E+02  0.49562413365E+02  0.47562641894E+02  0.17116489889E+03  0.15294330000E+03 0.  0.
<mgrwt>
<rscale>  0 0.46702572E+03</rscale>
<asrwt>0</asrwt>
<pdfrwt beam="1">  1        2 0.10944862E+00 0.66140288E+03</pdfrwt>
<pdfrwt beam="2">  1       -2 0.42725380E-01 0.66140288E+03</pdfrwt>
<totfact> 0.21131056E+02</totfact>
</mgrwt>
</event>
<event>
 4    2  0.3747163E-007  0.1372392E+04  0.7818608E-02  0.9005438E-01
          2   -1    0    0  501    0  0.00000000000E+00  0.00000000000E+00  0.16312257736E+04  0.16312257736E+04  0.25500000000E-02 0. -1.
         -2   -1    0    0    0  501 -0.00000000000E+00 -0.00000000000E+00 -0.16890831040E+04  0.16890831041E+04  0.25500000000E-02 0.  1.
    8880023    1    1    2    0    0 -0.11749385984E+04  0.26299788392E+03  0.10097899841E+04  0.17038587428E+04  0.65864270000E+03 0.  0.
    8880022    1    1    2    0    0  0.11749385984E+04 -0.26299788392E+03 -0.10676473146E+04  0.16164501348E+04  0.15294330000E+03 0.  0.
<mgrwt>
<rscale>  0 0.13308692E+04</rscale>
<asrwt>0</asrwt>
<pdfrwt beam="1">  1        2 0.25095781E+00 0.13723916E+04</pdfrwt>
<pdfrwt beam="2">  1       -2 0.25985894E+00 0.13723916E+04</pdfrwt>
<totfact> 0.57030253E-01</totfact>
</mgrwt>
</event>
<event>
 4    2  0.3747163E-007  0.9844118E+03  0.7818608E-02  0.9402242E-01
         -2   -1    0    0    0  501 -0.00000000000E+00  0.00000000000E+00  0.49273886067E+03  0.49273886068E+03  0.25500000000E-02 0.  1.
          2   -1    0    0  501    0  0.00000000000E+00 -0.00000000000E+00 -0.27276645113E+04  0.27276645113E+04  0.25500000000E-02 0. -1.
    8880023    1    1    2    0    0  0.32859775223E+03 -0.65366652558E+03 -0.13773169461E+03  0.99400031961E+03  0.65864270000E+03 0.  1.
    8880022    1    1    2    0    0 -0.32859775223E+03  0.65366652558E+03 -0.20971939560E+04  0.22264030524E+04  0.15294330000E+03 0.  0.
<mgrwt>
<rscale>  0 0.91891407E+03</rscale>
<asrwt>0</asrwt>
<pdfrwt beam="1">  1        2 0.41964069E+00 0.98441181E+03</pdfrwt>
<pdfrwt beam="2">  1       -2 0.75805980E-01 0.98441181E+03</pdfrwt>
<totfact> 0.40559800E+00</totfact>
</mgrwt>
</event>
<event>
 4    2  0.3747163E-007  0.8001488E+03  0.7818608E-02  0.9710474E-01
          2   -1    0    0  501    0  0.00000000000E+00  0.00000000000E+00  0.62386441617E+03  0.62386441618E+03  0.25500000000E-02 0. -1.
         -2   -1    0    0    0  501 -0.00000000000E+00 -0.00000000000E+00 -0.10462526953E+04  0.10462526953E+04  0.25500000000E-02 0.  1.
    8880023    1    1    2    0    0 -0.21038568094E+03  0.40269815774E+03  0.25540484684E+03  0.83992248633E+03  0.65864270000E+03 0.  0.
    8880022    1    1    2    0    0  0.21038568094E+03 -0.40269815774E+03 -0.67779312593E+03  0.83019462511E+03  0.15294330000E+03 0.  0.
<mgrwt>
<rscale>  0 0.70396564E+03</rscale>
<asrwt>0</asrwt>
<pdfrwt beam="1">  1        2 0.95979141E-01 0.80014883E+03</pdfrwt>
<pdfrwt beam="2">  1       -2 0.16096195E+00 0.80014883E+03</pdfrwt>
<totfact> 0.11841901E+01</totfact>
</mgrwt>
</event>
<event>
 4    2  0.3747163E-007  0.9676906E+03  0.7818608E-02  0.9425105E-01
          2   -1    0    0  501    0  0.00000000000E+00  0.00000000000E+00  0.17912938021E+04  0.17912938021E+04  0.25500000000E-02 0. -1.
         -2   -1    0    0    0  501 -0.00000000000E+00 -0.00000000000E+00 -0.45631579647E+03  0.45631579648E+03  0.25500000000E-02 0.  1.
    8880023    1    1    2    0    0  0.49702756007E+03  0.50554774098E+03  0.11424977694E+04  0.14972395510E+04  0.65864270000E+03 0.  0.
    8880022    1    1    2    0    0 -0.49702756007E+03 -0.50554774098E+03  0.19248023625E+03  0.75037004754E+03  0.15294330000E+03 0.  0.
<mgrwt>
<rscale>  0 0.90038094E+03</rscale>
<asrwt>0</asrwt>
<pdfrwt beam="1">  1        2 0.27558367E+00 0.96769061E+03</pdfrwt>
<pdfrwt beam="2">  1       -2 0.70202429E-01 0.96769061E+03</pdfrwt>
<totfact> 0.16178347E+01</totfact>
</mgrwt>
</event>
<event>
 4    2  0.8245631E-007  0.9237847E+03  0.7818608E-02  0.9488880E-01
         -2   -1    0    0    0  501 -0.00000000000E+00  0.00000000000E+00  0.14856208127E+04  0.14856208128E+04  0.25500000000E-02 0.  1.
          2   -1    0    0  501    0  0.00000000000E+00 -0.00000000000E+00 -0.28238665688E+04  0.28238665688E+04  0.25500000000E-02 0. -1.
    8880023    1    1    2    0    0  0.64471540148E+03  0.62530413975E+02 -0.26674956098E+04  0.28229259707E+04  0.65864270000E+03 0. -1.
    8880022    1    1    2    0    0 -0.64471540148E+03 -0.62530413975E+02  0.13292498537E+04  0.14865614109E+04  0.15294330000E+03 0.  0.
<mgrwt>
<rscale>  0 0.85108630E+03</rscale>
<asrwt>0</asrwt>
<pdfrwt beam="1">  1        2 0.43444101E+00 0.92378472E+03</pdfrwt>
<pdfrwt beam="2">  1       -2 0.22855705E+00 0.92378472E+03</pdfrwt>
<totfact> 0.20141849E-01</totfact>
</mgrwt>
</event>
<event>
 4    2  0.3747163E-007  0.6971723E+03  0.7818608E-02  0.1000914E+00
         -2   -1    0    0    0  501 -0.00000000000E+00  0.00000000000E+00  0.49901456053E+03  0.49901456054E+03  0.25500000000E-02 0.  1.
          2   -1    0    0  501    0  0.00000000000E+00 -0.00000000000E+00 -0.36640808734E+04  0.36640808734E+04  0.25500000000E-02 0. -1.
    8880023    1    1    2    0    0 -0.19983210781E+03  0.11093284391E+03 -0.35899262843E+04  0.36569960213E+04  0.65864270000E+03 0. -1.
    8880022    1    1    2    0    0  0.19983210781E+03 -0.11093284391E+03  0.42485997139E+03  0.50609941264E+03  0.15294330000E+03 0.  0.
<mgrwt>
<rscale>  0 0.55251273E+03</rscale>
<asrwt>0</asrwt>
<pdfrwt beam="1">  1        2 0.56370473E+00 0.69717227E+03</pdfrwt>
<pdfrwt beam="2">  1       -2 0.76771473E-01 0.69717227E+03</pdfrwt>
<totfact> 0.10443336E+00</totfact>
</mgrwt>
</event>
<event>
 4    2  0.3747163E-007  0.7096109E+03  0.7818608E-02  0.9959449E-01
          2   -1    0    0  501    0  0.00000000000E+00  0.00000000000E+00  0.15592456995E+04  0.15592456995E+04  0.25500000000E-02 0. -1.
         -2   -1    0    0    0  501 -0.00000000000E+00 -0.00000000000E+00 -0.82879511215E+03  0.82879511216E+03  0.25500000000E-02 0.  1.
    8880023    1    1    2    0    0 -0.14683923764E+03  0.21948945952E+03  0.14456696009E+04  0.16104372654E+04  0.65864270000E+03 0. -1.
    8880022    1    1    2    0    0  0.14683923764E+03 -0.21948945952E+03 -0.71521901364E+03  0.77760354618E+03  0.15294330000E+03 0.  0.
<mgrwt>
<rscale>  0 0.57464659E+03</rscale>
<asrwt>0</asrwt>
<pdfrwt beam="1">  1        2 0.23988395E+00 0.70961087E+03</pdfrwt>
<pdfrwt beam="2">  1       -2 0.12750694E+00 0.70961087E+03</pdfrwt>
<totfact> 0.55379561E+00</totfact>
</mgrwt>
</event>
<event>
 4    2  0.3747163E-007  0.7174727E+03  0.7818608E-02  0.9931232E-01
          2   -1    0    0  501    0  0.00000000000E+00  0.00000000000E+00  0.15463997795E+04  0.15463997795E+04  0.25500000000E-02 0. -1.
         -2   -1    0    0    0  501 -0.00000000000E+00 -0.00000000000E+00 -0.22593019549E+03  0.22593019550E+03  0.25500000000E-02 0.  1.
    8880023    1    1    2    0    0 -0.19196007641E+03  0.21001939400E+03  0.12506562341E+04  0.14418418911E+04  0.65864270000E+03 0. -1.
    8880022    1    1    2    0    0  0.19196007641E+03 -0.21001939400E+03  0.69813349970E+02  0.33048808396E+03  0.15294330000E+03 0.  0.
<mgrwt>
<rscale>  0 0.58771230E+03</rscale>
<asrwt>0</asrwt>
<pdfrwt beam="1">  1        2 0.23790766E+00 0.71747266E+03</pdfrwt>
<pdfrwt beam="2">  1       -2 0.34758492E-01 0.71747266E+03</pdfrwt>
<totfact> 0.94845253E+01</totfact>
</mgrwt>
</event>
<event>
 4    2  0.3747163E-007  0.7112454E+03  0.7818608E-02  0.9953405E-01
         -2   -1    0    0    0  501 -0.00000000000E+00  0.00000000000E+00  0.38043511440E+03  0.38043511441E+03  0.25500000000E-02 0.  1.
          2   -1    0    0  501    0  0.00000000000E+00 -0.00000000000E+00 -0.15038717586E+04  0.15038717586E+04  0.25500000000E-02 0. -1.
    8880023    1    1    2    0    0  0.13846605141E+03 -0.22997162129E+03 -0.13330734902E+04  0.15109450455E+04  0.65864270000E+03 0. -1.
    8880022    1    1    2    0    0 -0.13846605141E+03  0.22997162129E+03  0.20963684602E+03  0.37336182748E+03  0.15294330000E+03 0.  0.
<mgrwt>
<rscale>  0 0.57741414E+03</rscale>
<asrwt>0</asrwt>
<pdfrwt beam="1">  1        2 0.23136488E+00 0.71124539E+03</pdfrwt>
<pdfrwt beam="2">  1       -2 0.58528480E-01 0.71124539E+03</pdfrwt>
<totfact> 0.35418994E+01</totfact>
</mgrwt>
</event>
<event>
 4    2  0.3747163E-007  0.7732282E+03  0.7818608E-02  0.9771991E-01
          2   -1    0    0  501    0  0.00000000000E+00  0.00000000000E+00  0.98338588090E+03  0.98338588090E+03  0.25500000000E-02 0. -1.
         -2   -1    0    0    0  501 -0.00000000000E+00 -0.00000000000E+00 -0.38414985532E+03  0.38414985533E+03  0.25500000000E-02 0.  1.
    8880023    1    1    2    0    0  0.12001820736E+02  0.40487982290E+03  0.25433319065E+03  0.81398236641E+03  0.65864270000E+03 0. -1.
    8880022    1    1    2    0    0 -0.12001820736E+02 -0.40487982290E+03  0.34490283492E+03  0.55355336983E+03  0.15294330000E+03 0.  1.
<mgrwt>
<rscale>  0 0.66887557E+03</rscale>
<asrwt>0</asrwt>
<pdfrwt beam="1">  1        2 0.15129013E+00 0.77322825E+03</pdfrwt>
<pdfrwt beam="2">  1       -2 0.59099979E-01 0.77322825E+03</pdfrwt>
<totfact> 0.69918673E+01</totfact>
</mgrwt>
</event>
<event>
 4    2  0.3747163E-007  0.8257374E+03  0.7818608E-02  0.9657684E-01
          2   -1    0    0  501    0  0.00000000000E+00  0.00000000000E+00  0.22829080260E+04  0.22829080260E+04  0.25500000000E-02 0. -1.
         -2   -1    0    0    0  501 -0.00000000000E+00 -0.00000000000E+00 -0.24230418413E+03  0.24230418414E+03  0.25500000000E-02 0.  1.
    8880023    1    1    2    0    0 -0.35225639535E+03 -0.35206184974E+03  0.17343334688E+04  0.19208734735E+04  0.65864270000E+03 0. -1.
    8880022    1    1    2    0    0  0.35225639535E+03  0.35206184974E+03  0.30627037307E+03  0.60433873659E+03  0.15294330000E+03 0.  0.
<mgrwt>
<rscale>  0 0.73593163E+03</rscale>
<asrwt>0</asrwt>
<pdfrwt beam="1">  1        2 0.35121662E+00 0.82573744E+03</pdfrwt>
<pdfrwt beam="2">  1       -2 0.37277567E-01 0.82573744E+03</pdfrwt>
<totfact> 0.32330170E+01</totfact>
</mgrwt>
</event>
<event>
 4    2  0.3747163E-007  0.8026757E+03  0.7818608E-02  0.9705040E-01
          2   -1    0    0  501    0  0.00000000000E+00  0.00000000000E+00  0.18269135255E+04  0.18269135255E+04  0.25500000000E-02 0. -1.
         -2   -1    0    0    0  501 -0.00000000000E+00 -0.00000000000E+00 -0.39331521459E+03  0.39331521459E+03  0.25500000000E-02 0.  1.
    8880023    1    1    2    0    0  0.45629124070E+03 -0.47711168071E+02  0.15293922701E+04  0.17272315925E+04  0.65864270000E+03 0.  0.
    8880022    1    1    2    0    0 -0.45629124070E+03  0.47711168071E+02 -0.95793959225E+02  0.49299714759E+03  0.15294330000E+03 0.  0.
<mgrwt>
<rscale>  0 0.70717488E+03</rscale>
<asrwt>0</asrwt>
<pdfrwt beam="1">  1        2 0.28106361E+00 0.80267569E+03</pdfrwt>
<pdfrwt beam="2">  1       -2 0.60510034E-01 0.80267569E+03</pdfrwt>
<totfact> 0.21701946E+01</totfact>
</mgrwt>
</event>
<event>
 4    2  0.3747163E-007  0.9123613E+03  0.7818608E-02  0.9506472E-01
         -2   -1    0    0    0  501 -0.00000000000E+00  0.00000000000E+00  0.86154883992E+03  0.86154883992E+03  0.25500000000E-02 0.  1.
          2   -1    0    0  501    0  0.00000000000E+00 -0.00000000000E+00 -0.96494649291E+03  0.96494649291E+03  0.25500000000E-02 0. -1.
    8880023    1    1    2    0    0  0.61970884105E+03 -0.12063916222E+03 -0.52446474963E+03  0.10523622641E+04  0.65864270000E+03 0. -1.
    8880022    1    1    2    0    0 -0.61970884105E+03  0.12063916222E+03  0.42106709664E+03  0.77413306868E+03  0.15294330000E+03 0.  0.
<mgrwt>
<rscale>  0 0.83808330E+03</rscale>
<asrwt>0</asrwt>
<pdfrwt beam="1">  1        2 0.14845331E+00 0.91236126E+03</pdfrwt>
<pdfrwt beam="2">  1       -2 0.13254598E+00 0.91236126E+03</pdfrwt>
<totfact> 0.10971908E+01</totfact>
</mgrwt>
</event>
<event>
 4    2  0.3747163E-007  0.7083016E+03  0.7818608E-02  0.9964363E-01
         -2   -1    0    0    0  501 -0.00000000000E+00  0.00000000000E+00  0.90700885639E+03  0.90700885640E+03  0.25500000000E-02 0.  1.
          2   -1    0    0  501    0  0.00000000000E+00 -0.00000000000E+00 -0.61863980472E+03  0.61863980473E+03  0.25500000000E-02 0. -1.
    8880023    1    1    2    0    0  0.19166715932E+03  0.17647844018E+03 -0.37156786200E+03  0.79984612404E+03  0.65864270000E+03 0. -1.
    8880022    1    1    2    0    0 -0.19166715932E+03 -0.17647844018E+03  0.65993691367E+03  0.72580253709E+03  0.15294330000E+03 0.  0.
<mgrwt>
<rscale>  0 0.57240868E+03</rscale>
<asrwt>0</asrwt>
<pdfrwt beam="1">  1        2 0.95175354E-01 0.70830159E+03</pdfrwt>
<pdfrwt beam="2">  1       -2 0.13953982E+00 0.70830159E+03</pdfrwt>
<totfact> 0.17620899E+01</totfact>
</mgrwt>
</event>
<event>
 4    2  0.3747163E-007  0.7563486E+03  0.7818608E-02  0.9814654E-01
          2   -1    0    0  501    0  0.00000000000E+00  0.00000000000E+00  0.96155802947E+03  0.96155802947E+03  0.25500000000E-02 0. -1.
         -2   -1    0    0    0  501 -0.00000000000E+00 -0.00000000000E+00 -0.45898572910E+03  0.45898572910E+03  0.25500000000E-02 0.  1.
    8880023    1    1    2    0    0 -0.22743296397E+03 -0.29415505263E+03  0.64498443125E+03  0.99401613212E+03  0.65864270000E+03 0. -1.
    8880022    1    1    2    0    0  0.22743296397E+03  0.29415505263E+03 -0.14241213088E+03  0.42652762645E+03  0.15294330000E+03 0.  0.
<mgrwt>
<rscale>  0 0.64582023E+03</rscale>
<asrwt>0</asrwt>
<pdfrwt beam="1">  1        2 0.14793200E+00 0.75634857E+03</pdfrwt>
<pdfrwt beam="2">  1       -2 0.70613190E-01 0.75634857E+03</pdfrwt>
<totfact> 0.49364825E+01</totfact>
</mgrwt>
</event>
<event>
 4    2  0.3747163E-007  0.9747616E+03  0.7818608E-02  0.9415348E-01
          2   -1    0    0  501    0  0.00000000000E+00  0.00000000000E+00  0.22790349720E+04  0.22790349720E+04  0.25500000000E-02 0. -1.
         -2   -1    0    0    0  501 -0.00000000000E+00 -0.00000000000E+00 -0.62164655301E+03  0.62164655302E+03  0.25500000000E-02 0.  1.
    8880023    1    1    2    0    0 -0.24389277576E+03  0.67591886065E+03  0.18929387114E+04  0.21291728825E+04  0.65864270000E+03 0. -1.
    8880022    1    1    2    0    0  0.24389277576E+03 -0.67591886065E+03 -0.23555029238E+03  0.77150864254E+03  0.15294330000E+03 0.  0.
<mgrwt>
<rscale>  0 0.90823253E+03</rscale>
<asrwt>0</asrwt>
<pdfrwt beam="1">  1        2 0.35062076E+00 0.97476161E+03</pdfrwt>
<pdfrwt beam="2">  1       -2 0.95637932E-01 0.97476161E+03</pdfrwt>
<totfact> 0.43109266E+00</totfact>
</mgrwt>
</event>
<event>
 4    2  0.3747163E-007  0.6865635E+03  0.7818608E-02  0.1005831E+00
         -2   -1    0    0    0  501 -0.00000000000E+00  0.00000000000E+00  0.89839505054E+03  0.89839505055E+03  0.25500000000E-02 0.  1.
          2   -1    0    0  501    0  0.00000000000E+00 -0.00000000000E+00 -0.10239053529E+04  0.10239053529E+04  0.25500000000E-02 0. -1.
    8880023    1    1    2    0    0 -0.14954132416E+03 -0.12327433744E+03 -0.88707004704E+03  0.11217230694E+04  0.65864270000E+03 0. -1.
    8880022    1    1    2    0    0  0.14954132416E+03  0.12327433744E+03  0.76155974471E+03  0.80057733398E+03  0.15294330000E+03 0.  0.
<mgrwt>
<rscale>  0 0.53165874E+03</rscale>
<asrwt>0</asrwt>
<pdfrwt beam="1">  1        2 0.15752390E+00 0.68656345E+03</pdfrwt>
<pdfrwt beam="2">  1       -2 0.13821462E+00 0.68656345E+03</pdfrwt>
<totfact> 0.92668417E+00</totfact>
</mgrwt>
</event>
<event>
 4    2  0.3747163E-007  0.6908238E+03  0.7818608E-02  0.1003763E+00
         -2   -1    0    0    0  501 -0.00000000000E+00  0.00000000000E+00  0.66344250303E+03  0.66344250304E+03  0.25500000000E-02 0.  1.
          2   -1    0    0  501    0  0.00000000000E+00 -0.00000000000E+00 -0.24214314605E+04  0.24214314605E+04  0.25500000000E-02 0. -1.
    8880023    1    1    2    0    0  0.63269068188E+02  0.19855568586E+03 -0.23443752279E+04  0.24440402515E+04  0.65864270000E+03 0. -1.
    8880022    1    1    2    0    0 -0.63269068188E+02 -0.19855568586E+03  0.58638627042E+03  0.64083371208E+03  0.15294330000E+03 0.  0.
<mgrwt>
<rscale>  0 0.54030373E+03</rscale>
<asrwt>0</asrwt>
<pdfrwt beam="1">  1        2 0.37252791E+00 0.69082381E+03</pdfrwt>
<pdfrwt beam="2">  1       -2 0.10206808E+00 0.69082381E+03</pdfrwt>
<totfact> 0.32227383E+00</totfact>
</mgrwt>
</event>
<event>
 4    2  0.3747163E-007  0.7271332E+03  0.7818608E-02  0.9899150E-01
          2   -1    0    0  501    0  0.00000000000E+00  0.00000000000E+00  0.39093701268E+03  0.39093701268E+03  0.25500000000E-02 0. -1.
         -2   -1    0    0    0  501 -0.00000000000E+00 -0.00000000000E+00 -0.12205100539E+04  0.12205100539E+04  0.25500000000E-02 0.  1.
    8880023    1    1    2    0    0 -0.24543123107E+03 -0.18621482313E+03 -0.15060198872E+02  0.72728912091E+03  0.65864270000E+03 0. -1.
    8880022    1    1    2    0    0  0.24543123107E+03  0.18621482313E+03 -0.81451284239E+03  0.88415794572E+03  0.15294330000E+03 0.  0.
<mgrwt>
<rscale>  0 0.60302518E+03</rscale>
<asrwt>0</asrwt>
<pdfrwt beam="1">  1        2 0.60144156E-01 0.72713318E+03</pdfrwt>
<pdfrwt beam="2">  1       -2 0.18777078E+00 0.72713318E+03</pdfrwt>
<totfact> 0.13341469E+01</totfact>
</mgrwt>
</event>
<event>
 4    2  0.3747163E-007  0.6588636E+03  0.7818608E-02  0.1025352E+00
          2   -1    0    0  501    0  0.00000000000E+00  0.00000000000E+00  0.21379584865E+04  0.21379584865E+04  0.25500000000E-02 0. -1.
         -2   -1    0    0    0  501 -0.00000000000E+00 -0.00000000000E+00 -0.13976548518E+03  0.13976548520E+03  0.25500000000E-02 0.  1.
    8880023    1    1    2    0    0 -0.15917070233E+02  0.61383903999E+01  0.20177480274E+04  0.21225947190E+04  0.65864270000E+03 0. -1.
    8880022    1    1    2    0    0  0.15917070233E+02 -0.61383903999E+01 -0.19555026106E+02  0.15512925263E+03  0.15294330000E+03 0.  0.
<mgrwt>
<rscale>  0 0.45803694E+03</rscale>
<asrwt>0</asrwt>
<pdfrwt beam="1">  1        2 0.32891667E+00 0.65886360E+03</pdfrwt>
<pdfrwt beam="2">  1       -2 0.21502383E-01 0.65886360E+03</pdfrwt>
<totfact> 0.10923934E+02</totfact>
</mgrwt>
</event>
<event>
 4    2  0.3747163E-007  0.7147581E+03  0.7818608E-02  0.9940739E-01
          2   -1    0    0  501    0  0.00000000000E+00  0.00000000000E+00  0.13618796787E+04  0.13618796787E+04  0.25500000000E-02 0. -1.
         -2   -1    0    0    0  501 -0.00000000000E+00 -0.00000000000E+00 -0.68842110340E+03  0.68842110340E+03  0.25500000000E-02 0.  1.
    8880023    1    1    2    0    0 -0.24162770029E+03  0.13669308328E+03  0.12226289792E+04  0.14162276553E+04  0.65864270000E+03 0. -1.
    8880022    1    1    2    0    0  0.24162770029E+03 -0.13669308328E+03 -0.54917040392E+03  0.63407312679E+03  0.15294330000E+03 0.  0.
<mgrwt>
<rscale>  0 0.58326886E+03</rscale>
<asrwt>0</asrwt>
<pdfrwt beam="1">  1        2 0.20951995E+00 0.71475811E+03</pdfrwt>
<pdfrwt beam="2">  1       -2 0.10591094E+00 0.71475811E+03</pdfrwt>
<totfact> 0.11252685E+01</totfact>
</mgrwt>
</event>
<event>
 4    2  0.3747163E-007  0.1060548E+04  0.7818608E-02  0.9306308E-01
         -2   -1    0    0    0  501 -0.00000000000E+00  0.00000000000E+00  0.80407338983E+03  0.80407338983E+03  0.25500000000E-02 0.  1.
          2   -1    0    0  501    0  0.00000000000E+00 -0.00000000000E+00 -0.16381575745E+04  0.16381575745E+04  0.25500000000E-02 0. -1.
    8880023    1    1    2    0    0 -0.80993669922E+03  0.18695882387E+03  0.22811524007E+03  0.10848031285E+04  0.65864270000E+03 0.  0.
    8880022    1    1    2    0    0  0.80993669922E+03 -0.18695882387E+03 -0.10621994248E+04  0.13574278359E+04  0.15294330000E+03 0.  0.
<mgrwt>
<rscale>  0 0.10020421E+04</rscale>
<asrwt>0</asrwt>
<pdfrwt beam="1">  1        2 0.25202424E+00 0.10605476E+04</pdfrwt>
<pdfrwt beam="2">  1       -2 0.12370360E+00 0.10605476E+04</pdfrwt>
<totfact> 0.51641879E+00</totfact>
</mgrwt>
</event>
<event>
 4    2  0.3747163E-007  0.7312858E+03  0.7818608E-02  0.9886099E-01
         -2   -1    0    0    0  501 -0.00000000000E+00  0.00000000000E+00  0.13314877873E+03  0.13314877876E+03  0.25500000000E-02 0.  1.
          2   -1    0    0  501    0  0.00000000000E+00 -0.00000000000E+00 -0.30006214106E+04  0.30006214106E+04  0.25500000000E-02 0. -1.
    8880023    1    1    2    0    0 -0.13639191930E+03  0.28699470102E+03 -0.25712438949E+04  0.26732141866E+04  0.65864270000E+03 0.  0.
    8880022    1    1    2    0    0  0.13639191930E+03 -0.28699470102E+03 -0.29622873695E+03  0.46055600275E+03  0.15294330000E+03 0.  0.
<mgrwt>
<rscale>  0 0.60939741E+03</rscale>
<asrwt>0</asrwt>
<pdfrwt beam="1">  1        2 0.46163401E+00 0.73128580E+03</pdfrwt>
<pdfrwt beam="2">  1       -2 0.20484430E-01 0.73128580E+03</pdfrwt>
<totfact> 0.37708411E+01</totfact>
</mgrwt>
</event>
<event>
 4    2  0.3747163E-007  0.7451692E+03  0.7818608E-02  0.9845138E-01
          2   -1    0    0  501    0  0.00000000000E+00  0.00000000000E+00  0.26539438592E+04  0.26539438592E+04  0.25500000000E-02 0. -1.
         -2   -1    0    0    0  501 -0.00000000000E+00 -0.00000000000E+00 -0.21569571893E+03  0.21569571895E+03  0.25500000000E-02 0.  1.
    8880023    1    1    2    0    0  0.14957090901E+02 -0.34819987158E+03  0.23681674145E+04  0.24826385106E+04  0.65864270000E+03 0. -1.
    8880022    1    1    2    0    0 -0.14957090901E+02  0.34819987158E+03  0.70080725795E+02  0.38700106754E+03  0.15294330000E+03 0.  1.
<mgrwt>
<rscale>  0 0.62995446E+03</rscale>
<asrwt>0</asrwt>
<pdfrwt beam="1">  1        2 0.40829908E+00 0.74516916E+03</pdfrwt>
<pdfrwt beam="2">  1       -2 0.33183955E-01 0.74516916E+03</pdfrwt>
<totfact> 0.25158650E+01</totfact>
</mgrwt>
</event>
<event>
 4    2  0.3747163E-007  0.6947821E+03  0.7818608E-02  0.1001958E+00
         -2   -1    0    0    0  501 -0.00000000000E+00  0.00000000000E+00  0.21082264613E+03  0.21082264614E+03  0.25500000000E-02 0.  1.
          2   -1    0    0  501    0  0.00000000000E+00 -0.00000000000E+00 -0.14791915951E+04  0.14791915951E+04  0.25500000000E-02 0. -1.
    8880023    1    1    2    0    0  0.20971196014E+03  0.70233818783E+02 -0.12377044978E+04  0.14193782179E+04  0.65864270000E+03 0. -1.
    8880022    1    1    2    0    0 -0.20971196014E+03 -0.70233818783E+02 -0.30664451216E+02  0.27063602330E+03  0.15294330000E+03 0.  0.
<mgrwt>
<rscale>  0 0.54800106E+03</rscale>
<asrwt>0</asrwt>
<pdfrwt beam="1">  1        2 0.22756793E+00 0.69478205E+03</pdfrwt>
<pdfrwt beam="2">  1       -2 0.32434254E-01 0.69478205E+03</pdfrwt>
<totfact> 0.11804323E+02</totfact>
</mgrwt>
</event>
<event>
 4    2  0.3747163E-007  0.9631967E+03  0.7818608E-02  0.9431376E-01
         -2   -1    0    0    0  501 -0.00000000000E+00  0.00000000000E+00  0.67350549446E+03  0.67350549446E+03  0.25500000000E-02 0.  1.
          2   -1    0    0  501    0  0.00000000000E+00 -0.00000000000E+00 -0.12645443243E+04  0.12645443243E+04  0.25500000000E-02 0. -1.
    8880023    1    1    2    0    0 -0.20550581379E+03  0.67209001819E+03 -0.72610229947E+03  0.12062223624E+04  0.65864270000E+03 0.  0.
    8880022    1    1    2    0    0  0.20550581379E+03 -0.67209001819E+03  0.13506346960E+03  0.73182745637E+03  0.15294330000E+03 0.  0.
<mgrwt>
<rscale>  0 0.89537943E+03</rscale>
<asrwt>0</asrwt>
<pdfrwt beam="1">  1        2 0.19454528E+00 0.96319668E+03</pdfrwt>
<pdfrwt beam="2">  1       -2 0.10361623E+00 0.96319668E+03</pdfrwt>
<totfact> 0.13126285E+01</totfact>
</mgrwt>
</event>
<event>
 4    2  0.3747163E-007  0.7776376E+03  0.7818608E-02  0.9761416E-01
          2   -1    0    0  501    0  0.00000000000E+00  0.00000000000E+00  0.32378902513E+04  0.32378902513E+04  0.25500000000E-02 0. -1.
         -2   -1    0    0    0  501 -0.00000000000E+00 -0.00000000000E+00 -0.54127069812E+03  0.54127069813E+03  0.25500000000E-02 0.  1.
    8880023    1    1    2    0    0 -0.74275902505E+02  0.40668543761E+03  0.30912269747E+04  0.31875389206E+04  0.65864270000E+03 0. -1.
    8880022    1    1    2    0    0  0.74275902505E+02 -0.40668543761E+03 -0.39460742153E+03  0.59162202883E+03  0.15294330000E+03 0.  0.
<mgrwt>
<rscale>  0 0.67474934E+03</rscale>
<asrwt>0</asrwt>
<pdfrwt beam="1">  1        2 0.49813696E+00 0.77763755E+03</pdfrwt>
<pdfrwt beam="2">  1       -2 0.83272415E-01 0.77763755E+03</pdfrwt>
<totfact> 0.16550934E+00</totfact>
</mgrwt>
</event>
<event>
 4    2  0.3747163E-007  0.8286688E+03  0.7818608E-02  0.9651928E-01
         -2   -1    0    0    0  501 -0.00000000000E+00  0.00000000000E+00  0.28198601823E+03  0.28198601824E+03  0.25500000000E-02 0.  1.
          2   -1    0    0  501    0  0.00000000000E+00 -0.00000000000E+00 -0.20003741338E+04  0.20003741338E+04  0.25500000000E-02 0. -1.
    8880023    1    1    2    0    0  0.47944578119E+03 -0.15170231299E+03 -0.14989839743E+04  0.17127886648E+04  0.65864270000E+03 0.  0.
    8880022    1    1    2    0    0 -0.47944578119E+03  0.15170231299E+03 -0.21940414133E+03  0.56957148727E+03  0.15294330000E+03 0.  0.
<mgrwt>
<rscale>  0 0.73952552E+03</rscale>
<asrwt>0</asrwt>
<pdfrwt beam="1">  1        2 0.30774986E+00 0.82866885E+03</pdfrwt>
<pdfrwt beam="2">  1       -2 0.43382466E-01 0.82866885E+03</pdfrwt>
<totfact> 0.34388884E+01</totfact>
</mgrwt>
</event>
<event>
 4    2  0.3747163E-007  0.9550277E+03  0.7818608E-02  0.9442917E-01
         -2   -1    0    0    0  501 -0.00000000000E+00  0.00000000000E+00  0.62784453747E+03  0.62784453748E+03  0.25500000000E-02 0.  1.
          2   -1    0    0  501    0  0.00000000000E+00 -0.00000000000E+00 -0.13711633567E+04  0.13711633567E+04  0.25500000000E-02 0. -1.
    8880023    1    1    2    0    0  0.68955720051E+03 -0.52712530301E+02  0.23260546345E+02  0.95531094566E+03  0.65864270000E+03 0.  1.
    8880022    1    1    2    0    0 -0.68955720051E+03  0.52712530301E+02 -0.76657936561E+03  0.10436969486E+04  0.15294330000E+03 0. -1.
<mgrwt>
<rscale>  0 0.88626399E+03</rscale>
<asrwt>0</asrwt>
<pdfrwt beam="1">  1        2 0.21094821E+00 0.95502772E+03</pdfrwt>
<pdfrwt beam="2">  1       -2 0.96591468E-01 0.95502772E+03</pdfrwt>
<totfact> 0.13466409E+01</totfact>
</mgrwt>
</event>
<event>
 4    2  0.3747163E-007  0.6813897E+03  0.7818608E-02  0.1008548E+00
         -2   -1    0    0    0  501 -0.00000000000E+00  0.00000000000E+00  0.25676574350E+03  0.25676574351E+03  0.25500000000E-02 0.  1.
          2   -1    0    0  501    0  0.00000000000E+00 -0.00000000000E+00 -0.27509734938E+04  0.27509734938E+04  0.25500000000E-02 0. -1.
    8880023    1    1    2    0    0  0.78223859498E+02 -0.15608560256E+03 -0.26447310250E+04  0.27310975978E+04  0.65864270000E+03 0. -1.
    8880022    1    1    2    0    0 -0.78223859498E+02  0.15608560256E+03  0.15052327468E+03  0.27664163959E+03  0.15294330000E+03 0.  0.
<mgrwt>
<rscale>  0 0.52055713E+03</rscale>
<asrwt>0</asrwt>
<pdfrwt beam="1">  1        2 0.42322667E+00 0.68138968E+03</pdfrwt>
<pdfrwt beam="2">  1       -2 0.39502424E-01 0.68138968E+03</pdfrwt>
<totfact> 0.15994886E+01</totfact>
</mgrwt>
</event>
<event>
 4    2  0.3747163E-007  0.7159022E+03  0.7818608E-02  0.9936704E-01
          2   -1    0    0  501    0  0.00000000000E+00  0.00000000000E+00  0.35883222585E+03  0.35883222586E+03  0.25500000000E-02 0. -1.
         -2   -1    0    0    0  501 -0.00000000000E+00 -0.00000000000E+00 -0.11003687117E+04  0.11003687117E+04  0.25500000000E-02 0.  1.
    8880023    1    1    2    0    0 -0.26245481888E+03 -0.99111901428E+02 -0.74732222135E+02  0.71979220074E+03  0.65864270000E+03 0. -1.
    8880022    1    1    2    0    0  0.26245481888E+03  0.99111901428E+02 -0.66680426374E+03  0.73940873684E+03  0.15294330000E+03 0.  0.
<mgrwt>
<rscale>  0 0.58514981E+03</rscale>
<asrwt>0</asrwt>
<pdfrwt beam="1">  1        2 0.55204959E-01 0.71590216E+03</pdfrwt>
<pdfrwt beam="2">  1       -2 0.16928749E+00 0.71590216E+03</pdfrwt>
<totfact> 0.19709332E+01</totfact>
</mgrwt>
</event>
<event>
 4    2  0.3747163E-007  0.6844976E+03  0.7818608E-02  0.1006886E+00
          2   -1    0    0  501    0  0.00000000000E+00  0.00000000000E+00  0.22382672920E+04  0.22382672920E+04  0.25500000000E-02 0. -1.
         -2   -1    0    0    0  501 -0.00000000000E+00 -0.00000000000E+00 -0.48129170057E+03  0.48129170058E+03  0.25500000000E-02 0.  1.
    8880023    1    1    2    0    0  0.10831118957E+03 -0.15164245083E+03  0.21511935925E+04  0.22574700054E+04  0.65864270000E+03 0. -1.
    8880022    1    1    2    0    0 -0.10831118957E+03  0.15164245083E+03 -0.39421800107E+03  0.46208898717E+03  0.15294330000E+03 0.  0.
<mgrwt>
<rscale>  0 0.52731260E+03</rscale>
<asrwt>0</asrwt>
<pdfrwt beam="1">  1        2 0.34434881E+00 0.68449759E+03</pdfrwt>
<pdfrwt beam="2">  1       -2 0.74044877E-01 0.68449759E+03</pdfrwt>
<totfact> 0.85029553E+00</totfact>
</mgrwt>
</event>
<event>
 4    2  0.3747163E-007  0.8708946E+03  0.7818608E-02  0.9574470E-01
         -2   -1    0    0    0  501 -0.00000000000E+00  0.00000000000E+00  0.95835607339E+03  0.95835607339E+03  0.25500000000E-02 0.  1.
          2   -1    0    0  501    0  0.00000000000E+00 -0.00000000000E+00 -0.10600294068E+04  0.10600294068E+04  0.25500000000E-02 0. -1.
    8880023    1    1    2    0    0  0.47828119627E+03  0.30966790116E+03 -0.74459586576E+03  0.11458098975E+04  0.65864270000E+03 0. -1.
    8880022    1    1    2    0    0 -0.47828119627E+03 -0.30966790116E+03  0.64292253239E+03  0.87257558262E+03  0.15294330000E+03 0.  0.
<mgrwt>
<rscale>  0 0.79009194E+03</rscale>
<asrwt>0</asrwt>
<pdfrwt beam="1">  1        2 0.16308145E+00 0.87089455E+03</pdfrwt>
<pdfrwt beam="2">  1       -2 0.14743940E+00 0.87089455E+03</pdfrwt>
<totfact> 0.72673837E+00</totfact>
</mgrwt>
</event>
<event>
 4    2  0.3747163E-007  0.7162929E+03  0.7818608E-02  0.9935335E-01
          2   -1    0    0  501    0  0.00000000000E+00  0.00000000000E+00  0.15050946307E+04  0.15050946307E+04  0.25500000000E-02 0. -1.
         -2   -1    0    0    0  501 -0.00000000000E+00 -0.00000000000E+00 -0.17875263949E+03  0.17875263951E+03  0.25500000000E-02 0.  1.
    8880023    1    1    2    0    0  0.10733581268E+02 -0.28133623847E+03  0.94439391748E+03  0.11853081314E+04  0.65864270000E+03 0.  1.
    8880022    1    1    2    0    0 -0.10733581268E+02  0.28133623847E+03  0.38194807372E+03  0.49853913876E+03  0.15294330000E+03 0. -1.
<mgrwt>
<rscale>  0 0.58578941E+03</rscale>
<asrwt>0</asrwt>
<pdfrwt beam="1">  1        2 0.23155304E+00 0.71629288E+03</pdfrwt>
<pdfrwt beam="2">  1       -2 0.27500404E-01 0.71629288E+03</pdfrwt>
<totfact> 0.15474210E+02</totfact>
</mgrwt>
</event>
<event>
 4    2  0.3747163E-007  0.9609635E+03  0.7818608E-02  0.9434512E-01
          2   -1    0    0  501    0  0.00000000000E+00  0.00000000000E+00  0.15917668091E+04  0.15917668091E+04  0.25500000000E-02 0. -1.
         -2   -1    0    0    0  501 -0.00000000000E+00 -0.00000000000E+00 -0.45681337168E+03  0.45681337168E+03  0.25500000000E-02 0.  1.
    8880023    1    1    2    0    0  0.14090375896E+03 -0.68540993070E+03  0.83120912262E+03  0.12705744583E+04  0.65864270000E+03 0. -1.
    8880022    1    1    2    0    0 -0.14090375896E+03  0.68540993070E+03  0.30374431482E+03  0.77800572247E+03  0.15294330000E+03 0. -1.
<mgrwt>
<rscale>  0 0.89289061E+03</rscale>
<asrwt>0</asrwt>
<pdfrwt beam="1">  1        2 0.24488720E+00 0.96096350E+03</pdfrwt>
<pdfrwt beam="2">  1       -2 0.70278981E-01 0.96096350E+03</pdfrwt>
<totfact> 0.20817273E+01</totfact>
</mgrwt>
</event>
<event>
 4    2  0.6260704E-007  0.8240903E+03  0.7818608E-02  0.9660942E-01
          2   -1    0    0  501    0  0.00000000000E+00  0.00000000000E+00  0.13553631840E+04  0.13553631840E+04  0.25500000000E-02 0. -1.
         -2   -1    0    0    0  501 -0.00000000000E+00 -0.00000000000E+00 -0.17433351350E+04  0.17433351350E+04  0.25500000000E-02 0.  1.
    8880023    1    1    2    0    0  0.49515588289E+03  0.11627207614E+02  0.11845100764E+04  0.14429791640E+04  0.65864270000E+03 0.  0.
    8880022    1    1    2    0    0 -0.49515588289E+03 -0.11627207614E+02 -0.15724820275E+04  0.16557191549E+04  0.15294330000E+03 0.  0.
<mgrwt>
<rscale>  0 0.73390660E+03</rscale>
<asrwt>0</asrwt>
<pdfrwt beam="1">  1        2 0.20851741E+00 0.82409025E+03</pdfrwt>
<pdfrwt beam="2">  1       -2 0.26820541E+00 0.82409025E+03</pdfrwt>
<totfact> 0.78536190E-01</totfact>
</mgrwt>
</event>
<event>
 4    2  0.3747163E-007  0.6915081E+03  0.7818608E-02  0.1003444E+00
          2   -1    0    0  501    0  0.00000000000E+00  0.00000000000E+00  0.10630901503E+04  0.10630901503E+04  0.25500000000E-02 0. -1.
         -2   -1    0    0    0  501 -0.00000000000E+00 -0.00000000000E+00 -0.54867536288E+03  0.54867536288E+03  0.25500000000E-02 0.  1.
    8880023    1    1    2    0    0 -0.25398410436E+02 -0.20911295302E+03  0.90710748299E+03  0.11406259239E+04  0.65864270000E+03 0. -1.
    8880022    1    1    2    0    0  0.25398410436E+02  0.20911295302E+03 -0.39269269558E+03  0.47113958924E+03  0.15294330000E+03 0.  0.
<mgrwt>
<rscale>  0 0.54165608E+03</rscale>
<asrwt>0</asrwt>
<pdfrwt beam="1">  1        2 0.16355233E+00 0.69150814E+03</pdfrwt>
<pdfrwt beam="2">  1       -2 0.84411594E-01 0.69150814E+03</pdfrwt>
<totfact> 0.28767997E+01</totfact>
</mgrwt>
</event>
<event>
 4    2  0.3747163E-007  0.9669482E+03  0.7818608E-02  0.9426138E-01
         -2   -1    0    0    0  501 -0.00000000000E+00  0.00000000000E+00  0.43089967391E+03  0.43089967391E+03  0.25500000000E-02 0.  1.
          2   -1    0    0  501    0  0.00000000000E+00 -0.00000000000E+00 -0.21279202793E+04  0.21279202793E+04  0.25500000000E-02 0. -1.
    8880023    1    1    2    0    0 -0.73164035723E+01  0.70790183247E+03 -0.15389271535E+04  0.18174942983E+04  0.65864270000E+03 0.  0.
    8880022    1    1    2    0    0  0.73164035723E+01 -0.70790183247E+03 -0.15809345192E+03  0.74132565498E+03  0.15294330000E+03 0.  0.
<mgrwt>
<rscale>  0 0.89955525E+03</rscale>
<asrwt>0</asrwt>
<pdfrwt beam="1">  1        2 0.32737235E+00 0.96694816E+03</pdfrwt>
<pdfrwt beam="2">  1       -2 0.66292259E-01 0.96694816E+03</pdfrwt>
<totfact> 0.11964931E+01</totfact>
</mgrwt>
</event>
<event>
 4    2  0.3747163E-007  0.6704431E+03  0.7818608E-02  0.1015347E+00
          2   -1    0    0  501    0  0.00000000000E+00  0.00000000000E+00  0.28298268188E+03  0.28298268189E+03  0.25500000000E-02 0. -1.
         -2   -1    0    0    0  501 -0.00000000000E+00 -0.00000000000E+00 -0.95753572084E+03  0.95753572084E+03  0.25500000000E-02 0.  1.
    8880023    1    1    2    0    0  0.12462531587E+03 -0.12339143694E+02 -0.15995608559E+03  0.68926038578E+03  0.65864270000E+03 0. -1.
    8880022    1    1    2    0    0 -0.12462531587E+03  0.12339143694E+02 -0.51459695337E+03  0.55125801695E+03  0.15294330000E+03 0. -1.
<mgrwt>
<rscale>  0 0.49403684E+03</rscale>
<asrwt>0</asrwt>
<pdfrwt beam="1">  1        2 0.43535798E-01 0.67044308E+03</pdfrwt>
<pdfrwt beam="2">  1       -2 0.14731319E+00 0.67044308E+03</pdfrwt>
<totfact> 0.37452517E+01</totfact>
</mgrwt>
</event>
<event>
 4    2  0.3747163E-007  0.6588164E+03  0.7818608E-02  0.1025403E+00
          2   -1    0    0  501    0  0.00000000000E+00  0.00000000000E+00  0.12213324995E+04  0.12213324995E+04  0.25500000000E-02 0. -1.
         -2   -1    0    0    0  501 -0.00000000000E+00 -0.00000000000E+00 -0.14265576361E+03  0.14265576363E+03  0.25500000000E-02 0.  1.
    8880023    1    1    2    0    0  0.54979488099E+01 -0.14091544302E+02  0.73226079802E+03  0.98501009215E+03  0.65864270000E+03 0.  1.
    8880022    1    1    2    0    0 -0.54979488099E+01  0.14091544302E+02  0.34641593791E+03  0.37897817103E+03  0.15294330000E+03 0.  0.
<mgrwt>
<rscale>  0 0.45786169E+03</rscale>
<asrwt>0</asrwt>
<pdfrwt beam="1">  1        2 0.18789731E+00 0.65881637E+03</pdfrwt>
<pdfrwt beam="2">  1       -2 0.21947040E-01 0.65881637E+03</pdfrwt>
<totfact> 0.33796653E+02</totfact>
</mgrwt>
</event>
<event>
 4    2  0.3747163E-007  0.7276191E+03  0.7818608E-02  0.9897601E-01
         -2   -1    0    0    0  501 -0.00000000000E+00  0.00000000000E+00  0.40952386503E+03  0.40952386504E+03  0.25500000000E-02 0.  1.
          2   -1    0    0  501    0  0.00000000000E+00 -0.00000000000E+00 -0.12899063371E+04  0.12899063371E+04  0.25500000000E-02 0. -1.
    8880023    1    1    2    0    0  0.22537948542E+03  0.21171529460E+03 -0.10789616577E+04  0.13013791698E+04  0.65864270000E+03 0. -1.
    8880022    1    1    2    0    0 -0.22537948542E+03 -0.21171529460E+03  0.19857918562E+03  0.39805103240E+03  0.15294330000E+03 0.  0.
<mgrwt>
<rscale>  0 0.60377677E+03</rscale>
<asrwt>0</asrwt>
<pdfrwt beam="1">  1        2 0.19844713E+00 0.72761905E+03</pdfrwt>
<pdfrwt beam="2">  1       -2 0.63003672E-01 0.72761905E+03</pdfrwt>
<totfact> 0.39968153E+01</totfact>
</mgrwt>
</event>
<event>
 4    2  0.3747163E-007  0.6741982E+03  0.7818608E-02  0.1012816E+00
         -2   -1    0    0    0  501 -0.00000000000E+00  0.00000000000E+00  0.24830694862E+03  0.24830694863E+03  0.25500000000E-02 0.  1.
          2   -1    0    0  501    0  0.00000000000E+00 -0.00000000000E+00 -0.93694543978E+03  0.93694543978E+03  0.25500000000E-02 0. -1.
    8880023    1    1    2    0    0 -0.56948637321E+02 -0.13224941524E+03 -0.70383830732E+03  0.97464435782E+03  0.65864270000E+03 0. -1.
    8880022    1    1    2    0    0  0.56948637321E+02  0.13224941524E+03  0.15199816158E+02  0.21060803059E+03  0.15294330000E+03 0.  0.
<mgrwt>
<rscale>  0 0.50370463E+03</rscale>
<asrwt>0</asrwt>
<pdfrwt beam="1">  1        2 0.14414545E+00 0.67419824E+03</pdfrwt>
<pdfrwt beam="2">  1       -2 0.38201070E-01 0.67419824E+03</pdfrwt>
<totfact> 0.18190695E+02</totfact>
</mgrwt>
</event>
<event>
 4    2  0.3747163E-007  0.7819732E+03  0.7818608E-02  0.9751222E-01
          2   -1    0    0  501    0  0.00000000000E+00  0.00000000000E+00  0.11157968374E+04  0.11157968374E+04  0.25500000000E-02 0. -1.
         -2   -1    0    0    0  501 -0.00000000000E+00 -0.00000000000E+00 -0.35108634741E+03  0.35108634742E+03  0.25500000000E-02 0.  1.
    8880023    1    1    2    0    0  0.26038936602E+03 -0.33146524338E+03  0.35231490168E+03  0.85767582787E+03  0.65864270000E+03 0.  0.
    8880022    1    1    2    0    0 -0.26038936602E+03  0.33146524338E+03  0.41239558834E+03  0.60920735698E+03  0.15294330000E+03 0.  0.
<mgrwt>
<rscale>  0 0.68047244E+03</rscale>
<asrwt>0</asrwt>
<pdfrwt beam="1">  1        2 0.17166105E+00 0.78197317E+03</pdfrwt>
<pdfrwt beam="2">  1       -2 0.54013284E-01 0.78197317E+03</pdfrwt>
<totfact> 0.69672438E+01</totfact>
</mgrwt>
</event>
<event>
 4    2  0.3747163E-007  0.1541823E+04  0.7818608E-02  0.8880654E-01
          2   -1    0    0  501    0  0.00000000000E+00  0.00000000000E+00  0.35693693269E+04  0.35693693269E+04  0.25500000000E-02 0. -1.
         -2   -1    0    0    0  501 -0.00000000000E+00 -0.00000000000E+00 -0.89122397312E+03  0.89122397313E+03  0.25500000000E-02 0.  1.
    8880023    1    1    2    0    0 -0.61687318481E+03 -0.12501496488E+04  0.12405826032E+03  0.15468055239E+04  0.65864270000E+03 0.  1.
    8880022    1    1    2    0    0  0.61687318481E+03  0.12501496488E+04  0.25540870934E+04  0.29137877761E+04  0.15294330000E+03 0.  0.
<mgrwt>
<rscale>  0 0.15057254E+04</rscale>
<asrwt>0</asrwt>
<pdfrwt beam="1">  1        2 0.54913375E+00 0.15418226E+04</pdfrwt>
<pdfrwt beam="2">  1       -2 0.13711138E+00 0.15418226E+04</pdfrwt>
<totfact> 0.26181991E-01</totfact>
</mgrwt>
</event>
<event>
 4    2  0.3747163E-007  0.7455463E+03  0.7818608E-02  0.9844076E-01
          2   -1    0    0  501    0  0.00000000000E+00  0.00000000000E+00  0.18940101488E+04  0.18940101488E+04  0.25500000000E-02 0. -1.
         -2   -1    0    0    0  501 -0.00000000000E+00 -0.00000000000E+00 -0.27307775247E+03  0.27307775248E+03  0.25500000000E-02 0.  1.
    8880023    1    1    2    0    0 -0.32134594812E+03 -0.13698879860E+03  0.16226642674E+04  0.17857431731E+04  0.65864270000E+03 0.  0.
    8880022    1    1    2    0    0  0.32134594812E+03  0.13698879860E+03 -0.17318710728E+01  0.38134472817E+03  0.15294330000E+03 0.  0.
<mgrwt>
<rscale>  0 0.63049885E+03</rscale>
<asrwt>0</asrwt>
<pdfrwt beam="1">  1        2 0.29138618E+00 0.74554635E+03</pdfrwt>
<pdfrwt beam="2">  1       -2 0.42011961E-01 0.74554635E+03</pdfrwt>
<totfact> 0.42295793E+01</totfact>
</mgrwt>
</event>
<event>
 4    2  0.3747163E-007  0.8095987E+03  0.7818608E-02  0.9690414E-01
          2   -1    0    0  501    0  0.00000000000E+00  0.00000000000E+00  0.19907247769E+04  0.19907247769E+04  0.25500000000E-02 0. -1.
         -2   -1    0    0    0  501 -0.00000000000E+00 -0.00000000000E+00 -0.31636679631E+03  0.31636679632E+03  0.25500000000E-02 0.  1.
    8880023    1    1    2    0    0  0.10105916602E+02 -0.47067786924E+03  0.16175392972E+04  0.18088348101E+04  0.65864270000E+03 0. -1.
    8880022    1    1    2    0    0 -0.10105916602E+02  0.47067786924E+03  0.56818683373E+02  0.49825676306E+03  0.15294330000E+03 0.  1.
<mgrwt>
<rscale>  0 0.71590445E+03</rscale>
<asrwt>0</asrwt>
<pdfrwt beam="1">  1        2 0.30626535E+00 0.80959866E+03</pdfrwt>
<pdfrwt beam="2">  1       -2 0.48671814E-01 0.80959866E+03</pdfrwt>
<totfact> 0.27702311E+01</totfact>
</mgrwt>
</event>
<event>
 4    2  0.3747163E-007  0.6783556E+03  0.7818608E-02  0.1010270E+00
         -2   -1    0    0    0  501 -0.00000000000E+00  0.00000000000E+00  0.10585332403E+03  0.10585332406E+03  0.25500000000E-02 0.  1.
          2   -1    0    0  501    0  0.00000000000E+00 -0.00000000000E+00 -0.21265357287E+04  0.21265357287E+04  0.25500000000E-02 0. -1.
    8880023    1    1    2    0    0 -0.14684258561E+03 -0.69234266870E+02 -0.17768261106E+04  0.19019141311E+04  0.65864270000E+03 0.  0.
    8880022    1    1    2    0    0  0.14684258561E+03  0.69234266870E+02 -0.24385629409E+03  0.33047492165E+03  0.15294330000E+03 0.  0.
<mgrwt>
<rscale>  0 0.51367660E+03</rscale>
<asrwt>0</asrwt>
<pdfrwt beam="1">  1        2 0.32715931E+00 0.67835561E+03</pdfrwt>
<pdfrwt beam="2">  1       -2 0.16285128E-01 0.67835561E+03</pdfrwt>
<totfact> 0.17896010E+02</totfact>
</mgrwt>
</event>
<event>
 4    2  0.3747163E-007  0.1220953E+04  0.7818608E-02  0.9137019E-01
          2   -1    0    0  501    0  0.00000000000E+00  0.00000000000E+00  0.22428140969E+04  0.22428140969E+04  0.25500000000E-02 0. -1.
         -2   -1    0    0    0  501 -0.00000000000E+00 -0.00000000000E+00 -0.66631520644E+03  0.66631520644E+03  0.25500000000E-02 0.  1.
    8880023    1    1    2    0    0 -0.70080318538E+03 -0.75219133140E+03  0.13953006365E+04  0.18540741560E+04  0.65864270000E+03 0.  0.
    8880022    1    1    2    0    0  0.70080318538E+03  0.75219133140E+03  0.18119825404E+03  0.10550551474E+04  0.15294330000E+03 0.  0.
<mgrwt>
<rscale>  0 0.11727833E+04</rscale>
<asrwt>0</asrwt>
<pdfrwt beam="1">  1        2 0.34504833E+00 0.12209534E+04</pdfrwt>
<pdfrwt beam="2">  1       -2 0.10251003E+00 0.12209534E+04</pdfrwt>
<totfact> 0.37201477E+00</totfact>
</mgrwt>
</event>
<event>
 4    2  0.3747163E-007  0.8958904E+03  0.7818608E-02  0.9532661E-01
          2   -1    0    0  501    0  0.00000000000E+00  0.00000000000E+00  0.11602328130E+04  0.11602328130E+04  0.25500000000E-02 0. -1.
         -2   -1    0    0    0  501 -0.00000000000E+00 -0.00000000000E+00 -0.85626818544E+03  0.85626818545E+03  0.25500000000E-02 0.  1.
    8880023    1    1    2    0    0  0.60373764200E+03 -0.65652314098E+02  0.81274634103E+03  0.12096181992E+04  0.65864270000E+03 0. -1.
    8880022    1    1    2    0    0 -0.60373764200E+03  0.65652314098E+02 -0.50878171348E+03  0.80688279924E+03  0.15294330000E+03 0.  0.
<mgrwt>
<rscale>  0 0.81918076E+03</rscale>
<asrwt>0</asrwt>
<pdfrwt beam="1">  1        2 0.17849736E+00 0.89589038E+03</pdfrwt>
<pdfrwt beam="2">  1       -2 0.13173357E+00 0.89589038E+03</pdfrwt>
<totfact> 0.84250570E+00</totfact>
</mgrwt>
</event>
<event>
 4    2  0.3747163E-007  0.6796195E+03  0.7818608E-02  0.1009540E+00
         -2   -1    0    0    0  501 -0.00000000000E+00  0.00000000000E+00  0.47833197883E+03  0.47833197884E+03  0.25500000000E-02 0.  1.
          2   -1    0    0  501    0  0.00000000000E+00 -0.00000000000E+00 -0.90577865472E+03  0.90577865472E+03  0.25500000000E-02 0. -1.
    8880023    1    1    2    0    0  0.11456677087E+03 -0.12225761326E+03 -0.73557706155E+03  0.10014770535E+04  0.65864270000E+03 0. -1.
    8880022    1    1    2    0    0 -0.11456677087E+03  0.12225761326E+03  0.30813038566E+03  0.38263358003E+03  0.15294330000E+03 0.  0.
<mgrwt>
<rscale>  0 0.51657983E+03</rscale>
<asrwt>0</asrwt>
<pdfrwt beam="1">  1        2 0.13935056E+00 0.67961951E+03</pdfrwt>
<pdfrwt beam="2">  1       -2 0.73589535E-01 0.67961951E+03</pdfrwt>
<totfact> 0.49404394E+01</totfact>
</mgrwt>
</event>
<event>
 4    2  0.3747163E-007  0.7257768E+03  0.7818608E-02  0.9903503E-01
         -2   -1    0    0    0  501 -0.00000000000E+00  0.00000000000E+00  0.31104953439E+03  0.31104953440E+03  0.25500000000E-02 0.  1.
          2   -1    0    0  501    0  0.00000000000E+00 -0.00000000000E+00 -0.20151807236E+04  0.20151807236E+04  0.25500000000E-02 0. -1.
    8880023    1    1    2    0    0 -0.12488987611E+02 -0.30460760294E+03 -0.18252766753E+04  0.19642777080E+04  0.65864270000E+03 0. -1.
    8880022    1    1    2    0    0  0.12488987611E+02  0.30460760294E+03  0.12114548613E+03  0.36195254994E+03  0.15294330000E+03 0.  0.
<mgrwt>
<rscale>  0 0.60091823E+03</rscale>
<asrwt>0</asrwt>
<pdfrwt beam="1">  1        2 0.31002779E+00 0.72577681E+03</pdfrwt>
<pdfrwt beam="2">  1       -2 0.47853776E-01 0.72577681E+03</pdfrwt>
<totfact> 0.28100378E+01</totfact>
</mgrwt>
</event>
<event>
 4    2  0.3747163E-007  0.9908064E+03  0.7818608E-02  0.9393686E-01
         -2   -1    0    0    0  501 -0.00000000000E+00  0.00000000000E+00  0.92087422152E+03  0.92087422152E+03  0.25500000000E-02 0.  1.
          2   -1    0    0  501    0  0.00000000000E+00 -0.00000000000E+00 -0.31149043469E+04  0.31149043469E+04  0.25500000000E-02 0. -1.
    8880023    1    1    2    0    0  0.16667380843E+03  0.72118442378E+03 -0.28610240209E+04  0.30277311284E+04  0.65864270000E+03 0. -1.
    8880022    1    1    2    0    0 -0.16667380843E+03 -0.72118442378E+03  0.66699389556E+03  0.10080474400E+04  0.15294330000E+03 0.  0.
<mgrwt>
<rscale>  0 0.92597149E+03</rscale>
<asrwt>0</asrwt>
<pdfrwt beam="1">  1        2 0.47921605E+00 0.99080641E+03</pdfrwt>
<pdfrwt beam="2">  1       -2 0.14167296E+00 0.99080641E+03</pdfrwt>
<totfact> 0.52366866E-01</totfact>
</mgrwt>
</event>
<event>
 4    2  0.3747163E-007  0.6988705E+03  0.7818608E-02  0.1000192E+00
         -2   -1    0    0    0  501 -0.00000000000E+00  0.00000000000E+00  0.49443793474E+03  0.49443793475E+03  0.25500000000E-02 0.  1.
          2   -1    0    0  501    0  0.00000000000E+00 -0.00000000000E+00 -0.76277876040E+03  0.76277876041E+03  0.25500000000E-02 0. -1.
    8880023    1    1    2    0    0  0.95922199455E+02 -0.21309332320E+03 -0.52797614308E+03  0.87588746233E+03  0.65864270000E+03 0. -1.
    8880022    1    1    2    0    0 -0.95922199455E+02  0.21309332320E+03  0.25963531742E+03  0.38132923282E+03  0.15294330000E+03 0.  1.
<mgrwt>
<rscale>  0 0.55566163E+03</rscale>
<asrwt>0</asrwt>
<pdfrwt beam="1">  1        2 0.11735058E+00 0.69887055E+03</pdfrwt>
<pdfrwt beam="2">  1       -2 0.76067375E-01 0.69887055E+03</pdfrwt>
<totfact> 0.57742261E+01</totfact>
</mgrwt>
</event>
<event>
 4    2  0.3747163E-007  0.8002233E+03  0.7818608E-02  0.9710314E-01
          2   -1    0    0  501    0  0.00000000000E+00  0.00000000000E+00  0.19656320002E+04  0.19656320002E+04  0.25500000000E-02 0. -1.
         -2   -1    0    0    0  501 -0.00000000000E+00 -0.00000000000E+00 -0.23288805419E+03  0.23288805420E+03  0.25500000000E-02 0.  1.
    8880023    1    1    2    0    0 -0.94501762642E+02  0.44454075185E+03  0.71353336482E+03  0.10721413770E+04  0.65864270000E+03 0.  0.
    8880022    1    1    2    0    0  0.94501762642E+02 -0.44454075185E+03  0.10192105812E+04  0.11263786775E+04  0.15294330000E+03 0.  0.
<mgrwt>
<rscale>  0 0.70406036E+03</rscale>
<asrwt>0</asrwt>
<pdfrwt beam="1">  1        2 0.30240493E+00 0.80022326E+03</pdfrwt>
<pdfrwt beam="2">  1       -2 0.35828931E-01 0.80022326E+03</pdfrwt>
<totfact> 0.52318056E+01</totfact>
</mgrwt>
</event>
<event>
 4    2  0.3747163E-007  0.6892793E+03  0.7818608E-02  0.1004497E+00
         -2   -1    0    0    0  501 -0.00000000000E+00  0.00000000000E+00  0.12715719146E+04  0.12715719146E+04  0.25500000000E-02 0.  1.
          2   -1    0    0  501    0  0.00000000000E+00 -0.00000000000E+00 -0.42888974118E+03  0.42888974119E+03  0.25500000000E-02 0. -1.
    8880023    1    1    2    0    0  0.16118721162E+03  0.12375136670E+03 -0.12446894456E+03  0.70042732840E+03  0.65864270000E+03 0. -1.
    8880022    1    1    2    0    0 -0.16118721162E+03 -0.12375136670E+03  0.96715111798E+03  0.10000343274E+04  0.15294330000E+03 0.  0.
<mgrwt>
<rscale>  0 0.53721590E+03</rscale>
<asrwt>0</asrwt>
<pdfrwt beam="1">  1        2 0.65983038E-01 0.68927928E+03</pdfrwt>
<pdfrwt beam="2">  1       -2 0.19562645E+00 0.68927928E+03</pdfrwt>
<totfact> 0.10702445E+01</totfact>
</mgrwt>
</event>
<event>
 4    2  0.3747163E-007  0.9462268E+03  0.7818608E-02  0.9455564E-01
         -2   -1    0    0    0  501 -0.00000000000E+00  0.00000000000E+00  0.58496188130E+03  0.58496188130E+03  0.25500000000E-02 0.  1.
          2   -1    0    0  501    0  0.00000000000E+00 -0.00000000000E+00 -0.26330405209E+04  0.26330405209E+04  0.25500000000E-02 0. -1.
    8880023    1    1    2    0    0 -0.31381601159E+03  0.60253997618E+03 -0.22924082536E+04  0.24800162740E+04  0.65864270000E+03 0.  0.
    8880022    1    1    2    0    0  0.31381601159E+03 -0.60253997618E+03  0.24432961403E+03  0.73798612814E+03  0.15294330000E+03 0.  0.
<mgrwt>
<rscale>  0 0.87640717E+03</rscale>
<asrwt>0</asrwt>
<pdfrwt beam="1">  1        2 0.40508315E+00 0.94622678E+03</pdfrwt>
<pdfrwt beam="2">  1       -2 0.89994137E-01 0.94622678E+03</pdfrwt>
<totfact> 0.31373043E+00</totfact>
</mgrwt>
</event>
<event>
 4    2  0.3747163E-007  0.6691052E+03  0.7818608E-02  0.1016313E+00
          2   -1    0    0  501    0  0.00000000000E+00  0.00000000000E+00  0.29503751439E+04  0.29503751439E+04  0.25500000000E-02 0. -1.
         -2   -1    0    0    0  501 -0.00000000000E+00 -0.00000000000E+00 -0.13115455774E+03  0.13115455776E+03  0.25500000000E-02 0.  1.
    8880023    1    1    2    0    0 -0.10230395848E+03 -0.58527363317E+02  0.28096289701E+04  0.28882030240E+04  0.65864270000E+03 0. -1.
    8880022    1    1    2    0    0  0.10230395848E+03  0.58527363317E+02  0.95916160933E+01  0.19332667765E+03  0.15294330000E+03 0.  0.
<mgrwt>
<rscale>  0 0.49041072E+03</rscale>
<asrwt>0</asrwt>
<pdfrwt beam="1">  1        2 0.45390388E+00 0.66910519E+03</pdfrwt>
<pdfrwt beam="2">  1       -2 0.20177624E-01 0.66910519E+03</pdfrwt>
<totfact> 0.41959099E+01</totfact>
</mgrwt>
</event>
<event>
 4    2  0.3747163E-007  0.1115731E+04  0.7818608E-02  0.9243741E-01
          2   -1    0    0  501    0  0.00000000000E+00  0.00000000000E+00  0.22734067679E+04  0.22734067679E+04  0.25500000000E-02 0. -1.
         -2   -1    0    0    0  501 -0.00000000000E+00 -0.00000000000E+00 -0.70583792496E+03  0.70583792497E+03  0.25500000000E-02 0.  1.
    8880023    1    1    2    0    0  0.13730962474E+03 -0.89005115040E+03  0.17229391692E+04  0.20526506207E+04  0.65864270000E+03 0.  0.
    8880022    1    1    2    0    0 -0.13730962474E+03  0.89005115040E+03 -0.15537032627E+03  0.92659407223E+03  0.15294330000E+03 0.  0.
<mgrwt>
<rscale>  0 0.10613136E+04</rscale>
<asrwt>0</asrwt>
<pdfrwt beam="1">  1        2 0.34975489E+00 0.11157308E+04</pdfrwt>
<pdfrwt beam="2">  1       -2 0.10859045E+00 0.11157308E+04</pdfrwt>
<totfact> 0.31478684E+00</totfact>
</mgrwt>
</event>
<event>
 4    2  0.3747163E-007  0.6597424E+03  0.7818608E-02  0.1024422E+00
          2   -1    0    0  501    0  0.00000000000E+00  0.00000000000E+00  0.38223167931E+04  0.38223167931E+04  0.25500000000E-02 0. -1.
         -2   -1    0    0    0  501 -0.00000000000E+00 -0.00000000000E+00 -0.13041280750E+03  0.13041280753E+03  0.25500000000E-02 0.  1.
    8880023    1    1    2    0    0  0.24622479800E+02  0.29043142691E+02  0.37321881826E+04  0.37900512671E+04  0.65864270000E+03 0. -1.
    8880022    1    1    2    0    0 -0.24622479800E+02 -0.29043142691E+02 -0.40284197022E+02  0.16267833351E+03  0.15294330000E+03 0.  0.
<mgrwt>
<rscale>  0 0.46124093E+03</rscale>
<asrwt>0</asrwt>
<pdfrwt beam="1">  1        2 0.58804878E+00 0.65974236E+03</pdfrwt>
<pdfrwt beam="2">  1       -2 0.20063508E-01 0.65974236E+03</pdfrwt>
<totfact> 0.11161066E+01</totfact>
</mgrwt>
</event>
<event>
 4    2  0.3747163E-007  0.8411847E+03  0.7818608E-02  0.9627950E-01
          2   -1    0    0  501    0  0.00000000000E+00  0.00000000000E+00  0.49616813037E+03  0.49616813038E+03  0.25500000000E-02 0. -1.
         -2   -1    0    0    0  501 -0.00000000000E+00 -0.00000000000E+00 -0.10448188463E+04  0.10448188463E+04  0.25500000000E-02 0.  1.
    8880023    1    1    2    0    0  0.51538817114E+03 -0.90313198368E+02 -0.12464690193E+03  0.85036962385E+03  0.65864270000E+03 0.  0.
    8880022    1    1    2    0    0 -0.51538817114E+03  0.90313198368E+02 -0.42400381402E+03  0.69061735286E+03  0.15294330000E+03 0.  0.
<mgrwt>
<rscale>  0 0.75473536E+03</rscale>
<asrwt>0</asrwt>
<pdfrwt beam="1">  1        2 0.76333559E-01 0.84118467E+03</pdfrwt>
<pdfrwt beam="2">  1       -2 0.16074136E+00 0.84118467E+03</pdfrwt>
<totfact> 0.15554276E+01</totfact>
</mgrwt>
</event>
<event>
 4    2  0.3747163E-007  0.7469724E+03  0.7818608E-02  0.9840083E-01
          2   -1    0    0  501    0  0.00000000000E+00  0.00000000000E+00  0.31923229048E+04  0.31923229048E+04  0.25500000000E-02 0. -1.
         -2   -1    0    0    0  501 -0.00000000000E+00 -0.00000000000E+00 -0.17249896398E+03  0.17249896400E+03  0.25500000000E-02 0.  1.
    8880023    1    1    2    0    0  0.25632794346E+03  0.24177169050E+03  0.28474503444E+04  0.29437970778E+04  0.65864270000E+03 0. -1.
    8880022    1    1    2    0    0 -0.25632794346E+03 -0.24177169050E+03  0.17237359645E+03  0.42102479107E+03  0.15294330000E+03 0.  0.
<mgrwt>
<rscale>  0 0.63255098E+03</rscale>
<asrwt>0</asrwt>
<pdfrwt beam="1">  1        2 0.49112658E+00 0.74697240E+03</pdfrwt>
<pdfrwt beam="2">  1       -2 0.26538303E-01 0.74697240E+03</pdfrwt>
<totfact> 0.17988133E+01</totfact>
</mgrwt>
</event>
<event>
 4    2  0.3747163E-007  0.7548773E+03  0.7818608E-02  0.9818555E-01
          2   -1    0    0  501    0  0.00000000000E+00  0.00000000000E+00  0.93495728317E+03  0.93495728317E+03  0.25500000000E-02 0. -1.
         -2   -1    0    0    0  501 -0.00000000000E+00 -0.00000000000E+00 -0.48665134887E+03  0.48665134888E+03  0.25500000000E-02 0.  1.
    8880023    1    1    2    0    0  0.24024832923E+03 -0.27983969288E+03  0.62972170857E+03  0.98305093963E+03  0.65864270000E+03 0. -1.
    8880022    1    1    2    0    0 -0.24024832923E+03  0.27983969288E+03 -0.18141577427E+03  0.43855769242E+03  0.15294330000E+03 0.  0.
<mgrwt>
<rscale>  0 0.64376227E+03</rscale>
<asrwt>0</asrwt>
<pdfrwt beam="1">  1        2 0.14383958E+00 0.75487729E+03</pdfrwt>
<pdfrwt beam="2">  1       -2 0.74869438E-01 0.75487729E+03</pdfrwt>
<totfact> 0.45178827E+01</totfact>
</mgrwt>
</event>
<event>
 4    2  0.3747163E-007  0.7449658E+03  0.7818608E-02  0.9845711E-01
          2   -1    0    0  501    0  0.00000000000E+00  0.00000000000E+00  0.27128600865E+04  0.27128600865E+04  0.25500000000E-02 0. -1.
         -2   -1    0    0    0  501 -0.00000000000E+00 -0.00000000000E+00 -0.44324000334E+03  0.44324000335E+03  0.25500000000E-02 0.  1.
    8880023    1    1    2    0    0  0.18911792953E+03 -0.29222976810E+03  0.25673149476E+04  0.26732153065E+04  0.65864270000E+03 0.  0.
    8880022    1    1    2    0    0 -0.18911792953E+03  0.29222976810E+03 -0.29769486444E+03  0.48288478332E+03  0.15294330000E+03 0.  0.
<mgrwt>
<rscale>  0 0.62966067E+03</rscale>
<asrwt>0</asrwt>
<pdfrwt beam="1">  1        2 0.41736310E+00 0.74496579E+03</pdfrwt>
<pdfrwt beam="2">  1       -2 0.68190768E-01 0.74496579E+03</pdfrwt>
<totfact> 0.54292163E+00</totfact>
</mgrwt>
</event>
<event>
 4    2  0.3747163E-007  0.6656677E+03  0.7818608E-02  0.1018980E+00
         -2   -1    0    0    0  501 -0.00000000000E+00  0.00000000000E+00  0.81381244396E+03  0.81381244397E+03  0.25500000000E-02 0.  1.
          2   -1    0    0  501    0  0.00000000000E+00 -0.00000000000E+00 -0.25313882350E+03  0.25313882352E+03  0.25500000000E-02 0. -1.
    8880023    1    1    2    0    0 -0.82358123624E+02 -0.50204187035E+02  0.25706976577E+03  0.71358138405E+03  0.65864270000E+03 0.  0.
    8880022    1    1    2    0    0  0.82358123624E+02  0.50204187035E+02  0.30360385468E+03  0.35336988343E+03  0.15294330000E+03 0.  0.
<mgrwt>
<rscale>  0 0.48056623E+03</rscale>
<asrwt>0</asrwt>
<pdfrwt beam="1">  1        2 0.38944434E-01 0.66566773E+03</pdfrwt>
<pdfrwt beam="2">  1       -2 0.12520192E+00 0.66566773E+03</pdfrwt>
<totfact> 0.64292147E+01</totfact>
</mgrwt>
</event>
<event>
 4    2  0.3747163E-007  0.7442825E+03  0.7818608E-02  0.9847643E-01
          2   -1    0    0  501    0  0.00000000000E+00  0.00000000000E+00  0.17761423895E+04  0.17761423895E+04  0.25500000000E-02 0. -1.
         -2   -1    0    0    0  501 -0.00000000000E+00 -0.00000000000E+00 -0.43365359194E+03  0.43365359194E+03  0.25500000000E-02 0.  1.
    8880023    1    1    2    0    0  0.21383007793E+03  0.27280580039E+03  0.15911483734E+04  0.17566188145E+04  0.65864270000E+03 0. -1.
    8880022    1    1    2    0    0 -0.21383007793E+03 -0.27280580039E+03 -0.24865957586E+03  0.45317716694E+03  0.15294330000E+03 0.  0.
<mgrwt>
<rscale>  0 0.62867215E+03</rscale>
<asrwt>0</asrwt>
<pdfrwt beam="1">  1        2 0.27325268E+00 0.74428255E+03</pdfrwt>
<pdfrwt beam="2">  1       -2 0.66715936E-01 0.74428255E+03</pdfrwt>
<totfact> 0.18913187E+01</totfact>
</mgrwt>
</event>
<event>
 4    2  0.3747163E-007  0.7337313E+03  0.7818608E-02  0.9878599E-01
          2   -1    0    0  501    0  0.00000000000E+00  0.00000000000E+00  0.12022755555E+04  0.12022755555E+04  0.25500000000E-02 0. -1.
         -2   -1    0    0    0  501 -0.00000000000E+00 -0.00000000000E+00 -0.41091401199E+03  0.41091401200E+03  0.25500000000E-02 0.  1.
    8880023    1    1    2    0    0  0.23675179132E+03  0.22022702543E+03  0.96768234225E+03  0.12144013649E+04  0.65864270000E+03 0. -1.
    8880022    1    1    2    0    0 -0.23675179132E+03 -0.22022702543E+03 -0.17632079873E+03  0.39878820257E+03  0.15294330000E+03 0.  0.
<mgrwt>
<rscale>  0 0.61309791E+03</rscale>
<asrwt>0</asrwt>
<pdfrwt beam="1">  1        2 0.18496547E+00 0.73373126E+03</pdfrwt>
<pdfrwt beam="2">  1       -2 0.63217541E-01 0.73373126E+03</pdfrwt>
<totfact> 0.44614934E+01</totfact>
</mgrwt>
</event>
<event>
 4    2  0.3747163E-007  0.8438013E+03  0.7818608E-02  0.9623054E-01
          2   -1    0    0  501    0  0.00000000000E+00  0.00000000000E+00  0.12536780129E+04  0.12536780129E+04  0.25500000000E-02 0. -1.
         -2   -1    0    0    0  501 -0.00000000000E+00 -0.00000000000E+00 -0.95613368899E+03  0.95613368899E+03  0.25500000000E-02 0.  1.
    8880023    1    1    2    0    0  0.14077132085E+03  0.50830482506E+03  0.10062628272E+04  0.13132271104E+04  0.65864270000E+03 0.  0.
    8880022    1    1    2    0    0 -0.14077132085E+03 -0.50830482506E+03 -0.70871850320E+03  0.89658459152E+03  0.15294330000E+03 0.  0.
<mgrwt>
<rscale>  0 0.75788935E+03</rscale>
<asrwt>0</asrwt>
<pdfrwt beam="1">  1        2 0.19287354E+00 0.84380126E+03</pdfrwt>
<pdfrwt beam="2">  1       -2 0.14709749E+00 0.84380126E+03</pdfrwt>
<totfact> 0.56049321E+00</totfact>
</mgrwt>
</event>
<event>
 4    2  0.3747163E-007  0.8344292E+03  0.7818608E-02  0.9640775E-01
          2   -1    0    0  501    0  0.00000000000E+00  0.00000000000E+00  0.83820778280E+03  0.83820778281E+03  0.25500000000E-02 0. -1.
         -2   -1    0    0    0  501 -0.00000000000E+00 -0.00000000000E+00 -0.87127191731E+03  0.87127191732E+03  0.25500000000E-02 0.  1.
    8880023    1    1    2    0    0  0.31997602825E+03 -0.40009654862E+03  0.48488572236E+03  0.96508355954E+03  0.65864270000E+03 0. -1.
    8880022    1    1    2    0    0 -0.31997602825E+03  0.40009654862E+03 -0.51794985687E+03  0.74439614059E+03  0.15294330000E+03 0.  0.
<mgrwt>
<rscale>  0 0.74655202E+03</rscale>
<asrwt>0</asrwt>
<pdfrwt beam="1">  1        2 0.12895504E+00 0.83442921E+03</pdfrwt>
<pdfrwt beam="2">  1       -2 0.13404183E+00 0.83442921E+03</pdfrwt>
<totfact> 0.13086272E+01</totfact>
</mgrwt>
</event>
<event>
 4    2  0.3747163E-007  0.7034717E+03  0.7818608E-02  0.9983093E-01
          2   -1    0    0  501    0  0.00000000000E+00  0.00000000000E+00  0.11451059417E+04  0.11451059417E+04  0.25500000000E-02 0. -1.
         -2   -1    0    0    0  501 -0.00000000000E+00 -0.00000000000E+00 -0.21694725143E+03  0.21694725145E+03  0.25500000000E-02 0.  1.
    8880023    1    1    2    0    0  0.43166961873E+01 -0.24706999150E+03  0.60958116369E+03  0.93083919984E+03  0.65864270000E+03 0.  1.
    8880022    1    1    2    0    0 -0.43166961873E+01  0.24706999150E+03  0.31857752653E+03  0.43121399327E+03  0.15294330000E+03 0.  1.
<mgrwt>
<rscale>  0 0.56397832E+03</rscale>
<asrwt>0</asrwt>
<pdfrwt beam="1">  1        2 0.17617014E+00 0.70347169E+03</pdfrwt>
<pdfrwt beam="2">  1       -2 0.33376501E-01 0.70347169E+03</pdfrwt>
<totfact> 0.17401078E+02</totfact>
</mgrwt>
</event>
<event>
 4    2  0.3747163E-007  0.6926308E+03  0.7818608E-02  0.1002926E+00
          2   -1    0    0  501    0  0.00000000000E+00  0.00000000000E+00  0.35063540113E+04  0.35063540113E+04  0.25500000000E-02 0. -1.
         -2   -1    0    0    0  501 -0.00000000000E+00 -0.00000000000E+00 -0.10578519518E+03  0.10578519521E+03  0.25500000000E-02 0.  1.
    8880023    1    1    2    0    0  0.12974603584E+03  0.17056729429E+03  0.32181289016E+04  0.32918218465E+04  0.65864270000E+03 0.  0.
    8880022    1    1    2    0    0 -0.12974603584E+03 -0.17056729429E+03  0.18243991458E+03  0.32031736004E+03  0.15294330000E+03 0.  0.
<mgrwt>
<rscale>  0 0.54385460E+03</rscale>
<asrwt>0</asrwt>
<pdfrwt beam="1">  1        2 0.53943897E+00 0.69263081E+03</pdfrwt>
<pdfrwt beam="2">  1       -2 0.16274649E-01 0.69263081E+03</pdfrwt>
<totfact> 0.26683534E+01</totfact>
</mgrwt>
</event>
<event>
 4    2  0.3747163E-007  0.7070853E+03  0.7818608E-02  0.9968988E-01
          2   -1    0    0  501    0  0.00000000000E+00  0.00000000000E+00  0.16826608687E+04  0.16826608687E+04  0.25500000000E-02 0. -1.
         -2   -1    0    0    0  501 -0.00000000000E+00 -0.00000000000E+00 -0.31757510588E+03  0.31757510589E+03  0.25500000000E-02 0.  1.
    8880023    1    1    2    0    0  0.11343805321E+03  0.23084905683E+03  0.15102901761E+04  0.16676168928E+04  0.65864270000E+03 0.  0.
    8880022    1    1    2    0    0 -0.11343805321E+03 -0.23084905683E+03 -0.14520441322E+03  0.33261908182E+03  0.15294330000E+03 0.  0.
<mgrwt>
<rscale>  0 0.57031233E+03</rscale>
<asrwt>0</asrwt>
<pdfrwt beam="1">  1        2 0.25887090E+00 0.70708535E+03</pdfrwt>
<pdfrwt beam="2">  1       -2 0.48857709E-01 0.70708535E+03</pdfrwt>
<totfact> 0.40992906E+01</totfact>
</mgrwt>
</event>
<event>
 4    2  0.3747163E-007  0.7075355E+03  0.7818608E-02  0.9967269E-01
         -2   -1    0    0    0  501 -0.00000000000E+00  0.00000000000E+00  0.50338121794E+03  0.50338121794E+03  0.25500000000E-02 0.  1.
          2   -1    0    0  501    0  0.00000000000E+00 -0.00000000000E+00 -0.31308012851E+04  0.31308012851E+04  0.25500000000E-02 0. -1.
    8880023    1    1    2    0    0 -0.11909539841E+02  0.25817516736E+03 -0.30414738159E+04  0.31226862527E+04  0.65864270000E+03 0. -1.
    8880022    1    1    2    0    0  0.11909539841E+02 -0.25817516736E+03  0.41405374874E+03  0.51149625027E+03  0.15294330000E+03 0.  0.
<mgrwt>
<rscale>  0 0.57109020E+03</rscale>
<asrwt>0</asrwt>
<pdfrwt beam="1">  1        2 0.48166173E+00 0.70753548E+03</pdfrwt>
<pdfrwt beam="2">  1       -2 0.77443266E-01 0.70753548E+03</pdfrwt>
<totfact> 0.23136542E+00</totfact>
</mgrwt>
</event>
<event>
 4    2  0.3747163E-007  0.8491268E+03  0.7818608E-02  0.9613205E-01
         -2   -1    0    0    0  501 -0.00000000000E+00  0.00000000000E+00  0.15346898834E+04  0.15346898834E+04  0.25500000000E-02 0.  1.
          2   -1    0    0  501    0  0.00000000000E+00 -0.00000000000E+00 -0.81167232015E+03  0.81167232016E+03  0.25500000000E-02 0. -1.
    8880023    1    1    2    0    0  0.52990790670E+03 -0.80023209803E+02 -0.51191344776E+03  0.99149971657E+03  0.65864270000E+03 0. -1.
    8880022    1    1    2    0    0 -0.52990790670E+03  0.80023209803E+02  0.12349310110E+04  0.13548624870E+04  0.15294330000E+03 0.  0.
<mgrwt>
<rscale>  0 0.76428300E+03</rscale>
<asrwt>0</asrwt>
<pdfrwt beam="1">  1        2 0.12487267E+00 0.84912679E+03</pdfrwt>
<pdfrwt beam="2">  1       -2 0.23610613E+00 0.84912679E+03</pdfrwt>
<totfact> 0.26839299E+00</totfact>
</mgrwt>
</event>
<event>
 4    2  0.3747163E-007  0.7294900E+03  0.7818608E-02  0.9891693E-01
          2   -1    0    0  501    0  0.00000000000E+00  0.00000000000E+00  0.19130516289E+04  0.19130516290E+04  0.25500000000E-02 0. -1.
         -2   -1    0    0    0  501 -0.00000000000E+00 -0.00000000000E+00 -0.17398929829E+03  0.17398929831E+03  0.25500000000E-02 0.  1.
    8880023    1    1    2    0    0  0.31203605497E+03  0.31287216387E+02  0.14879891109E+04  0.16571865284E+04  0.65864270000E+03 0. -1.
    8880022    1    1    2    0    0 -0.31203605497E+03 -0.31287216387E+02  0.25107321975E+03  0.42985439884E+03  0.15294330000E+03 0.  0.
<mgrwt>
<rscale>  0 0.60665577E+03</rscale>
<asrwt>0</asrwt>
<pdfrwt beam="1">  1        2 0.29431564E+00 0.72948996E+03</pdfrwt>
<pdfrwt beam="2">  1       -2 0.26767584E-01 0.72948996E+03</pdfrwt>
<totfact> 0.97062924E+01</totfact>
</mgrwt>
</event>
<event>
 4    2  0.3747163E-007  0.7920276E+03  0.7818608E-02  0.9728307E-01
         -2   -1    0    0    0  501 -0.00000000000E+00  0.00000000000E+00  0.14176871261E+03  0.14176871263E+03  0.25500000000E-02 0.  1.
          2   -1    0    0  501    0  0.00000000000E+00 -0.00000000000E+00 -0.28503875374E+04  0.28503875374E+04  0.25500000000E-02 0. -1.
    8880023    1    1    2    0    0  0.40098730233E+03  0.18084997318E+03 -0.14870274122E+04  0.16848021428E+04  0.65864270000E+03 0.  1.
    8880022    1    1    2    0    0 -0.40098730233E+03 -0.18084997318E+03 -0.12215914126E+04  0.13073541072E+04  0.15294330000E+03 0. -1.
<mgrwt>
<rscale>  0 0.69356150E+03</rscale>
<asrwt>0</asrwt>
<pdfrwt beam="1">  1        2 0.43852112E+00 0.79202761E+03</pdfrwt>
<pdfrwt beam="2">  1       -2 0.21810573E-01 0.79202761E+03</pdfrwt>
<totfact> 0.41239399E+01</totfact>
</mgrwt>
</event>
<event>
 4    2  0.3747163E-007  0.1155999E+04  0.7818608E-02  0.9201128E-01
         -2   -1    0    0    0  501 -0.00000000000E+00  0.00000000000E+00  0.55819253331E+03  0.55819253331E+03  0.25500000000E-02 0.  1.
          2   -1    0    0  501    0  0.00000000000E+00 -0.00000000000E+00 -0.33636570710E+04  0.33636570710E+04  0.25500000000E-02 0. -1.
    8880023    1    1    2    0    0 -0.70822482239E+03 -0.63319988021E+03 -0.27204300619E+04  0.29558542615E+04  0.65864270000E+03 0. -1.
    8880022    1    1    2    0    0  0.70822482239E+03  0.63319988021E+03 -0.85034475874E+02  0.96599534288E+03  0.15294330000E+03 0.  0.
<mgrwt>
<rscale>  0 0.11041795E+04</rscale>
<asrwt>0</asrwt>
<pdfrwt beam="1">  1        2 0.51748569E+00 0.11559994E+04</pdfrwt>
<pdfrwt beam="2">  1       -2 0.85875776E-01 0.11559994E+04</pdfrwt>
<totfact> 0.11949049E+00</totfact>
</mgrwt>
</event>
<event>
 4    2  0.3747163E-007  0.8615952E+03  0.7818608E-02  0.9590732E-01
          2   -1    0    0  501    0  0.00000000000E+00  0.00000000000E+00  0.16681835284E+04  0.16681835284E+04  0.25500000000E-02 0. -1.
         -2   -1    0    0    0  501 -0.00000000000E+00 -0.00000000000E+00 -0.10993922123E+04  0.10993922123E+04  0.25500000000E-02 0.  1.
    8880023    1    1    2    0    0  0.48987517940E+03 -0.26183657138E+03  0.14665127619E+04  0.17008838786E+04  0.65864270000E+03 0.  0.
    8880022    1    1    2    0    0 -0.48987517940E+03  0.26183657138E+03 -0.89772144580E+03  0.10666918621E+04  0.15294330000E+03 0.  0.
<mgrwt>
<rscale>  0 0.77912636E+03</rscale>
<asrwt>0</asrwt>
<pdfrwt beam="1">  1        2 0.25664362E+00 0.86159520E+03</pdfrwt>
<pdfrwt beam="2">  1       -2 0.16913726E+00 0.86159520E+03</pdfrwt>
<totfact> 0.22375519E+00</totfact>
</mgrwt>
</event>
<event>
 4    2  0.3747163E-007  0.7538061E+03  0.7818608E-02  0.9821415E-01
          2   -1    0    0  501    0  0.00000000000E+00  0.00000000000E+00  0.17693653255E+04  0.17693653255E+04  0.25500000000E-02 0. -1.
         -2   -1    0    0    0  501 -0.00000000000E+00 -0.00000000000E+00 -0.97818638760E+03  0.97818638761E+03  0.25500000000E-02 0.  1.
    8880023    1    1    2    0    0 -0.11962385805E+03  0.34655962305E+03  0.16429919333E+04  0.18076631708E+04  0.65864270000E+03 0.  0.
    8880022    1    1    2    0    0  0.11962385805E+03 -0.34655962305E+03 -0.85181299545E+03  0.93988854231E+03  0.15294330000E+03 0.  0.
<mgrwt>
<rscale>  0 0.64225851E+03</rscale>
<asrwt>0</asrwt>
<pdfrwt beam="1">  1        2 0.27221005E+00 0.75380611E+03</pdfrwt>
<pdfrwt beam="2">  1       -2 0.15049022E+00 0.75380611E+03</pdfrwt>
<totfact> 0.27499809E+00</totfact>
</mgrwt>
</event>
<event>
 4    2  0.3747163E-007  0.6881075E+03  0.7818608E-02  0.1005065E+00
          2   -1    0    0  501    0  0.00000000000E+00  0.00000000000E+00  0.14251198900E+04  0.14251198900E+04  0.25500000000E-02 0. -1.
         -2   -1    0    0    0  501 -0.00000000000E+00 -0.00000000000E+00 -0.17361500073E+03  0.17361500074E+03  0.25500000000E-02 0.  1.
    8880023    1    1    2    0    0  0.18903604925E+03 -0.62826062635E+02  0.11219211667E+04  0.13161303327E+04  0.65864270000E+03 0.  0.
    8880022    1    1    2    0    0 -0.18903604925E+03  0.62826062635E+02  0.12958372255E+03  0.28260455804E+03  0.15294330000E+03 0.  0.
<mgrwt>
<rscale>  0 0.53483892E+03</rscale>
<asrwt>0</asrwt>
<pdfrwt beam="1">  1        2 0.21924922E+00 0.68810751E+03</pdfrwt>
<pdfrwt beam="2">  1       -2 0.26709999E-01 0.68810751E+03</pdfrwt>
<totfact> 0.18129984E+02</totfact>
</mgrwt>
</event>
<event>
 4    2  0.3747163E-007  0.7112173E+03  0.7818608E-02  0.9953508E-01
          2   -1    0    0  501    0  0.00000000000E+00  0.00000000000E+00  0.19796027094E+04  0.19796027094E+04  0.25500000000E-02 0. -1.
         -2   -1    0    0    0  501 -0.00000000000E+00 -0.00000000000E+00 -0.13160853380E+03  0.13160853383E+03  0.25500000000E-02 0.  1.
    8880023    1    1    2    0    0 -0.53227999420E+02  0.26303339105E+03  0.12508779816E+04  0.14389321443E+04  0.65864270000E+03 0.  0.
    8880022    1    1    2    0    0  0.53227999420E+02 -0.26303339105E+03  0.59711619398E+03  0.67227909893E+03  0.15294330000E+03 0.  1.
<mgrwt>
<rscale>  0 0.57736675E+03</rscale>
<asrwt>0</asrwt>
<pdfrwt beam="1">  1        2 0.30455424E+00 0.71121726E+03</pdfrwt>
<pdfrwt beam="2">  1       -2 0.20247469E-01 0.71121726E+03</pdfrwt>
<totfact> 0.14726764E+02</totfact>
</mgrwt>
</event>
<event>
 4    2  0.3747163E-007  0.8018836E+03  0.7818608E-02  0.9706738E-01
          2   -1    0    0  501    0  0.00000000000E+00  0.00000000000E+00  0.25802607999E+04  0.25802607999E+04  0.25500000000E-02 0. -1.
         -2   -1    0    0    0  501 -0.00000000000E+00 -0.00000000000E+00 -0.37525107416E+03  0.37525107417E+03  0.25500000000E-02 0.  1.
    8880023    1    1    2    0    0 -0.37146947337E+03 -0.26686623531E+03  0.23242628559E+04  0.24587019313E+04  0.65864270000E+03 0. -1.
    8880022    1    1    2    0    0  0.37146947337E+03  0.26686623531E+03 -0.11925313018E+03  0.49680994280E+03  0.15294330000E+03 0.  0.
<mgrwt>
<rscale>  0 0.70617030E+03</rscale>
<asrwt>0</asrwt>
<pdfrwt beam="1">  1        2 0.39696320E+00 0.80188363E+03</pdfrwt>
<pdfrwt beam="2">  1       -2 0.57730935E-01 0.80188363E+03</pdfrwt>
<totfact> 0.91507136E+00</totfact>
</mgrwt>
</event>
<event>
 4    2  0.3747163E-007  0.1054822E+04  0.7818608E-02  0.9313108E-01
         -2   -1    0    0    0  501 -0.00000000000E+00  0.00000000000E+00  0.11664227102E+04  0.11664227103E+04  0.25500000000E-02 0.  1.
          2   -1    0    0  501    0  0.00000000000E+00 -0.00000000000E+00 -0.24860584139E+04  0.24860584139E+04  0.25500000000E-02 0. -1.
    8880023    1    1    2    0    0 -0.18855279766E+03  0.80205128966E+03 -0.21983056205E+04  0.24382773091E+04  0.65864270000E+03 0. -1.
    8880022    1    1    2    0    0  0.18855279766E+03 -0.80205128966E+03  0.87866991683E+03  0.12142038151E+04  0.15294330000E+03 0.  0.
<mgrwt>
<rscale>  0 0.99585061E+03</rscale>
<asrwt>0</asrwt>
<pdfrwt beam="1">  1        2 0.38247052E+00 0.10548216E+04</pdfrwt>
<pdfrwt beam="2">  1       -2 0.17944965E+00 0.10548216E+04</pdfrwt>
<totfact> 0.64661655E-01</totfact>
</mgrwt>
</event>
<event>
 4    2  0.3747163E-007  0.8988833E+03  0.7818608E-02  0.9527827E-01
          2   -1    0    0  501    0  0.00000000000E+00  0.00000000000E+00  0.21476002679E+04  0.21476002679E+04  0.25500000000E-02 0. -1.
         -2   -1    0    0    0  501 -0.00000000000E+00 -0.00000000000E+00 -0.45416958533E+03  0.45416958534E+03  0.25500000000E-02 0.  1.
    8880023    1    1    2    0    0  0.27744422392E+03  0.54516572209E+03  0.17513748105E+04  0.19685794104E+04  0.65864270000E+03 0. -1.
    8880022    1    1    2    0    0 -0.27744422392E+03 -0.54516572209E+03 -0.57944127943E+02  0.63319044284E+03  0.15294330000E+03 0.  1.
<mgrwt>
<rscale>  0 0.82262999E+03</rscale>
<asrwt>0</asrwt>
<pdfrwt beam="1">  1        2 0.33040004E+00 0.89888329E+03</pdfrwt>
<pdfrwt beam="2">  1       -2 0.69872244E-01 0.89888329E+03</pdfrwt>
<totfact> 0.10493274E+01</totfact>
</mgrwt>
</event>
<event>
 4    2  0.3747163E-007  0.7479009E+03  0.7818608E-02  0.9837503E-01
          2   -1    0    0  501    0  0.00000000000E+00  0.00000000000E+00  0.17290091019E+04  0.17290091019E+04  0.25500000000E-02 0. -1.
         -2   -1    0    0    0  501 -0.00000000000E+00 -0.00000000000E+00 -0.82175537768E+03  0.82175537768E+03  0.25500000000E-02 0.  1.
    8880023    1    1    2    0    0  0.33365666553E+03  0.11924233859E+03  0.15952791946E+04  0.17618942706E+04  0.65864270000E+03 0. -1.
    8880022    1    1    2    0    0 -0.33365666553E+03 -0.11924233859E+03 -0.68802547037E+03  0.78887020900E+03  0.15294330000E+03 0.  0.
<mgrwt>
<rscale>  0 0.63388199E+03</rscale>
<asrwt>0</asrwt>
<pdfrwt beam="1">  1        2 0.26600140E+00 0.74790087E+03</pdfrwt>
<pdfrwt beam="2">  1       -2 0.12642391E+00 0.74790087E+03</pdfrwt>
<totfact> 0.45376624E+00</totfact>
</mgrwt>
</event>
<event>
 4    2  0.3747163E-007  0.8286581E+03  0.7818608E-02  0.9651949E-01
          2   -1    0    0  501    0  0.00000000000E+00  0.00000000000E+00  0.28806546279E+04  0.28806546279E+04  0.25500000000E-02 0. -1.
         -2   -1    0    0    0  501 -0.00000000000E+00 -0.00000000000E+00 -0.43026458143E+03  0.43026458144E+03  0.25500000000E-02 0.  1.
    8880023    1    1    2    0    0  0.37255862281E+03 -0.33773379698E+03  0.26284478123E+04  0.27559775313E+04  0.65864270000E+03 0.  0.
    8880022    1    1    2    0    0 -0.37255862281E+03  0.33773379698E+03 -0.17805776578E+03  0.55494167803E+03  0.15294330000E+03 0.  0.
<mgrwt>
<rscale>  0 0.73951237E+03</rscale>
<asrwt>0</asrwt>
<pdfrwt beam="1">  1        2 0.44317763E+00 0.82865810E+03</pdfrwt>
<pdfrwt beam="2">  1       -2 0.66194552E-01 0.82865810E+03</pdfrwt>
<totfact> 0.45383322E+00</totfact>
</mgrwt>
</event>
<event>
 4    2  0.3747163E-007  0.1004798E+04  0.7818608E-02  0.9375307E-01
          2   -1    0    0  501    0  0.00000000000E+00  0.00000000000E+00  0.14523766561E+04  0.14523766561E+04  0.25500000000E-02 0. -1.
         -2   -1    0    0    0  501 -0.00000000000E+00 -0.00000000000E+00 -0.78198558611E+03  0.78198558611E+03  0.25500000000E-02 0.  1.
    8880023    1    1    2    0    0  0.59483260165E+02 -0.75648623227E+03  0.97727095756E+03  0.14016698643E+04  0.65864270000E+03 0.  0.
    8880022    1    1    2    0    0 -0.59483260165E+02  0.75648623227E+03 -0.30687988753E+03  0.83269237791E+03  0.15294330000E+03 0.  0.
<mgrwt>
<rscale>  0 0.94136014E+03</rscale>
<asrwt>0</asrwt>
<pdfrwt beam="1">  1        2 0.22344256E+00 0.10047984E+04</pdfrwt>
<pdfrwt beam="2">  1       -2 0.12030548E+00 0.10047984E+04</pdfrwt>
<totfact> 0.70790448E+00</totfact>
</mgrwt>
</event>
<event>
 4    2  0.3747163E-007  0.7249803E+03  0.7818608E-02  0.9906081E-01
          2   -1    0    0  501    0  0.00000000000E+00  0.00000000000E+00  0.10055639807E+04  0.10055639807E+04  0.25500000000E-02 0. -1.
         -2   -1    0    0    0  501 -0.00000000000E+00 -0.00000000000E+00 -0.34220031903E+03  0.34220031904E+03  0.25500000000E-02 0.  1.
    8880023    1    1    2    0    0 -0.53340087247E+02  0.29822993907E+03  0.69830519136E+03  0.10065915795E+04  0.65864270000E+03 0. -1.
    8880022    1    1    2    0    0  0.53340087247E+02 -0.29822993907E+03 -0.34941529729E+02  0.34117272016E+03  0.15294330000E+03 0.  0.
<mgrwt>
<rscale>  0 0.59967482E+03</rscale>
<asrwt>0</asrwt>
<pdfrwt beam="1">  1        2 0.15470215E+00 0.72498032E+03</pdfrwt>
<pdfrwt beam="2">  1       -2 0.52646203E-01 0.72498032E+03</pdfrwt>
<totfact> 0.86406819E+01</totfact>
</mgrwt>
</event>
<event>
 4    2  0.3747163E-007  0.9147081E+03  0.7818608E-02  0.9502821E-01
         -2   -1    0    0    0  501 -0.00000000000E+00  0.00000000000E+00  0.37491048116E+03  0.37491048117E+03  0.25500000000E-02 0.  1.
          2   -1    0    0  501    0  0.00000000000E+00 -0.00000000000E+00 -0.19727877819E+04  0.19727877819E+04  0.25500000000E-02 0. -1.
    8880023    1    1    2    0    0 -0.90777084391E+02  0.62820401591E+03 -0.13872443122E+04  0.16616671606E+04  0.65864270000E+03 0.  0.
    8880022    1    1    2    0    0  0.90777084391E+02 -0.62820401591E+03 -0.21063298853E+03  0.68603110245E+03  0.15294330000E+03 0.  0.
<mgrwt>
<rscale>  0 0.84076149E+03</rscale>
<asrwt>0</asrwt>
<pdfrwt beam="1">  1        2 0.30350581E+00 0.91470813E+03</pdfrwt>
<pdfrwt beam="2">  1       -2 0.57678537E-01 0.91470813E+03</pdfrwt>
<totfact> 0.19717345E+01</totfact>
</mgrwt>
</event>
<event>
 4    2  0.3747163E-007  0.7155873E+03  0.7818608E-02  0.9937810E-01
         -2   -1    0    0    0  501 -0.00000000000E+00  0.00000000000E+00  0.19010759738E+03  0.19010759739E+03  0.25500000000E-02 0.  1.
          2   -1    0    0  501    0  0.00000000000E+00 -0.00000000000E+00 -0.24810816062E+04  0.24810816062E+04  0.25500000000E-02 0. -1.
    8880023    1    1    2    0    0  0.20274987916E+03 -0.19273684255E+03 -0.55340240830E+03  0.90461010151E+03  0.65864270000E+03 0.  1.
    8880022    1    1    2    0    0 -0.20274987916E+03  0.19273684255E+03 -0.17375716006E+04  0.17665791021E+04  0.15294330000E+03 0. -1.
<mgrwt>
<rscale>  0 0.58463339E+03</rscale>
<asrwt>0</asrwt>
<pdfrwt beam="1">  1        2 0.38170484E+00 0.71558732E+03</pdfrwt>
<pdfrwt beam="2">  1       -2 0.29247324E-01 0.71558732E+03</pdfrwt>
<totfact> 0.40154193E+01</totfact>
</mgrwt>
</event>
<event>
 4    2  0.3747163E-007  0.6761990E+03  0.7818608E-02  0.1011561E+00
          2   -1    0    0  501    0  0.00000000000E+00  0.00000000000E+00  0.78390605176E+03  0.78390605177E+03  0.25500000000E-02 0. -1.
         -2   -1    0    0    0  501 -0.00000000000E+00 -0.00000000000E+00 -0.34433375587E+03  0.34433375588E+03  0.25500000000E-02 0.  1.
    8880023    1    1    2    0    0  0.74786179920E+02  0.13357382283E+03  0.56231658407E+03  0.87945726777E+03  0.65864270000E+03 0. -1.
    8880022    1    1    2    0    0 -0.74786179920E+02 -0.13357382283E+03 -0.12274428817E+03  0.24878253988E+03  0.15294330000E+03 0.  0.
<mgrwt>
<rscale>  0 0.50858961E+03</rscale>
<asrwt>0</asrwt>
<pdfrwt beam="1">  1        2 0.12060093E+00 0.67619904E+03</pdfrwt>
<pdfrwt beam="2">  1       -2 0.52974424E-01 0.67619904E+03</pdfrwt>
<totfact> 0.12088881E+02</totfact>
</mgrwt>
</event>
<event>
 4    2  0.3747163E-007  0.8470272E+03  0.7818608E-02  0.9617070E-01
         -2   -1    0    0    0  501 -0.00000000000E+00  0.00000000000E+00  0.85633951486E+03  0.85633951487E+03  0.25500000000E-02 0.  1.
          2   -1    0    0  501    0  0.00000000000E+00 -0.00000000000E+00 -0.15976647197E+04  0.15976647197E+04  0.25500000000E-02 0. -1.
    8880023    1    1    2    0    0  0.35452015753E+03  0.39744224415E+03 -0.13733019642E+04  0.16135096438E+04  0.65864270000E+03 0. -1.
    8880022    1    1    2    0    0 -0.35452015753E+03 -0.39744224415E+03  0.63197675942E+03  0.84049459070E+03  0.15294330000E+03 0.  0.
<mgrwt>
<rscale>  0 0.76176634E+03</rscale>
<asrwt>0</asrwt>
<pdfrwt beam="1">  1        2 0.24579457E+00 0.84702720E+03</pdfrwt>
<pdfrwt beam="2">  1       -2 0.13174454E+00 0.84702720E+03</pdfrwt>
<totfact> 0.47581303E+00</totfact>
</mgrwt>
</event>
<event>
 4    2  0.3747163E-007  0.6779107E+03  0.7818608E-02  0.1010531E+00
          2   -1    0    0  501    0  0.00000000000E+00  0.00000000000E+00  0.15315180492E+04  0.15315180492E+04  0.25500000000E-02 0. -1.
         -2   -1    0    0    0  501 -0.00000000000E+00 -0.00000000000E+00 -0.32452773879E+03  0.32452773880E+03  0.25500000000E-02 0.  1.
    8880023    1    1    2    0    0 -0.10082390814E+03 -0.12484872077E+03  0.14042393403E+04  0.15593110641E+04  0.65864270000E+03 0. -1.
    8880022    1    1    2    0    0  0.10082390814E+03  0.12484872077E+03 -0.19724902992E+03  0.29673472387E+03  0.15294330000E+03 0.  0.
<mgrwt>
<rscale>  0 0.51264121E+03</rscale>
<asrwt>0</asrwt>
<pdfrwt beam="1">  1        2 0.23561816E+00 0.67791067E+03</pdfrwt>
<pdfrwt beam="2">  1       -2 0.49927346E-01 0.67791067E+03</pdfrwt>
<totfact> 0.47666442E+01</totfact>
</mgrwt>
</event>
<event>
 4    2  0.3747163E-007  0.7903148E+03  0.7818608E-02  0.9732143E-01
         -2   -1    0    0    0  501 -0.00000000000E+00  0.00000000000E+00  0.67651441529E+03  0.67651441530E+03  0.25500000000E-02 0.  1.
          2   -1    0    0  501    0  0.00000000000E+00 -0.00000000000E+00 -0.25276431424E+04  0.25276431424E+04  0.25500000000E-02 0. -1.
    8880023    1    1    2    0    0 -0.88317037192E+02 -0.42777017575E+03 -0.23762370295E+04  0.25042164141E+04  0.65864270000E+03 0.  0.
    8880022    1    1    2    0    0  0.88317037192E+02  0.42777017575E+03  0.52510830233E+03  0.69994114360E+03  0.15294330000E+03 0.  0.
<mgrwt>
<rscale>  0 0.69134870E+03</rscale>
<asrwt>0</asrwt>
<pdfrwt beam="1">  1        2 0.38886817E+00 0.79031477E+03</pdfrwt>
<pdfrwt beam="2">  1       -2 0.10407914E+00 0.79031477E+03</pdfrwt>
<totfact> 0.26281106E+00</totfact>
</mgrwt>
</event>
<event>
 4    2  0.3747163E-007  0.7647530E+03  0.7818608E-02  0.9792954E-01
          2   -1    0    0  501    0  0.00000000000E+00  0.00000000000E+00  0.21738440379E+04  0.21738440379E+04  0.25500000000E-02 0. -1.
         -2   -1    0    0    0  501 -0.00000000000E+00 -0.00000000000E+00 -0.24786405477E+03  0.24786405478E+03  0.25500000000E-02 0.  1.
    8880023    1    1    2    0    0 -0.35429224796E+03 -0.15973081054E+03  0.18437254562E+04  0.19960387504E+04  0.65864270000E+03 0.  0.
    8880022    1    1    2    0    0  0.35429224796E+03  0.15973081054E+03  0.82254526944E+02  0.42566934235E+03  0.15294330000E+03 0.  0.
<mgrwt>
<rscale>  0 0.65742028E+03</rscale>
<asrwt>0</asrwt>
<pdfrwt beam="1">  1        2 0.33443754E+00 0.76475299E+03</pdfrwt>
<pdfrwt beam="2">  1       -2 0.38132932E-01 0.76475299E+03</pdfrwt>
<totfact> 0.35832997E+01</totfact>
</mgrwt>
</event>
<event>
 4    2  0.3747163E-007  0.9392762E+03  0.7818608E-02  0.9465714E-01
         -2   -1    0    0    0  501 -0.00000000000E+00  0.00000000000E+00  0.16201074985E+04  0.16201074985E+04  0.25500000000E-02 0.  1.
          2   -1    0    0  501    0  0.00000000000E+00 -0.00000000000E+00 -0.10972579261E+04  0.10972579261E+04  0.25500000000E-02 0. -1.
    8880023    1    1    2    0    0 -0.18575712808E+03 -0.64336914295E+03  0.13484790964E+04  0.16433610816E+04  0.65864270000E+03 0.  1.
    8880022    1    1    2    0    0  0.18575712808E+03  0.64336914295E+03 -0.82562952403E+03  0.10740043430E+04  0.15294330000E+03 0.  0.
<mgrwt>
<rscale>  0 0.86859469E+03</rscale>
<asrwt>0</asrwt>
<pdfrwt beam="1">  1        2 0.16880891E+00 0.93927620E+03</pdfrwt>
<pdfrwt beam="2">  1       -2 0.24924731E+00 0.93927620E+03</pdfrwt>
<totfact> 0.14275649E+00</totfact>
</mgrwt>
</event>
<event>
 4    2  0.3747163E-007  0.8896375E+03  0.7818608E-02  0.9542876E-01
          2   -1    0    0  501    0  0.00000000000E+00  0.00000000000E+00  0.21112135871E+04  0.21112135871E+04  0.25500000000E-02 0. -1.
         -2   -1    0    0    0  501 -0.00000000000E+00 -0.00000000000E+00 -0.43210566640E+03  0.43210566641E+03  0.25500000000E-02 0.  1.
    8880023    1    1    2    0    0 -0.55934031661E+03 -0.21161999488E+03  0.17075271355E+04  0.19253840491E+04  0.65864270000E+03 0.  0.
    8880022    1    1    2    0    0  0.55934031661E+03  0.21161999488E+03 -0.28419214786E+02  0.61793520437E+03  0.15294330000E+03 0.  0.
<mgrwt>
<rscale>  0 0.81195243E+03</rscale>
<asrwt>0</asrwt>
<pdfrwt beam="1">  1        2 0.32480209E+00 0.88963746E+03</pdfrwt>
<pdfrwt beam="2">  1       -2 0.66477794E-01 0.88963746E+03</pdfrwt>
<totfact> 0.12261861E+01</totfact>
</mgrwt>
</event>
<event>
 4    2  0.3747163E-007  0.1060797E+04  0.7818608E-02  0.9306014E-01
          2   -1    0    0  501    0  0.00000000000E+00  0.00000000000E+00  0.12642601477E+04  0.12642601477E+04  0.25500000000E-02 0. -1.
         -2   -1    0    0    0  501 -0.00000000000E+00 -0.00000000000E+00 -0.23061914133E+04  0.23061914133E+04  0.25500000000E-02 0.  1.
    8880023    1    1    2    0    0  0.77319502183E+03 -0.30602083476E+03 -0.20175584647E+04  0.22794366975E+04  0.65864270000E+03 0.  0.
    8880022    1    1    2    0    0 -0.77319502183E+03  0.30602083476E+03  0.97562719911E+03  0.12910148635E+04  0.15294330000E+03 0.  0.
<mgrwt>
<rscale>  0 0.10023111E+04</rscale>
<asrwt>0</asrwt>
<pdfrwt beam="1">  1        2 0.19450156E+00 0.10607966E+04</pdfrwt>
<pdfrwt beam="2">  1       -2 0.35479868E+00 0.10607966E+04</pdfrwt>
<totfact> 0.25222281E-01</totfact>
</mgrwt>
</event>
<event>
 4    2  0.3747163E-007  0.1015798E+04  0.7818608E-02  0.9361174E-01
          2   -1    0    0  501    0  0.00000000000E+00  0.00000000000E+00  0.22014311228E+04  0.22014311228E+04  0.25500000000E-02 0. -1.
         -2   -1    0    0    0  501 -0.00000000000E+00 -0.00000000000E+00 -0.10236045159E+04  0.10236045159E+04  0.25500000000E-02 0.  1.
    8880023    1    1    2    0    0 -0.70913136196E+03  0.30849436130E+03  0.19009290455E+04  0.21553137827E+04  0.65864270000E+03 0.  0.
    8880022    1    1    2    0    0  0.70913136196E+03 -0.30849436130E+03 -0.72310243862E+03  0.10697218560E+04  0.15294330000E+03 0.  0.
<mgrwt>
<rscale>  0 0.95340945E+03</rscale>
<asrwt>0</asrwt>
<pdfrwt beam="1">  1        2 0.33868171E+00 0.10157983E+04</pdfrwt>
<pdfrwt beam="2">  1       -2 0.15747762E+00 0.10157983E+04</pdfrwt>
<totfact> 0.13531551E+00</totfact>
</mgrwt>
</event>
<event>
 4    2  0.3747163E-007  0.7566744E+03  0.7818608E-02  0.9813794E-01
          2   -1    0    0  501    0  0.00000000000E+00  0.00000000000E+00  0.24910433587E+03  0.24910433589E+03  0.25500000000E-02 0. -1.
         -2   -1    0    0    0  501 -0.00000000000E+00 -0.00000000000E+00 -0.21103208177E+04  0.21103208177E+04  0.25500000000E-02 0.  1.
    8880023    1    1    2    0    0  0.36394325898E+03 -0.79317503144E+02 -0.42506313774E+03  0.86789102967E+03  0.65864270000E+03 0.  0.
    8880022    1    1    2    0    0 -0.36394325898E+03  0.79317503144E+02 -0.14361533441E+04  0.14915341240E+04  0.15294330000E+03 0.  0.
<mgrwt>
<rscale>  0 0.64627486E+03</rscale>
<asrwt>0</asrwt>
<pdfrwt beam="1">  1        2 0.38323745E-01 0.75667441E+03</pdfrwt>
<pdfrwt beam="2">  1       -2 0.32466473E+00 0.75667441E+03</pdfrwt>
<totfact> 0.31611059E+00</totfact>
</mgrwt>
</event>
<event>
 4    2  0.3747163E-007  0.8159238E+03  0.7818608E-02  0.9677367E-01
         -2   -1    0    0    0  501 -0.00000000000E+00  0.00000000000E+00  0.38073917629E+03  0.38073917630E+03  0.25500000000E-02 0.  1.
          2   -1    0    0  501    0  0.00000000000E+00 -0.00000000000E+00 -0.29457729046E+04  0.29457729046E+04  0.25500000000E-02 0. -1.
    8880023    1    1    2    0    0  0.75178444929E+02  0.47567802888E+03 -0.26857955392E+04  0.28069964856E+04  0.65864270000E+03 0.  0.
    8880022    1    1    2    0    0 -0.75178444929E+02 -0.47567802888E+03  0.12076181089E+03  0.51951559527E+03  0.15294330000E+03 0.  1.
<mgrwt>
<rscale>  0 0.72380455E+03</rscale>
<asrwt>0</asrwt>
<pdfrwt beam="1">  1        2 0.45319582E+00 0.81592377E+03</pdfrwt>
<pdfrwt beam="2">  1       -2 0.58575260E-01 0.81592377E+03</pdfrwt>
<totfact> 0.53917488E+00</totfact>
</mgrwt>
</event>
<event>
 4    2  0.3747163E-007  0.7263971E+03  0.7818608E-02  0.9901506E-01
         -2   -1    0    0    0  501 -0.00000000000E+00  0.00000000000E+00  0.29520262445E+03  0.29520262446E+03  0.25500000000E-02 0.  1.
          2   -1    0    0  501    0  0.00000000000E+00 -0.00000000000E+00 -0.13599523082E+04  0.13599523082E+04  0.25500000000E-02 0. -1.
    8880023    1    1    2    0    0 -0.27047538300E+03  0.14382471079E+03 -0.10921593497E+04  0.13116648702E+04  0.65864270000E+03 0. -1.
    8880022    1    1    2    0    0  0.27047538300E+03 -0.14382471079E+03  0.27409665918E+02  0.34349006251E+03  0.15294330000E+03 0.  0.
<mgrwt>
<rscale>  0 0.60188333E+03</rscale>
<asrwt>0</asrwt>
<pdfrwt beam="1">  1        2 0.20922343E+00 0.72639706E+03</pdfrwt>
<pdfrwt beam="2">  1       -2 0.45415789E-01 0.72639706E+03</pdfrwt>
<totfact> 0.71600125E+01</totfact>
</mgrwt>
</event>
<event>
 4    2  0.3747163E-007  0.7289916E+03  0.7818608E-02  0.9893258E-01
         -2   -1    0    0    0  501 -0.00000000000E+00  0.00000000000E+00  0.24916205361E+03  0.24916205362E+03  0.25500000000E-02 0.  1.
          2   -1    0    0  501    0  0.00000000000E+00 -0.00000000000E+00 -0.20120030167E+04  0.20120030167E+04  0.25500000000E-02 0. -1.
    8880023    1    1    2    0    0 -0.27247309573E+03 -0.15289541609E+03 -0.17689216931E+04  0.19132466540E+04  0.65864270000E+03 0.  0.
    8880022    1    1    2    0    0  0.27247309573E+03  0.15289541609E+03  0.60807300370E+01  0.34791841638E+03  0.15294330000E+03 0.  0.
<mgrwt>
<rscale>  0 0.60589125E+03</rscale>
<asrwt>0</asrwt>
<pdfrwt beam="1">  1        2 0.30953891E+00 0.72899163E+03</pdfrwt>
<pdfrwt beam="2">  1       -2 0.38332625E-01 0.72899163E+03</pdfrwt>
<totfact> 0.43704885E+01</totfact>
</mgrwt>
</event>
<event>
 4    2  0.3747163E-007  0.7296277E+03  0.7818608E-02  0.9891261E-01
         -2   -1    0    0    0  501 -0.00000000000E+00  0.00000000000E+00  0.17239549427E+04  0.17239549427E+04  0.25500000000E-02 0.  1.
          2   -1    0    0  501    0  0.00000000000E+00 -0.00000000000E+00 -0.66536527458E+03  0.66536527459E+03  0.25500000000E-02 0. -1.
    8880023    1    1    2    0    0 -0.31336189529E+03  0.18728708480E+02 -0.43902886847E+03  0.85152979722E+03  0.65864270000E+03 0. -1.
    8880022    1    1    2    0    0  0.31336189529E+03 -0.18728708480E+02  0.14976185366E+04  0.15377904201E+04  0.15294330000E+03 0.  0.
<mgrwt>
<rscale>  0 0.60686687E+03</rscale>
<asrwt>0</asrwt>
<pdfrwt beam="1">  1        2 0.10236389E+00 0.72962775E+03</pdfrwt>
<pdfrwt beam="2">  1       -2 0.26522383E+00 0.72962775E+03</pdfrwt>
<totfact> 0.23485078E+00</totfact>
</mgrwt>
</event>
<event>
 4    2  0.3747163E-007  0.6739569E+03  0.7818608E-02  0.1012972E+00
         -2   -1    0    0    0  501 -0.00000000000E+00  0.00000000000E+00  0.92165857312E+03  0.92165857312E+03  0.25500000000E-02 0.  1.
          2   -1    0    0  501    0  0.00000000000E+00 -0.00000000000E+00 -0.69939516519E+03  0.69939516520E+03  0.25500000000E-02 0. -1.
    8880023    1    1    2    0    0  0.37432872641E+02  0.13786382890E+03 -0.51911359996E+03  0.85070370353E+03  0.65864270000E+03 0.  0.
    8880022    1    1    2    0    0 -0.37432872641E+02 -0.13786382890E+03  0.74137700788E+03  0.77035003479E+03  0.15294330000E+03 0.  1.
<mgrwt>
<rscale>  0 0.50310367E+03</rscale>
<asrwt>0</asrwt>
<pdfrwt beam="1">  1        2 0.10759926E+00 0.67395687E+03</pdfrwt>
<pdfrwt beam="2">  1       -2 0.14179363E+00 0.67395687E+03</pdfrwt>
<totfact> 0.14578779E+01</totfact>
</mgrwt>
</event>
<event>
 4    2  0.3747163E-007  0.8958789E+03  0.7818608E-02  0.9532680E-01
         -2   -1    0    0    0  501 -0.00000000000E+00  0.00000000000E+00  0.81031384977E+03  0.81031384977E+03  0.25500000000E-02 0.  1.
          2   -1    0    0  501    0  0.00000000000E+00 -0.00000000000E+00 -0.16090555848E+04  0.16090555848E+04  0.25500000000E-02 0. -1.
    8880023    1    1    2    0    0  0.38806418433E+03  0.46711338019E+03 -0.13263054109E+04  0.16005264666E+04  0.65864270000E+03 0.  0.
    8880022    1    1    2    0    0 -0.38806418433E+03 -0.46711338019E+03  0.52756367584E+03  0.81884296797E+03  0.15294330000E+03 0.  0.
<mgrwt>
<rscale>  0 0.81916747E+03</rscale>
<asrwt>0</asrwt>
<pdfrwt beam="1">  1        2 0.24754701E+00 0.89587886E+03</pdfrwt>
<pdfrwt beam="2">  1       -2 0.12466367E+00 0.89587886E+03</pdfrwt>
<totfact> 0.53579284E+00</totfact>
</mgrwt>
</event>
<event>
 4    2  0.3747163E-007  0.6815867E+03  0.7818608E-02  0.1008440E+00
          2   -1    0    0  501    0  0.00000000000E+00  0.00000000000E+00  0.39790737416E+03  0.39790737417E+03  0.25500000000E-02 0. -1.
         -2   -1    0    0    0  501 -0.00000000000E+00 -0.00000000000E+00 -0.52989101810E+03  0.52989101810E+03  0.25500000000E-02 0.  1.
    8880023    1    1    2    0    0 -0.14514302836E+03 -0.98405656559E+02 -0.59943117454E+02  0.68421747677E+03  0.65864270000E+03 0.  0.
    8880022    1    1    2    0    0  0.14514302836E+03  0.98405656559E+02 -0.72040526487E+02  0.24358091550E+03  0.15294330000E+03 0. -1.
<mgrwt>
<rscale>  0 0.52099364E+03</rscale>
<asrwt>0</asrwt>
<pdfrwt beam="1">  1        2 0.61216519E-01 0.68158666E+03</pdfrwt>
<pdfrwt beam="2">  1       -2 0.81521696E-01 0.68158666E+03</pdfrwt>
<totfact> 0.10743794E+02</totfact>
</mgrwt>
</event>
<event>
 4    2  0.3747163E-007  0.8732481E+03  0.7818608E-02  0.9570419E-01
         -2   -1    0    0    0  501 -0.00000000000E+00  0.00000000000E+00  0.88979400259E+03  0.88979400259E+03  0.25500000000E-02 0.  1.
          2   -1    0    0  501    0  0.00000000000E+00 -0.00000000000E+00 -0.40667470737E+04  0.40667470737E+04  0.25500000000E-02 0. -1.
    8880023    1    1    2    0    0 -0.42382536158E+03 -0.38616600138E+03  0.64700025246E+03  0.10868172113E+04  0.65864270000E+03 0.  1.
    8880022    1    1    2    0    0  0.42382536158E+03  0.38616600138E+03 -0.38239533236E+04  0.38697238650E+04  0.15294330000E+03 0.  0.
<mgrwt>
<rscale>  0 0.79285406E+03</rscale>
<asrwt>0</asrwt>
<pdfrwt beam="1">  1        2 0.62565338E+00 0.87324815E+03</pdfrwt>
<pdfrwt beam="2">  1       -2 0.13689139E+00 0.87324815E+03</pdfrwt>
<totfact> 0.12430475E-01</totfact>
</mgrwt>
</event>
<event>
 4    2  0.3747163E-007  0.1260634E+04  0.7818608E-02  0.9100323E-01
         -2   -1    0    0    0  501 -0.00000000000E+00  0.00000000000E+00  0.70123280894E+03  0.70123280894E+03  0.25500000000E-02 0.  1.
          2   -1    0    0  501    0  0.00000000000E+00 -0.00000000000E+00 -0.24349849609E+04  0.24349849609E+04  0.25500000000E-02 0. -1.
    8880023    1    1    2    0    0 -0.79698098212E+02  0.10719306661E+04 -0.16079939265E+04  0.20432429650E+04  0.65864270000E+03 0.  0.
    8880022    1    1    2    0    0  0.79698098212E+02 -0.10719306661E+04 -0.12575822547E+03  0.10929748049E+04  0.15294330000E+03 0.  0.
<mgrwt>
<rscale>  0 0.12144251E+04</rscale>
<asrwt>0</asrwt>
<pdfrwt beam="1">  1        2 0.37461307E+00 0.12606337E+04</pdfrwt>
<pdfrwt beam="2">  1       -2 0.10788197E+00 0.12606337E+04</pdfrwt>
<totfact> 0.25481730E+00</totfact>
</mgrwt>
</event>
<event>
 4    2  0.3747163E-007  0.1263561E+04  0.7818608E-02  0.9097683E-01
          2   -1    0    0  501    0  0.00000000000E+00  0.00000000000E+00  0.20651258397E+04  0.20651258397E+04  0.25500000000E-02 0. -1.
         -2   -1    0    0    0  501 -0.00000000000E+00 -0.00000000000E+00 -0.15900724504E+04  0.15900724504E+04  0.25500000000E-02 0.  1.
    8880023    1    1    2    0    0  0.14654604568E+03 -0.10683170386E+04  0.16335075119E+04  0.20651716723E+04  0.65864270000E+03 0.  0.
    8880022    1    1    2    0    0 -0.14654604568E+03  0.10683170386E+04 -0.11584541226E+04  0.15900266179E+04  0.15294330000E+03 0.  0.
<mgrwt>
<rscale>  0 0.12174904E+04</rscale>
<asrwt>0</asrwt>
<pdfrwt beam="1">  1        2 0.31771167E+00 0.12635613E+04</pdfrwt>
<pdfrwt beam="2">  1       -2 0.24462653E+00 0.12635613E+04</pdfrwt>
<totfact> 0.41113059E-01</totfact>
</mgrwt>
</event>
<event>
 4    2  0.3747163E-007  0.8041692E+03  0.7818608E-02  0.9701853E-01
          2   -1    0    0  501    0  0.00000000000E+00  0.00000000000E+00  0.20785996163E+04  0.20785996163E+04  0.25500000000E-02 0. -1.
         -2   -1    0    0    0  501 -0.00000000000E+00 -0.00000000000E+00 -0.38489921012E+03  0.38489921013E+03  0.25500000000E-02 0.  1.
    8880023    1    1    2    0    0  0.41631802284E+03  0.19888975833E+03  0.17950675396E+04  0.19669660674E+04  0.65864270000E+03 0. -1.
    8880022    1    1    2    0    0 -0.41631802284E+03 -0.19888975833E+03 -0.10136713340E+03  0.49653275910E+03  0.15294330000E+03 0.  0.
<mgrwt>
<rscale>  0 0.70906576E+03</rscale>
<asrwt>0</asrwt>
<pdfrwt beam="1">  1        2 0.31978454E+00 0.80416916E+03</pdfrwt>
<pdfrwt beam="2">  1       -2 0.59215265E-01 0.80416916E+03</pdfrwt>
<totfact> 0.16543907E+01</totfact>
</mgrwt>
</event>
<event>
 4    2  0.3747163E-007  0.7248531E+03  0.7818608E-02  0.9906494E-01
         -2   -1    0    0    0  501 -0.00000000000E+00  0.00000000000E+00  0.33331275219E+03  0.33331275220E+03  0.25500000000E-02 0.  1.
          2   -1    0    0  501    0  0.00000000000E+00 -0.00000000000E+00 -0.10092001298E+04  0.10092001298E+04  0.25500000000E-02 0. -1.
    8880023    1    1    2    0    0 -0.21146304158E+03 -0.21652977886E+03 -0.69319963916E+03  0.10029644605E+04  0.65864270000E+03 0. -1.
    8880022    1    1    2    0    0  0.21146304158E+03  0.21652977886E+03  0.17312261590E+02  0.33954842144E+03  0.15294330000E+03 0.  0.
<mgrwt>
<rscale>  0 0.59947573E+03</rscale>
<asrwt>0</asrwt>
<pdfrwt beam="1">  1        2 0.15526156E+00 0.72485307E+03</pdfrwt>
<pdfrwt beam="2">  1       -2 0.51278885E-01 0.72485307E+03</pdfrwt>
<totfact> 0.90713954E+01</totfact>
</mgrwt>
</event>
<event>
 4    2  0.3747163E-007  0.7641617E+03  0.7818608E-02  0.9794450E-01
          2   -1    0    0  501    0  0.00000000000E+00  0.00000000000E+00  0.15029945647E+04  0.15029945647E+04  0.25500000000E-02 0. -1.
         -2   -1    0    0    0  501 -0.00000000000E+00 -0.00000000000E+00 -0.57117959445E+03  0.57117959445E+03  0.25500000000E-02 0.  1.
    8880023    1    1    2    0    0 -0.26129188936E+03 -0.28611081934E+03  0.13067136644E+04  0.15137515184E+04  0.65864270000E+03 0. -1.
    8880022    1    1    2    0    0  0.26129188936E+03  0.28611081934E+03 -0.37489869416E+03  0.56042264077E+03  0.15294330000E+03 0.  0.
<mgrwt>
<rscale>  0 0.65661234E+03</rscale>
<asrwt>0</asrwt>
<pdfrwt beam="1">  1        2 0.23122993E+00 0.76416167E+03</pdfrwt>
<pdfrwt beam="2">  1       -2 0.87873785E-01 0.76416167E+03</pdfrwt>
<totfact> 0.14437558E+01</totfact>
</mgrwt>
</event>
<event>
 4    2  0.3747163E-007  0.7348320E+03  0.7818608E-02  0.9875265E-01
         -2   -1    0    0    0  501 -0.00000000000E+00  0.00000000000E+00  0.35161268532E+03  0.35161268533E+03  0.25500000000E-02 0.  1.
          2   -1    0    0  501    0  0.00000000000E+00 -0.00000000000E+00 -0.15803995241E+04  0.15803995241E+04  0.25500000000E-02 0. -1.
    8880023    1    1    2    0    0  0.22345759364E+03  0.23713833123E+03 -0.13625071033E+04  0.15480322016E+04  0.65864270000E+03 0.  0.
    8880022    1    1    2    0    0 -0.22345759364E+03 -0.23713833123E+03  0.13372026450E+03  0.38398000788E+03  0.15294330000E+03 0.  1.
<mgrwt>
<rscale>  0 0.61475168E+03</rscale>
<asrwt>0</asrwt>
<pdfrwt beam="1">  1        2 0.24313838E+00 0.73483202E+03</pdfrwt>
<pdfrwt beam="2">  1       -2 0.54094260E-01 0.73483202E+03</pdfrwt>
<totfact> 0.37754805E+01</totfact>
</mgrwt>
</event>
<event>
 4    2  0.3747163E-007  0.9526478E+03  0.7818608E-02  0.9446315E-01
         -2   -1    0    0    0  501 -0.00000000000E+00  0.00000000000E+00  0.18589435679E+04  0.18589435679E+04  0.25500000000E-02 0.  1.
          2   -1    0    0  501    0  0.00000000000E+00 -0.00000000000E+00 -0.72730447959E+03  0.72730447960E+03  0.25500000000E-02 0. -1.
    8880023    1    1    2    0    0  0.68476859508E+03 -0.69423923862E+02 -0.29299612413E+03  0.99668683398E+03  0.65864270000E+03 0. -1.
    8880022    1    1    2    0    0 -0.68476859508E+03  0.69423923862E+02  0.14246352125E+04  0.15895612136E+04  0.15294330000E+03 0.  0.
<mgrwt>
<rscale>  0 0.88360238E+03</rscale>
<asrwt>0</asrwt>
<pdfrwt beam="1">  1        2 0.11189300E+00 0.95264784E+03</pdfrwt>
<pdfrwt beam="2">  1       -2 0.28599132E+00 0.95264784E+03</pdfrwt>
<totfact> 0.15241211E+00</totfact>
</mgrwt>
</event>
<event>
 4    2  0.3747163E-007  0.7072329E+03  0.7818608E-02  0.9968423E-01
          2   -1    0    0  501    0  0.00000000000E+00  0.00000000000E+00  0.35794846698E+03  0.35794846698E+03  0.25500000000E-02 0. -1.
         -2   -1    0    0    0  501 -0.00000000000E+00 -0.00000000000E+00 -0.93839406908E+03  0.93839406908E+03  0.25500000000E-02 0.  1.
    8880023    1    1    2    0    0  0.22703621586E+03  0.12174865296E+03 -0.78222980546E+02  0.71154565472E+03  0.65864270000E+03 0. -1.
    8880022    1    1    2    0    0 -0.22703621586E+03 -0.12174865296E+03 -0.50222262155E+03  0.58479688134E+03  0.15294330000E+03 0.  0.
<mgrwt>
<rscale>  0 0.57056759E+03</rscale>
<asrwt>0</asrwt>
<pdfrwt beam="1">  1        2 0.55068995E-01 0.70723291E+03</pdfrwt>
<pdfrwt beam="2">  1       -2 0.14436832E+00 0.70723291E+03</pdfrwt>
<totfact> 0.30324798E+01</totfact>
</mgrwt>
</event>
<event>
 4    2  0.3747163E-007  0.8028257E+03  0.7818608E-02  0.9704719E-01
          2   -1    0    0  501    0  0.00000000000E+00  0.00000000000E+00  0.22512575838E+04  0.22512575838E+04  0.25500000000E-02 0. -1.
         -2   -1    0    0    0  501 -0.00000000000E+00 -0.00000000000E+00 -0.19109249256E+03  0.19109249258E+03  0.25500000000E-02 0.  1.
    8880023    1    1    2    0    0  0.26473091375E+03 -0.37501527297E+03  0.15064388274E+04  0.17070111477E+04  0.65864270000E+03 0.  0.
    8880022    1    1    2    0    0 -0.26473091375E+03  0.37501527297E+03  0.55372626391E+03  0.73533892867E+03  0.15294330000E+03 0.  0.
<mgrwt>
<rscale>  0 0.70736502E+03</rscale>
<asrwt>0</asrwt>
<pdfrwt beam="1">  1        2 0.34634733E+00 0.80282571E+03</pdfrwt>
<pdfrwt beam="2">  1       -2 0.29398844E-01 0.80282571E+03</pdfrwt>
<totfact> 0.52870989E+01</totfact>
</mgrwt>
</event>
<event>
 4    2  0.3747163E-007  0.7923796E+03  0.7818608E-02  0.9727522E-01
         -2   -1    0    0    0  501 -0.00000000000E+00  0.00000000000E+00  0.93335125632E+03  0.93335125633E+03  0.25500000000E-02 0.  1.
          2   -1    0    0  501    0  0.00000000000E+00 -0.00000000000E+00 -0.46298066620E+03  0.46298066621E+03  0.25500000000E-02 0. -1.
    8880023    1    1    2    0    0 -0.23945659621E+03  0.36975088323E+03  0.95681214121E+02  0.79813550110E+03  0.65864270000E+03 0. -1.
    8880022    1    1    2    0    0  0.23945659621E+03 -0.36975088323E+03  0.37468937600E+03  0.59819642144E+03  0.15294330000E+03 0.  0.
<mgrwt>
<rscale>  0 0.69401537E+03</rscale>
<asrwt>0</asrwt>
<pdfrwt beam="1">  1        2 0.71227796E-01 0.79237957E+03</pdfrwt>
<pdfrwt beam="2">  1       -2 0.14359250E+00 0.79237957E+03</pdfrwt>
<totfact> 0.22844805E+01</totfact>
</mgrwt>
</event>
<event>
 4    2  0.3747163E-007  0.7523470E+03  0.7818608E-02  0.9825339E-01
         -2   -1    0    0    0  501 -0.00000000000E+00  0.00000000000E+00  0.78313849215E+02  0.78313849257E+02  0.25500000000E-02 0.  1.
          2   -1    0    0  501    0  0.00000000000E+00 -0.00000000000E+00 -0.46809512040E+04  0.46809512040E+04  0.25500000000E-02 0. -1.
    8880023    1    1    2    0    0 -0.36206885780E+03 -0.33495915936E+02 -0.36753036757E+04  0.37515174462E+04  0.65864270000E+03 0.  0.
    8880022    1    1    2    0    0  0.36206885780E+03  0.33495915936E+02 -0.92733367903E+03  0.10077476070E+04  0.15294330000E+03 0.  0.
<mgrwt>
<rscale>  0 0.64020265E+03</rscale>
<asrwt>0</asrwt>
<pdfrwt beam="1">  1        2 0.72014612E+00 0.75234702E+03</pdfrwt>
<pdfrwt beam="2">  1       -2 0.12048288E-01 0.75234702E+03</pdfrwt>
<totfact> 0.46517156E+00</totfact>
</mgrwt>
</event>
<event>
 4    2  0.3747163E-007  0.1163448E+04  0.7818608E-02  0.9193499E-01
         -2   -1    0    0    0  501 -0.00000000000E+00  0.00000000000E+00  0.14991233102E+04  0.14991233102E+04  0.25500000000E-02 0.  1.
          2   -1    0    0  501    0  0.00000000000E+00 -0.00000000000E+00 -0.88045128016E+03  0.88045128016E+03  0.25500000000E-02 0. -1.
    8880023    1    1    2    0    0  0.64145801940E+03 -0.71297509903E+03 -0.10535406350E+03  0.11682087003E+04  0.65864270000E+03 0.  0.
    8880022    1    1    2    0    0 -0.64145801940E+03  0.71297509903E+03  0.72402609357E+03  0.12113658901E+04  0.15294330000E+03 0.  0.
<mgrwt>
<rscale>  0 0.11120785E+04</rscale>
<asrwt>0</asrwt>
<pdfrwt beam="1">  1        2 0.13545404E+00 0.11634484E+04</pdfrwt>
<pdfrwt beam="2">  1       -2 0.23063435E+00 0.11634484E+04</pdfrwt>
<totfact> 0.25051899E+00</totfact>
</mgrwt>
</event>
<event>
 4    2  0.3747163E-007  0.6983526E+03  0.7818608E-02  0.1000410E+00
          2   -1    0    0  501    0  0.00000000000E+00  0.00000000000E+00  0.17595927385E+04  0.17595927385E+04  0.25500000000E-02 0. -1.
         -2   -1    0    0    0  501 -0.00000000000E+00 -0.00000000000E+00 -0.16598145090E+03  0.16598145091E+03  0.25500000000E-02 0.  1.
    8880023    1    1    2    0    0  0.23167813617E+03 -0.14539943961E+02  0.14572459309E+04  0.16159399983E+04  0.65864270000E+03 0. -1.
    8880022    1    1    2    0    0 -0.23167813617E+03  0.14539943961E+02  0.13636535662E+03  0.30963419102E+03  0.15294330000E+03 0.  0.
<mgrwt>
<rscale>  0 0.55470609E+03</rscale>
<asrwt>0</asrwt>
<pdfrwt beam="1">  1        2 0.27070655E+00 0.69835262E+03</pdfrwt>
<pdfrwt beam="2">  1       -2 0.25535610E-01 0.69835262E+03</pdfrwt>
<totfact> 0.12856149E+02</totfact>
</mgrwt>
</event>
<event>
 4    2  0.3747163E-007  0.9827267E+03  0.7818608E-02  0.9404514E-01
         -2   -1    0    0    0  501 -0.00000000000E+00  0.00000000000E+00  0.45146745866E+03  0.45146745867E+03  0.25500000000E-02 0.  1.
          2   -1    0    0  501    0  0.00000000000E+00 -0.00000000000E+00 -0.19957940316E+04  0.19957940316E+04  0.25500000000E-02 0. -1.
    8880023    1    1    2    0    0 -0.72501482158E+03 -0.79342061411E+02 -0.13629612286E+04  0.16803021071E+04  0.65864270000E+03 0.  0.
    8880022    1    1    2    0    0  0.72501482158E+03  0.79342061411E+02 -0.18136534429E+03  0.76695938312E+03  0.15294330000E+03 0.  0.
<mgrwt>
<rscale>  0 0.91705165E+03</rscale>
<asrwt>0</asrwt>
<pdfrwt beam="1">  1        2 0.30704523E+00 0.98272675E+03</pdfrwt>
<pdfrwt beam="2">  1       -2 0.69456533E-01 0.98272675E+03</pdfrwt>
<totfact> 0.12763049E+01</totfact>
</mgrwt>
</event>
<event>
 4    2  0.3747163E-007  0.7131470E+03  0.7818608E-02  0.9946495E-01
          2   -1    0    0  501    0  0.00000000000E+00  0.00000000000E+00  0.74438226377E+03  0.74438226377E+03  0.25500000000E-02 0. -1.
         -2   -1    0    0    0  501 -0.00000000000E+00 -0.00000000000E+00 -0.89494591731E+03  0.89494591731E+03  0.25500000000E-02 0.  1.
    8880023    1    1    2    0    0  0.25556407938E+03  0.97239248394E+02  0.53105254126E+03  0.88915436114E+03  0.65864270000E+03 0. -1.
    8880022    1    1    2    0    0 -0.25556407938E+03 -0.97239248394E+02 -0.68161619480E+03  0.75017381994E+03  0.15294330000E+03 0.  0.
<mgrwt>
<rscale>  0 0.58059888E+03</rscale>
<asrwt>0</asrwt>
<pdfrwt beam="1">  1        2 0.11452035E+00 0.71314702E+03</pdfrwt>
<pdfrwt beam="2">  1       -2 0.13768399E+00 0.71314702E+03</pdfrwt>
<totfact> 0.14469263E+01</totfact>
</mgrwt>
</event>
<event>
 4    2  0.3747163E-007  0.7431982E+03  0.7818608E-02  0.9850727E-01
          2   -1    0    0  501    0  0.00000000000E+00  0.00000000000E+00  0.10069437101E+04  0.10069437101E+04  0.25500000000E-02 0. -1.
         -2   -1    0    0    0  501 -0.00000000000E+00 -0.00000000000E+00 -0.70553781113E+03  0.70553781113E+03  0.25500000000E-02 0.  1.
    8880023    1    1    2    0    0 -0.34316168097E+03  0.27810277901E+02  0.79713535176E+03  0.10898478454E+04  0.65864270000E+03 0. -1.
    8880022    1    1    2    0    0  0.34316168097E+03 -0.27810277901E+02 -0.49572945282E+03  0.62263367580E+03  0.15294330000E+03 0.  0.
<mgrwt>
<rscale>  0 0.62709863E+03</rscale>
<asrwt>0</asrwt>
<pdfrwt beam="1">  1        2 0.15491442E+00 0.74319820E+03</pdfrwt>
<pdfrwt beam="2">  1       -2 0.10854428E+00 0.74319820E+03</pdfrwt>
<totfact> 0.17213244E+01</totfact>
</mgrwt>
</event>
<event>
 4    2  0.3747163E-007  0.2269467E+04  0.7818608E-02  0.8499509E-01
         -2   -1    0    0    0  501 -0.00000000000E+00  0.00000000000E+00  0.20957735911E+04  0.20957735911E+04  0.25500000000E-02 0.  1.
          2   -1    0    0  501    0  0.00000000000E+00 -0.00000000000E+00 -0.29973443056E+04  0.29973443056E+04  0.25500000000E-02 0. -1.
    8880023    1    1    2    0    0 -0.10102801105E+04  0.19224991245E+04 -0.16334990436E+04  0.27962113863E+04  0.65864270000E+03 0.  0.
    8880022    1    1    2    0    0  0.10102801105E+04 -0.19224991245E+04  0.73192832911E+03  0.22969065104E+04  0.15294330000E+03 0.  0.
<mgrwt>
<rscale>  0 0.22460315E+04</rscale>
<asrwt>0</asrwt>
<pdfrwt beam="1">  1        2 0.46112989E+00 0.22694667E+04</pdfrwt>
<pdfrwt beam="2">  1       -2 0.32242671E+00 0.22694667E+04</pdfrwt>
<totfact> 0.34741154E-02</totfact>
</mgrwt>
</event>
<event>
 4    2  0.3747163E-007  0.7846669E+03  0.7818608E-02  0.9744986E-01
         -2   -1    0    0    0  501 -0.00000000000E+00  0.00000000000E+00  0.34381876860E+03  0.34381876861E+03  0.25500000000E-02 0.  1.
          2   -1    0    0  501    0  0.00000000000E+00 -0.00000000000E+00 -0.13217706462E+04  0.13217706462E+04  0.25500000000E-02 0. -1.
    8880023    1    1    2    0    0 -0.19129861329E+02  0.42605858357E+03 -0.91943449585E+03  0.12087439210E+04  0.65864270000E+03 0. -1.
    8880022    1    1    2    0    0  0.19129861329E+02 -0.42605858357E+03 -0.58517381786E+02  0.45684549381E+03  0.15294330000E+03 0.  0.
<mgrwt>
<rscale>  0 0.68400337E+03</rscale>
<asrwt>0</asrwt>
<pdfrwt beam="1">  1        2 0.20334933E+00 0.78466686E+03</pdfrwt>
<pdfrwt beam="2">  1       -2 0.52895196E-01 0.78466686E+03</pdfrwt>
<totfact> 0.54967914E+01</totfact>
</mgrwt>
</event>
<event>
 4    2  0.3747163E-007  0.6923834E+03  0.7818608E-02  0.1003040E+00
         -2   -1    0    0    0  501 -0.00000000000E+00  0.00000000000E+00  0.10150169879E+04  0.10150169879E+04  0.25500000000E-02 0.  1.
          2   -1    0    0  501    0  0.00000000000E+00 -0.00000000000E+00 -0.43030405406E+03  0.43030405407E+03  0.25500000000E-02 0. -1.
    8880023    1    1    2    0    0  0.68238506925E+02  0.20230701277E+03 -0.11142195218E+03  0.70129143652E+03  0.65864270000E+03 0.  0.
    8880022    1    1    2    0    0 -0.68238506925E+02 -0.20230701277E+03  0.69613488602E+03  0.74402960545E+03  0.15294330000E+03 0.  0.
<mgrwt>
<rscale>  0 0.54337227E+03</rscale>
<asrwt>0</asrwt>
<pdfrwt beam="1">  1        2 0.66200624E-01 0.69238344E+03</pdfrwt>
<pdfrwt beam="2">  1       -2 0.15615646E+00 0.69238344E+03</pdfrwt>
<totfact> 0.20064647E+01</totfact>
</mgrwt>
</event>
<event>
 4    2  0.3747163E-007  0.8778660E+03  0.7818608E-02  0.9562541E-01
         -2   -1    0    0    0  501 -0.00000000000E+00  0.00000000000E+00  0.59789439903E+03  0.59789439904E+03  0.25500000000E-02 0.  1.
          2   -1    0    0  501    0  0.00000000000E+00 -0.00000000000E+00 -0.22852995513E+04  0.22852995513E+04  0.25500000000E-02 0. -1.
    8880023    1    1    2    0    0  0.51832573500E+03 -0.26110721159E+03 -0.20160696902E+04  0.21989055790E+04  0.65864270000E+03 0. -1.
    8880022    1    1    2    0    0 -0.51832573500E+03  0.26110721159E+03  0.32866453798E+03  0.68428837126E+03  0.15294330000E+03 0.  0.
<mgrwt>
<rscale>  0 0.79825876E+03</rscale>
<asrwt>0</asrwt>
<pdfrwt beam="1">  1        2 0.35158454E+00 0.87786602E+03</pdfrwt>
<pdfrwt beam="2">  1       -2 0.91983755E-01 0.87786602E+03</pdfrwt>
<totfact> 0.47477391E+00</totfact>
</mgrwt>
</event>
<event>
 4    2  0.3747163E-007  0.1108789E+04  0.7818608E-02  0.9251334E-01
          2   -1    0    0  501    0  0.00000000000E+00  0.00000000000E+00  0.75196122355E+03  0.75196122355E+03  0.25500000000E-02 0. -1.
         -2   -1    0    0    0  501 -0.00000000000E+00 -0.00000000000E+00 -0.17464772879E+04  0.17464772879E+04  0.25500000000E-02 0.  1.
    8880023    1    1    2    0    0 -0.77719260758E+03 -0.43769133008E+03  0.58058683349E+02  0.11103076451E+04  0.65864270000E+03 0.  0.
    8880022    1    1    2    0    0  0.77719260758E+03  0.43769133008E+03 -0.10525747477E+04  0.13881308664E+04  0.15294330000E+03 0.  0.
<mgrwt>
<rscale>  0 0.10538933E+04</rscale>
<asrwt>0</asrwt>
<pdfrwt beam="1">  1        2 0.11568634E+00 0.11087886E+04</pdfrwt>
<pdfrwt beam="2">  1       -2 0.26868881E+00 0.11087886E+04</pdfrwt>
<totfact> 0.18228181E+00</totfact>
</mgrwt>
</event>
<event>
 4    2  0.3747163E-007  0.6859402E+03  0.7818608E-02  0.1006145E+00
          2   -1    0    0  501    0  0.00000000000E+00  0.00000000000E+00  0.25432293683E+04  0.25432293683E+04  0.25500000000E-02 0. -1.
         -2   -1    0    0    0  501 -0.00000000000E+00 -0.00000000000E+00 -0.12964675614E+03  0.12964675616E+03  0.25500000000E-02 0.  1.
    8880023    1    1    2    0    0  0.34330873543E+02  0.18848118165E+03  0.23047509753E+04  0.24046602732E+04  0.65864270000E+03 0. -1.
    8880022    1    1    2    0    0 -0.34330873543E+02 -0.18848118165E+03  0.10883163686E+03  0.26821585134E+03  0.15294330000E+03 0.  0.
<mgrwt>
<rscale>  0 0.53035891E+03</rscale>
<asrwt>0</asrwt>
<pdfrwt beam="1">  1        2 0.39126604E+00 0.68594021E+03</pdfrwt>
<pdfrwt beam="2">  1       -2 0.19945656E-01 0.68594021E+03</pdfrwt>
<totfact> 0.73907540E+01</totfact>
</mgrwt>
</event>
<event>
 4    2  0.3747163E-007  0.6893112E+03  0.7818608E-02  0.1004482E+00
          2   -1    0    0  501    0  0.00000000000E+00  0.00000000000E+00  0.13290090611E+04  0.13290090611E+04  0.25500000000E-02 0. -1.
         -2   -1    0    0    0  501 -0.00000000000E+00 -0.00000000000E+00 -0.72218535870E+03  0.72218535871E+03  0.25500000000E-02 0.  1.
    8880023    1    1    2    0    0 -0.73566330879E+02  0.18954626694E+03  0.12122254473E+04  0.13945036872E+04  0.65864270000E+03 0. -1.
    8880022    1    1    2    0    0  0.73566330879E+02 -0.18954626694E+03 -0.60540174497E+03  0.65669073252E+03  0.15294330000E+03 0.  0.
<mgrwt>
<rscale>  0 0.53728033E+03</rscale>
<asrwt>0</asrwt>
<pdfrwt beam="1">  1        2 0.20446293E+00 0.68931125E+03</pdfrwt>
<pdfrwt beam="2">  1       -2 0.11110544E+00 0.68931125E+03</pdfrwt>
<totfact> 0.10504003E+01</totfact>
</mgrwt>
</event>
<event>
 4    2  0.3747163E-007  0.1473343E+04  0.7818608E-02  0.8928692E-01
         -2   -1    0    0    0  501 -0.00000000000E+00  0.00000000000E+00  0.98182050944E+03  0.98182050945E+03  0.25500000000E-02 0.  1.
          2   -1    0    0  501    0  0.00000000000E+00 -0.00000000000E+00 -0.34574621482E+04  0.34574621482E+04  0.25500000000E-02 0. -1.
    8880023    1    1    2    0    0  0.50358152916E+03  0.12179229890E+04 -0.27169729683E+04  0.30907415098E+04  0.65864270000E+03 0.  0.
    8880022    1    1    2    0    0 -0.50358152916E+03 -0.12179229890E+04  0.24133132962E+03  0.13485411478E+04  0.15294330000E+03 0.  0.
<mgrwt>
<rscale>  0 0.14352483E+04</rscale>
<asrwt>0</asrwt>
<pdfrwt beam="1">  1        2 0.53191725E+00 0.14733435E+04</pdfrwt>
<pdfrwt beam="2">  1       -2 0.15104931E+00 0.14733435E+04</pdfrwt>
<totfact> 0.24465854E-01</totfact>
</mgrwt>
</event>
<event>
 4    2  0.3747163E-007  0.9927809E+03  0.7818608E-02  0.9391064E-01
          2   -1    0    0  501    0  0.00000000000E+00  0.00000000000E+00  0.15177416124E+04  0.15177416124E+04  0.25500000000E-02 0. -1.
         -2   -1    0    0    0  501 -0.00000000000E+00 -0.00000000000E+00 -0.72386449711E+03  0.72386449711E+03  0.25500000000E-02 0.  1.
    8880023    1    1    2    0    0 -0.74091486716E+03 -0.53375672518E+02  0.10462437204E+04  0.14423036891E+04  0.65864270000E+03 0. -1.
    8880022    1    1    2    0    0  0.74091486716E+03  0.53375672518E+02 -0.25236660518E+03  0.79930242037E+03  0.15294330000E+03 0.  0.
<mgrwt>
<rscale>  0 0.92814751E+03</rscale>
<asrwt>0</asrwt>
<pdfrwt beam="1">  1        2 0.23349871E+00 0.99278095E+03</pdfrwt>
<pdfrwt beam="2">  1       -2 0.11136377E+00 0.99278095E+03</pdfrwt>
<totfact> 0.78742415E+00</totfact>
</mgrwt>
</event>
<event>
 4    2  0.3747163E-007  0.8904294E+03  0.7818608E-02  0.9541573E-01
         -2   -1    0    0    0  501 -0.00000000000E+00  0.00000000000E+00  0.82709134299E+03  0.82709134300E+03  0.25500000000E-02 0.  1.
          2   -1    0    0  501    0  0.00000000000E+00 -0.00000000000E+00 -0.10805615615E+04  0.10805615615E+04  0.25500000000E-02 0. -1.
    8880023    1    1    2    0    0  0.10172919481E+03 -0.59051297114E+03 -0.71010810505E+03  0.11389109383E+04  0.65864270000E+03 0. -1.
    8880022    1    1    2    0    0 -0.10172919481E+03  0.59051297114E+03  0.45663788657E+03  0.76874196622E+03  0.15294330000E+03 0.  0.
<mgrwt>
<rscale>  0 0.81286965E+03</rscale>
<asrwt>0</asrwt>
<pdfrwt beam="1">  1        2 0.16624024E+00 0.89042945E+03</pdfrwt>
<pdfrwt beam="2">  1       -2 0.12724482E+00 0.89042945E+03</pdfrwt>
<totfact> 0.10295892E+01</totfact>
</mgrwt>
</event>
<event>
 4    2  0.3747163E-007  0.8235787E+03  0.7818608E-02  0.9661958E-01
         -2   -1    0    0    0  501 -0.00000000000E+00  0.00000000000E+00  0.14195087937E+04  0.14195087937E+04  0.25500000000E-02 0.  1.
          2   -1    0    0  501    0  0.00000000000E+00 -0.00000000000E+00 -0.77475278463E+03  0.77475278463E+03  0.25500000000E-02 0. -1.
    8880023    1    1    2    0    0 -0.49098506100E+03  0.58355096633E+02 -0.48204839584E+03  0.95428114810E+03  0.65864270000E+03 0. -1.
    8880022    1    1    2    0    0  0.49098506100E+03 -0.58355096633E+02  0.11268044049E+04  0.12399804303E+04  0.15294330000E+03 0.  0.
<mgrwt>
<rscale>  0 0.73327685E+03</rscale>
<asrwt>0</asrwt>
<pdfrwt beam="1">  1        2 0.11919274E+00 0.82357869E+03</pdfrwt>
<pdfrwt beam="2">  1       -2 0.21838597E+00 0.82357869E+03</pdfrwt>
<totfact> 0.36907951E+00</totfact>
</mgrwt>
</event>
<event>
 4    2  0.3747163E-007  0.7519730E+03  0.7818608E-02  0.9826350E-01
          2   -1    0    0  501    0  0.00000000000E+00  0.00000000000E+00  0.35668517759E+04  0.35668517759E+04  0.25500000000E-02 0. -1.
         -2   -1    0    0    0  501 -0.00000000000E+00 -0.00000000000E+00 -0.30554714122E+03  0.30554714123E+03  0.25500000000E-02 0.  1.
    8880023    1    1    2    0    0  0.30412521763E+03 -0.19789135237E+03  0.33788146653E+04  0.34614811691E+04  0.65864270000E+03 0.  0.
    8880022    1    1    2    0    0 -0.30412521763E+03  0.19789135237E+03 -0.11751003061E+03  0.41091774803E+03  0.15294330000E+03 0.  1.
<mgrwt>
<rscale>  0 0.63967417E+03</rscale>
<asrwt>0</asrwt>
<pdfrwt beam="1">  1        2 0.54874642E+00 0.75197297E+03</pdfrwt>
<pdfrwt beam="2">  1       -2 0.47007253E-01 0.75197297E+03</pdfrwt>
<totfact> 0.34028805E+00</totfact>
</mgrwt>
</event>
<event>
 4    2  0.3747163E-007  0.1213513E+04  0.7818608E-02  0.9144097E-01
          2   -1    0    0  501    0  0.00000000000E+00  0.00000000000E+00  0.18383511138E+04  0.18383511138E+04  0.25500000000E-02 0. -1.
         -2   -1    0    0    0  501 -0.00000000000E+00 -0.00000000000E+00 -0.85785845510E+03  0.85785845510E+03  0.25500000000E-02 0.  1.
    8880023    1    1    2    0    0  0.22784543773E+01  0.10192149565E+04  0.11258988262E+04  0.16553738828E+04  0.65864270000E+03 0.  0.
    8880022    1    1    2    0    0 -0.22784543773E+01 -0.10192149565E+04 -0.14540616750E+03  0.10408356861E+04  0.15294330000E+03 0.  0.
<mgrwt>
<rscale>  0 0.11649546E+04</rscale>
<asrwt>0</asrwt>
<pdfrwt beam="1">  1        2 0.28282325E+00 0.12135133E+04</pdfrwt>
<pdfrwt beam="2">  1       -2 0.13197822E+00 0.12135133E+04</pdfrwt>
<totfact> 0.33407472E+00</totfact>
</mgrwt>
</event>
<event>
 4    2  0.3747163E-007  0.7229544E+03  0.7818608E-02  0.9912713E-01
         -2   -1    0    0    0  501 -0.00000000000E+00  0.00000000000E+00  0.26789212711E+03  0.26789212712E+03  0.25500000000E-02 0.  1.
          2   -1    0    0  501    0  0.00000000000E+00 -0.00000000000E+00 -0.12188214105E+04  0.12188214105E+04  0.25500000000E-02 0. -1.
    8880023    1    1    2    0    0 -0.29438279599E+03  0.46814217421E+02 -0.88925854014E+03  0.11460557399E+04  0.65864270000E+03 0.  1.
    8880022    1    1    2    0    0  0.29438279599E+03 -0.46814217421E+02 -0.61670743210E+02  0.34065779767E+03  0.15294330000E+03 0.  0.
<mgrwt>
<rscale>  0 0.59649083E+03</rscale>
<asrwt>0</asrwt>
<pdfrwt beam="1">  1        2 0.18751098E+00 0.72295436E+03</pdfrwt>
<pdfrwt beam="2">  1       -2 0.41214174E-01 0.72295436E+03</pdfrwt>
<totfact> 0.10470984E+02</totfact>
</mgrwt>
</event>
<event>
 4    2  0.3747163E-007  0.6667364E+03  0.7818608E-02  0.1018119E+00
         -2   -1    0    0    0  501 -0.00000000000E+00  0.00000000000E+00  0.23099173821E+03  0.23099173822E+03  0.25500000000E-02 0.  1.
          2   -1    0    0  501    0  0.00000000000E+00 -0.00000000000E+00 -0.10766739125E+04  0.10766739125E+04  0.25500000000E-02 0. -1.
    8880023    1    1    2    0    0  0.73336554171E+02 -0.73136339221E+02 -0.89540966103E+03  0.11163762097E+04  0.65864270000E+03 0. -1.
    8880022    1    1    2    0    0 -0.73336554171E+02  0.73136339221E+02  0.49727486735E+02  0.19128944102E+03  0.15294330000E+03 0.  0.
<mgrwt>
<rscale>  0 0.48371535E+03</rscale>
<asrwt>0</asrwt>
<pdfrwt beam="1">  1        2 0.16564214E+00 0.66673637E+03</pdfrwt>
<pdfrwt beam="2">  1       -2 0.35537191E-01 0.66673637E+03</pdfrwt>
<totfact> 0.17047078E+02</totfact>
</mgrwt>
</event>
<event>
 4    2  0.3747163E-007  0.8998703E+03  0.7818608E-02  0.9526240E-01
          2   -1    0    0  501    0  0.00000000000E+00  0.00000000000E+00  0.31491311524E+04  0.31491311524E+04  0.25500000000E-02 0. -1.
         -2   -1    0    0    0  501 -0.00000000000E+00 -0.00000000000E+00 -0.57578947109E+03  0.57578947109E+03  0.25500000000E-02 0.  1.
    8880023    1    1    2    0    0 -0.48518787417E+03 -0.37489864360E+03  0.28837280706E+04  0.30208697519E+04  0.65864270000E+03 0. -1.
    8880022    1    1    2    0    0  0.48518787417E+03  0.37489864360E+03 -0.31038638928E+03  0.70405087165E+03  0.15294330000E+03 0.  0.
<mgrwt>
<rscale>  0 0.82376598E+03</rscale>
<asrwt>0</asrwt>
<pdfrwt beam="1">  1        2 0.48448171E+00 0.89987025E+03</pdfrwt>
<pdfrwt beam="2">  1       -2 0.88582998E-01 0.89987025E+03</pdfrwt>
<totfact> 0.15982007E+00</totfact>
</mgrwt>
</event>
<event>
 4    2  0.3747163E-007  0.6759492E+03  0.7818608E-02  0.1011715E+00
         -2   -1    0    0    0  501 -0.00000000000E+00  0.00000000000E+00  0.48419610364E+03  0.48419610365E+03  0.25500000000E-02 0.  1.
          2   -1    0    0  501    0  0.00000000000E+00 -0.00000000000E+00 -0.57265372325E+03  0.57265372325E+03  0.25500000000E-02 0. -1.
    8880023    1    1    2    0    0 -0.20480137873E+02  0.15059089470E+03 -0.31356833787E+03  0.74513915640E+03  0.65864270000E+03 0. -1.
    8880022    1    1    2    0    0  0.20480137873E+02 -0.15059089470E+03  0.22511071827E+03  0.31171067051E+03  0.15294330000E+03 0.  0.
<mgrwt>
<rscale>  0 0.50798859E+03</rscale>
<asrwt>0</asrwt>
<pdfrwt beam="1">  1        2 0.88100573E-01 0.67594915E+03</pdfrwt>
<pdfrwt beam="2">  1       -2 0.74491708E-01 0.67594915E+03</pdfrwt>
<totfact> 0.86427916E+01</totfact>
</mgrwt>
</event>
<event>
 4    2  0.3747163E-007  0.7186955E+03  0.7818608E-02  0.9927025E-01
          2   -1    0    0  501    0  0.00000000000E+00  0.00000000000E+00  0.16893168918E+04  0.16893168918E+04  0.25500000000E-02 0. -1.
         -2   -1    0    0    0  501 -0.00000000000E+00 -0.00000000000E+00 -0.19364444972E+03  0.19364444974E+03  0.25500000000E-02 0.  1.
    8880023    1    1    2    0    0 -0.47835070456E+02 -0.28359260019E+03  0.13430204426E+04  0.15232291595E+04  0.65864270000E+03 0. -1.
    8880022    1    1    2    0    0  0.47835070456E+02  0.28359260019E+03  0.15265199950E+03  0.35973218207E+03  0.15294330000E+03 0.  0.
<mgrwt>
<rscale>  0 0.58969230E+03</rscale>
<asrwt>0</asrwt>
<pdfrwt beam="1">  1        2 0.25989490E+00 0.71869546E+03</pdfrwt>
<pdfrwt beam="2">  1       -2 0.29791455E-01 0.71869546E+03</pdfrwt>
<totfact> 0.10569839E+02</totfact>
</mgrwt>
</event>
<event>
 4    2  0.3747163E-007  0.7114427E+03  0.7818608E-02  0.9952682E-01
         -2   -1    0    0    0  501 -0.00000000000E+00  0.00000000000E+00  0.29123908904E+03  0.29123908905E+03  0.25500000000E-02 0.  1.
          2   -1    0    0  501    0  0.00000000000E+00 -0.00000000000E+00 -0.13041079661E+04  0.13041079661E+04  0.25500000000E-02 0. -1.
    8880023    1    1    2    0    0 -0.26388346022E+03 -0.52019885611E+02 -0.10658090954E+04  0.12814444128E+04  0.65864270000E+03 0. -1.
    8880022    1    1    2    0    0  0.26388346022E+03  0.52019885611E+02  0.52940218405E+02  0.31390264226E+03  0.15294330000E+03 0.  0.
<mgrwt>
<rscale>  0 0.57774636E+03</rscale>
<asrwt>0</asrwt>
<pdfrwt beam="1">  1        2 0.20063199E+00 0.71144273E+03</pdfrwt>
<pdfrwt beam="2">  1       -2 0.44806014E-01 0.71144273E+03</pdfrwt>
<totfact> 0.79281412E+01</totfact>
</mgrwt>
</event>
<event>
 4    2  0.3747163E-007  0.7872484E+03  0.7818608E-02  0.9739078E-01
          2   -1    0    0  501    0  0.00000000000E+00  0.00000000000E+00  0.95468759558E+03  0.95468759558E+03  0.25500000000E-02 0. -1.
         -2   -1    0    0    0  501 -0.00000000000E+00 -0.00000000000E+00 -0.61086684723E+03  0.61086684723E+03  0.25500000000E-02 0.  1.
    8880023    1    1    2    0    0 -0.42822773451E+03  0.50703083526E+02  0.64504279734E+03  0.10177623553E+04  0.65864270000E+03 0. -1.
    8880022    1    1    2    0    0  0.42822773451E+03 -0.50703083526E+02 -0.30122204899E+03  0.54779208747E+03  0.15294330000E+03 0.  0.
<mgrwt>
<rscale>  0 0.68737025E+03</rscale>
<asrwt>0</asrwt>
<pdfrwt beam="1">  1        2 0.14687501E+00 0.78724837E+03</pdfrwt>
<pdfrwt beam="2">  1       -2 0.93979515E-01 0.78724837E+03</pdfrwt>
<totfact> 0.26080375E+01</totfact>
</mgrwt>
</event>
<event>
 4    2  0.3747163E-007  0.7684444E+03  0.7818608E-02  0.9783717E-01
          2   -1    0    0  501    0  0.00000000000E+00  0.00000000000E+00  0.46790721805E+03  0.46790721806E+03  0.25500000000E-02 0. -1.
         -2   -1    0    0    0  501 -0.00000000000E+00 -0.00000000000E+00 -0.10262447531E+04  0.10262447531E+04  0.25500000000E-02 0.  1.
    8880023    1    1    2    0    0  0.26862921183E+03 -0.29074897070E+03  0.29653446908E+02  0.76901635262E+03  0.65864270000E+03 0.  0.
    8880022    1    1    2    0    0 -0.26862921183E+03  0.29074897070E+03 -0.58799098199E+03  0.72513561858E+03  0.15294330000E+03 0.  0.
<mgrwt>
<rscale>  0 0.66243767E+03</rscale>
<asrwt>0</asrwt>
<pdfrwt beam="1">  1        2 0.71985726E-01 0.76844442E+03</pdfrwt>
<pdfrwt beam="2">  1       -2 0.15788381E+00 0.76844442E+03</pdfrwt>
<totfact> 0.17583421E+01</totfact>
</mgrwt>
</event>
<event>
 4    2  0.3747163E-007  0.6591807E+03  0.7818608E-02  0.1025012E+00
         -2   -1    0    0    0  501 -0.00000000000E+00  0.00000000000E+00  0.63414005183E+03  0.63414005184E+03  0.25500000000E-02 0.  1.
          2   -1    0    0  501    0  0.00000000000E+00 -0.00000000000E+00 -0.41634203073E+03  0.41634203074E+03  0.25500000000E-02 0. -1.
    8880023    1    1    2    0    0  0.20776429079E+02  0.16651950750E+02 -0.12794698680E+03  0.67148312351E+03  0.65864270000E+03 0. -1.
    8880022    1    1    2    0    0 -0.20776429079E+02 -0.16651950750E+02  0.34574500790E+03  0.37899895907E+03  0.15294330000E+03 0.  0.
<mgrwt>
<rscale>  0 0.45920523E+03</rscale>
<asrwt>0</asrwt>
<pdfrwt beam="1">  1        2 0.64052620E-01 0.65918067E+03</pdfrwt>
<pdfrwt beam="2">  1       -2 0.97560008E-01 0.65918067E+03</pdfrwt>
<totfact> 0.67645384E+01</totfact>
</mgrwt>
</event>
<event>
 4    2  0.3747163E-007  0.7733342E+03  0.7818608E-02  0.9771735E-01
         -2   -1    0    0    0  501 -0.00000000000E+00  0.00000000000E+00  0.23772090137E+03  0.23772090139E+03  0.25500000000E-02 0.  1.
          2   -1    0    0  501    0  0.00000000000E+00 -0.00000000000E+00 -0.27728447330E+04  0.27728447330E+04  0.25500000000E-02 0. -1.
    8880023    1    1    2    0    0  0.30435294177E+03 -0.26759086329E+03 -0.24499583735E+04  0.25691130418E+04  0.65864270000E+03 0. -1.
    8880022    1    1    2    0    0 -0.30435294177E+03  0.26759086329E+03 -0.85165458168E+02  0.44145259265E+03  0.15294330000E+03 0.  0.
<mgrwt>
<rscale>  0 0.66901738E+03</rscale>
<asrwt>0</asrwt>
<pdfrwt beam="1">  1        2 0.42659147E+00 0.77333420E+03</pdfrwt>
<pdfrwt beam="2">  1       -2 0.36572448E-01 0.77333420E+03</pdfrwt>
<totfact> 0.17744075E+01</totfact>
</mgrwt>
</event>
<event>
 4    2  0.3747163E-007  0.8159621E+03  0.7818608E-02  0.9677289E-01
          2   -1    0    0  501    0  0.00000000000E+00  0.00000000000E+00  0.95717672834E+03  0.95717672834E+03  0.25500000000E-02 0. -1.
         -2   -1    0    0    0  501 -0.00000000000E+00 -0.00000000000E+00 -0.85755646839E+03  0.85755646840E+03  0.25500000000E-02 0.  1.
    8880023    1    1    2    0    0  0.29299720429E+03  0.38227810515E+03  0.66775658235E+03  0.10543685176E+04  0.65864270000E+03 0.  0.
    8880022    1    1    2    0    0 -0.29299720429E+03 -0.38227810515E+03 -0.56813632241E+03  0.76036467912E+03  0.15294330000E+03 0.  0.
<mgrwt>
<rscale>  0 0.72385220E+03</rscale>
<asrwt>0</asrwt>
<pdfrwt beam="1">  1        2 0.14725796E+00 0.81596208E+03</pdfrwt>
<pdfrwt beam="2">  1       -2 0.13193176E+00 0.81596208E+03</pdfrwt>
<totfact> 0.11341771E+01</totfact>
</mgrwt>
</event>
<event>
 4    2  0.3747163E-007  0.8051616E+03  0.7818608E-02  0.9699745E-01
         -2   -1    0    0    0  501 -0.00000000000E+00  0.00000000000E+00  0.64383617488E+03  0.64383617489E+03  0.25500000000E-02 0.  1.
          2   -1    0    0  501    0  0.00000000000E+00 -0.00000000000E+00 -0.84923657280E+03  0.84923657280E+03  0.25500000000E-02 0. -1.
    8880023    1    1    2    0    0  0.12052479107E+02 -0.46295760935E+03 -0.47597730095E+03  0.93532860942E+03  0.65864270000E+03 0.  0.
    8880022    1    1    2    0    0 -0.12052479107E+02  0.46295760935E+03  0.27057690303E+03  0.55774413827E+03  0.15294330000E+03 0.  0.
<mgrwt>
<rscale>  0 0.71031992E+03</rscale>
<asrwt>0</asrwt>
<pdfrwt beam="1">  1        2 0.13065178E+00 0.80516161E+03</pdfrwt>
<pdfrwt beam="2">  1       -2 0.99051719E-01 0.80516161E+03</pdfrwt>
<totfact> 0.27107217E+01</totfact>
</mgrwt>
</event>
<event>
 4    2  0.3747163E-007  0.6607378E+03  0.7818608E-02  0.1023413E+00
          2   -1    0    0  501    0  0.00000000000E+00  0.00000000000E+00  0.54786476691E+03  0.54786476692E+03  0.25500000000E-02 0. -1.
         -2   -1    0    0    0  501 -0.00000000000E+00 -0.00000000000E+00 -0.46300482928E+03  0.46300482929E+03  0.25500000000E-02 0.  1.
    8880023    1    1    2    0    0 -0.39736541809E+01 -0.52425506738E+02  0.31307674044E+03  0.73115762688E+03  0.65864270000E+03 0. -1.
    8880022    1    1    2    0    0  0.39736541809E+01  0.52425506738E+02 -0.22821680280E+03  0.27971196932E+03  0.15294330000E+03 0.  0.
<mgrwt>
<rscale>  0 0.46474853E+03</rscale>
<asrwt>0</asrwt>
<pdfrwt beam="1">  1        2 0.84286887E-01 0.66073779E+03</pdfrwt>
<pdfrwt beam="2">  1       -2 0.71231513E-01 0.66073779E+03</pdfrwt>
<totfact> 0.10059064E+02</totfact>
</mgrwt>
</event>
<event>
 4    2  0.3747163E-007  0.1198289E+04  0.7818608E-02  0.9158788E-01
          2   -1    0    0  501    0  0.00000000000E+00  0.00000000000E+00  0.73818677682E+03  0.73818677682E+03  0.25500000000E-02 0. -1.
         -2   -1    0    0    0  501 -0.00000000000E+00 -0.00000000000E+00 -0.19985506423E+04  0.19985506423E+04  0.25500000000E-02 0.  1.
    8880023    1    1    2    0    0  0.92501154316E+03  0.38267341443E+03 -0.12392723107E+04  0.17238594384E+04  0.65864270000E+03 0.  0.
    8880022    1    1    2    0    0 -0.92501154316E+03 -0.38267341443E+03 -0.21091554770E+02  0.10128779807E+04  0.15294330000E+03 0.  0.
<mgrwt>
<rscale>  0 0.11489121E+04</rscale>
<asrwt>0</asrwt>
<pdfrwt beam="1">  1        2 0.11356720E+00 0.11982886E+04</pdfrwt>
<pdfrwt beam="2">  1       -2 0.30746933E+00 0.11982886E+04</pdfrwt>
<totfact> 0.10756149E+00</totfact>
</mgrwt>
</event>
<event>
 4    2  0.3747163E-007  0.8055718E+03  0.7818608E-02  0.9698876E-01
         -2   -1    0    0    0  501 -0.00000000000E+00  0.00000000000E+00  0.68427153341E+03  0.68427153342E+03  0.25500000000E-02 0.  1.
          2   -1    0    0  501    0  0.00000000000E+00 -0.00000000000E+00 -0.75065776063E+03  0.75065776063E+03  0.25500000000E-02 0. -1.
    8880023    1    1    2    0    0  0.45693067463E+03  0.79686902106E+02 -0.34083327983E+03  0.87470747950E+03  0.65864270000E+03 0.  0.
    8880022    1    1    2    0    0 -0.45693067463E+03 -0.79686902106E+02  0.27444705262E+03  0.56022181455E+03  0.15294330000E+03 0.  0.
<mgrwt>
<rscale>  0 0.71083767E+03</rscale>
<asrwt>0</asrwt>
<pdfrwt beam="1">  1        2 0.11548581E+00 0.80557175E+03</pdfrwt>
<pdfrwt beam="2">  1       -2 0.10527254E+00 0.80557175E+03</pdfrwt>
<totfact> 0.27610733E+01</totfact>
</mgrwt>
</event>
<event>
 4    2  0.3747163E-007  0.7572794E+03  0.7818608E-02  0.9812202E-01
          2   -1    0    0  501    0  0.00000000000E+00  0.00000000000E+00  0.39295863862E+04  0.39295863862E+04  0.25500000000E-02 0. -1.
         -2   -1    0    0    0  501 -0.00000000000E+00 -0.00000000000E+00 -0.12203720764E+03  0.12203720766E+03  0.25500000000E-02 0.  1.
    8880023    1    1    2    0    0  0.21034615327E+03  0.30889534361E+03  0.33789430350E+04  0.34627630698E+04  0.65864270000E+03 0.  0.
    8880022    1    1    2    0    0 -0.21034615327E+03 -0.30889534361E+03  0.42860614359E+03  0.58886052410E+03  0.15294330000E+03 0.  0.
<mgrwt>
<rscale>  0 0.64711782E+03</rscale>
<asrwt>0</asrwt>
<pdfrwt beam="1">  1        2 0.60455175E+00 0.75727937E+03</pdfrwt>
<pdfrwt beam="2">  1       -2 0.18774955E-01 0.75727937E+03</pdfrwt>
<totfact> 0.10180999E+01</totfact>
</mgrwt>
</event>
<event>
 4    2  0.3747163E-007  0.7577008E+03  0.7818608E-02  0.9811097E-01
          2   -1    0    0  501    0  0.00000000000E+00  0.00000000000E+00  0.15813365076E+04  0.15813365076E+04  0.25500000000E-02 0. -1.
         -2   -1    0    0    0  501 -0.00000000000E+00 -0.00000000000E+00 -0.46122037102E+03  0.46122037103E+03  0.25500000000E-02 0.  1.
    8880023    1    1    2    0    0 -0.21602244101E+03  0.30599769940E+03  0.13710354970E+04  0.15664765646E+04  0.65864270000E+03 0. -1.
    8880022    1    1    2    0    0  0.21602244101E+03 -0.30599769940E+03 -0.25091936037E+03  0.47608031411E+03  0.15294330000E+03 0.  0.
<mgrwt>
<rscale>  0 0.64770421E+03</rscale>
<asrwt>0</asrwt>
<pdfrwt beam="1">  1        2 0.24328254E+00 0.75770079E+03</pdfrwt>
<pdfrwt beam="2">  1       -2 0.70956979E-01 0.75770079E+03</pdfrwt>
<totfact> 0.21116722E+01</totfact>
</mgrwt>
</event>
<event>
 4    2  0.3747163E-007  0.7163156E+03  0.7818608E-02  0.9935256E-01
         -2   -1    0    0    0  501 -0.00000000000E+00  0.00000000000E+00  0.17281662982E+04  0.17281662982E+04  0.25500000000E-02 0.  1.
          2   -1    0    0  501    0  0.00000000000E+00 -0.00000000000E+00 -0.69411647702E+03  0.69411647703E+03  0.25500000000E-02 0. -1.
    8880023    1    1    2    0    0 -0.26732733100E+03 -0.88509375013E+02 -0.48807578512E+03  0.86679062619E+03  0.65864270000E+03 0. -1.
    8880022    1    1    2    0    0  0.26732733100E+03  0.88509375013E+02  0.15221256063E+04  0.15554921490E+04  0.15294330000E+03 0.  0.
<mgrwt>
<rscale>  0 0.58582653E+03</rscale>
<asrwt>0</asrwt>
<pdfrwt beam="1">  1        2 0.10678715E+00 0.71631559E+03</pdfrwt>
<pdfrwt beam="2">  1       -2 0.26587173E+00 0.71631559E+03</pdfrwt>
<totfact> 0.22124569E+00</totfact>
</mgrwt>
</event>
<event>
 4    2  0.3747163E-007  0.7287531E+03  0.7818608E-02  0.9894010E-01
          2   -1    0    0  501    0  0.00000000000E+00  0.00000000000E+00  0.17023354590E+04  0.17023354590E+04  0.25500000000E-02 0. -1.
         -2   -1    0    0    0  501 -0.00000000000E+00 -0.00000000000E+00 -0.58915212174E+03  0.58915212175E+03  0.25500000000E-02 0.  1.
    8880023    1    1    2    0    0  0.25628934124E+03  0.17772650016E+03  0.15621842819E+04  0.17238041861E+04  0.65864270000E+03 0. -1.
    8880022    1    1    2    0    0 -0.25628934124E+03 -0.17772650016E+03 -0.44900094460E+03  0.56768339465E+03  0.15294330000E+03 0.  0.
<mgrwt>
<rscale>  0 0.60552476E+03</rscale>
<asrwt>0</asrwt>
<pdfrwt beam="1">  1        2 0.26189776E+00 0.72875314E+03</pdfrwt>
<pdfrwt beam="2">  1       -2 0.90638790E-01 0.72875314E+03</pdfrwt>
<totfact> 0.10488146E+01</totfact>
</mgrwt>
</event>
<event>
 4    2  0.3747163E-007  0.7345064E+03  0.7818608E-02  0.9876248E-01
          2   -1    0    0  501    0  0.00000000000E+00  0.00000000000E+00  0.25592644923E+04  0.25592644923E+04  0.25500000000E-02 0. -1.
         -2   -1    0    0    0  501 -0.00000000000E+00 -0.00000000000E+00 -0.13893970567E+03  0.13893970569E+03  0.25500000000E-02 0.  1.
    8880023    1    1    2    0    0  0.17335947072E+03 -0.27501985302E+03  0.10489322602E+04  0.12805305613E+04  0.65864270000E+03 0.  1.
    8880022    1    1    2    0    0 -0.17335947072E+03  0.27501985302E+03  0.13713925265E+04  0.14176736367E+04  0.15294330000E+03 0.  0.
<mgrwt>
<rscale>  0 0.61426321E+03</rscale>
<asrwt>0</asrwt>
<pdfrwt beam="1">  1        2 0.39373299E+00 0.73450639E+03</pdfrwt>
<pdfrwt beam="2">  1       -2 0.21375340E-01 0.73450639E+03</pdfrwt>
<totfact> 0.63666480E+01</totfact>
</mgrwt>
</event>
<event>
 4    2  0.3747163E-007  0.1001738E+04  0.7818608E-02  0.9379287E-01
         -2   -1    0    0    0  501 -0.00000000000E+00  0.00000000000E+00  0.78520602896E+03  0.78520602896E+03  0.25500000000E-02 0.  1.
          2   -1    0    0  501    0  0.00000000000E+00 -0.00000000000E+00 -0.10843128936E+04  0.10843128936E+04  0.25500000000E-02 0. -1.
    8880023    1    1    2    0    0 -0.69814249790E+03 -0.28682143989E+03  0.91700356035E+02  0.10059267604E+04  0.65864270000E+03 0.  1.
    8880022    1    1    2    0    0  0.69814249790E+03  0.28682143989E+03 -0.39080722065E+03  0.86359216213E+03  0.15294330000E+03 0.  0.
<mgrwt>
<rscale>  0 0.93800068E+03</rscale>
<asrwt>0</asrwt>
<pdfrwt beam="1">  1        2 0.16681737E+00 0.10017383E+04</pdfrwt>
<pdfrwt beam="2">  1       -2 0.12080093E+00 0.10017383E+04</pdfrwt>
<totfact> 0.11547007E+01</totfact>
</mgrwt>
</event>
<event>
 4    2  0.3747163E-007  0.8228726E+03  0.7818608E-02  0.9663362E-01
          2   -1    0    0  501    0  0.00000000000E+00  0.00000000000E+00  0.88770151336E+03  0.88770151336E+03  0.25500000000E-02 0. -1.
         -2   -1    0    0    0  501 -0.00000000000E+00 -0.00000000000E+00 -0.59166898940E+03  0.59166898940E+03  0.25500000000E-02 0.  1.
    8880023    1    1    2    0    0  0.49173167775E+03 -0.38847217536E+02  0.45337273603E+03  0.93950316298E+03  0.65864270000E+03 0. -1.
    8880022    1    1    2    0    0 -0.49173167775E+03  0.38847217536E+02 -0.15734021207E+03  0.53986733978E+03  0.15294330000E+03 0.  0.
<mgrwt>
<rscale>  0 0.73240702E+03</rscale>
<asrwt>0</asrwt>
<pdfrwt beam="1">  1        2 0.13656946E+00 0.82287262E+03</pdfrwt>
<pdfrwt beam="2">  1       -2 0.91025998E-01 0.82287262E+03</pdfrwt>
<totfact> 0.31033423E+01</totfact>
</mgrwt>
</event>
<event>
 4    2  0.3747163E-007  0.7044240E+03  0.7818608E-02  0.9979321E-01
          2   -1    0    0  501    0  0.00000000000E+00  0.00000000000E+00  0.65039299681E+03  0.65039299681E+03  0.25500000000E-02 0. -1.
         -2   -1    0    0    0  501 -0.00000000000E+00 -0.00000000000E+00 -0.72405757246E+03  0.72405757247E+03  0.25500000000E-02 0.  1.
    8880023    1    1    2    0    0 -0.24776635364E+03  0.31855883937E+02  0.40553841594E+03  0.81281890751E+03  0.65864270000E+03 0.  0.
    8880022    1    1    2    0    0  0.24776635364E+03 -0.31855883937E+02 -0.47920299159E+03  0.56163166177E+03  0.15294330000E+03 0.  0.
<mgrwt>
<rscale>  0 0.56566344E+03</rscale>
<asrwt>0</asrwt>
<pdfrwt beam="1">  1        2 0.10006046E+00 0.70442400E+03</pdfrwt>
<pdfrwt beam="2">  1       -2 0.11139347E+00 0.70442400E+03</pdfrwt>
<totfact> 0.29121502E+01</totfact>
</mgrwt>
</event>
<event>
 4    2  0.3747163E-007  0.6815433E+03  0.7818608E-02  0.1008464E+00
          2   -1    0    0  501    0  0.00000000000E+00  0.00000000000E+00  0.22329005107E+04  0.22329005107E+04  0.25500000000E-02 0. -1.
         -2   -1    0    0    0  501 -0.00000000000E+00 -0.00000000000E+00 -0.25861654602E+03  0.25861654603E+03  0.25500000000E-02 0.  1.
    8880023    1    1    2    0    0 -0.10504953356E+03  0.14019844576E+03  0.21133656868E+04  0.22205440192E+04  0.65864270000E+03 0. -1.
    8880022    1    1    2    0    0  0.10504953356E+03 -0.14019844576E+03 -0.13908172205E+03  0.27097303762E+03  0.15294330000E+03 0.  0.
<mgrwt>
<rscale>  0 0.52089757E+03</rscale>
<asrwt>0</asrwt>
<pdfrwt beam="1">  1        2 0.34352316E+00 0.68154326E+03</pdfrwt>
<pdfrwt beam="2">  1       -2 0.39787160E-01 0.68154326E+03</pdfrwt>
<totfact> 0.30976090E+01</totfact>
</mgrwt>
</event>
<event>
 4    2  0.3747163E-007  0.6669242E+03  0.7818608E-02  0.1017971E+00
          2   -1    0    0  501    0  0.00000000000E+00  0.00000000000E+00  0.12685470367E+04  0.12685470367E+04  0.25500000000E-02 0. -1.
         -2   -1    0    0    0  501 -0.00000000000E+00 -0.00000000000E+00 -0.26343506660E+03  0.26343506661E+03  0.25500000000E-02 0.  1.
    8880023    1    1    2    0    0 -0.10409133855E+03  0.11943858143E+02  0.11274001097E+04  0.13098926964E+04  0.65864270000E+03 0. -1.
    8880022    1    1    2    0    0  0.10409133855E+03 -0.11943858143E+02 -0.12228813967E+03  0.22208940683E+03  0.15294330000E+03 0.  0.
<mgrwt>
<rscale>  0 0.48426013E+03</rscale>
<asrwt>0</asrwt>
<pdfrwt beam="1">  1        2 0.19516108E+00 0.66692419E+03</pdfrwt>
<pdfrwt beam="2">  1       -2 0.40528472E-01 0.66692419E+03</pdfrwt>
<totfact> 0.10171328E+02</totfact>
</mgrwt>
</event>
<event>
 4    2  0.3747163E-007  0.7445365E+03  0.7818608E-02  0.9846924E-01
         -2   -1    0    0    0  501 -0.00000000000E+00  0.00000000000E+00  0.11909120514E+03  0.11909120517E+03  0.25500000000E-02 0.  1.
          2   -1    0    0  501    0  0.00000000000E+00 -0.00000000000E+00 -0.30988923627E+04  0.30988923627E+04  0.25500000000E-02 0. -1.
    8880023    1    1    2    0    0 -0.29186265136E+03  0.18799075670E+03 -0.24871247706E+04  0.25961749099E+04  0.65864270000E+03 0. -1.
    8880022    1    1    2    0    0  0.29186265136E+03 -0.18799075670E+03 -0.49267638693E+03  0.62180865796E+03  0.15294330000E+03 0.  0.
<mgrwt>
<rscale>  0 0.62903977E+03</rscale>
<asrwt>0</asrwt>
<pdfrwt beam="1">  1        2 0.47675261E+00 0.74453646E+03</pdfrwt>
<pdfrwt beam="2">  1       -2 0.18321726E-01 0.74453646E+03</pdfrwt>
<totfact> 0.39750665E+01</totfact>
</mgrwt>
</event>
<event>
 4    2  0.3747163E-007  0.6699740E+03  0.7818608E-02  0.1015682E+00
         -2   -1    0    0    0  501 -0.00000000000E+00  0.00000000000E+00  0.26801527522E+03  0.26801527524E+03  0.25500000000E-02 0.  1.
          2   -1    0    0  501    0  0.00000000000E+00 -0.00000000000E+00 -0.12169445493E+04  0.12169445493E+04  0.25500000000E-02 0. -1.
    8880023    1    1    2    0    0 -0.31647502517E+02  0.11854693023E+03 -0.10641828961E+04  0.12575175473E+04  0.65864270000E+03 0. -1.
    8880022    1    1    2    0    0  0.31647502517E+02 -0.11854693023E+03  0.11525362202E+03  0.22744227726E+03  0.15294330000E+03 0.  0.
<mgrwt>
<rscale>  0 0.49277729E+03</rscale>
<asrwt>0</asrwt>
<pdfrwt beam="1">  1        2 0.18722223E+00 0.66997399E+03</pdfrwt>
<pdfrwt beam="2">  1       -2 0.41233120E-01 0.66997399E+03</pdfrwt>
<totfact> 0.10536299E+02</totfact>
</mgrwt>
</event>
<event>
 4    2  0.3747163E-007  0.6739817E+03  0.7818608E-02  0.1012956E+00
         -2   -1    0    0    0  501 -0.00000000000E+00  0.00000000000E+00  0.19669688394E+03  0.19669688396E+03  0.25500000000E-02 0.  1.
          2   -1    0    0  501    0  0.00000000000E+00 -0.00000000000E+00 -0.14380333874E+04  0.14380333874E+04  0.25500000000E-02 0. -1.
    8880023    1    1    2    0    0 -0.36146781805E+02  0.13832786981E+03 -0.12554172755E+04  0.14248943580E+04  0.65864270000E+03 0. -1.
    8880022    1    1    2    0    0  0.36146781805E+02 -0.13832786981E+03  0.14080772048E+02  0.20983591341E+03  0.15294330000E+03 0.  0.
<mgrwt>
<rscale>  0 0.50316573E+03</rscale>
<asrwt>0</asrwt>
<pdfrwt beam="1">  1        2 0.22123590E+00 0.67398175E+03</pdfrwt>
<pdfrwt beam="2">  1       -2 0.30261060E-01 0.67398175E+03</pdfrwt>
<totfact> 0.14192939E+02</totfact>
</mgrwt>
</event>
<event>
 4    2  0.3747163E-007  0.6843600E+03  0.7818608E-02  0.1006958E+00
          2   -1    0    0  501    0  0.00000000000E+00  0.00000000000E+00  0.40152708855E+03  0.40152708856E+03  0.25500000000E-02 0. -1.
         -2   -1    0    0    0  501 -0.00000000000E+00 -0.00000000000E+00 -0.11046854610E+04  0.11046854610E+04  0.25500000000E-02 0.  1.
    8880023    1    1    2    0    0 -0.79622736627E+01  0.18567452715E+03  0.78022883963E+02  0.68879329593E+03  0.65864270000E+03 0. -1.
    8880022    1    1    2    0    0  0.79622736627E+01 -0.18567452715E+03 -0.78118125641E+03  0.81741925364E+03  0.15294330000E+03 0.  0.
<mgrwt>
<rscale>  0 0.52701926E+03</rscale>
<asrwt>0</asrwt>
<pdfrwt beam="1">  1        2 0.61773399E-01 0.68436002E+03</pdfrwt>
<pdfrwt beam="2">  1       -2 0.16995161E+00 0.68436002E+03</pdfrwt>
<totfact> 0.17239831E+01</totfact>
</mgrwt>
</event>
<event>
 4    2  0.3747163E-007  0.6600423E+03  0.7818608E-02  0.1024113E+00
          2   -1    0    0  501    0  0.00000000000E+00  0.00000000000E+00  0.24627286926E+04  0.24627286926E+04  0.25500000000E-02 0. -1.
         -2   -1    0    0    0  501 -0.00000000000E+00 -0.00000000000E+00 -0.11722210690E+03  0.11722210693E+03  0.25500000000E-02 0.  1.
    8880023    1    1    2    0    0  0.42456647550E+02 -0.65594496346E+01  0.23284291872E+04  0.24201731920E+04  0.65864270000E+03 0. -1.
    8880022    1    1    2    0    0 -0.42456647550E+02  0.65594496346E+01  0.17077398478E+02  0.15977760749E+03  0.15294330000E+03 0.  0.
<mgrwt>
<rscale>  0 0.46231082E+03</rscale>
<asrwt>0</asrwt>
<pdfrwt beam="1">  1        2 0.37888137E+00 0.66004227E+03</pdfrwt>
<pdfrwt beam="2">  1       -2 0.18034169E-01 0.66004227E+03</pdfrwt>
<totfact> 0.98093993E+01</totfact>
</mgrwt>
</event>
<event>
 4    2  0.3747163E-007  0.7409148E+03  0.7818608E-02  0.9857290E-01
         -2   -1    0    0    0  501 -0.00000000000E+00  0.00000000000E+00  0.17042318325E+04  0.17042318325E+04  0.25500000000E-02 0.  1.
          2   -1    0    0  501    0  0.00000000000E+00 -0.00000000000E+00 -0.26922723251E+03  0.26922723252E+03  0.25500000000E-02 0. -1.
    8880023    1    1    2    0    0  0.24882543640E+03  0.23071717682E+03  0.33675895716E+03  0.81385583181E+03  0.65864270000E+03 0. -1.
    8880022    1    1    2    0    0 -0.24882543640E+03 -0.23071717682E+03  0.10982456428E+04  0.11596032332E+04  0.15294330000E+03 0.  0.
<mgrwt>
<rscale>  0 0.62376585E+03</rscale>
<asrwt>0</asrwt>
<pdfrwt beam="1">  1        2 0.41419574E-01 0.74091479E+03</pdfrwt>
<pdfrwt beam="2">  1       -2 0.26218951E+00 0.74091479E+03</pdfrwt>
<totfact> 0.69081057E+00</totfact>
</mgrwt>
</event>
<event>
 4    2  0.3747163E-007  0.8191542E+03  0.7818608E-02  0.9670815E-01
          2   -1    0    0  501    0  0.00000000000E+00  0.00000000000E+00  0.83588674959E+03  0.83588674960E+03  0.25500000000E-02 0. -1.
         -2   -1    0    0    0  501 -0.00000000000E+00 -0.00000000000E+00 -0.76761886362E+03  0.76761886363E+03  0.25500000000E-02 0.  1.
    8880023    1    1    2    0    0 -0.38020070750E+03 -0.30438587168E+03  0.47844841004E+03  0.94864451940E+03  0.65864270000E+03 0. -1.
    8880022    1    1    2    0    0  0.38020070750E+03  0.30438587168E+03 -0.41018052407E+03  0.65486109382E+03  0.15294330000E+03 0.  0.
<mgrwt>
<rscale>  0 0.72781330E+03</rscale>
<asrwt>0</asrwt>
<pdfrwt beam="1">  1        2 0.12859796E+00 0.81915416E+03</pdfrwt>
<pdfrwt beam="2">  1       -2 0.11809521E+00 0.81915416E+03</pdfrwt>
<totfact> 0.18088226E+01</totfact>
</mgrwt>
</event>
<event>
 4    2  0.3747163E-007  0.8392924E+03  0.7818608E-02  0.9631516E-01
          2   -1    0    0  501    0  0.00000000000E+00  0.00000000000E+00  0.16083586046E+04  0.16083586046E+04  0.25500000000E-02 0. -1.
         -2   -1    0    0    0  501 -0.00000000000E+00 -0.00000000000E+00 -0.40508527916E+03  0.40508527917E+03  0.25500000000E-02 0.  1.
    8880023    1    1    2    0    0 -0.10191490354E+03  0.51011261864E+03  0.12083228663E+04  0.14712089881E+04  0.65864270000E+03 0.  0.
    8880022    1    1    2    0    0  0.10191490354E+03 -0.51011261864E+03 -0.50495407728E+01  0.54223489572E+03  0.15294330000E+03 0.  0.
<mgrwt>
<rscale>  0 0.75244910E+03</rscale>
<asrwt>0</asrwt>
<pdfrwt beam="1">  1        2 0.24743979E+00 0.83929240E+03</pdfrwt>
<pdfrwt beam="2">  1       -2 0.62320812E-01 0.83929240E+03</pdfrwt>
<totfact> 0.26755969E+01</totfact>
</mgrwt>
</event>
<event>
 4    2  0.3747163E-007  0.9169724E+03  0.7818608E-02  0.9499317E-01
         -2   -1    0    0    0  501 -0.00000000000E+00  0.00000000000E+00  0.29271884809E+03  0.29271884810E+03  0.25500000000E-02 0.  1.
          2   -1    0    0  501    0  0.00000000000E+00 -0.00000000000E+00 -0.30982111917E+04  0.30982111917E+04  0.25500000000E-02 0. -1.
    8880023    1    1    2    0    0  0.28775937530E+03 -0.56940554688E+03 -0.25083667036E+04  0.26707193527E+04  0.65864270000E+03 0.  0.
    8880022    1    1    2    0    0 -0.28775937530E+03  0.56940554688E+03 -0.29712564005E+03  0.72021068715E+03  0.15294330000E+03 0.  0.
<mgrwt>
<rscale>  0 0.84334198E+03</rscale>
<asrwt>0</asrwt>
<pdfrwt beam="1">  1        2 0.47664785E+00 0.91697238E+03</pdfrwt>
<pdfrwt beam="2">  1       -2 0.45033671E-01 0.91697238E+03</pdfrwt>
<totfact> 0.73243285E+00</totfact>
</mgrwt>
</event>
<event>
 4    2  0.3747163E-007  0.1003040E+04  0.7818608E-02  0.9377591E-01
         -2   -1    0    0    0  501 -0.00000000000E+00  0.00000000000E+00  0.56845850963E+03  0.56845850964E+03  0.25500000000E-02 0.  1.
          2   -1    0    0  501    0  0.00000000000E+00 -0.00000000000E+00 -0.14102399683E+04  0.14102399683E+04  0.25500000000E-02 0. -1.
    8880023    1    1    2    0    0 -0.42474118337E+03 -0.62599903030E+03 -0.60510320946E+03  0.11714264634E+04  0.65864270000E+03 0. -1.
    8880022    1    1    2    0    0  0.42474118337E+03  0.62599903030E+03 -0.23667824919E+03  0.80727201453E+03  0.15294330000E+03 0.  1.
<mgrwt>
<rscale>  0 0.93943054E+03</rscale>
<asrwt>0</asrwt>
<pdfrwt beam="1">  1        2 0.21695999E+00 0.10030404E+04</pdfrwt>
<pdfrwt beam="2">  1       -2 0.87455156E-01 0.10030404E+04</pdfrwt>
<totfact> 0.16047880E+01</totfact>
</mgrwt>
</event>
<event>
 4    2  0.3747163E-007  0.6955825E+03  0.7818608E-02  0.1001604E+00
          2   -1    0    0  501    0  0.00000000000E+00  0.00000000000E+00  0.18497465543E+04  0.18497465543E+04  0.25500000000E-02 0. -1.
         -2   -1    0    0    0  501 -0.00000000000E+00 -0.00000000000E+00 -0.33057154084E+03  0.33057154085E+03  0.25500000000E-02 0.  1.
    8880023    1    1    2    0    0  0.20951016929E+03 -0.78295998353E+02  0.17118960305E+04  0.18478157376E+04  0.65864270000E+03 0.  0.
    8880022    1    1    2    0    0 -0.20951016929E+03  0.78295998353E+02 -0.19272101704E+03  0.33250235761E+03  0.15294330000E+03 0.  0.
<mgrwt>
<rscale>  0 0.54952269E+03</rscale>
<asrwt>0</asrwt>
<pdfrwt beam="1">  1        2 0.28457640E+00 0.69558248E+03</pdfrwt>
<pdfrwt beam="2">  1       -2 0.50857160E-01 0.69558248E+03</pdfrwt>
<totfact> 0.30684725E+01</totfact>
</mgrwt>
</event>
<event>
 4    2  0.3747163E-007  0.7609875E+03  0.7818608E-02  0.9802558E-01
         -2   -1    0    0    0  501 -0.00000000000E+00  0.00000000000E+00  0.99389295935E+03  0.99389295935E+03  0.25500000000E-02 0.  1.
          2   -1    0    0  501    0  0.00000000000E+00 -0.00000000000E+00 -0.10232278765E+04  0.10232278765E+04  0.25500000000E-02 0. -1.
    8880023    1    1    2    0    0 -0.29877178995E+03 -0.23670074180E+03 -0.82458800657E+03  0.11220728187E+04  0.65864270000E+03 0. -1.
    8880022    1    1    2    0    0  0.29877178995E+03  0.23670074180E+03  0.79525308945E+03  0.89504801711E+03  0.15294330000E+03 0.  0.
<mgrwt>
<rscale>  0 0.65225471E+03</rscale>
<asrwt>0</asrwt>
<pdfrwt beam="1">  1        2 0.15741967E+00 0.76098754E+03</pdfrwt>
<pdfrwt beam="2">  1       -2 0.15290661E+00 0.76098754E+03</pdfrwt>
<totfact> 0.70512092E+00</totfact>
</mgrwt>
</event>
<event>
 4    2  0.3747163E-007  0.7474131E+03  0.7818608E-02  0.9838857E-01
          2   -1    0    0  501    0  0.00000000000E+00  0.00000000000E+00  0.19819317460E+04  0.19819317460E+04  0.25500000000E-02 0. -1.
         -2   -1    0    0    0  501 -0.00000000000E+00 -0.00000000000E+00 -0.27651948397E+03  0.27651948398E+03  0.25500000000E-02 0.  1.
    8880023    1    1    2    0    0  0.19519413569E+03 -0.29447476727E+03  0.17177138007E+04  0.18732770875E+04  0.65864270000E+03 0.  0.
    8880022    1    1    2    0    0 -0.19519413569E+03  0.29447476727E+03 -0.12301538664E+02  0.38517414248E+03  0.15294330000E+03 0.  0.
<mgrwt>
<rscale>  0 0.63318324E+03</rscale>
<asrwt>0</asrwt>
<pdfrwt beam="1">  1        2 0.30491258E+00 0.74741310E+03</pdfrwt>
<pdfrwt beam="2">  1       -2 0.42541459E-01 0.74741310E+03</pdfrwt>
<totfact> 0.36944966E+01</totfact>
</mgrwt>
</event>
<event>
 4    2  0.3747163E-007  0.7923715E+03  0.7818608E-02  0.9727540E-01
         -2   -1    0    0    0  501 -0.00000000000E+00  0.00000000000E+00  0.14602826519E+04  0.14602826519E+04  0.25500000000E-02 0.  1.
          2   -1    0    0  501    0  0.00000000000E+00 -0.00000000000E+00 -0.50845008098E+03  0.50845008099E+03  0.25500000000E-02 0. -1.
    8880023    1    1    2    0    0 -0.30264049547E+03 -0.32007987327E+03 -0.11855050722E+03  0.80119087850E+03  0.65864270000E+03 0. -1.
    8880022    1    1    2    0    0  0.30264049547E+03  0.32007987327E+03  0.10703830781E+04  0.11675418543E+04  0.15294330000E+03 0.  0.
<mgrwt>
<rscale>  0 0.69400497E+03</rscale>
<asrwt>0</asrwt>
<pdfrwt beam="1">  1        2 0.78223090E-01 0.79237150E+03</pdfrwt>
<pdfrwt beam="2">  1       -2 0.22465887E+00 0.79237150E+03</pdfrwt>
<totfact> 0.56815142E+00</totfact>
</mgrwt>
</event>
<event>
 4    2  0.3747163E-007  0.1465873E+04  0.7818608E-02  0.8934118E-01
          2   -1    0    0  501    0  0.00000000000E+00  0.00000000000E+00  0.11422101584E+04  0.11422101585E+04  0.25500000000E-02 0. -1.
         -2   -1    0    0    0  501 -0.00000000000E+00 -0.00000000000E+00 -0.18882613378E+04  0.18882613378E+04  0.25500000000E-02 0.  1.
    8880023    1    1    2    0    0  0.94223388089E+03  0.90948829075E+03  0.91067474215E+02  0.14686991279E+04  0.65864270000E+03 0.  0.
    8880022    1    1    2    0    0 -0.94223388089E+03 -0.90948829075E+03 -0.83711865360E+03  0.15617723683E+04  0.15294330000E+03 0. -1.
<mgrwt>
<rscale>  0 0.14275453E+04</rscale>
<asrwt>0</asrwt>
<pdfrwt beam="1">  1        2 0.17572464E+00 0.14658731E+04</pdfrwt>
<pdfrwt beam="2">  1       -2 0.29050174E+00 0.14658731E+04</pdfrwt>
<totfact> 0.70724368E-01</totfact>
</mgrwt>
</event>
<event>
 4    2  0.3747163E-007  0.7097106E+03  0.7818608E-02  0.9959077E-01
         -2   -1    0    0    0  501 -0.00000000000E+00  0.00000000000E+00  0.29508354793E+03  0.29508354794E+03  0.25500000000E-02 0.  1.
          2   -1    0    0  501    0  0.00000000000E+00 -0.00000000000E+00 -0.28631126511E+04  0.28631126511E+04  0.25500000000E-02 0. -1.
    8880023    1    1    2    0    0  0.23210362824E+03 -0.12651792816E+03 -0.27242356456E+04  0.28151641053E+04  0.65864270000E+03 0. -1.
    8880022    1    1    2    0    0 -0.23210362824E+03  0.12651792816E+03  0.15620654250E+03  0.34303209372E+03  0.15294330000E+03 0.  0.
<mgrwt>
<rscale>  0 0.57481621E+03</rscale>
<asrwt>0</asrwt>
<pdfrwt beam="1">  1        2 0.44047885E+00 0.70971057E+03</pdfrwt>
<pdfrwt beam="2">  1       -2 0.45397471E-01 0.70971057E+03</pdfrwt>
<totfact> 0.10388191E+01</totfact>
</mgrwt>
</event>
<event>
 4    2  0.3747163E-007  0.8124342E+03  0.7818608E-02  0.9684529E-01
          2   -1    0    0  501    0  0.00000000000E+00  0.00000000000E+00  0.14446410825E+04  0.14446410825E+04  0.25500000000E-02 0. -1.
         -2   -1    0    0    0  501 -0.00000000000E+00 -0.00000000000E+00 -0.39013333862E+03  0.39013333863E+03  0.25500000000E-02 0.  1.
    8880023    1    1    2    0    0 -0.47188457994E+03 -0.59699712236E+02  0.10594779919E+04  0.13351190711E+04  0.65864270000E+03 0.  0.
    8880022    1    1    2    0    0  0.47188457994E+03  0.59699712236E+02 -0.49702480525E+01  0.49965535002E+03  0.15294330000E+03 0.  0.
<mgrwt>
<rscale>  0 0.71945462E+03</rscale>
<asrwt>0</asrwt>
<pdfrwt beam="1">  1        2 0.22225247E+00 0.81243419E+03</pdfrwt>
<pdfrwt beam="2">  1       -2 0.60020514E-01 0.81243419E+03</pdfrwt>
<totfact> 0.35855350E+01</totfact>
</mgrwt>
</event>
<event>
 4    2  0.3747163E-007  0.6844973E+03  0.7818608E-02  0.1006886E+00
          2   -1    0    0  501    0  0.00000000000E+00  0.00000000000E+00  0.78443309135E+03  0.78443309136E+03  0.25500000000E-02 0. -1.
         -2   -1    0    0    0  501 -0.00000000000E+00 -0.00000000000E+00 -0.27979185132E+03  0.27979185133E+03  0.25500000000E-02 0.  1.
    8880023    1    1    2    0    0  0.92269903571E+02  0.16190309702E+03  0.44316404715E+03  0.81543296897E+03  0.65864270000E+03 0. -1.
    8880022    1    1    2    0    0 -0.92269903571E+02 -0.16190309702E+03  0.61477192877E+02  0.24879197372E+03  0.15294330000E+03 0.  1.
<mgrwt>
<rscale>  0 0.52731198E+03</rscale>
<asrwt>0</asrwt>
<pdfrwt beam="1">  1        2 0.12068201E+00 0.68449730E+03</pdfrwt>
<pdfrwt beam="2">  1       -2 0.43044901E-01 0.68449730E+03</pdfrwt>
<totfact> 0.18338903E+02</totfact>
</mgrwt>
</event>
<event>
 4    2  0.3747163E-007  0.6826464E+03  0.7818608E-02  0.1007865E+00
         -2   -1    0    0    0  501 -0.00000000000E+00  0.00000000000E+00  0.26471576731E+03  0.26471576732E+03  0.25500000000E-02 0.  1.
          2   -1    0    0  501    0  0.00000000000E+00 -0.00000000000E+00 -0.10793488349E+04  0.10793488349E+04  0.25500000000E-02 0. -1.
    8880023    1    1    2    0    0  0.17892318128E+03  0.13503860407E+02 -0.86605720238E+03  0.11027516235E+04  0.65864270000E+03 0.  0.
    8880022    1    1    2    0    0 -0.17892318128E+03 -0.13503860407E+02  0.51424134810E+02  0.24131297872E+03  0.15294330000E+03 0.  0.
<mgrwt>
<rscale>  0 0.52332200E+03</rscale>
<asrwt>0</asrwt>
<pdfrwt beam="1">  1        2 0.16605366E+00 0.68264637E+03</pdfrwt>
<pdfrwt beam="2">  1       -2 0.40725503E-01 0.68264637E+03</pdfrwt>
<totfact> 0.13040372E+02</totfact>
</mgrwt>
</event>
<event>
 4    2  0.3747163E-007  0.8401120E+03  0.7818608E-02  0.9629969E-01
         -2   -1    0    0    0  501 -0.00000000000E+00  0.00000000000E+00  0.28736233111E+03  0.28736233112E+03  0.25500000000E-02 0.  1.
          2   -1    0    0  501    0  0.00000000000E+00 -0.00000000000E+00 -0.20036257076E+04  0.20036257076E+04  0.25500000000E-02 0. -1.
    8880023    1    1    2    0    0  0.52034163487E+03 -0.34964318641E+02 -0.54951322016E+03  0.10038689685E+04  0.65864270000E+03 0.  0.
    8880022    1    1    2    0    0 -0.52034163487E+03  0.34964318641E+02 -0.11667501563E+04  0.12871190702E+04  0.15294330000E+03 0.  0.
<mgrwt>
<rscale>  0 0.75343987E+03</rscale>
<asrwt>0</asrwt>
<pdfrwt beam="1">  1        2 0.30825010E+00 0.84011197E+03</pdfrwt>
<pdfrwt beam="2">  1       -2 0.44209591E-01 0.84011197E+03</pdfrwt>
<totfact> 0.32943356E+01</totfact>
</mgrwt>
</event>
<event>
 4    2  0.3747163E-007  0.9571400E+03  0.7818608E-02  0.9439915E-01
          2   -1    0    0  501    0  0.00000000000E+00  0.00000000000E+00  0.79673299831E+03  0.79673299832E+03  0.25500000000E-02 0. -1.
         -2   -1    0    0    0  501 -0.00000000000E+00 -0.00000000000E+00 -0.14958310059E+04  0.14958310059E+04  0.25500000000E-02 0.  1.
    8880023    1    1    2    0    0  0.58998491595E+03 -0.36636668159E+03  0.35514249919E+03  0.10209031038E+04  0.65864270000E+03 0.  0.
    8880022    1    1    2    0    0 -0.58998491595E+03  0.36636668159E+03 -0.10542405068E+04  0.12716609004E+04  0.15294330000E+03 0.  0.
<mgrwt>
<rscale>  0 0.88862401E+03</rscale>
<asrwt>0</asrwt>
<pdfrwt beam="1">  1        2 0.12257431E+00 0.95713999E+03</pdfrwt>
<pdfrwt beam="2">  1       -2 0.23012785E+00 0.95713999E+03</pdfrwt>
<totfact> 0.29560526E+00</totfact>
</mgrwt>
</event>
<event>
 4    2  0.3747163E-007  0.1063836E+04  0.7818608E-02  0.9302431E-01
         -2   -1    0    0    0  501 -0.00000000000E+00  0.00000000000E+00  0.50163439135E+03  0.50163439136E+03  0.25500000000E-02 0.  1.
          2   -1    0    0  501    0  0.00000000000E+00 -0.00000000000E+00 -0.19813547609E+04  0.19813547609E+04  0.25500000000E-02 0. -1.
    8880023    1    1    2    0    0 -0.83529143303E+03  0.14996359390E+02 -0.11639618547E+04  0.15768811225E+04  0.65864270000E+03 0. -1.
    8880022    1    1    2    0    0  0.83529143303E+03 -0.14996359390E+02 -0.31575851477E+03  0.90610802974E+03  0.15294330000E+03 0.  1.
<mgrwt>
<rscale>  0 0.10055939E+04</rscale>
<asrwt>0</asrwt>
<pdfrwt beam="1">  1        2 0.30482380E+00 0.10638359E+04</pdfrwt>
<pdfrwt beam="2">  1       -2 0.77174523E-01 0.10638359E+04</pdfrwt>
<totfact> 0.10204428E+01</totfact>
</mgrwt>
</event>
<event>
 4    2  0.3747163E-007  0.1171848E+04  0.7818608E-02  0.9184986E-01
         -2   -1    0    0    0  501 -0.00000000000E+00  0.00000000000E+00  0.57025992088E+03  0.57025992089E+03  0.25500000000E-02 0.  1.
          2   -1    0    0  501    0  0.00000000000E+00 -0.00000000000E+00 -0.44549485900E+04  0.44549485900E+04  0.25500000000E-02 0. -1.
    8880023    1    1    2    0    0 -0.96108326537E+03  0.12544697113E+03 -0.38703616263E+04  0.40438752837E+04  0.65864270000E+03 0. -1.
    8880022    1    1    2    0    0  0.96108326537E+03 -0.12544697113E+03 -0.14327042778E+02  0.98133322715E+03  0.15294330000E+03 0.  0.
<mgrwt>
<rscale>  0 0.11209754E+04</rscale>
<asrwt>0</asrwt>
<pdfrwt beam="1">  1        2 0.68537668E+00 0.11718482E+04</pdfrwt>
<pdfrwt beam="2">  1       -2 0.87732298E-01 0.11718482E+04</pdfrwt>
<totfact> 0.15793958E-01</totfact>
</mgrwt>
</event>
<event>
 4    2  0.3747163E-007  0.8998641E+03  0.7818608E-02  0.9526250E-01
          2   -1    0    0  501    0  0.00000000000E+00  0.00000000000E+00  0.28411513946E+03  0.28411513947E+03  0.25500000000E-02 0. -1.
         -2   -1    0    0    0  501 -0.00000000000E+00 -0.00000000000E+00 -0.21439822337E+04  0.21439822338E+04  0.25500000000E-02 0.  1.
    8880023    1    1    2    0    0 -0.55052054880E+03 -0.26994863244E+03 -0.85650933549E+03  0.12423218532E+04  0.65864270000E+03 0.  0.
    8880022    1    1    2    0    0  0.55052054880E+03  0.26994863244E+03 -0.10033577588E+04  0.11857755201E+04  0.15294330000E+03 0.  0.
<mgrwt>
<rscale>  0 0.82375886E+03</rscale>
<asrwt>0</asrwt>
<pdfrwt beam="1">  1        2 0.43710023E-01 0.89986407E+03</pdfrwt>
<pdfrwt beam="2">  1       -2 0.32984341E+00 0.89986407E+03</pdfrwt>
<totfact> 0.24906489E+00</totfact>
</mgrwt>
</event>
<event>
 4    2  0.3747163E-007  0.6976691E+03  0.7818608E-02  0.1000701E+00
         -2   -1    0    0    0  501 -0.00000000000E+00  0.00000000000E+00  0.75507930467E+03  0.75507930468E+03  0.25500000000E-02 0.  1.
          2   -1    0    0  501    0  0.00000000000E+00 -0.00000000000E+00 -0.68495842565E+03  0.68495842565E+03  0.25500000000E-02 0. -1.
    8880023    1    1    2    0    0  0.24490622268E+02 -0.22876237034E+03 -0.46456946943E+03  0.83819270509E+03  0.65864270000E+03 0. -1.
    8880022    1    1    2    0    0 -0.24490622268E+02  0.22876237034E+03  0.53469034846E+03  0.60184502525E+03  0.15294330000E+03 0.  0.
<mgrwt>
<rscale>  0 0.55343871E+03</rscale>
<asrwt>0</asrwt>
<pdfrwt beam="1">  1        2 0.10537822E+00 0.69766913E+03</pdfrwt>
<pdfrwt beam="2">  1       -2 0.11616605E+00 0.69766913E+03</pdfrwt>
<totfact> 0.24672902E+01</totfact>
</mgrwt>
</event>
<event>
 4    2  0.3747163E-007  0.6777900E+03  0.7818608E-02  0.1010602E+00
          2   -1    0    0  501    0  0.00000000000E+00  0.00000000000E+00  0.54177799706E+03  0.54177799707E+03  0.25500000000E-02 0. -1.
         -2   -1    0    0    0  501 -0.00000000000E+00 -0.00000000000E+00 -0.89240679910E+03  0.89240679911E+03  0.25500000000E-02 0.  1.
    8880023    1    1    2    0    0 -0.10909876570E+03 -0.11698948105E+03  0.30423155970E+03  0.74293749908E+03  0.65864270000E+03 0. -1.
    8880022    1    1    2    0    0  0.10909876570E+03  0.11698948105E+03 -0.65486036174E+03  0.69124729710E+03  0.15294330000E+03 0.  0.
<mgrwt>
<rscale>  0 0.51235919E+03</rscale>
<asrwt>0</asrwt>
<pdfrwt beam="1">  1        2 0.83350461E-01 0.67779000E+03</pdfrwt>
<pdfrwt beam="2">  1       -2 0.13729335E+00 0.67779000E+03</pdfrwt>
<totfact> 0.21594330E+01</totfact>
</mgrwt>
</event>
<event>
 4    2  0.3747163E-007  0.1702510E+04  0.7818608E-02  0.8778472E-01
          2   -1    0    0  501    0  0.00000000000E+00  0.00000000000E+00  0.39191923323E+04  0.39191923323E+04  0.25500000000E-02 0. -1.
         -2   -1    0    0    0  501 -0.00000000000E+00 -0.00000000000E+00 -0.18048501116E+04  0.18048501116E+04  0.25500000000E-02 0.  1.
    8880023    1    1    2    0    0  0.74164371687E+03 -0.13837249111E+04  0.33250634066E+04  0.37355838762E+04  0.65864270000E+03 0.  0.
    8880022    1    1    2    0    0 -0.74164371687E+03  0.13837249111E+04 -0.12107211860E+04  0.19884585677E+04  0.15294330000E+03 0.  0.
<mgrwt>
<rscale>  0 0.16703258E+04</rscale>
<asrwt>0</asrwt>
<pdfrwt beam="1">  1        2 0.60295266E+00 0.17025100E+04</pdfrwt>
<pdfrwt beam="2">  1       -2 0.27766925E+00 0.17025100E+04</pdfrwt>
<totfact> 0.15952597E-02</totfact>
</mgrwt>
</event>
<event>
 4    2  0.3747163E-007  0.8472739E+03  0.7818608E-02  0.9616614E-01
          2   -1    0    0  501    0  0.00000000000E+00  0.00000000000E+00  0.41988252955E+04  0.41988252955E+04  0.25500000000E-02 0. -1.
         -2   -1    0    0    0  501 -0.00000000000E+00 -0.00000000000E+00 -0.76878622636E+03  0.76878622636E+03  0.25500000000E-02 0.  1.
    8880023    1    1    2    0    0 -0.52485535027E+03 -0.92681031756E+02  0.40489473989E+04  0.41366469704E+04  0.65864270000E+03 0. -1.
    8880022    1    1    2    0    0  0.52485535027E+03  0.92681031756E+02 -0.61890832968E+03  0.83096455154E+03  0.15294330000E+03 0.  0.
<mgrwt>
<rscale>  0 0.76206234E+03</rscale>
<asrwt>0</asrwt>
<pdfrwt beam="1">  1        2 0.64597311E+00 0.84727393E+03</pdfrwt>
<pdfrwt beam="2">  1       -2 0.11827481E+00 0.84727393E+03</pdfrwt>
<totfact> 0.14066953E-01</totfact>
</mgrwt>
</event>
<event>
 4    2  0.3747163E-007  0.7391209E+03  0.7818608E-02  0.9862515E-01
          2   -1    0    0  501    0  0.00000000000E+00  0.00000000000E+00  0.13624053634E+04  0.13624053634E+04  0.25500000000E-02 0. -1.
         -2   -1    0    0    0  501 -0.00000000000E+00 -0.00000000000E+00 -0.29695398857E+03  0.29695398858E+03  0.25500000000E-02 0.  1.
    8880023    1    1    2    0    0  0.31694427363E+03  0.10970823910E+03  0.10580717441E+04  0.12906647870E+04  0.65864270000E+03 0.  0.
    8880022    1    1    2    0    0 -0.31694427363E+03 -0.10970823910E+03  0.73796307056E+01  0.36869456502E+03  0.15294330000E+03 0.  0.
<mgrwt>
<rscale>  0 0.62112865E+03</rscale>
<asrwt>0</asrwt>
<pdfrwt beam="1">  1        2 0.20960083E+00 0.73912095E+03</pdfrwt>
<pdfrwt beam="2">  1       -2 0.45685229E-01 0.73912095E+03</pdfrwt>
<totfact> 0.70447002E+01</totfact>
</mgrwt>
</event>
<event>
 4    2  0.3747163E-007  0.7499172E+03  0.7818608E-02  0.9831947E-01
          2   -1    0    0  501    0  0.00000000000E+00  0.00000000000E+00  0.65834299389E+03  0.65834299389E+03  0.25500000000E-02 0. -1.
         -2   -1    0    0    0  501 -0.00000000000E+00 -0.00000000000E+00 -0.15990349196E+04  0.15990349196E+04  0.25500000000E-02 0.  1.
    8880023    1    1    2    0    0  0.34196042542E+03  0.10783647979E+03  0.40783287514E+03  0.85364131767E+03  0.65864270000E+03 0.  0.
    8880022    1    1    2    0    0 -0.34196042542E+03 -0.10783647979E+03 -0.13485248008E+04  0.14037365958E+04  0.15294330000E+03 0.  0.
<mgrwt>
<rscale>  0 0.63675914E+03</rscale>
<asrwt>0</asrwt>
<pdfrwt beam="1">  1        2 0.10128354E+00 0.74991723E+03</pdfrwt>
<pdfrwt beam="2">  1       -2 0.24600537E+00 0.74991723E+03</pdfrwt>
<totfact> 0.30986977E+00</totfact>
</mgrwt>
</event>
<event>
 4    2  0.3747163E-007  0.7207242E+03  0.7818608E-02  0.9920143E-01
         -2   -1    0    0    0  501 -0.00000000000E+00  0.00000000000E+00  0.11260551426E+03  0.11260551429E+03  0.25500000000E-02 0.  1.
          2   -1    0    0  501    0  0.00000000000E+00 -0.00000000000E+00 -0.37343498384E+04  0.37343498384E+04  0.25500000000E-02 0. -1.
    8880023    1    1    2    0    0  0.29070600723E+03 -0.33513700713E+02 -0.33275795696E+04  0.34047362819E+04  0.65864270000E+03 0. -1.
    8880022    1    1    2    0    0 -0.29070600723E+03  0.33513700713E+02 -0.29416475458E+03  0.44221907085E+03  0.15294330000E+03 0.  0.
<mgrwt>
<rscale>  0 0.59294920E+03</rscale>
<asrwt>0</asrwt>
<pdfrwt beam="1">  1        2 0.57451526E+00 0.72072419E+03</pdfrwt>
<pdfrwt beam="2">  1       -2 0.17323928E-01 0.72072419E+03</pdfrwt>
<totfact> 0.16487217E+01</totfact>
</mgrwt>
</event>
<event>
 4    2  0.3747163E-007  0.9958836E+03  0.7818608E-02  0.9386963E-01
         -2   -1    0    0    0  501 -0.00000000000E+00  0.00000000000E+00  0.50372804216E+03  0.50372804217E+03  0.25500000000E-02 0.  1.
          2   -1    0    0  501    0  0.00000000000E+00 -0.00000000000E+00 -0.17061911385E+04  0.17061911385E+04  0.25500000000E-02 0. -1.
    8880023    1    1    2    0    0  0.16836250027E+03  0.72775544860E+03 -0.10207669350E+04  0.14260958124E+04  0.65864270000E+03 0.  0.
    8880022    1    1    2    0    0 -0.16836250027E+03 -0.72775544860E+03 -0.18169616134E+03  0.78382336820E+03  0.15294330000E+03 0.  0.
<mgrwt>
<rscale>  0 0.93156379E+03</rscale>
<asrwt>0</asrwt>
<pdfrwt beam="1">  1        2 0.26249094E+00 0.99588359E+03</pdfrwt>
<pdfrwt beam="2">  1       -2 0.77496623E-01 0.99588359E+03</pdfrwt>
<totfact> 0.14434754E+01</totfact>
</mgrwt>
</event>
<event>
 4    2  0.3747163E-007  0.6927668E+03  0.7818608E-02  0.1002864E+00
          2   -1    0    0  501    0  0.00000000000E+00  0.00000000000E+00  0.22103836351E+03  0.22103836352E+03  0.25500000000E-02 0. -1.
         -2   -1    0    0    0  501 -0.00000000000E+00 -0.00000000000E+00 -0.12242036993E+04  0.12242036993E+04  0.25500000000E-02 0.  1.
    8880023    1    1    2    0    0 -0.10155249690E+03 -0.18921618705E+03 -0.43268560840E+03  0.81678804904E+03  0.65864270000E+03 0.  1.
    8880022    1    1    2    0    0  0.10155249690E+03  0.18921618705E+03 -0.57047972735E+03  0.62845401375E+03  0.15294330000E+03 0. -1.
<mgrwt>
<rscale>  0 0.54411931E+03</rscale>
<asrwt>0</asrwt>
<pdfrwt beam="1">  1        2 0.34005903E-01 0.69276683E+03</pdfrwt>
<pdfrwt beam="2">  1       -2 0.18833903E+00 0.69276683E+03</pdfrwt>
<totfact> 0.25048302E+01</totfact>
</mgrwt>
</event>
<event>
 4    2  0.3747163E-007  0.7862773E+03  0.7818608E-02  0.9741293E-01
          2   -1    0    0  501    0  0.00000000000E+00  0.00000000000E+00  0.96852096603E+03  0.96852096603E+03  0.25500000000E-02 0. -1.
         -2   -1    0    0    0  501 -0.00000000000E+00 -0.00000000000E+00 -0.10686544561E+04  0.10686544561E+04  0.25500000000E-02 0.  1.
    8880023    1    1    2    0    0 -0.40402451764E+03 -0.14555406431E+03  0.74101901986E+03  0.10804356485E+04  0.65864270000E+03 0. -1.
    8880022    1    1    2    0    0  0.40402451764E+03  0.14555406431E+03 -0.84115250997E+03  0.95673977368E+03  0.15294330000E+03 0.  0.
<mgrwt>
<rscale>  0 0.68610568E+03</rscale>
<asrwt>0</asrwt>
<pdfrwt beam="1">  1        2 0.14900323E+00 0.78627731E+03</pdfrwt>
<pdfrwt beam="2">  1       -2 0.16440838E+00 0.78627731E+03</pdfrwt>
<totfact> 0.62630772E+00</totfact>
</mgrwt>
</event>
<event>
 4    2  0.3747163E-007  0.7301869E+03  0.7818608E-02  0.9889513E-01
         -2   -1    0    0    0  501 -0.00000000000E+00  0.00000000000E+00  0.25233136064E+03  0.25233136065E+03  0.25500000000E-02 0.  1.
          2   -1    0    0  501    0  0.00000000000E+00 -0.00000000000E+00 -0.20043696268E+04  0.20043696268E+04  0.25500000000E-02 0. -1.
    8880023    1    1    2    0    0  0.20261537864E+03  0.24147397404E+03 -0.17608323125E+04  0.19062275076E+04  0.65864270000E+03 0. -1.
    8880022    1    1    2    0    0 -0.20261537864E+03 -0.24147397404E+03  0.87940463406E+01  0.35047347983E+03  0.15294330000E+03 0.  0.
<mgrwt>
<rscale>  0 0.60772222E+03</rscale>
<asrwt>0</asrwt>
<pdfrwt beam="1">  1        2 0.30836455E+00 0.73018688E+03</pdfrwt>
<pdfrwt beam="2">  1       -2 0.38820211E-01 0.73018688E+03</pdfrwt>
<totfact> 0.43052535E+01</totfact>
</mgrwt>
</event>
<event>
 4    2  0.3747163E-007  0.7776196E+03  0.7818608E-02  0.9761459E-01
          2   -1    0    0  501    0  0.00000000000E+00  0.00000000000E+00  0.29556520965E+04  0.29556520965E+04  0.25500000000E-02 0. -1.
         -2   -1    0    0    0  501 -0.00000000000E+00 -0.00000000000E+00 -0.28726460326E+03  0.28726460327E+03  0.25500000000E-02 0.  1.
    8880023    1    1    2    0    0 -0.32221452478E+03  0.25895919361E+03  0.26914641788E+04  0.28015480892E+04  0.65864270000E+03 0. -1.
    8880022    1    1    2    0    0  0.32221452478E+03 -0.25895919361E+03 -0.23076685620E+02  0.44136861054E+03  0.15294330000E+03 0.  0.
<mgrwt>
<rscale>  0 0.67472556E+03</rscale>
<asrwt>0</asrwt>
<pdfrwt beam="1">  1        2 0.45471574E+00 0.77761962E+03</pdfrwt>
<pdfrwt beam="2">  1       -2 0.44194551E-01 0.77761962E+03</pdfrwt>
<totfact> 0.95241214E+00</totfact>
</mgrwt>
</event>
<event>
 4    2  0.3747163E-007  0.9095253E+03  0.7818608E-02  0.9510910E-01
         -2   -1    0    0    0  501 -0.00000000000E+00  0.00000000000E+00  0.35411758510E+03  0.35411758511E+03  0.25500000000E-02 0.  1.
          2   -1    0    0  501    0  0.00000000000E+00 -0.00000000000E+00 -0.22525667314E+04  0.22525667314E+04  0.25500000000E-02 0. -1.
    8880023    1    1    2    0    0  0.48521933040E+03  0.39747748922E+03 -0.43716450988E+03  0.10091328793E+04  0.65864270000E+03 0.  1.
    8880022    1    1    2    0    0 -0.48521933040E+03 -0.39747748922E+03 -0.14612846364E+04  0.15975514372E+04  0.15294330000E+03 0.  0.
<mgrwt>
<rscale>  0 0.83484219E+03</rscale>
<asrwt>0</asrwt>
<pdfrwt beam="1">  1        2 0.34654872E+00 0.90952535E+03</pdfrwt>
<pdfrwt beam="2">  1       -2 0.54479630E-01 0.90952535E+03</pdfrwt>
<totfact> 0.15574407E+01</totfact>
</mgrwt>
</event>
<event>
 4    2  0.3747163E-007  0.1144875E+04  0.7818608E-02  0.9212665E-01
          2   -1    0    0  501    0  0.00000000000E+00  0.00000000000E+00  0.26675275561E+04  0.26675275561E+04  0.25500000000E-02 0. -1.
         -2   -1    0    0    0  501 -0.00000000000E+00 -0.00000000000E+00 -0.61711157157E+03  0.61711157157E+03  0.25500000000E-02 0.  1.
    8880023    1    1    2    0    0 -0.93306959166E+03 -0.79427909532E+02  0.20358395406E+04  0.23356755976E+04  0.65864270000E+03 0.  0.
    8880022    1    1    2    0    0  0.93306959166E+03  0.79427909532E+02  0.14576443889E+02  0.94896353008E+03  0.15294330000E+03 0.  0.
<mgrwt>
<rscale>  0 0.10923656E+04</rscale>
<asrwt>0</asrwt>
<pdfrwt beam="1">  1        2 0.41038886E+00 0.11448746E+04</pdfrwt>
<pdfrwt beam="2">  1       -2 0.94940241E-01 0.11448746E+04</pdfrwt>
<totfact> 0.25728658E+00</totfact>
</mgrwt>
</event>
<event>
 4    2  0.3747163E-007  0.7019866E+03  0.7818608E-02  0.9989058E-01
         -2   -1    0    0    0  501 -0.00000000000E+00  0.00000000000E+00  0.34702717925E+03  0.34702717926E+03  0.25500000000E-02 0.  1.
          2   -1    0    0  501    0  0.00000000000E+00 -0.00000000000E+00 -0.70467111299E+03  0.70467111299E+03  0.25500000000E-02 0. -1.
    8880023    1    1    2    0    0 -0.14427805584E+03  0.19534265594E+03 -0.24969766253E+03  0.74507317732E+03  0.65864270000E+03 0.  0.
    8880022    1    1    2    0    0  0.14427805584E+03 -0.19534265594E+03 -0.10794627121E+03  0.30662511494E+03  0.15294330000E+03 0.  1.
<mgrwt>
<rscale>  0 0.56132639E+03</rscale>
<asrwt>0</asrwt>
<pdfrwt beam="1">  1        2 0.10841094E+00 0.70198655E+03</pdfrwt>
<pdfrwt beam="2">  1       -2 0.53388797E-01 0.70198655E+03</pdfrwt>
<totfact> 0.13620917E+02</totfact>
</mgrwt>
</event>
<event>
 4    2  0.3747163E-007  0.7398224E+03  0.7818608E-02  0.9860465E-01
          2   -1    0    0  501    0  0.00000000000E+00  0.00000000000E+00  0.27561530177E+04  0.27561530177E+04  0.25500000000E-02 0. -1.
         -2   -1    0    0    0  501 -0.00000000000E+00 -0.00000000000E+00 -0.13827720367E+03  0.13827720369E+03  0.25500000000E-02 0.  1.
    8880023    1    1    2    0    0 -0.32793939403E+03  0.77348545901E+02  0.22663576708E+04  0.23840541818E+04  0.65864270000E+03 0.  0.
    8880022    1    1    2    0    0  0.32793939403E+03 -0.77348545901E+02  0.35151814323E+03  0.51037603955E+03  0.15294330000E+03 0.  0.
<mgrwt>
<rscale>  0 0.62216199E+03</rscale>
<asrwt>0</asrwt>
<pdfrwt beam="1">  1        2 0.42402355E+00 0.73982244E+03</pdfrwt>
<pdfrwt beam="2">  1       -2 0.21273415E-01 0.73982244E+03</pdfrwt>
<totfact> 0.49359105E+01</totfact>
</mgrwt>
</event>
<event>
 4    2  0.3747163E-007  0.8250607E+03  0.7818608E-02  0.9659020E-01
         -2   -1    0    0    0  501 -0.00000000000E+00  0.00000000000E+00  0.47636534200E+03  0.47636534201E+03  0.25500000000E-02 0.  1.
          2   -1    0    0  501    0  0.00000000000E+00 -0.00000000000E+00 -0.15641774843E+04  0.15641774843E+04  0.25500000000E-02 0. -1.
    8880023    1    1    2    0    0 -0.49674547175E+03 -0.12608295090E+02 -0.12483925747E+04  0.14963987635E+04  0.65864270000E+03 0.  0.
    8880022    1    1    2    0    0  0.49674547175E+03  0.12608295090E+02  0.16058043233E+03  0.54414406279E+03  0.15294330000E+03 0.  0.
<mgrwt>
<rscale>  0 0.73510020E+03</rscale>
<asrwt>0</asrwt>
<pdfrwt beam="1">  1        2 0.24064269E+00 0.82506075E+03</pdfrwt>
<pdfrwt beam="2">  1       -2 0.73286976E-01 0.82506075E+03</pdfrwt>
<totfact> 0.19944810E+01</totfact>
</mgrwt>
</event>
<event>
 4    2  0.3747163E-007  0.7158969E+03  0.7818608E-02  0.9936722E-01
          2   -1    0    0  501    0  0.00000000000E+00  0.00000000000E+00  0.58279675092E+03  0.58279675093E+03  0.25500000000E-02 0. -1.
         -2   -1    0    0    0  501 -0.00000000000E+00 -0.00000000000E+00 -0.12044010754E+04  0.12044010754E+04  0.25500000000E-02 0.  1.
    8880023    1    1    2    0    0 -0.10910712737E+03  0.25844508059E+03  0.32640182862E+03  0.78679513529E+03  0.65864270000E+03 0. -1.
    8880022    1    1    2    0    0  0.10910712737E+03 -0.25844508059E+03 -0.94800615313E+03  0.10004026911E+04  0.15294330000E+03 0.  0.
<mgrwt>
<rscale>  0 0.58514125E+03</rscale>
<asrwt>0</asrwt>
<pdfrwt beam="1">  1        2 0.89661039E-01 0.71589694E+03</pdfrwt>
<pdfrwt beam="2">  1       -2 0.18529247E+00 0.71589694E+03</pdfrwt>
<totfact> 0.87547037E+00</totfact>
</mgrwt>
</event>
<event>
 4    2  0.3747163E-007  0.6966679E+03  0.7818608E-02  0.1001132E+00
         -2   -1    0    0    0  501 -0.00000000000E+00  0.00000000000E+00  0.70326467286E+03  0.70326467286E+03  0.25500000000E-02 0.  1.
          2   -1    0    0  501    0  0.00000000000E+00 -0.00000000000E+00 -0.17767361388E+04  0.17767361388E+04  0.25500000000E-02 0. -1.
    8880023    1    1    2    0    0 -0.22667142487E+03 -0.12489077239E+02 -0.16777350840E+04  0.18166290569E+04  0.65864270000E+03 0. -1.
    8880022    1    1    2    0    0  0.22667142487E+03  0.12489077239E+02  0.60426361807E+03  0.66337175479E+03  0.15294330000E+03 0.  0.
<mgrwt>
<rscale>  0 0.55156860E+03</rscale>
<asrwt>0</asrwt>
<pdfrwt beam="1">  1        2 0.27334402E+00 0.69666787E+03</pdfrwt>
<pdfrwt beam="2">  1       -2 0.10819457E+00 0.69666787E+03</pdfrwt>
<totfact> 0.63195238E+00</totfact>
</mgrwt>
</event>
<event>
 4    2  0.3747163E-007  0.7626683E+03  0.7818608E-02  0.9798248E-01
          2   -1    0    0  501    0  0.00000000000E+00  0.00000000000E+00  0.19660409021E+04  0.19660409021E+04  0.25500000000E-02 0. -1.
         -2   -1    0    0    0  501 -0.00000000000E+00 -0.00000000000E+00 -0.10540902223E+04  0.10540902223E+04  0.25500000000E-02 0.  1.
    8880023    1    1    2    0    0 -0.35430673296E+03 -0.14939699588E+03  0.18466393246E+04  0.19979338640E+04  0.65864270000E+03 0. -1.
    8880022    1    1    2    0    0  0.35430673296E+03  0.14939699588E+03 -0.93468864485E+03  0.10221972604E+04  0.15294330000E+03 0.  0.
<mgrwt>
<rscale>  0 0.65456655E+03</rscale>
<asrwt>0</asrwt>
<pdfrwt beam="1">  1        2 0.30246783E+00 0.76266830E+03</pdfrwt>
<pdfrwt beam="2">  1       -2 0.16216773E+00 0.76266830E+03</pdfrwt>
<totfact> 0.17547882E+00</totfact>
</mgrwt>
</event>
<event>
 4    2  0.3747163E-007  0.7996193E+03  0.7818608E-02  0.9711620E-01
         -2   -1    0    0    0  501 -0.00000000000E+00  0.00000000000E+00  0.50516690549E+03  0.50516690550E+03  0.25500000000E-02 0.  1.
          2   -1    0    0  501    0  0.00000000000E+00 -0.00000000000E+00 -0.12867911149E+04  0.12867911150E+04  0.25500000000E-02 0. -1.
    8880023    1    1    2    0    0 -0.26945071440E+03 -0.36466032542E+03 -0.98783251769E+03  0.12709068139E+04  0.65864270000E+03 0. -1.
    8880022    1    1    2    0    0  0.26945071440E+03  0.36466032542E+03  0.20620830823E+03  0.52105120652E+03  0.15294330000E+03 0.  0.
<mgrwt>
<rscale>  0 0.70329150E+03</rscale>
<asrwt>0</asrwt>
<pdfrwt beam="1">  1        2 0.19796786E+00 0.79961931E+03</pdfrwt>
<pdfrwt beam="2">  1       -2 0.77717986E-01 0.79961931E+03</pdfrwt>
<totfact> 0.25188497E+01</totfact>
</mgrwt>
</event>
<event>
 4    2  0.3747163E-007  0.1200420E+04  0.7818608E-02  0.9156714E-01
          2   -1    0    0  501    0  0.00000000000E+00  0.00000000000E+00  0.83671794138E+03  0.83671794138E+03  0.25500000000E-02 0. -1.
         -2   -1    0    0    0  501 -0.00000000000E+00 -0.00000000000E+00 -0.15279554018E+04  0.15279554018E+04  0.25500000000E-02 0.  1.
    8880023    1    1    2    0    0 -0.95626073416E+03  0.30456983543E+03 -0.60928080820E+03  0.13461911773E+04  0.65864270000E+03 0. -1.
    8880022    1    1    2    0    0  0.95626073416E+03 -0.30456983543E+03 -0.81956652211E+02  0.10184821659E+04  0.15294330000E+03 0.  1.
<mgrwt>
<rscale>  0 0.11511596E+04</rscale>
<asrwt>0</asrwt>
<pdfrwt beam="1">  1        2 0.12872584E+00 0.12004198E+04</pdfrwt>
<pdfrwt beam="2">  1       -2 0.23507006E+00 0.12004198E+04</pdfrwt>
<totfact> 0.25138980E+00</totfact>
</mgrwt>
</event>
<event>
 4    2  0.3747163E-007  0.7803397E+03  0.7818608E-02  0.9755040E-01
          2   -1    0    0  501    0  0.00000000000E+00  0.00000000000E+00  0.22583520232E+04  0.22583520232E+04  0.25500000000E-02 0. -1.
         -2   -1    0    0    0  501 -0.00000000000E+00 -0.00000000000E+00 -0.82218256460E+03  0.82218256461E+03  0.25500000000E-02 0.  1.
    8880023    1    1    2    0    0  0.36133931032E+03  0.21107749408E+03  0.21229872627E+04  0.22618587334E+04  0.65864270000E+03 0. -1.
    8880022    1    1    2    0    0 -0.36133931032E+03 -0.21107749408E+03 -0.68681780409E+03  0.81867585449E+03  0.15294330000E+03 0.  0.
<mgrwt>
<rscale>  0 0.67832210E+03</rscale>
<asrwt>0</asrwt>
<pdfrwt beam="1">  1        2 0.34743877E+00 0.78033968E+03</pdfrwt>
<pdfrwt beam="2">  1       -2 0.12648963E+00 0.78033968E+03</pdfrwt>
<totfact> 0.23123125E+00</totfact>
</mgrwt>
</event>
<event>
 4    2  0.3747163E-007  0.6942741E+03  0.7818608E-02  0.1002184E+00
         -2   -1    0    0    0  501 -0.00000000000E+00  0.00000000000E+00  0.10911065428E+04  0.10911065428E+04  0.25500000000E-02 0.  1.
          2   -1    0    0  501    0  0.00000000000E+00 -0.00000000000E+00 -0.26789955393E+03  0.26789955395E+03  0.25500000000E-02 0. -1.
    8880023    1    1    2    0    0 -0.21657623877E+03 -0.36069869281E+02  0.27082279876E+03  0.74522580287E+03  0.65864270000E+03 0. -1.
    8880022    1    1    2    0    0  0.21657623877E+03  0.36069869281E+02  0.55238419012E+03  0.61378029390E+03  0.15294330000E+03 0.  1.
<mgrwt>
<rscale>  0 0.54702956E+03</rscale>
<asrwt>0</asrwt>
<pdfrwt beam="1">  1        2 0.41215315E-01 0.69427409E+03</pdfrwt>
<pdfrwt beam="2">  1       -2 0.16786255E+00 0.69427409E+03</pdfrwt>
<totfact> 0.27971414E+01</totfact>
</mgrwt>
</event>
<event>
 4    2  0.3747163E-007  0.6707562E+03  0.7818608E-02  0.1015126E+00
         -2   -1    0    0    0  501 -0.00000000000E+00  0.00000000000E+00  0.94672088790E+02  0.94672088825E+02  0.25500000000E-02 0.  1.
          2   -1    0    0  501    0  0.00000000000E+00 -0.00000000000E+00 -0.28444817783E+04  0.28444817783E+04  0.25500000000E-02 0. -1.
    8880023    1    1    2    0    0  0.12475128210E+03  0.23254202127E+02 -0.26134072529E+04  0.26981125470E+04  0.65864270000E+03 0. -1.
    8880022    1    1    2    0    0 -0.12475128210E+03 -0.23254202127E+02 -0.13640243663E+03  0.24104132018E+03  0.15294330000E+03 0.  0.
<mgrwt>
<rscale>  0 0.49487063E+03</rscale>
<asrwt>0</asrwt>
<pdfrwt beam="1">  1        2 0.43761252E+00 0.67075618E+03</pdfrwt>
<pdfrwt beam="2">  1       -2 0.14564939E-01 0.67075618E+03</pdfrwt>
<totfact> 0.84880390E+01</totfact>
</mgrwt>
</event>
<event>
 4    2  0.3747163E-007  0.6635809E+03  0.7818608E-02  0.1020755E+00
         -2   -1    0    0    0  501 -0.00000000000E+00  0.00000000000E+00  0.38293278069E+03  0.38293278070E+03  0.25500000000E-02 0.  1.
          2   -1    0    0  501    0  0.00000000000E+00 -0.00000000000E+00 -0.13193754365E+04  0.13193754365E+04  0.25500000000E-02 0. -1.
    8880023    1    1    2    0    0 -0.59686303823E+02  0.54469472874E+02 -0.12092075011E+04  0.13793195298E+04  0.65864270000E+03 0. -1.
    8880022    1    1    2    0    0  0.59686303823E+02 -0.54469472874E+02  0.27276484529E+03  0.32298868739E+03  0.15294330000E+03 0.  0.
<mgrwt>
<rscale>  0 0.47415187E+03</rscale>
<asrwt>0</asrwt>
<pdfrwt beam="1">  1        2 0.20298083E+00 0.66358088E+03</pdfrwt>
<pdfrwt beam="2">  1       -2 0.58912736E-01 0.66358088E+03</pdfrwt>
<totfact> 0.44620803E+01</totfact>
</mgrwt>
</event>
<event>
 4    2  0.3747163E-007  0.8719752E+03  0.7818608E-02  0.9572607E-01
         -2   -1    0    0    0  501 -0.00000000000E+00  0.00000000000E+00  0.43716438565E+03  0.43716438566E+03  0.25500000000E-02 0.  1.
          2   -1    0    0  501    0  0.00000000000E+00 -0.00000000000E+00 -0.15319243239E+04  0.15319243239E+04  0.25500000000E-02 0. -1.
    8880023    1    1    2    0    0  0.25498483652E+03 -0.51138369073E+03 -0.10655056808E+04  0.13768235573E+04  0.65864270000E+03 0.  1.
    8880022    1    1    2    0    0 -0.25498483652E+03  0.51138369073E+03 -0.29254257535E+02  0.59226515228E+03  0.15294330000E+03 0. -1.
<mgrwt>
<rscale>  0 0.79136081E+03</rscale>
<asrwt>0</asrwt>
<pdfrwt beam="1">  1        2 0.23568066E+00 0.87197520E+03</pdfrwt>
<pdfrwt beam="2">  1       -2 0.67256060E-01 0.87197520E+03</pdfrwt>
<totfact> 0.24956911E+01</totfact>
</mgrwt>
</event>
<event>
 4    2  0.3747163E-007  0.8738852E+03  0.7818608E-02  0.9569326E-01
         -2   -1    0    0    0  501 -0.00000000000E+00  0.00000000000E+00  0.39576563746E+03  0.39576563746E+03  0.25500000000E-02 0.  1.
          2   -1    0    0  501    0  0.00000000000E+00 -0.00000000000E+00 -0.18427093996E+04  0.18427093996E+04  0.25500000000E-02 0. -1.
    8880023    1    1    2    0    0 -0.20952517072E+03  0.53475637334E+03 -0.13893574108E+04  0.16413376853E+04  0.65864270000E+03 0. -1.
    8880022    1    1    2    0    0  0.20952517072E+03 -0.53475637334E+03 -0.57586351351E+02  0.59713735177E+03  0.15294330000E+03 0.  0.
<mgrwt>
<rscale>  0 0.79360084E+03</rscale>
<asrwt>0</asrwt>
<pdfrwt beam="1">  1        2 0.28349375E+00 0.87388522E+03</pdfrwt>
<pdfrwt beam="2">  1       -2 0.60887022E-01 0.87388522E+03</pdfrwt>
<totfact> 0.20820205E+01</totfact>
</mgrwt>
</event>
<event>
 4    2  0.3747163E-007  0.6594697E+03  0.7818608E-02  0.1024706E+00
         -2   -1    0    0    0  501 -0.00000000000E+00  0.00000000000E+00  0.13088401335E+04  0.13088401335E+04  0.25500000000E-02 0.  1.
          2   -1    0    0  501    0  0.00000000000E+00 -0.00000000000E+00 -0.31457691487E+03  0.31457691488E+03  0.25500000000E-02 0. -1.
    8880023    1    1    2    0    0  0.32739642558E+02 -0.42712043258E+01  0.44628009617E+02  0.66097805780E+03  0.65864270000E+03 0. -1.
    8880022    1    1    2    0    0 -0.32739642558E+02  0.42712043258E+01  0.94963520900E+03  0.96243899057E+03  0.15294330000E+03 0.  0.
<mgrwt>
<rscale>  0 0.46025819E+03</rscale>
<asrwt>0</asrwt>
<pdfrwt beam="1">  1        2 0.48396448E-01 0.65946974E+03</pdfrwt>
<pdfrwt beam="2">  1       -2 0.20136002E+00 0.65946974E+03</pdfrwt>
<totfact> 0.13933839E+01</totfact>
</mgrwt>
</event>
<event>
 4    2  0.3747163E-007  0.1139184E+04  0.7818608E-02  0.9218634E-01
          2   -1    0    0  501    0  0.00000000000E+00  0.00000000000E+00  0.27410931243E+04  0.27410931243E+04  0.25500000000E-02 0. -1.
         -2   -1    0    0    0  501 -0.00000000000E+00 -0.00000000000E+00 -0.46253119323E+03  0.46253119324E+03  0.25500000000E-02 0.  1.
    8880023    1    1    2    0    0  0.88210356158E+03  0.29295595293E+03  0.62189964157E+03  0.12978826041E+04  0.65864270000E+03 0.  1.
    8880022    1    1    2    0    0 -0.88210356158E+03 -0.29295595293E+03  0.16566622895E+04  0.19057417134E+04  0.15294330000E+03 0.  0.
<mgrwt>
<rscale>  0 0.10863144E+04</rscale>
<asrwt>0</asrwt>
<pdfrwt beam="1">  1        2 0.42170664E+00 0.11391840E+04</pdfrwt>
<pdfrwt beam="2">  1       -2 0.71158645E-01 0.11391840E+04</pdfrwt>
<totfact> 0.44905599E+00</totfact>
</mgrwt>
</event>
<event>
 4    2  0.3747163E-007  0.1281895E+04  0.7818608E-02  0.9081354E-01
          2   -1    0    0  501    0  0.00000000000E+00  0.00000000000E+00  0.25474459624E+04  0.25474459624E+04  0.25500000000E-02 0. -1.
         -2   -1    0    0    0  501 -0.00000000000E+00 -0.00000000000E+00 -0.66998520473E+03  0.66998520474E+03  0.25500000000E-02 0.  1.
    8880023    1    1    2    0    0 -0.80597960992E+02 -0.10967901354E+04  0.16407600120E+04  0.20821499119E+04  0.65864270000E+03 0.  0.
    8880022    1    1    2    0    0  0.80597960992E+02  0.10967901354E+04  0.23670074565E+03  0.11352812552E+04  0.15294330000E+03 0.  0.
<mgrwt>
<rscale>  0 0.12366663E+04</rscale>
<asrwt>0</asrwt>
<pdfrwt beam="1">  1        2 0.39191476E+00 0.12818950E+04</pdfrwt>
<pdfrwt beam="2">  1       -2 0.10307465E+00 0.12818950E+04</pdfrwt>
<totfact> 0.24459455E+00</totfact>
</mgrwt>
</event>
<event>
 4    2  0.3747163E-007  0.6680666E+03  0.7818608E-02  0.1017088E+00
          2   -1    0    0  501    0  0.00000000000E+00  0.00000000000E+00  0.12736106973E+04  0.12736106973E+04  0.25500000000E-02 0. -1.
         -2   -1    0    0    0  501 -0.00000000000E+00 -0.00000000000E+00 -0.14514002972E+03  0.14514002974E+03  0.25500000000E-02 0.  1.
    8880023    1    1    2    0    0  0.59772822313E+01  0.11165594020E+03  0.92108534580E+03  0.11378537680E+04  0.65864270000E+03 0.  1.
    8880022    1    1    2    0    0 -0.59772822313E+01 -0.11165594020E+03  0.20738532180E+03  0.28089695904E+03  0.15294330000E+03 0.  0.
<mgrwt>
<rscale>  0 0.48752086E+03</rscale>
<asrwt>0</asrwt>
<pdfrwt beam="1">  1        2 0.19594010E+00 0.66806660E+03</pdfrwt>
<pdfrwt beam="2">  1       -2 0.22329236E-01 0.66806660E+03</pdfrwt>
<totfact> 0.30544488E+02</totfact>
</mgrwt>
</event>
<event>
 4    2  0.3747163E-007  0.6886905E+03  0.7818608E-02  0.1004781E+00
          2   -1    0    0  501    0  0.00000000000E+00  0.00000000000E+00  0.10550614724E+04  0.10550614724E+04  0.25500000000E-02 0. -1.
         -2   -1    0    0    0  501 -0.00000000000E+00 -0.00000000000E+00 -0.21492103100E+03  0.21492103101E+03  0.25500000000E-02 0.  1.
    8880023    1    1    2    0    0  0.44722181692E+02  0.19617432858E+03  0.52479212968E+03  0.86585300506E+03  0.65864270000E+03 0.  0.
    8880022    1    1    2    0    0 -0.44722181692E+02 -0.19617432858E+03  0.31534831174E+03  0.40412949838E+03  0.15294330000E+03 0. -1.
<mgrwt>
<rscale>  0 0.53602541E+03</rscale>
<asrwt>0</asrwt>
<pdfrwt beam="1">  1        2 0.16231715E+00 0.68869053E+03</pdfrwt>
<pdfrwt beam="2">  1       -2 0.33064773E-01 0.68869053E+03</pdfrwt>
<totfact> 0.20122193E+02</totfact>
</mgrwt>
</event>
<event>
 4    2  0.3747163E-007  0.6619833E+03  0.7818608E-02  0.1022211E+00
         -2   -1    0    0    0  501 -0.00000000000E+00  0.00000000000E+00  0.13929372262E+03  0.13929372264E+03  0.25500000000E-02 0.  1.
          2   -1    0    0  501    0  0.00000000000E+00 -0.00000000000E+00 -0.18753078076E+04  0.18753078076E+04  0.25500000000E-02 0. -1.
    8880023    1    1    2    0    0 -0.66234589288E+02  0.49675011512E+01 -0.17248096627E+04  0.18474821449E+04  0.65864270000E+03 0. -1.
    8880022    1    1    2    0    0  0.66234589288E+02 -0.49675011512E+01 -0.11204422351E+02  0.16711938541E+03  0.15294330000E+03 0.  0.
<mgrwt>
<rscale>  0 0.46897255E+03</rscale>
<asrwt>0</asrwt>
<pdfrwt beam="1">  1        2 0.28850888E+00 0.66198331E+03</pdfrwt>
<pdfrwt beam="2">  1       -2 0.21429805E-01 0.66198331E+03</pdfrwt>
<totfact> 0.15264972E+02</totfact>
</mgrwt>
</event>
<event>
 4    2  0.3747163E-007  0.8905237E+03  0.7818608E-02  0.9541419E-01
         -2   -1    0    0    0  501 -0.00000000000E+00  0.00000000000E+00  0.24687453133E+03  0.24687453134E+03  0.25500000000E-02 0.  1.
          2   -1    0    0  501    0  0.00000000000E+00 -0.00000000000E+00 -0.25507339576E+04  0.25507339576E+04  0.25500000000E-02 0. -1.
    8880023    1    1    2    0    0 -0.37953003628E+03 -0.46387410502E+03 -0.91288872586E+03  0.12753032054E+04  0.65864270000E+03 0.  0.
    8880022    1    1    2    0    0  0.37953003628E+03  0.46387410502E+03 -0.13909707004E+04  0.15223052835E+04  0.15294330000E+03 0.  0.
<mgrwt>
<rscale>  0 0.81297876E+03</rscale>
<asrwt>0</asrwt>
<pdfrwt beam="1">  1        2 0.39242059E+00 0.89052369E+03</pdfrwt>
<pdfrwt beam="2">  1       -2 0.37980699E-01 0.89052369E+03</pdfrwt>
<totfact> 0.21839313E+01</totfact>
</mgrwt>
</event>
<event>
 4    2  0.3747163E-007  0.1140749E+04  0.7818608E-02  0.9216989E-01
         -2   -1    0    0    0  501 -0.00000000000E+00  0.00000000000E+00  0.20370916034E+04  0.20370916034E+04  0.25500000000E-02 0.  1.
          2   -1    0    0  501    0  0.00000000000E+00 -0.00000000000E+00 -0.77341591797E+03  0.77341591797E+03  0.25500000000E-02 0. -1.
    8880023    1    1    2    0    0 -0.93008506205E+03 -0.49384020663E+02 -0.10757570058E+03  0.11458096446E+04  0.65864270000E+03 0. -1.
    8880022    1    1    2    0    0  0.93008506205E+03  0.49384020663E+02  0.13712513860E+04  0.16646978768E+04  0.15294330000E+03 0.  0.
<mgrwt>
<rscale>  0 0.10879786E+04</rscale>
<asrwt>0</asrwt>
<pdfrwt beam="1">  1        2 0.11898707E+00 0.11407485E+04</pdfrwt>
<pdfrwt beam="2">  1       -2 0.31339870E+00 0.11407485E+04</pdfrwt>
<totfact> 0.93688377E-01</totfact>
</mgrwt>
</event>
<event>
 4    2  0.3747163E-007  0.7198564E+03  0.7818608E-02  0.9923072E-01
         -2   -1    0    0    0  501 -0.00000000000E+00  0.00000000000E+00  0.25065742725E+03  0.25065742726E+03  0.25500000000E-02 0.  1.
          2   -1    0    0  501    0  0.00000000000E+00 -0.00000000000E+00 -0.19039985266E+04  0.19039985266E+04  0.25500000000E-02 0. -1.
    8880023    1    1    2    0    0  0.20224217424E+03 -0.20852146964E+03 -0.16775465925E+04  0.18254741512E+04  0.65864270000E+03 0.  0.
    8880022    1    1    2    0    0 -0.20224217424E+03  0.20852146964E+03  0.24205493093E+02  0.32918180274E+03  0.15294330000E+03 0.  1.
<mgrwt>
<rscale>  0 0.59156035E+03</rscale>
<asrwt>0</asrwt>
<pdfrwt beam="1">  1        2 0.29292284E+00 0.71985645E+03</pdfrwt>
<pdfrwt beam="2">  1       -2 0.38562682E-01 0.71985645E+03</pdfrwt>
<totfact> 0.49525210E+01</totfact>
</mgrwt>
</event>
<event>
 4    2  0.3747163E-007  0.8946752E+03  0.7818608E-02  0.9534634E-01
         -2   -1    0    0    0  501 -0.00000000000E+00  0.00000000000E+00  0.61875205106E+03  0.61875205107E+03  0.25500000000E-02 0.  1.
          2   -1    0    0  501    0  0.00000000000E+00 -0.00000000000E+00 -0.11697499919E+04  0.11697499919E+04  0.25500000000E-02 0. -1.
    8880023    1    1    2    0    0 -0.48712084942E+03  0.35964824461E+03 -0.71217420458E+03  0.11435190797E+04  0.65864270000E+03 0. -1.
    8880022    1    1    2    0    0  0.48712084942E+03 -0.35964824461E+03  0.16117626378E+03  0.64498296319E+03  0.15294330000E+03 0.  0.
<mgrwt>
<rscale>  0 0.81777843E+03</rscale>
<asrwt>0</asrwt>
<pdfrwt beam="1">  1        2 0.17996154E+00 0.89467524E+03</pdfrwt>
<pdfrwt beam="2">  1       -2 0.95192623E-01 0.89467524E+03</pdfrwt>
<totfact> 0.18389904E+01</totfact>
</mgrwt>
</event>
<event>
 4    2  0.3747163E-007  0.6920839E+03  0.7818608E-02  0.1003177E+00
         -2   -1    0    0    0  501 -0.00000000000E+00  0.00000000000E+00  0.18771203916E+03  0.18771203918E+03  0.25500000000E-02 0.  1.
          2   -1    0    0  501    0  0.00000000000E+00 -0.00000000000E+00 -0.16679202687E+04  0.16679202687E+04  0.25500000000E-02 0. -1.
    8880023    1    1    2    0    0  0.21252697793E+03  0.14857392431E+01 -0.14304868105E+04  0.15891106459E+04  0.65864270000E+03 0.  0.
    8880022    1    1    2    0    0 -0.21252697793E+03 -0.14857392431E+01 -0.49721419067E+02  0.26652166197E+03  0.15294330000E+03 0.  0.
<mgrwt>
<rscale>  0 0.54278665E+03</rscale>
<asrwt>0</asrwt>
<pdfrwt beam="1">  1        2 0.25660311E+00 0.69208390E+03</pdfrwt>
<pdfrwt beam="2">  1       -2 0.28878776E-01 0.69208390E+03</pdfrwt>
<totfact> 0.11531814E+02</totfact>
</mgrwt>
</event>
<event>
 4    2  0.3747163E-007  0.8429142E+03  0.7818608E-02  0.9624710E-01
          2   -1    0    0  501    0  0.00000000000E+00  0.00000000000E+00  0.22242562201E+04  0.22242562201E+04  0.25500000000E-02 0. -1.
         -2   -1    0    0    0  501 -0.00000000000E+00 -0.00000000000E+00 -0.63925560865E+03  0.63925560865E+03  0.25500000000E-02 0.  1.
    8880023    1    1    2    0    0 -0.50488261675E+03  0.14760660427E+03  0.20038590595E+04  0.21739262874E+04  0.65864270000E+03 0. -1.
    8880022    1    1    2    0    0  0.50488261675E+03 -0.14760660427E+03 -0.41885844807E+03  0.68958554136E+03  0.15294330000E+03 0.  0.
<mgrwt>
<rscale>  0 0.75682108E+03</rscale>
<asrwt>0</asrwt>
<pdfrwt beam="1">  1        2 0.34219326E+00 0.84291421E+03</pdfrwt>
<pdfrwt beam="2">  1       -2 0.98347017E-01 0.84291421E+03</pdfrwt>
<totfact> 0.44122844E+00</totfact>
</mgrwt>
</event>
<event>
 4    2  0.3747163E-007  0.1219538E+04  0.7818608E-02  0.9138360E-01
         -2   -1    0    0    0  501 -0.00000000000E+00  0.00000000000E+00  0.94992801540E+03  0.94992801541E+03  0.25500000000E-02 0.  1.
          2   -1    0    0  501    0  0.00000000000E+00 -0.00000000000E+00 -0.20931591511E+04  0.20931591511E+04  0.25500000000E-02 0. -1.
    8880023    1    1    2    0    0 -0.93615469718E+03 -0.42080495208E+03 -0.15113409339E+04  0.19420154607E+04  0.65864270000E+03 0. -1.
    8880022    1    1    2    0    0  0.93615469718E+03  0.42080495208E+03  0.36810979823E+03  0.11010717058E+04  0.15294330000E+03 0.  0.
<mgrwt>
<rscale>  0 0.11712944E+04</rscale>
<asrwt>0</asrwt>
<pdfrwt beam="1">  1        2 0.32202448E+00 0.12195379E+04</pdfrwt>
<pdfrwt beam="2">  1       -2 0.14614277E+00 0.12195379E+04</pdfrwt>
<totfact> 0.18496032E+00</totfact>
</mgrwt>
</event>
<event>
 4    2  0.3747163E-007  0.6831621E+03  0.7818608E-02  0.1007589E+00
         -2   -1    0    0    0  501 -0.00000000000E+00  0.00000000000E+00  0.47553102190E+03  0.47553102190E+03  0.25500000000E-02 0.  1.
          2   -1    0    0  501    0  0.00000000000E+00 -0.00000000000E+00 -0.60067644342E+03  0.60067644342E+03  0.25500000000E-02 0. -1.
    8880023    1    1    2    0    0  0.12225664057E+03  0.13399095783E+03 -0.33370923759E+03  0.76031067628E+03  0.65864270000E+03 0. -1.
    8880022    1    1    2    0    0 -0.12225664057E+03 -0.13399095783E+03  0.20856381607E+03  0.31589678905E+03  0.15294330000E+03 0.  0.
<mgrwt>
<rscale>  0 0.52444335E+03</rscale>
<asrwt>0</asrwt>
<pdfrwt beam="1">  1        2 0.92411761E-01 0.68316211E+03</pdfrwt>
<pdfrwt beam="2">  1       -2 0.73158619E-01 0.68316211E+03</pdfrwt>
<totfact> 0.84899621E+01</totfact>
</mgrwt>
</event>
<event>
 4    2  0.3747163E-007  0.7133616E+03  0.7818608E-02  0.9945724E-01
          2   -1    0    0  501    0  0.00000000000E+00  0.00000000000E+00  0.19272427640E+04  0.19272427640E+04  0.25500000000E-02 0. -1.
         -2   -1    0    0    0  501 -0.00000000000E+00 -0.00000000000E+00 -0.15784370624E+03  0.15784370626E+03  0.25500000000E-02 0.  1.
    8880023    1    1    2    0    0  0.19425206402E+03 -0.19323737867E+03  0.15374095823E+04  0.16948489546E+04  0.65864270000E+03 0. -1.
    8880022    1    1    2    0    0 -0.19425206402E+03  0.19323737867E+03  0.23198947546E+03  0.39023751566E+03  0.15294330000E+03 0.  0.
<mgrwt>
<rscale>  0 0.58095593E+03</rscale>
<asrwt>0</asrwt>
<pdfrwt beam="1">  1        2 0.29649889E+00 0.71336159E+03</pdfrwt>
<pdfrwt beam="2">  1       -2 0.24283647E-01 0.71336159E+03</pdfrwt>
<totfact> 0.11390761E+02</totfact>
</mgrwt>
</event>
<event>
 4    2  0.6685610E-007  0.6832777E+03  0.7818608E-02  0.1007527E+00
          2   -1    0    0  501    0  0.00000000000E+00  0.00000000000E+00  0.15582585617E+04  0.15582585617E+04  0.25500000000E-02 0. -1.
         -2   -1    0    0    0  501 -0.00000000000E+00 -0.00000000000E+00 -0.19814056467E+04  0.19814056467E+04  0.25500000000E-02 0.  1.
    8880023    1    1    2    0    0  0.11872372066E+03  0.13770586116E+03  0.14755950433E+04  0.16261147450E+04  0.65864270000E+03 0. -1.
    8880022    1    1    2    0    0 -0.11872372066E+03 -0.13770586116E+03 -0.18987421283E+04  0.19135494634E+04  0.15294330000E+03 0.  0.
<mgrwt>
<rscale>  0 0.52469366E+03</rscale>
<asrwt>0</asrwt>
<pdfrwt beam="1">  1        2 0.23973209E+00 0.68327771E+03</pdfrwt>
<pdfrwt beam="2">  1       -2 0.30483164E+00 0.68327771E+03</pdfrwt>
<totfact> 0.37545050E-01</totfact>
</mgrwt>
</event>
<event>
 4    2  0.3747163E-007  0.7026884E+03  0.7818608E-02  0.9986226E-01
         -2   -1    0    0    0  501 -0.00000000000E+00  0.00000000000E+00  0.25084227901E+03  0.25084227902E+03  0.25500000000E-02 0.  1.
          2   -1    0    0  501    0  0.00000000000E+00 -0.00000000000E+00 -0.17173744622E+04  0.17173744622E+04  0.25500000000E-02 0. -1.
    8880023    1    1    2    0    0 -0.24453083712E+03 -0.12862045542E+02 -0.15200306091E+04  0.16745936885E+04  0.65864270000E+03 0. -1.
    8880022    1    1    2    0    0  0.24453083712E+03  0.12862045542E+02  0.53498425938E+02  0.29362305276E+03  0.15294330000E+03 0.  0.
<mgrwt>
<rscale>  0 0.56258333E+03</rscale>
<asrwt>0</asrwt>
<pdfrwt beam="1">  1        2 0.26421145E+00 0.70268839E+03</pdfrwt>
<pdfrwt beam="2">  1       -2 0.38591121E-01 0.70268839E+03</pdfrwt>
<totfact> 0.62620519E+01</totfact>
</mgrwt>
</event>
<event>
 4    2  0.3747163E-007  0.9369548E+03  0.7818608E-02  0.9469137E-01
          2   -1    0    0  501    0  0.00000000000E+00  0.00000000000E+00  0.28422125528E+04  0.28422125528E+04  0.25500000000E-02 0. -1.
         -2   -1    0    0    0  501 -0.00000000000E+00 -0.00000000000E+00 -0.60593016203E+03  0.60593016204E+03  0.25500000000E-02 0.  1.
    8880023    1    1    2    0    0  0.11012081681E+03  0.65722709226E+03  0.25345585037E+04  0.27021974502E+04  0.65864270000E+03 0. -1.
    8880022    1    1    2    0    0 -0.11012081681E+03 -0.65722709226E+03 -0.29827611299E+03  0.74594526454E+03  0.15294330000E+03 0.  0.
<mgrwt>
<rscale>  0 0.86597966E+03</rscale>
<asrwt>0</asrwt>
<pdfrwt beam="1">  1        2 0.43726347E+00 0.93695478E+03</pdfrwt>
<pdfrwt beam="2">  1       -2 0.93220026E-01 0.93695478E+03</pdfrwt>
<totfact> 0.21793518E+00</totfact>
</mgrwt>
</event>
<event>
 4    2  0.3747163E-007  0.7473751E+03  0.7818608E-02  0.9838962E-01
          2   -1    0    0  501    0  0.00000000000E+00  0.00000000000E+00  0.12068902518E+04  0.12068902518E+04  0.25500000000E-02 0. -1.
         -2   -1    0    0    0  501 -0.00000000000E+00 -0.00000000000E+00 -0.36838005024E+03  0.36838005024E+03  0.25500000000E-02 0.  1.
    8880023    1    1    2    0    0  0.32302395876E+03 -0.14288041763E+03  0.91644369303E+03  0.11825559354E+04  0.65864270000E+03 0. -1.
    8880022    1    1    2    0    0 -0.32302395876E+03  0.14288041763E+03 -0.77933491422E+02  0.39271436665E+03  0.15294330000E+03 0.  0.
<mgrwt>
<rscale>  0 0.63312871E+03</rscale>
<asrwt>0</asrwt>
<pdfrwt beam="1">  1        2 0.18567542E+00 0.74737507E+03</pdfrwt>
<pdfrwt beam="2">  1       -2 0.56673854E-01 0.74737507E+03</pdfrwt>
<totfact> 0.55763202E+01</totfact>
</mgrwt>
</event>
<event>
 4    2  0.3747163E-007  0.7027794E+03  0.7818608E-02  0.9985861E-01
         -2   -1    0    0    0  501 -0.00000000000E+00  0.00000000000E+00  0.31477098341E+03  0.31477098342E+03  0.25500000000E-02 0.  1.
          2   -1    0    0  501    0  0.00000000000E+00 -0.00000000000E+00 -0.12935405449E+04  0.12935405449E+04  0.25500000000E-02 0. -1.
    8880023    1    1    2    0    0 -0.24506487329E+03 -0.56457290528E+01 -0.10914908149E+04  0.12981722042E+04  0.65864270000E+03 0.  0.
    8880022    1    1    2    0    0  0.24506487329E+03  0.56457290528E+01  0.11272125345E+03  0.31013932413E+03  0.15294330000E+03 0.  0.
<mgrwt>
<rscale>  0 0.56274582E+03</rscale>
<asrwt>0</asrwt>
<pdfrwt beam="1">  1        2 0.19900623E+00 0.70277939E+03</pdfrwt>
<pdfrwt beam="2">  1       -2 0.48426306E-01 0.70277939E+03</pdfrwt>
<totfact> 0.68855327E+01</totfact>
</mgrwt>
</event>
<event>
 4    2  0.3747163E-007  0.8956950E+03  0.7818608E-02  0.9532978E-01
         -2   -1    0    0    0  501 -0.00000000000E+00  0.00000000000E+00  0.14442103084E+04  0.14442103084E+04  0.25500000000E-02 0.  1.
          2   -1    0    0  501    0  0.00000000000E+00 -0.00000000000E+00 -0.92430828451E+03  0.92430828452E+03  0.25500000000E-02 0. -1.
    8880023    1    1    2    0    0  0.50257111258E+03 -0.34041388326E+03 -0.60520749178E+03  0.10809928998E+04  0.65864270000E+03 0. -1.
    8880022    1    1    2    0    0 -0.50257111258E+03  0.34041388326E+03  0.11251095156E+04  0.12875256931E+04  0.15294330000E+03 0.  0.
<mgrwt>
<rscale>  0 0.81895537E+03</rscale>
<asrwt>0</asrwt>
<pdfrwt beam="1">  1        2 0.14220127E+00 0.89569500E+03</pdfrwt>
<pdfrwt beam="2">  1       -2 0.22218620E+00 0.89569500E+03</pdfrwt>
<totfact> 0.27209667E+00</totfact>
</mgrwt>
</event>
<event>
 4    2  0.3747163E-007  0.1435413E+04  0.7818608E-02  0.8956643E-01
          2   -1    0    0  501    0  0.00000000000E+00  0.00000000000E+00  0.22557376528E+04  0.22557376528E+04  0.25500000000E-02 0. -1.
         -2   -1    0    0    0  501 -0.00000000000E+00 -0.00000000000E+00 -0.94602673257E+03  0.94602673258E+03  0.25500000000E-02 0.  1.
    8880023    1    1    2    0    0  0.41189527389E+03 -0.12070391528E+04  0.12700660402E+04  0.19166322511E+04  0.65864270000E+03 0.  0.
    8880022    1    1    2    0    0 -0.41189527389E+03  0.12070391528E+04  0.39644880055E+02  0.12851321343E+04  0.15294330000E+03 0.  0.
<mgrwt>
<rscale>  0 0.13961047E+04</rscale>
<asrwt>0</asrwt>
<pdfrwt beam="1">  1        2 0.34703656E+00 0.14354133E+04</pdfrwt>
<pdfrwt beam="2">  1       -2 0.14554258E+00 0.14354133E+04</pdfrwt>
<totfact> 0.14820941E+00</totfact>
</mgrwt>
</event>
<event>
 4    2  0.3747163E-007  0.7431871E+03  0.7818608E-02  0.9850759E-01
          2   -1    0    0  501    0  0.00000000000E+00  0.00000000000E+00  0.23351369876E+04  0.23351369876E+04  0.25500000000E-02 0. -1.
         -2   -1    0    0    0  501 -0.00000000000E+00 -0.00000000000E+00 -0.25515977840E+03  0.25515977842E+03  0.25500000000E-02 0.  1.
    8880023    1    1    2    0    0  0.28993906078E+03 -0.18561322570E+03  0.20850654513E+04  0.22135548494E+04  0.65864270000E+03 0. -1.
    8880022    1    1    2    0    0 -0.28993906078E+03  0.18561322570E+03 -0.50882421663E+01  0.37674191663E+03  0.15294330000E+03 0.  0.
<mgrwt>
<rscale>  0 0.62708256E+03</rscale>
<asrwt>0</asrwt>
<pdfrwt beam="1">  1        2 0.35925184E+00 0.74318715E+03</pdfrwt>
<pdfrwt beam="2">  1       -2 0.39255351E-01 0.74318715E+03</pdfrwt>
<totfact> 0.27658363E+01</totfact>
</mgrwt>
</event>
<event>
 4    2  0.3747163E-007  0.8378124E+03  0.7818608E-02  0.9634319E-01
          2   -1    0    0  501    0  0.00000000000E+00  0.00000000000E+00  0.12139949548E+04  0.12139949548E+04  0.25500000000E-02 0. -1.
         -2   -1    0    0    0  501 -0.00000000000E+00 -0.00000000000E+00 -0.54062941972E+03  0.54062941972E+03  0.25500000000E-02 0.  1.
    8880023    1    1    2    0    0  0.41955759876E+03  0.30346463879E+03  0.84316444738E+03  0.11886361332E+04  0.65864270000E+03 0. -1.
    8880022    1    1    2    0    0 -0.41955759876E+03 -0.30346463879E+03 -0.16979891228E+03  0.56598824130E+03  0.15294330000E+03 0.  1.
<mgrwt>
<rscale>  0 0.75065771E+03</rscale>
<asrwt>0</asrwt>
<pdfrwt beam="1">  1        2 0.18676845E+00 0.83781237E+03</pdfrwt>
<pdfrwt beam="2">  1       -2 0.83173758E-01 0.83781237E+03</pdfrwt>
<totfact> 0.23754683E+01</totfact>
</mgrwt>
</event>
<event>
 4    2  0.3747163E-007  0.6596296E+03  0.7818608E-02  0.1024539E+00
         -2   -1    0    0    0  501 -0.00000000000E+00  0.00000000000E+00  0.59268826950E+03  0.59268826950E+03  0.25500000000E-02 0.  1.
          2   -1    0    0  501    0  0.00000000000E+00 -0.00000000000E+00 -0.31517473149E+03  0.31517473150E+03  0.25500000000E-02 0. -1.
    8880023    1    1    2    0    0  0.56894184514E+01  0.35618728634E+02  0.94047518534E+02  0.66630038670E+03  0.65864270000E+03 0. -1.
    8880022    1    1    2    0    0 -0.56894184514E+01 -0.35618728634E+02  0.18346601947E+03  0.24156261430E+03  0.15294330000E+03 0.  0.
<mgrwt>
<rscale>  0 0.46083582E+03</rscale>
<asrwt>0</asrwt>
<pdfrwt beam="1">  1        2 0.48488420E-01 0.65962965E+03</pdfrwt>
<pdfrwt beam="2">  1       -2 0.91182810E-01 0.65962965E+03</pdfrwt>
<totfact> 0.10803371E+02</totfact>
</mgrwt>
</event>
<event>
 4    2  0.3747163E-007  0.7469541E+03  0.7818608E-02  0.9840134E-01
          2   -1    0    0  501    0  0.00000000000E+00  0.00000000000E+00  0.12271058062E+04  0.12271058062E+04  0.25500000000E-02 0. -1.
         -2   -1    0    0    0  501 -0.00000000000E+00 -0.00000000000E+00 -0.55112820892E+03  0.55112820893E+03  0.25500000000E-02 0.  1.
    8880023    1    1    2    0    0  0.33727708100E+03  0.10185454183E+03  0.10188801238E+04  0.12633515307E+04  0.65864270000E+03 0.  0.
    8880022    1    1    2    0    0 -0.33727708100E+03 -0.10185454183E+03 -0.34290252655E+03  0.51488248445E+03  0.15294330000E+03 0.  0.
<mgrwt>
<rscale>  0 0.63252466E+03</rscale>
<asrwt>0</asrwt>
<pdfrwt beam="1">  1        2 0.18878551E+00 0.74695407E+03</pdfrwt>
<pdfrwt beam="2">  1       -2 0.84788955E-01 0.74695407E+03</pdfrwt>
<totfact> 0.22549289E+01</totfact>
</mgrwt>
</event>
<event>
 4    2  0.3747163E-007  0.7628005E+03  0.7818608E-02  0.9797910E-01
         -2   -1    0    0    0  501 -0.00000000000E+00  0.00000000000E+00  0.11208784469E+04  0.11208784469E+04  0.25500000000E-02 0.  1.
          2   -1    0    0  501    0  0.00000000000E+00 -0.00000000000E+00 -0.33536757424E+03  0.33536757425E+03  0.25500000000E-02 0. -1.
    8880023    1    1    2    0    0  0.31161218645E+02 -0.38351453634E+03  0.30389179314E+03  0.82110586975E+03  0.65864270000E+03 0. -1.
    8880022    1    1    2    0    0 -0.31161218645E+02  0.38351453634E+03  0.48161907947E+03  0.63514015135E+03  0.15294330000E+03 0.  1.
<mgrwt>
<rscale>  0 0.65474799E+03</rscale>
<asrwt>0</asrwt>
<pdfrwt beam="1">  1        2 0.51595012E-01 0.76280052E+03</pdfrwt>
<pdfrwt beam="2">  1       -2 0.17244284E+00 0.76280052E+03</pdfrwt>
<totfact> 0.20114503E+01</totfact>
</mgrwt>
</event>
<event>
 4    2  0.3747163E-007  0.6746376E+03  0.7818608E-02  0.1012536E+00
         -2   -1    0    0    0  501 -0.00000000000E+00  0.00000000000E+00  0.29405241103E+03  0.29405241104E+03  0.25500000000E-02 0.  1.
          2   -1    0    0  501    0  0.00000000000E+00 -0.00000000000E+00 -0.74001428726E+03  0.74001428726E+03  0.25500000000E-02 0. -1.
    8880023    1    1    2    0    0 -0.89622831451E+02  0.11529733320E+03 -0.46856895800E+03  0.82139686001E+03  0.65864270000E+03 0.  0.
    8880022    1    1    2    0    0  0.89622831451E+02 -0.11529733320E+03  0.22607081779E+02  0.21266983830E+03  0.15294330000E+03 0.  0.
<mgrwt>
<rscale>  0 0.50479200E+03</rscale>
<asrwt>0</asrwt>
<pdfrwt beam="1">  1        2 0.11384835E+00 0.67463763E+03</pdfrwt>
<pdfrwt beam="2">  1       -2 0.45238833E-01 0.67463763E+03</pdfrwt>
<totfact> 0.17931522E+02</totfact>
</mgrwt>
</event>
<event>
 4    2  0.3747163E-007  0.1056551E+04  0.7818608E-02  0.9311047E-01
         -2   -1    0    0    0  501 -0.00000000000E+00  0.00000000000E+00  0.46197137810E+03  0.46197137811E+03  0.25500000000E-02 0.  1.
          2   -1    0    0  501    0  0.00000000000E+00 -0.00000000000E+00 -0.23603741050E+04  0.23603741050E+04  0.25500000000E-02 0. -1.
    8880023    1    1    2    0    0  0.18996031778E+03  0.80399326985E+03 -0.16260073053E+04  0.19391235297E+04  0.65864270000E+03 0. -1.
    8880022    1    1    2    0    0 -0.18996031778E+03 -0.80399326985E+03 -0.27239542163E+03  0.88322195344E+03  0.15294330000E+03 0.  0.
<mgrwt>
<rscale>  0 0.99772163E+03</rscale>
<asrwt>0</asrwt>
<pdfrwt beam="1">  1        2 0.36313447E+00 0.10565511E+04</pdfrwt>
<pdfrwt beam="2">  1       -2 0.71072521E-01 0.10565511E+04</pdfrwt>
<totfact> 0.75431331E+00</totfact>
</mgrwt>
</event>
<event>
 4    2  0.3747163E-007  0.6987032E+03  0.7818608E-02  0.1000262E+00
         -2   -1    0    0    0  501 -0.00000000000E+00  0.00000000000E+00  0.20525639185E+03  0.20525639187E+03  0.25500000000E-02 0.  1.
          2   -1    0    0  501    0  0.00000000000E+00 -0.00000000000E+00 -0.21349735657E+04  0.21349735657E+04  0.25500000000E-02 0. -1.
    8880023    1    1    2    0    0  0.15690366787E+03 -0.17250267190E+03 -0.19391662022E+04  0.20612015182E+04  0.65864270000E+03 0. -1.
    8880022    1    1    2    0    0 -0.15690366787E+03  0.17250267190E+03  0.94490283468E+01  0.27902843933E+03  0.15294330000E+03 0.  0.
<mgrwt>
<rscale>  0 0.55535332E+03</rscale>
<asrwt>0</asrwt>
<pdfrwt beam="1">  1        2 0.32845746E+00 0.69870318E+03</pdfrwt>
<pdfrwt beam="2">  1       -2 0.31577908E-01 0.69870318E+03</pdfrwt>
<totfact> 0.54336153E+01</totfact>
</mgrwt>
</event>
<event>
 4    2  0.3747163E-007  0.8800193E+03  0.7818608E-02  0.9558900E-01
         -2   -1    0    0    0  501 -0.00000000000E+00  0.00000000000E+00  0.63738357379E+03  0.63738357379E+03  0.25500000000E-02 0.  1.
          2   -1    0    0  501    0  0.00000000000E+00 -0.00000000000E+00 -0.10055699355E+04  0.10055699355E+04  0.25500000000E-02 0. -1.
    8880023    1    1    2    0    0 -0.55152531512E+03 -0.19090191761E+03 -0.51818658848E+03  0.10212498529E+04  0.65864270000E+03 0.  0.
    8880022    1    1    2    0    0  0.55152531512E+03  0.19090191761E+03  0.15000022672E+03  0.62170365641E+03  0.15294330000E+03 0.  0.
<mgrwt>
<rscale>  0 0.80077241E+03</rscale>
<asrwt>0</asrwt>
<pdfrwt beam="1">  1        2 0.15470307E+00 0.88001927E+03</pdfrwt>
<pdfrwt beam="2">  1       -2 0.98059011E-01 0.88001927E+03</pdfrwt>
<totfact> 0.21700317E+01</totfact>
</mgrwt>
</event>
<event>
 4    2  0.3747163E-007  0.9275540E+03  0.7818608E-02  0.9483172E-01
          2   -1    0    0  501    0  0.00000000000E+00  0.00000000000E+00  0.23857229917E+04  0.23857229917E+04  0.25500000000E-02 0. -1.
         -2   -1    0    0    0  501 -0.00000000000E+00 -0.00000000000E+00 -0.28196777418E+03  0.28196777419E+03  0.25500000000E-02 0.  1.
    8880023    1    1    2    0    0  0.47105584949E+03 -0.45238540482E+03  0.91599542588E+03  0.13036119033E+04  0.65864270000E+03 0.  0.
    8880022    1    1    2    0    0 -0.47105584949E+03  0.45238540482E+03  0.11877597917E+04  0.13640788627E+04  0.15294330000E+03 0.  0.
<mgrwt>
<rscale>  0 0.85535905E+03</rscale>
<asrwt>0</asrwt>
<pdfrwt beam="1">  1        2 0.36703430E+00 0.92755397E+03</pdfrwt>
<pdfrwt beam="2">  1       -2 0.43379659E-01 0.92755397E+03</pdfrwt>
<totfact> 0.20789305E+01</totfact>
</mgrwt>
</event>
<event>
 4    2  0.3747163E-007  0.8542900E+03  0.7818608E-02  0.9603802E-01
         -2   -1    0    0    0  501 -0.00000000000E+00  0.00000000000E+00  0.40969994603E+03  0.40969994604E+03  0.25500000000E-02 0.  1.
          2   -1    0    0  501    0  0.00000000000E+00 -0.00000000000E+00 -0.21777110316E+04  0.21777110316E+04  0.25500000000E-02 0. -1.
    8880023    1    1    2    0    0 -0.26653967736E+03  0.47429715709E+03 -0.18293011282E+04  0.20189487404E+04  0.65864270000E+03 0.  0.
    8880022    1    1    2    0    0  0.26653967736E+03 -0.47429715709E+03  0.61290042543E+02  0.56846223724E+03  0.15294330000E+03 0.  0.
<mgrwt>
<rscale>  0 0.77045032E+03</rscale>
<asrwt>0</asrwt>
<pdfrwt beam="1">  1        2 0.33503246E+00 0.85429000E+03</pdfrwt>
<pdfrwt beam="2">  1       -2 0.63030762E-01 0.85429000E+03</pdfrwt>
<totfact> 0.12693253E+01</totfact>
</mgrwt>
</event>
<event>
 4    2  0.3747163E-007  0.7302096E+03  0.7818608E-02  0.9889442E-01
         -2   -1    0    0    0  501 -0.00000000000E+00  0.00000000000E+00  0.45261114927E+03  0.45261114928E+03  0.25500000000E-02 0.  1.
          2   -1    0    0  501    0  0.00000000000E+00 -0.00000000000E+00 -0.10466591057E+04  0.10466591057E+04  0.25500000000E-02 0. -1.
    8880023    1    1    2    0    0  0.22246574564E+03  0.22339388215E+03 -0.80771302020E+03  0.10888555294E+04  0.65864270000E+03 0.  0.
    8880022    1    1    2    0    0 -0.22246574564E+03 -0.22339388215E+03  0.21366506373E+03  0.41041472566E+03  0.15294330000E+03 0.  0.
<mgrwt>
<rscale>  0 0.60775692E+03</rscale>
<asrwt>0</asrwt>
<pdfrwt beam="1">  1        2 0.16102448E+00 0.73020959E+03</pdfrwt>
<pdfrwt beam="2">  1       -2 0.69632485E-01 0.73020959E+03</pdfrwt>
<totfact> 0.45027793E+01</totfact>
</mgrwt>
</event>
<event>
 4    2  0.3747163E-007  0.1179551E+04  0.7818608E-02  0.9177261E-01
         -2   -1    0    0    0  501 -0.00000000000E+00  0.00000000000E+00  0.10878119837E+04  0.10878119837E+04  0.25500000000E-02 0.  1.
          2   -1    0    0  501    0  0.00000000000E+00 -0.00000000000E+00 -0.13432785442E+04  0.13432785442E+04  0.25500000000E-02 0. -1.
    8880023    1    1    2    0    0 -0.81357292633E+03  0.54371773095E+03  0.39758265323E+03  0.12447538109E+04  0.65864270000E+03 0.  0.
    8880022    1    1    2    0    0  0.81357292633E+03 -0.54371773095E+03 -0.65304921373E+03  0.11863367169E+04  0.15294330000E+03 0.  0.
<mgrwt>
<rscale>  0 0.11291243E+04</rscale>
<asrwt>0</asrwt>
<pdfrwt beam="1">  1        2 0.20665824E+00 0.11795508E+04</pdfrwt>
<pdfrwt beam="2">  1       -2 0.16735569E+00 0.11795508E+04</pdfrwt>
<totfact> 0.33799789E+00</totfact>
</mgrwt>
</event>
<event>
 4    2  0.3747163E-007  0.7184595E+03  0.7818608E-02  0.9927833E-01
          2   -1    0    0  501    0  0.00000000000E+00  0.00000000000E+00  0.52148191014E+03  0.52148191015E+03  0.25500000000E-02 0. -1.
         -2   -1    0    0    0  501 -0.00000000000E+00 -0.00000000000E+00 -0.67913181518E+03  0.67913181519E+03  0.25500000000E-02 0.  1.
    8880023    1    1    2    0    0  0.19183183493E+03 -0.21348148034E+03  0.17070848247E+03  0.73846150041E+03  0.65864270000E+03 0. -1.
    8880022    1    1    2    0    0 -0.19183183493E+03  0.21348148034E+03 -0.32835838751E+03  0.46215222493E+03  0.15294330000E+03 0.  0.
<mgrwt>
<rscale>  0 0.58931118E+03</rscale>
<asrwt>0</asrwt>
<pdfrwt beam="1">  1        2 0.80227986E-01 0.71845946E+03</pdfrwt>
<pdfrwt beam="2">  1       -2 0.10448182E+00 0.71845946E+03</pdfrwt>
<totfact> 0.44229654E+01</totfact>
</mgrwt>
</event>
<event>
 4    2  0.3747163E-007  0.9201501E+03  0.7818608E-02  0.9494429E-01
         -2   -1    0    0    0  501 -0.00000000000E+00  0.00000000000E+00  0.68850806821E+03  0.68850806822E+03  0.25500000000E-02 0.  1.
          2   -1    0    0  501    0  0.00000000000E+00 -0.00000000000E+00 -0.16763736560E+04  0.16763736560E+04  0.25500000000E-02 0. -1.
    8880023    1    1    2    0    0 -0.12879025817E+03  0.62950702328E+03 -0.13329255341E+04  0.16196810515E+04  0.65864270000E+03 0.  0.
    8880022    1    1    2    0    0  0.12879025817E+03 -0.62950702328E+03  0.34505994634E+03  0.74520067267E+03  0.15294330000E+03 0.  0.
<mgrwt>
<rscale>  0 0.84695805E+03</rscale>
<asrwt>0</asrwt>
<pdfrwt beam="1">  1        2 0.25790364E+00 0.92015011E+03</pdfrwt>
<pdfrwt beam="2">  1       -2 0.10592432E+00 0.92015011E+03</pdfrwt>
<totfact> 0.73160156E+00</totfact>
</mgrwt>
</event>
<event>
 4    2  0.3747163E-007  0.6658125E+03  0.7818608E-02  0.1018861E+00
          2   -1    0    0  501    0  0.00000000000E+00  0.00000000000E+00  0.98618651488E+03  0.98618651489E+03  0.25500000000E-02 0. -1.
         -2   -1    0    0    0  501 -0.00000000000E+00 -0.00000000000E+00 -0.18398928509E+03  0.18398928511E+03  0.25500000000E-02 0.  1.
    8880023    1    1    2    0    0 -0.91459171994E+02  0.33633928270E+02  0.57704445336E+03  0.88107123928E+03  0.65864270000E+03 0.  1.
    8880022    1    1    2    0    0  0.91459171994E+02 -0.33633928270E+02  0.22515277644E+03  0.28910456071E+03  0.15294330000E+03 0.  1.
<mgrwt>
<rscale>  0 0.48099779E+03</rscale>
<asrwt>0</asrwt>
<pdfrwt beam="1">  1        2 0.15172100E+00 0.66581246E+03</pdfrwt>
<pdfrwt beam="2">  1       -2 0.28306045E-01 0.66581246E+03</pdfrwt>
<totfact> 0.29726855E+02</totfact>
</mgrwt>
</event>
<event>
 4    2  0.3747163E-007  0.1100790E+04  0.7818608E-02  0.9260177E-01
          2   -1    0    0  501    0  0.00000000000E+00  0.00000000000E+00  0.16312517862E+04  0.16312517862E+04  0.25500000000E-02 0. -1.
         -2   -1    0    0    0  501 -0.00000000000E+00 -0.00000000000E+00 -0.10231476650E+04  0.10231476650E+04  0.25500000000E-02 0.  1.
    8880023    1    1    2    0    0 -0.82465378354E+03  0.31284923975E+03  0.11628836144E+04  0.16012610707E+04  0.65864270000E+03 0.  0.
    8880022    1    1    2    0    0  0.82465378354E+03 -0.31284923975E+03 -0.55477949316E+03  0.10531383805E+04  0.15294330000E+03 0.  0.
<mgrwt>
<rscale>  0 0.10453317E+04</rscale>
<asrwt>0</asrwt>
<pdfrwt beam="1">  1        2 0.25096181E+00 0.11007900E+04</pdfrwt>
<pdfrwt beam="2">  1       -2 0.15740733E+00 0.11007900E+04</pdfrwt>
<totfact> 0.27696378E+00</totfact>
</mgrwt>
</event>
<event>
 4    2  0.3747163E-007  0.1208506E+04  0.7818608E-02  0.9148898E-01
         -2   -1    0    0    0  501 -0.00000000000E+00  0.00000000000E+00  0.27213394054E+04  0.27213394054E+04  0.25500000000E-02 0.  1.
          2   -1    0    0  501    0  0.00000000000E+00 -0.00000000000E+00 -0.82892227121E+03  0.82892227121E+03  0.25500000000E-02 0. -1.
    8880023    1    1    2    0    0 -0.34883090030E+03  0.95131105752E+03 -0.19570745814E+03  0.12242497052E+04  0.65864270000E+03 0. -1.
    8880022    1    1    2    0    0  0.34883090030E+03 -0.95131105752E+03  0.20881245923E+04  0.23260119714E+04  0.15294330000E+03 0.  0.
<mgrwt>
<rscale>  0 0.11596813E+04</rscale>
<asrwt>0</asrwt>
<pdfrwt beam="1">  1        2 0.12752650E+00 0.12085057E+04</pdfrwt>
<pdfrwt beam="2">  1       -2 0.41866760E+00 0.12085057E+04</pdfrwt>
<totfact> 0.18140018E-01</totfact>
</mgrwt>
</event>
<event>
 4    2  0.3747163E-007  0.1339768E+04  0.7818608E-02  0.9031956E-01
          2   -1    0    0  501    0  0.00000000000E+00  0.00000000000E+00  0.25591785223E+04  0.25591785223E+04  0.25500000000E-02 0. -1.
         -2   -1    0    0    0  501 -0.00000000000E+00 -0.00000000000E+00 -0.72139523779E+03  0.72139523779E+03  0.25500000000E-02 0.  1.
    8880023    1    1    2    0    0  0.68510870712E+03 -0.94434920202E+03  0.15880137600E+04  0.20776831481E+04  0.65864270000E+03 0.  0.
    8880022    1    1    2    0    0 -0.68510870712E+03  0.94434920202E+03  0.24976952454E+03  0.12028906120E+04  0.15294330000E+03 0.  0.
<mgrwt>
<rscale>  0 0.12969891E+04</rscale>
<asrwt>0</asrwt>
<pdfrwt beam="1">  1        2 0.39371978E+00 0.13397685E+04</pdfrwt>
<pdfrwt beam="2">  1       -2 0.11098388E+00 0.13397685E+04</pdfrwt>
<totfact> 0.19996835E+00</totfact>
</mgrwt>
</event>
<event>
 4    2  0.5587994E-007  0.7758100E+03  0.7818608E-02  0.9765773E-01
          2   -1    0    0  501    0  0.00000000000E+00  0.00000000000E+00  0.23088935175E+04  0.23088935175E+04  0.25500000000E-02 0. -1.
         -2   -1    0    0    0  501 -0.00000000000E+00 -0.00000000000E+00 -0.10373430923E+04  0.10373430923E+04  0.25500000000E-02 0.  1.
    8880023    1    1    2    0    0  0.14498010832E+03  0.38347327460E+03  0.21929936714E+04  0.23261776443E+04  0.65864270000E+03 0. -1.
    8880022    1    1    2    0    0 -0.14498010832E+03 -0.38347327460E+03 -0.92144324618E+03  0.10200589655E+04  0.15294330000E+03 0.  0.
<mgrwt>
<rscale>  0 0.67232157E+03</rscale>
<asrwt>0</asrwt>
<pdfrwt beam="1">  1        2 0.35521439E+00 0.77581002E+03</pdfrwt>
<pdfrwt beam="2">  1       -2 0.15959124E+00 0.77581002E+03</pdfrwt>
<totfact> 0.11842860E+00</totfact>
</mgrwt>
</event>
<event>
 4    2  0.3747163E-007  0.8348044E+03  0.7818608E-02  0.9640056E-01
         -2   -1    0    0    0  501 -0.00000000000E+00  0.00000000000E+00  0.45188175307E+03  0.45188175308E+03  0.25500000000E-02 0.  1.
          2   -1    0    0  501    0  0.00000000000E+00 -0.00000000000E+00 -0.19721932599E+04  0.19721932599E+04  0.25500000000E-02 0. -1.
    8880023    1    1    2    0    0  0.51288341288E+03  0.62335499929E+01 -0.24256264542E+02  0.83515676671E+03  0.65864270000E+03 0.  1.
    8880022    1    1    2    0    0 -0.51288341288E+03 -0.62335499929E+01 -0.14960552423E+04  0.15889182463E+04  0.15294330000E+03 0.  0.
<mgrwt>
<rscale>  0 0.74700814E+03</rscale>
<asrwt>0</asrwt>
<pdfrwt beam="1">  1        2 0.30341434E+00 0.83480444E+03</pdfrwt>
<pdfrwt beam="2">  1       -2 0.69520271E-01 0.83480444E+03</pdfrwt>
<totfact> 0.13357000E+01</totfact>
</mgrwt>
</event>
<event>
 4    2  0.3747163E-007  0.7741704E+03  0.7818608E-02  0.9769713E-01
          2   -1    0    0  501    0  0.00000000000E+00  0.00000000000E+00  0.83504826932E+03  0.83504826932E+03  0.25500000000E-02 0. -1.
         -2   -1    0    0    0  501 -0.00000000000E+00 -0.00000000000E+00 -0.62067621804E+03  0.62067621805E+03  0.25500000000E-02 0.  1.
    8880023    1    1    2    0    0  0.36531817174E+03 -0.17908722436E+03  0.51269524590E+03  0.92854521805E+03  0.65864270000E+03 0. -1.
    8880022    1    1    2    0    0 -0.36531817174E+03  0.17908722436E+03 -0.29832319462E+03  0.52717926932E+03  0.15294330000E+03 0.  0.
<mgrwt>
<rscale>  0 0.67013534E+03</rscale>
<asrwt>0</asrwt>
<pdfrwt beam="1">  1        2 0.12846896E+00 0.77417040E+03</pdfrwt>
<pdfrwt beam="2">  1       -2 0.95488650E-01 0.77417040E+03</pdfrwt>
<totfact> 0.30310922E+01</totfact>
</mgrwt>
</event>
<event>
 4    2  0.3747163E-007  0.8820837E+03  0.7818608E-02  0.9555428E-01
         -2   -1    0    0    0  501 -0.00000000000E+00  0.00000000000E+00  0.49028955016E+03  0.49028955017E+03  0.25500000000E-02 0.  1.
          2   -1    0    0  501    0  0.00000000000E+00 -0.00000000000E+00 -0.15528587288E+04  0.15528587288E+04  0.25500000000E-02 0. -1.
    8880023    1    1    2    0    0  0.50900581525E+03  0.29184676474E+03 -0.11294980268E+04  0.14331215765E+04  0.65864270000E+03 0.  0.
    8880022    1    1    2    0    0 -0.50900581525E+03 -0.29184676474E+03  0.66928848178E+02  0.61002670252E+03  0.15294330000E+03 0.  0.
<mgrwt>
<rscale>  0 0.80317860E+03</rscale>
<asrwt>0</asrwt>
<pdfrwt beam="1">  1        2 0.23890134E+00 0.88208370E+03</pdfrwt>
<pdfrwt beam="2">  1       -2 0.75429162E-01 0.88208370E+03</pdfrwt>
<totfact> 0.18865951E+01</totfact>
</mgrwt>
</event>
<event>
 4    2  0.3747163E-007  0.6702153E+03  0.7818608E-02  0.1015509E+00
          2   -1    0    0  501    0  0.00000000000E+00  0.00000000000E+00  0.17317241599E+04  0.17317241600E+04  0.25500000000E-02 0. -1.
         -2   -1    0    0    0  501 -0.00000000000E+00 -0.00000000000E+00 -0.13069494622E+03  0.13069494624E+03  0.25500000000E-02 0.  1.
    8880023    1    1    2    0    0 -0.73152723507E+02 -0.10013503449E+03  0.83087625368E+03  0.10674942160E+04  0.65864270000E+03 0.  1.
    8880022    1    1    2    0    0  0.73152723507E+02  0.10013503449E+03  0.77015296005E+03  0.79492489015E+03  0.15294330000E+03 0.  0.
<mgrwt>
<rscale>  0 0.49342679E+03</rscale>
<asrwt>0</asrwt>
<pdfrwt beam="1">  1        2 0.26641909E+00 0.67021530E+03</pdfrwt>
<pdfrwt beam="2">  1       -2 0.20106916E-01 0.67021530E+03</pdfrwt>
<totfact> 0.20413791E+02</totfact>
</mgrwt>
</event>
<event>
 4    2  0.4239123E-007  0.8427740E+03  0.7818608E-02  0.9624972E-01
          2   -1    0    0  501    0  0.00000000000E+00  0.00000000000E+00  0.21699731095E+04  0.21699731095E+04  0.25500000000E-02 0. -1.
         -2   -1    0    0    0  501 -0.00000000000E+00 -0.00000000000E+00 -0.10115891274E+04  0.10115891274E+04  0.25500000000E-02 0.  1.
    8880023    1    1    2    0    0 -0.42373747956E+03 -0.31129455354E+03  0.20040738618E+04  0.21740699162E+04  0.65864270000E+03 0. -1.
    8880022    1    1    2    0    0  0.42373747956E+03  0.31129455354E+03 -0.84568987973E+03  0.10074923207E+04  0.15294330000E+03 0.  1.
<mgrwt>
<rscale>  0 0.75665208E+03</rscale>
<asrwt>0</asrwt>
<pdfrwt beam="1">  1        2 0.33384202E+00 0.84277397E+03</pdfrwt>
<pdfrwt beam="2">  1       -2 0.15562910E+00 0.84277397E+03</pdfrwt>
<totfact> 0.14945965E+00</totfact>
</mgrwt>
</event>
<event>
 4    2  0.3747163E-007  0.8373907E+03  0.7818608E-02  0.9635120E-01
         -2   -1    0    0    0  501 -0.00000000000E+00  0.00000000000E+00  0.16399379868E+03  0.16399379870E+03  0.25500000000E-02 0.  1.
          2   -1    0    0  501    0  0.00000000000E+00 -0.00000000000E+00 -0.29532721944E+04  0.29532721944E+04  0.25500000000E-02 0. -1.
    8880023    1    1    2    0    0  0.24362634859E+03 -0.45613495831E+03 -0.19145289712E+04  0.20896517140E+04  0.65864270000E+03 0.  0.
    8880022    1    1    2    0    0 -0.24362634859E+03  0.45613495831E+03 -0.87474942446E+03  0.10276142791E+04  0.15294330000E+03 0. -1.
<mgrwt>
<rscale>  0 0.75014675E+03</rscale>
<asrwt>0</asrwt>
<pdfrwt beam="1">  1        2 0.45434953E+00 0.83739065E+03</pdfrwt>
<pdfrwt beam="2">  1       -2 0.25229817E-01 0.83739065E+03</pdfrwt>
<totfact> 0.27372421E+01</totfact>
</mgrwt>
</event>
<event>
 4    2  0.3747163E-007  0.7214784E+03  0.7818608E-02  0.9917615E-01
          2   -1    0    0  501    0  0.00000000000E+00  0.00000000000E+00  0.70535487257E+03  0.70535487257E+03  0.25500000000E-02 0. -1.
         -2   -1    0    0    0  501 -0.00000000000E+00 -0.00000000000E+00 -0.63630870948E+03  0.63630870948E+03  0.25500000000E-02 0.  1.
    8880023    1    1    2    0    0 -0.28486693527E+03 -0.74644196599E+02  0.43912005351E+03  0.84460496953E+03  0.65864270000E+03 0. -1.
    8880022    1    1    2    0    0  0.28486693527E+03  0.74644196599E+02 -0.37007389042E+03  0.49705861252E+03  0.15294330000E+03 0.  0.
<mgrwt>
<rscale>  0 0.59415141E+03</rscale>
<asrwt>0</asrwt>
<pdfrwt beam="1">  1        2 0.10851613E+00 0.72147844E+03</pdfrwt>
<pdfrwt beam="2">  1       -2 0.97893648E-01 0.72147844E+03</pdfrwt>
<totfact> 0.35799906E+01</totfact>
</mgrwt>
</event>
<event>
 4    2  0.3747163E-007  0.9628239E+03  0.7818608E-02  0.9431898E-01
         -2   -1    0    0    0  501 -0.00000000000E+00  0.00000000000E+00  0.10198204780E+04  0.10198204780E+04  0.25500000000E-02 0.  1.
          2   -1    0    0  501    0  0.00000000000E+00 -0.00000000000E+00 -0.10949395982E+04  0.10949395982E+04  0.25500000000E-02 0. -1.
    8880023    1    1    2    0    0  0.10876739511E+03 -0.69382225526E+03 -0.67721826199E+03  0.11771382454E+04  0.65864270000E+03 0.  0.
    8880022    1    1    2    0    0 -0.10876739511E+03  0.69382225526E+03  0.60209914179E+03  0.93762183085E+03  0.15294330000E+03 0.  0.
<mgrwt>
<rscale>  0 0.89496415E+03</rscale>
<asrwt>0</asrwt>
<pdfrwt beam="1">  1        2 0.16845225E+00 0.96282391E+03</pdfrwt>
<pdfrwt beam="2">  1       -2 0.15689546E+00 0.96282391E+03</pdfrwt>
<totfact> 0.57999522E+00</totfact>
</mgrwt>
</event>
<event>
 4    2  0.3747163E-007  0.8866329E+03  0.7818608E-02  0.9547840E-01
          2   -1    0    0  501    0  0.00000000000E+00  0.00000000000E+00  0.13537141403E+04  0.13537141403E+04  0.25500000000E-02 0. -1.
         -2   -1    0    0    0  501 -0.00000000000E+00 -0.00000000000E+00 -0.52149688661E+03  0.52149688662E+03  0.25500000000E-02 0.  1.
    8880023    1    1    2    0    0  0.41506858585E+03 -0.42429443797E+03  0.89406611059E+03  0.12591553190E+04  0.65864270000E+03 0.  0.
    8880022    1    1    2    0    0 -0.41506858585E+03  0.42429443797E+03 -0.61848856946E+02  0.61605570785E+03  0.15294330000E+03 0.  0.
<mgrwt>
<rscale>  0 0.80846820E+03</rscale>
<asrwt>0</asrwt>
<pdfrwt beam="1">  1        2 0.20826371E+00 0.88663290E+03</pdfrwt>
<pdfrwt beam="2">  1       -2 0.80230290E-01 0.88663290E+03</pdfrwt>
<totfact> 0.21271217E+01</totfact>
</mgrwt>
</event>
<event>
 4    2  0.3747163E-007  0.7095836E+03  0.7818608E-02  0.9959551E-01
         -2   -1    0    0    0  501 -0.00000000000E+00  0.00000000000E+00  0.78378276908E+03  0.78378276908E+03  0.25500000000E-02 0.  1.
          2   -1    0    0  501    0  0.00000000000E+00 -0.00000000000E+00 -0.17685123064E+04  0.17685123065E+04  0.25500000000E-02 0. -1.
    8880023    1    1    2    0    0  0.60298019871E+02  0.25702685877E+03 -0.16632736932E+04  0.18083108810E+04  0.65864270000E+03 0. -1.
    8880022    1    1    2    0    0 -0.60298019871E+02 -0.25702685877E+03  0.67854415585E+03  0.74398419458E+03  0.15294330000E+03 0.  0.
<mgrwt>
<rscale>  0 0.57460014E+03</rscale>
<asrwt>0</asrwt>
<pdfrwt beam="1">  1        2 0.27207882E+00 0.70958358E+03</pdfrwt>
<pdfrwt beam="2">  1       -2 0.12058196E+00 0.70958358E+03</pdfrwt>
<totfact> 0.48904620E+00</totfact>
</mgrwt>
</event>
<event>
 4    2  0.3747163E-007  0.9309907E+03  0.7818608E-02  0.9478009E-01
         -2   -1    0    0    0  501 -0.00000000000E+00  0.00000000000E+00  0.19984936479E+03  0.19984936481E+03  0.25500000000E-02 0.  1.
          2   -1    0    0  501    0  0.00000000000E+00 -0.00000000000E+00 -0.34126922161E+04  0.34126922161E+04  0.25500000000E-02 0. -1.
    8880023    1    1    2    0    0  0.44507923427E+03 -0.48460077821E+03 -0.22626533955E+04  0.24467006424E+04  0.65864270000E+03 0.  1.
    8880022    1    1    2    0    0 -0.44507923427E+03  0.48460077821E+03 -0.95018945581E+03  0.11658409385E+04  0.15294330000E+03 0.  0.
<mgrwt>
<rscale>  0 0.85924753E+03</rscale>
<asrwt>0</asrwt>
<pdfrwt beam="1">  1        2 0.52502953E+00 0.93099068E+03</pdfrwt>
<pdfrwt beam="2">  1       -2 0.30746059E-01 0.93099068E+03</pdfrwt>
<totfact> 0.95557088E+00</totfact>
</mgrwt>
</event>
<event>
 4    2  0.3747163E-007  0.9453486E+03  0.7818608E-02  0.9456838E-01
          2   -1    0    0  501    0  0.00000000000E+00  0.00000000000E+00  0.26252140298E+04  0.26252140298E+04  0.25500000000E-02 0. -1.
         -2   -1    0    0    0  501 -0.00000000000E+00 -0.00000000000E+00 -0.44729562202E+03  0.44729562203E+03  0.25500000000E-02 0.  1.
    8880023    1    1    2    0    0 -0.64725058661E+03 -0.20233759774E+03  0.21812855901E+04  0.23773285126E+04  0.65864270000E+03 0.  0.
    8880022    1    1    2    0    0  0.64725058661E+03  0.20233759774E+03 -0.33671822992E+01  0.69518113917E+03  0.15294330000E+03 0.  0.
<mgrwt>
<rscale>  0 0.87542152E+03</rscale>
<asrwt>0</asrwt>
<pdfrwt beam="1">  1        2 0.40387909E+00 0.94534863E+03</pdfrwt>
<pdfrwt beam="2">  1       -2 0.68814710E-01 0.94534863E+03</pdfrwt>
<totfact> 0.57953996E+00</totfact>
</mgrwt>
</event>
<event>
 4    2  0.3747163E-007  0.7825560E+03  0.7818608E-02  0.9749867E-01
          2   -1    0    0  501    0  0.00000000000E+00  0.00000000000E+00  0.10006704860E+04  0.10006704860E+04  0.25500000000E-02 0. -1.
         -2   -1    0    0    0  501 -0.00000000000E+00 -0.00000000000E+00 -0.99714848616E+03  0.99714848616E+03  0.25500000000E-02 0.  1.
    8880023    1    1    2    0    0  0.20397761286E+03 -0.37010383324E+03  0.77730330655E+03  0.11029933593E+04  0.65864270000E+03 0. -1.
    8880022    1    1    2    0    0 -0.20397761286E+03  0.37010383324E+03 -0.77378130669E+03  0.89482561292E+03  0.15294330000E+03 0.  0.
<mgrwt>
<rscale>  0 0.68123802E+03</rscale>
<asrwt>0</asrwt>
<pdfrwt beam="1">  1        2 0.15394930E+00 0.78255602E+03</pdfrwt>
<pdfrwt beam="2">  1       -2 0.15340746E+00 0.78255602E+03</pdfrwt>
<totfact> 0.72052918E+00</totfact>
</mgrwt>
</event>
<event>
 4    2  0.3747163E-007  0.7530633E+03  0.7818608E-02  0.9823408E-01
          2   -1    0    0  501    0  0.00000000000E+00  0.00000000000E+00  0.60446687779E+03  0.60446687780E+03  0.25500000000E-02 0. -1.
         -2   -1    0    0    0  501 -0.00000000000E+00 -0.00000000000E+00 -0.11598173224E+04  0.11598173224E+04  0.25500000000E-02 0.  1.
    8880023    1    1    2    0    0  0.36441609698E+03 -0.22250016243E+02  0.30869994664E+03  0.81387960921E+03  0.65864270000E+03 0. -1.
    8880022    1    1    2    0    0 -0.36441609698E+03  0.22250016243E+02 -0.86405039126E+03  0.95040459101E+03  0.15294330000E+03 0.  0.
<mgrwt>
<rscale>  0 0.64121301E+03</rscale>
<asrwt>0</asrwt>
<pdfrwt beam="1">  1        2 0.92994905E-01 0.75306332E+03</pdfrwt>
<pdfrwt beam="2">  1       -2 0.17843343E+00 0.75306332E+03</pdfrwt>
<totfact> 0.92922269E+00</totfact>
</mgrwt>
</event>
<event>
 4    2  0.3747163E-007  0.1280205E+04  0.7818608E-02  0.9082845E-01
          2   -1    0    0  501    0  0.00000000000E+00  0.00000000000E+00  0.22438498751E+04  0.22438498751E+04  0.25500000000E-02 0. -1.
         -2   -1    0    0    0  501 -0.00000000000E+00 -0.00000000000E+00 -0.80029623445E+03  0.80029623446E+03  0.25500000000E-02 0.  1.
    8880023    1    1    2    0    0  0.66685028651E+03 -0.87202412409E+03  0.74091214788E+02  0.12823474927E+04  0.65864270000E+03 0.  0.
    8880022    1    1    2    0    0 -0.66685028651E+03  0.87202412409E+03  0.13694624259E+04  0.17617986169E+04  0.15294330000E+03 0.  0.
<mgrwt>
<rscale>  0 0.12349004E+04</rscale>
<asrwt>0</asrwt>
<pdfrwt beam="1">  1        2 0.34520767E+00 0.12802053E+04</pdfrwt>
<pdfrwt beam="2">  1       -2 0.12312250E+00 0.12802053E+04</pdfrwt>
<totfact> 0.23544449E+00</totfact>
</mgrwt>
</event>
<event>
 4    2  0.3747163E-007  0.7202152E+03  0.7818608E-02  0.9921859E-01
         -2   -1    0    0    0  501 -0.00000000000E+00  0.00000000000E+00  0.39706764942E+03  0.39706764943E+03  0.25500000000E-02 0.  1.
          2   -1    0    0  501    0  0.00000000000E+00 -0.00000000000E+00 -0.20558839483E+04  0.20558839483E+04  0.25500000000E-02 0. -1.
    8880023    1    1    2    0    0 -0.24222810945E+03 -0.16194197917E+03 -0.19085004791E+04  0.20398735124E+04  0.65864270000E+03 0. -1.
    8880022    1    1    2    0    0  0.24222810945E+03  0.16194197917E+03  0.24968418029E+03  0.41307808526E+03  0.15294330000E+03 0.  0.
<mgrwt>
<rscale>  0 0.59213522E+03</rscale>
<asrwt>0</asrwt>
<pdfrwt beam="1">  1        2 0.31628983E+00 0.72021515E+03</pdfrwt>
<pdfrwt beam="2">  1       -2 0.61087332E-01 0.72021515E+03</pdfrwt>
<totfact> 0.16130939E+01</totfact>
</mgrwt>
</event>
<event>
 4    2  0.3747163E-007  0.6926304E+03  0.7818608E-02  0.1002927E+00
          2   -1    0    0  501    0  0.00000000000E+00  0.00000000000E+00  0.47848536135E+03  0.47848536136E+03  0.25500000000E-02 0. -1.
         -2   -1    0    0    0  501 -0.00000000000E+00 -0.00000000000E+00 -0.62463293938E+03  0.62463293938E+03  0.25500000000E-02 0.  1.
    8880023    1    1    2    0    0 -0.72725106278E+02 -0.20158783419E+03  0.14808925750E+03  0.70828471001E+03  0.65864270000E+03 0. -1.
    8880022    1    1    2    0    0  0.72725106278E+02  0.20158783419E+03 -0.29423683552E+03  0.39483359073E+03  0.15294330000E+03 0.  0.
<mgrwt>
<rscale>  0 0.54385370E+03</rscale>
<asrwt>0</asrwt>
<pdfrwt beam="1">  1        2 0.73613132E-01 0.69263035E+03</pdfrwt>
<pdfrwt beam="2">  1       -2 0.96097375E-01 0.69263035E+03</pdfrwt>
<totfact> 0.59689989E+01</totfact>
</mgrwt>
</event>
<event>
 4    2  0.3747163E-007  0.6639680E+03  0.7818608E-02  0.1020415E+00
          2   -1    0    0  501    0  0.00000000000E+00  0.00000000000E+00  0.16676925822E+04  0.16676925822E+04  0.25500000000E-02 0. -1.
         -2   -1    0    0    0  501 -0.00000000000E+00 -0.00000000000E+00 -0.26540900627E+03  0.26540900629E+03  0.25500000000E-02 0.  1.
    8880023    1    1    2    0    0 -0.15319979749E+02  0.82514431807E+02  0.15615701018E+04  0.16968661475E+04  0.65864270000E+03 0. -1.
    8880022    1    1    2    0    0  0.15319979749E+02 -0.82514431807E+02 -0.15928652591E+03  0.23623544101E+03  0.15294330000E+03 0.  0.
<mgrwt>
<rscale>  0 0.47537027E+03</rscale>
<asrwt>0</asrwt>
<pdfrwt beam="1">  1        2 0.25656809E+00 0.66396803E+03</pdfrwt>
<pdfrwt beam="2">  1       -2 0.40832155E-01 0.66396803E+03</pdfrwt>
<totfact> 0.59998707E+01</totfact>
</mgrwt>
</event>
<event>
 4    2  0.3747163E-007  0.7115610E+03  0.7818608E-02  0.9952249E-01
          2   -1    0    0  501    0  0.00000000000E+00  0.00000000000E+00  0.20565514118E+04  0.20565514118E+04  0.25500000000E-02 0. -1.
         -2   -1    0    0    0  501 -0.00000000000E+00 -0.00000000000E+00 -0.21565334645E+03  0.21565334646E+03  0.25500000000E-02 0.  1.
    8880023    1    1    2    0    0  0.89960564340E+02 -0.25380292984E+03  0.18287302306E+04  0.19622877701E+04  0.65864270000E+03 0. -1.
    8880022    1    1    2    0    0 -0.89960564340E+02  0.25380292984E+03  0.12167834815E+02  0.30991698816E+03  0.15294330000E+03 0.  0.
<mgrwt>
<rscale>  0 0.57794525E+03</rscale>
<asrwt>0</asrwt>
<pdfrwt beam="1">  1        2 0.31639253E+00 0.71156099E+03</pdfrwt>
<pdfrwt beam="2">  1       -2 0.33177438E-01 0.71156099E+03</pdfrwt>
<totfact> 0.54569892E+01</totfact>
</mgrwt>
</event>
<event>
 4    2  0.3747163E-007  0.8315279E+03  0.7818608E-02  0.9646367E-01
         -2   -1    0    0    0  501 -0.00000000000E+00  0.00000000000E+00  0.91673365227E+03  0.91673365228E+03  0.25500000000E-02 0.  1.
          2   -1    0    0  501    0  0.00000000000E+00 -0.00000000000E+00 -0.16857379569E+04  0.16857379569E+04  0.25500000000E-02 0. -1.
    8880023    1    1    2    0    0 -0.10684410433E+03  0.49619829516E+03 -0.14907406041E+04  0.17069698784E+04  0.65864270000E+03 0.  0.
    8880022    1    1    2    0    0  0.10684410433E+03 -0.49619829516E+03  0.72173629950E+03  0.89550173076E+03  0.15294330000E+03 0.  0.
<mgrwt>
<rscale>  0 0.74301876E+03</rscale>
<asrwt>0</asrwt>
<pdfrwt beam="1">  1        2 0.25934430E+00 0.83152788E+03</pdfrwt>
<pdfrwt beam="2">  1       -2 0.14103595E+00 0.83152788E+03</pdfrwt>
<totfact> 0.35787673E+00</totfact>
</mgrwt>
</event>
<event>
 4    2  0.3747163E-007  0.6620363E+03  0.7818608E-02  0.1022161E+00
          2   -1    0    0  501    0  0.00000000000E+00  0.00000000000E+00  0.16200534113E+04  0.16200534113E+04  0.25500000000E-02 0. -1.
         -2   -1    0    0    0  501 -0.00000000000E+00 -0.00000000000E+00 -0.37554156583E+03  0.37554156584E+03  0.25500000000E-02 0.  1.
    8880023    1    1    2    0    0 -0.40004602967E+02  0.53679480280E+02  0.15287543342E+04  0.16659477409E+04  0.65864270000E+03 0. -1.
    8880022    1    1    2    0    0  0.40004602967E+02 -0.53679480280E+02 -0.28424248879E+03  0.32964723616E+03  0.15294330000E+03 0.  0.
<mgrwt>
<rscale>  0 0.46914847E+03</rscale>
<asrwt>0</asrwt>
<pdfrwt beam="1">  1        2 0.24923898E+00 0.66203630E+03</pdfrwt>
<pdfrwt beam="2">  1       -2 0.57775627E-01 0.66203630E+03</pdfrwt>
<totfact> 0.31596139E+01</totfact>
</mgrwt>
</event>
<event>
 4    2  0.3747163E-007  0.6831400E+03  0.7818608E-02  0.1007600E+00
         -2   -1    0    0    0  501 -0.00000000000E+00  0.00000000000E+00  0.10230541425E+03  0.10230541428E+03  0.25500000000E-02 0.  1.
          2   -1    0    0  501    0  0.00000000000E+00 -0.00000000000E+00 -0.24851525800E+04  0.24851525800E+04  0.25500000000E-02 0. -1.
    8880023    1    1    2    0    0  0.13720974801E+03 -0.11850535559E+03 -0.21466073011E+04  0.22526879823E+04  0.65864270000E+03 0. -1.
    8880022    1    1    2    0    0 -0.13720974801E+03  0.11850535559E+03 -0.23623986465E+03  0.33477001197E+03  0.15294330000E+03 0. -1.
<mgrwt>
<rscale>  0 0.52439540E+03</rscale>
<asrwt>0</asrwt>
<pdfrwt beam="1">  1        2 0.38233112E+00 0.68313999E+03</pdfrwt>
<pdfrwt beam="2">  1       -2 0.15739296E-01 0.68313999E+03</pdfrwt>
<totfact> 0.11989664E+02</totfact>
</mgrwt>
</event>
<event>
 4    2  0.3747163E-007  0.2155403E+04  0.7818608E-02  0.8547870E-01
         -2   -1    0    0    0  501 -0.00000000000E+00  0.00000000000E+00  0.11607359843E+04  0.11607359843E+04  0.25500000000E-02 0.  1.
          2   -1    0    0  501    0  0.00000000000E+00 -0.00000000000E+00 -0.41076277026E+04  0.41076277026E+04  0.25500000000E-02 0. -1.
    8880023    1    1    2    0    0 -0.20337977747E+04 -0.27499182971E+03 -0.81264234792E+03  0.23035085602E+04  0.65864270000E+03 0.  0.
    8880022    1    1    2    0    0  0.20337977747E+04  0.27499182971E+03 -0.21342493704E+04  0.29648551268E+04  0.15294330000E+03 0.  0.
<mgrwt>
<rscale>  0 0.21306276E+04</rscale>
<asrwt>0</asrwt>
<pdfrwt beam="1">  1        2 0.63194272E+00 0.21554035E+04</pdfrwt>
<pdfrwt beam="2">  1       -2 0.17857477E+00 0.21554035E+04</pdfrwt>
<totfact> 0.45817330E-02</totfact>
</mgrwt>
</event>
<event>
 4    2  0.3747163E-007  0.7550618E+03  0.7818608E-02  0.9818064E-01
          2   -1    0    0  501    0  0.00000000000E+00  0.00000000000E+00  0.38372871375E+04  0.38372871375E+04  0.25500000000E-02 0. -1.
         -2   -1    0    0    0  501 -0.00000000000E+00 -0.00000000000E+00 -0.11950356066E+03  0.11950356069E+03  0.25500000000E-02 0.  1.
    8880023    1    1    2    0    0 -0.34086685910E+03 -0.14183767492E+03  0.12771324442E+04  0.14836393187E+04  0.65864270000E+03 0.  0.
    8880022    1    1    2    0    0  0.34086685910E+03  0.14183767492E+03  0.24406511327E+04  0.24731513795E+04  0.15294330000E+03 0.  0.
<mgrwt>
<rscale>  0 0.64402085E+03</rscale>
<asrwt>0</asrwt>
<pdfrwt beam="1">  1        2 0.59035181E+00 0.75506182E+03</pdfrwt>
<pdfrwt beam="2">  1       -2 0.18385165E-01 0.75506182E+03</pdfrwt>
<totfact> 0.12413624E+01</totfact>
</mgrwt>
</event>
<event>
 4    2  0.3747163E-007  0.6947606E+03  0.7818608E-02  0.1001967E+00
          2   -1    0    0  501    0  0.00000000000E+00  0.00000000000E+00  0.29280142235E+04  0.29280142235E+04  0.25500000000E-02 0. -1.
         -2   -1    0    0    0  501 -0.00000000000E+00 -0.00000000000E+00 -0.30394081510E+03  0.30394081511E+03  0.25500000000E-02 0.  1.
    8880023    1    1    2    0    0  0.13478228305E+03  0.17525920358E+03  0.28167718223E+04  0.29011886801E+04  0.65864270000E+03 0. -1.
    8880022    1    1    2    0    0 -0.13478228305E+03 -0.17525920358E+03 -0.19269841384E+03  0.33076635859E+03  0.15294330000E+03 0.  0.
<mgrwt>
<rscale>  0 0.54796007E+03</rscale>
<asrwt>0</asrwt>
<pdfrwt beam="1">  1        2 0.45046372E+00 0.69476058E+03</pdfrwt>
<pdfrwt beam="2">  1       -2 0.46760126E-01 0.69476058E+03</pdfrwt>
<totfact> 0.89782490E+00</totfact>
</mgrwt>
</event>
<event>
 4    2  0.3747163E-007  0.7151958E+03  0.7818608E-02  0.9939190E-01
          2   -1    0    0  501    0  0.00000000000E+00  0.00000000000E+00  0.18189479705E+04  0.18189479705E+04  0.25500000000E-02 0. -1.
         -2   -1    0    0    0  501 -0.00000000000E+00 -0.00000000000E+00 -0.22735771393E+03  0.22735771394E+03  0.25500000000E-02 0.  1.
    8880023    1    1    2    0    0 -0.18674238876E+03 -0.20693502816E+03  0.15728415519E+04  0.17278123681E+04  0.65864270000E+03 0. -1.
    8880022    1    1    2    0    0  0.18674238876E+03  0.20693502816E+03  0.18748704684E+02  0.31849331638E+03  0.15294330000E+03 0.  0.
<mgrwt>
<rscale>  0 0.58398992E+03</rscale>
<asrwt>0</asrwt>
<pdfrwt beam="1">  1        2 0.27983814E+00 0.71519580E+03</pdfrwt>
<pdfrwt beam="2">  1       -2 0.34978110E-01 0.71519580E+03</pdfrwt>
<totfact> 0.66476626E+01</totfact>
</mgrwt>
</event>
<event>
 4    2  0.3747163E-007  0.1053747E+04  0.7818608E-02  0.9314391E-01
          2   -1    0    0  501    0  0.00000000000E+00  0.00000000000E+00  0.22392362535E+04  0.22392362535E+04  0.25500000000E-02 0. -1.
         -2   -1    0    0    0  501 -0.00000000000E+00 -0.00000000000E+00 -0.69213067594E+03  0.69213067594E+03  0.25500000000E-02 0.  1.
    8880023    1    1    2    0    0  0.32022158214E+03 -0.75764800041E+03  0.17750218347E+04  0.20642395873E+04  0.65864270000E+03 0.  0.
    8880022    1    1    2    0    0 -0.32022158214E+03  0.75764800041E+03 -0.22791625707E+03  0.86712734212E+03  0.15294330000E+03 0.  0.
<mgrwt>
<rscale>  0 0.99468759E+03</rscale>
<asrwt>0</asrwt>
<pdfrwt beam="1">  1        2 0.34449789E+00 0.10537469E+04</pdfrwt>
<pdfrwt beam="2">  1       -2 0.10648164E+00 0.10537469E+04</pdfrwt>
<totfact> 0.34757930E+00</totfact>
</mgrwt>
</event>
<event>
 4    2  0.3747163E-007  0.6686282E+03  0.7818608E-02  0.1016666E+00
          2   -1    0    0  501    0  0.00000000000E+00  0.00000000000E+00  0.20252734370E+04  0.20252734370E+04  0.25500000000E-02 0. -1.
         -2   -1    0    0    0  501 -0.00000000000E+00 -0.00000000000E+00 -0.18058053695E+03  0.18058053696E+03  0.25500000000E-02 0.  1.
    8880023    1    1    2    0    0  0.71004568475E+02 -0.90619315883E+02  0.18936810716E+04  0.20082558891E+04  0.65864270000E+03 0. -1.
    8880022    1    1    2    0    0 -0.71004568475E+02  0.90619315883E+02 -0.48988171535E+02  0.19759808481E+03  0.15294330000E+03 0.  0.
<mgrwt>
<rscale>  0 0.48909206E+03</rscale>
<asrwt>0</asrwt>
<pdfrwt beam="1">  1        2 0.31158053E+00 0.66862823E+03</pdfrwt>
<pdfrwt beam="2">  1       -2 0.27781621E-01 0.66862823E+03</pdfrwt>
<totfact> 0.79349555E+01</totfact>
</mgrwt>
</event>
<event>
 4    2  0.3747163E-007  0.7833759E+03  0.7818608E-02  0.9747966E-01
          2   -1    0    0  501    0  0.00000000000E+00  0.00000000000E+00  0.69116755244E+03  0.69116755244E+03  0.25500000000E-02 0. -1.
         -2   -1    0    0    0  501 -0.00000000000E+00 -0.00000000000E+00 -0.20191249544E+04  0.20191249544E+04  0.25500000000E-02 0.  1.
    8880023    1    1    2    0    0 -0.22890429437E+01  0.42410173641E+03  0.43124980214E+03  0.89423381766E+03  0.65864270000E+03 0. -1.
    8880022    1    1    2    0    0  0.22890429437E+01 -0.42410173641E+03 -0.17592072041E+04  0.18160586892E+04  0.15294330000E+03 0.  0.
<mgrwt>
<rscale>  0 0.68231341E+03</rscale>
<asrwt>0</asrwt>
<pdfrwt beam="1">  1        2 0.10633347E+00 0.78337585E+03</pdfrwt>
<pdfrwt beam="2">  1       -2 0.31063461E+00 0.78337585E+03</pdfrwt>
<totfact> 0.11840285E+00</totfact>
</mgrwt>
</event>
<event>
 4    2  0.3747163E-007  0.7202022E+03  0.7818608E-02  0.9921902E-01
         -2   -1    0    0    0  501 -0.00000000000E+00  0.00000000000E+00  0.34843654584E+03  0.34843654585E+03  0.25500000000E-02 0.  1.
          2   -1    0    0  501    0  0.00000000000E+00 -0.00000000000E+00 -0.13461008259E+04  0.13461008259E+04  0.25500000000E-02 0. -1.
    8880023    1    1    2    0    0 -0.21709375560E+03  0.19429687889E+03 -0.11298999636E+04  0.13399123516E+04  0.65864270000E+03 0. -1.
    8880022    1    1    2    0    0  0.21709375560E+03 -0.19429687889E+03  0.13223568361E+03  0.35462502013E+03  0.15294330000E+03 0.  0.
<mgrwt>
<rscale>  0 0.59211445E+03</rscale>
<asrwt>0</asrwt>
<pdfrwt beam="1">  1        2 0.20709243E+00 0.72020218E+03</pdfrwt>
<pdfrwt beam="2">  1       -2 0.53605623E-01 0.72020218E+03</pdfrwt>
<totfact> 0.52113525E+01</totfact>
</mgrwt>
</event>
<event>
 4    2  0.3747163E-007  0.1208461E+04  0.7818608E-02  0.9148942E-01
         -2   -1    0    0    0  501 -0.00000000000E+00  0.00000000000E+00  0.17924392810E+04  0.17924392810E+04  0.25500000000E-02 0.  1.
          2   -1    0    0  501    0  0.00000000000E+00 -0.00000000000E+00 -0.15255489245E+04  0.15255489245E+04  0.25500000000E-02 0. -1.
    8880023    1    1    2    0    0  0.52345602662E+03  0.86750260694E+03  0.13602521542E+04  0.18195227710E+04  0.65864270000E+03 0.  1.
    8880022    1    1    2    0    0 -0.52345602662E+03 -0.86750260694E+03 -0.10933617977E+04  0.14984654346E+04  0.15294330000E+03 0.  0.
<mgrwt>
<rscale>  0 0.11596339E+04</rscale>
<asrwt>0</asrwt>
<pdfrwt beam="1">  1        2 0.23469984E+00 0.12084607E+04</pdfrwt>
<pdfrwt beam="2">  1       -2 0.27575989E+00 0.12084607E+04</pdfrwt>
<totfact> 0.53371508E-01</totfact>
</mgrwt>
</event>
<event>
 4    2  0.3747163E-007  0.7513364E+03  0.7818608E-02  0.9828076E-01
         -2   -1    0    0    0  501 -0.00000000000E+00  0.00000000000E+00  0.47212755926E+03  0.47212755927E+03  0.25500000000E-02 0.  1.
          2   -1    0    0  501    0  0.00000000000E+00 -0.00000000000E+00 -0.16639358226E+04  0.16639358226E+04  0.25500000000E-02 0. -1.
    8880023    1    1    2    0    0 -0.35042115544E+03  0.88888495001E+02 -0.14727611092E+04  0.16533395422E+04  0.65864270000E+03 0.  0.
    8880022    1    1    2    0    0  0.35042115544E+03 -0.88888495001E+02  0.28095284591E+03  0.48272383964E+03  0.15294330000E+03 0.  0.
<mgrwt>
<rscale>  0 0.63877344E+03</rscale>
<asrwt>0</asrwt>
<pdfrwt beam="1">  1        2 0.25599012E+00 0.75133638E+03</pdfrwt>
<pdfrwt beam="2">  1       -2 0.72635010E-01 0.75133638E+03</pdfrwt>
<totfact> 0.18081577E+01</totfact>
</mgrwt>
</event>
<event>
 4    2  0.3747163E-007  0.7929126E+03  0.7818608E-02  0.9726335E-01
         -2   -1    0    0    0  501 -0.00000000000E+00  0.00000000000E+00  0.15408530058E+04  0.15408530058E+04  0.25500000000E-02 0.  1.
          2   -1    0    0  501    0  0.00000000000E+00 -0.00000000000E+00 -0.86450024532E+03  0.86450024532E+03  0.25500000000E-02 0. -1.
    8880023    1    1    2    0    0 -0.38733186015E+03 -0.21183537548E+03 -0.63334835978E+03  0.10148105968E+04  0.65864270000E+03 0.  0.
    8880022    1    1    2    0    0  0.38733186015E+03  0.21183537548E+03  0.13097011203E+04  0.13905426544E+04  0.15294330000E+03 0.  0.
<mgrwt>
<rscale>  0 0.69470221E+03</rscale>
<asrwt>0</asrwt>
<pdfrwt beam="1">  1        2 0.13300004E+00 0.79291261E+03</pdfrwt>
<pdfrwt beam="2">  1       -2 0.23705431E+00 0.79291261E+03</pdfrwt>
<totfact> 0.24506528E+00</totfact>
</mgrwt>
</event>
<event>
 4    2  0.3747163E-007  0.8365855E+03  0.7818608E-02  0.9636653E-01
         -2   -1    0    0    0  501 -0.00000000000E+00  0.00000000000E+00  0.45176009829E+03  0.45176009829E+03  0.25500000000E-02 0.  1.
          2   -1    0    0  501    0  0.00000000000E+00 -0.00000000000E+00 -0.24124115402E+04  0.24124115402E+04  0.25500000000E-02 0. -1.
    8880023    1    1    2    0    0  0.14234187569E+03  0.49578605698E+03 -0.21394731979E+04  0.22972202321E+04  0.65864270000E+03 0. -1.
    8880022    1    1    2    0    0 -0.14234187569E+03 -0.49578605698E+03  0.17882175594E+03  0.56695140646E+03  0.15294330000E+03 0.  0.
<mgrwt>
<rscale>  0 0.74917052E+03</rscale>
<asrwt>0</asrwt>
<pdfrwt beam="1">  1        2 0.37114023E+00 0.83658546E+03</pdfrwt>
<pdfrwt beam="2">  1       -2 0.69501555E-01 0.83658546E+03</pdfrwt>
<totfact> 0.76228386E+00</totfact>
</mgrwt>
</event>
<event>
 4    2  0.3747163E-007  0.8957337E+03  0.7818608E-02  0.9532915E-01
          2   -1    0    0  501    0  0.00000000000E+00  0.00000000000E+00  0.23288288010E+04  0.23288288010E+04  0.25500000000E-02 0. -1.
         -2   -1    0    0    0  501 -0.00000000000E+00 -0.00000000000E+00 -0.42600021375E+03  0.42600021375E+03  0.25500000000E-02 0.  1.
    8880023    1    1    2    0    0 -0.54523011897E+03 -0.26693213670E+03  0.19304978083E+04  0.21281824740E+04  0.65864270000E+03 0.  0.
    8880022    1    1    2    0    0  0.54523011897E+03  0.26693213670E+03 -0.27669221114E+02  0.62664654076E+03  0.15294330000E+03 0.  0.
<mgrwt>
<rscale>  0 0.81900000E+03</rscale>
<asrwt>0</asrwt>
<pdfrwt beam="1">  1        2 0.35828136E+00 0.89573370E+03</pdfrwt>
<pdfrwt beam="2">  1       -2 0.65538494E-01 0.89573370E+03</pdfrwt>
<totfact> 0.95661745E+00</totfact>
</mgrwt>
</event>
<event>
 4    2  0.3747163E-007  0.8442535E+03  0.7818608E-02  0.9622211E-01
         -2   -1    0    0    0  501 -0.00000000000E+00  0.00000000000E+00  0.17052996529E+04  0.17052996529E+04  0.25500000000E-02 0.  1.
          2   -1    0    0  501    0  0.00000000000E+00 -0.00000000000E+00 -0.98238521839E+03  0.98238521840E+03  0.25500000000E-02 0. -1.
    8880023    1    1    2    0    0 -0.34950404958E+03 -0.39598063445E+03 -0.74137069443E+03  0.11235632854E+04  0.65864270000E+03 0.  0.
    8880022    1    1    2    0    0  0.34950404958E+03  0.39598063445E+03  0.14642851289E+04  0.15641215858E+04  0.15294330000E+03 0.  0.
<mgrwt>
<rscale>  0 0.75843360E+03</rscale>
<asrwt>0</asrwt>
<pdfrwt beam="1">  1        2 0.15113619E+00 0.84425349E+03</pdfrwt>
<pdfrwt beam="2">  1       -2 0.26235379E+00 0.84425349E+03</pdfrwt>
<totfact> 0.14245016E+00</totfact>
</mgrwt>
</event>
<event>
 4    2  0.3747163E-007  0.7792646E+03  0.7818608E-02  0.9757567E-01
          2   -1    0    0  501    0  0.00000000000E+00  0.00000000000E+00  0.20993937943E+04  0.20993937943E+04  0.25500000000E-02 0. -1.
         -2   -1    0    0    0  501 -0.00000000000E+00 -0.00000000000E+00 -0.17935470210E+03  0.17935470212E+03  0.25500000000E-02 0.  1.
    8880023    1    1    2    0    0 -0.30907952154E+03  0.27912891412E+03  0.13135554321E+04  0.15273117497E+04  0.65864270000E+03 0.  1.
    8880022    1    1    2    0    0  0.30907952154E+03 -0.27912891412E+03  0.60648366012E+03  0.75143674673E+03  0.15294330000E+03 0. -1.
<mgrwt>
<rscale>  0 0.67690299E+03</rscale>
<asrwt>0</asrwt>
<pdfrwt beam="1">  1        2 0.32298366E+00 0.77926459E+03</pdfrwt>
<pdfrwt beam="2">  1       -2 0.27593031E-01 0.77926459E+03</pdfrwt>
<totfact> 0.72250246E+01</totfact>
</mgrwt>
</event>
<event>
 4    2  0.3747163E-007  0.7623673E+03  0.7818608E-02  0.9799017E-01
          2   -1    0    0  501    0  0.00000000000E+00  0.00000000000E+00  0.69626024396E+03  0.69626024397E+03  0.25500000000E-02 0. -1.
         -2   -1    0    0    0  501 -0.00000000000E+00 -0.00000000000E+00 -0.20446471465E+04  0.20446471465E+04  0.25500000000E-02 0.  1.
    8880023    1    1    2    0    0  0.37278714576E+03  0.91779272978E+02  0.45698410492E+03  0.88884102595E+03  0.65864270000E+03 0. -1.
    8880022    1    1    2    0    0 -0.37278714576E+03 -0.91779272978E+02 -0.18053710075E+04  0.18520663646E+04  0.15294330000E+03 0.  0.
<mgrwt>
<rscale>  0 0.65415327E+03</rscale>
<asrwt>0</asrwt>
<pdfrwt beam="1">  1        2 0.10711696E+00 0.76236730E+03</pdfrwt>
<pdfrwt beam="2">  1       -2 0.31456110E+00 0.76236730E+03</pdfrwt>
<totfact> 0.11146639E+00</totfact>
</mgrwt>
</event>
<event>
 4    2  0.3747163E-007  0.6605177E+03  0.7818608E-02  0.1023632E+00
          2   -1    0    0  501    0  0.00000000000E+00  0.00000000000E+00  0.25193554363E+04  0.25193554363E+04  0.25500000000E-02 0. -1.
         -2   -1    0    0    0  501 -0.00000000000E+00 -0.00000000000E+00 -0.15937859453E+03  0.15937859455E+03  0.25500000000E-02 0.  1.
    8880023    1    1    2    0    0  0.11120577326E+02 -0.48474475298E+02  0.24188942101E+04  0.25074554528E+04  0.65864270000E+03 0. -1.
    8880022    1    1    2    0    0 -0.11120577326E+02  0.48474475298E+02 -0.58917368303E+02  0.17127857805E+03  0.15294330000E+03 0.  0.
<mgrwt>
<rscale>  0 0.46398358E+03</rscale>
<asrwt>0</asrwt>
<pdfrwt beam="1">  1        2 0.38759312E+00 0.66051771E+03</pdfrwt>
<pdfrwt beam="2">  1       -2 0.24519786E-01 0.66051771E+03</pdfrwt>
<totfact> 0.53095846E+01</totfact>
</mgrwt>
</event>
<event>
 4    2  0.3747163E-007  0.7382421E+03  0.7818608E-02  0.9865097E-01
          2   -1    0    0  501    0  0.00000000000E+00  0.00000000000E+00  0.36561483287E+04  0.36561483287E+04  0.25500000000E-02 0. -1.
         -2   -1    0    0    0  501 -0.00000000000E+00 -0.00000000000E+00 -0.30666313569E+03  0.30666313570E+03  0.25500000000E-02 0.  1.
    8880023    1    1    2    0    0 -0.32777404040E+03  0.61281576602E+02  0.34920475645E+04  0.35692292799E+04  0.65864270000E+03 0. -1.
    8880022    1    1    2    0    0  0.32777404040E+03 -0.61281576602E+02 -0.14256237150E+03  0.39358218452E+03  0.15294330000E+03 0.  0.
<mgrwt>
<rscale>  0 0.61983039E+03</rscale>
<asrwt>0</asrwt>
<pdfrwt beam="1">  1        2 0.56248434E+00 0.73824214E+03</pdfrwt>
<pdfrwt beam="2">  1       -2 0.47178945E-01 0.73824214E+03</pdfrwt>
<totfact> 0.29325829E+00</totfact>
</mgrwt>
</event>
<event>
 4    2  0.3747163E-007  0.6899964E+03  0.7818608E-02  0.1004154E+00
         -2   -1    0    0    0  501 -0.00000000000E+00  0.00000000000E+00  0.74516949103E+03  0.74516949104E+03  0.25500000000E-02 0.  1.
          2   -1    0    0  501    0  0.00000000000E+00 -0.00000000000E+00 -0.53466771777E+03  0.53466771777E+03  0.25500000000E-02 0. -1.
    8880023    1    1    2    0    0  0.17266263515E+03  0.11167995496E+03 -0.26543370298E+03  0.73929023723E+03  0.65864270000E+03 0. -1.
    8880022    1    1    2    0    0 -0.17266263515E+03 -0.11167995496E+03  0.47593547625E+03  0.54054697158E+03  0.15294330000E+03 0.  0.
<mgrwt>
<rscale>  0 0.53865577E+03</rscale>
<asrwt>0</asrwt>
<pdfrwt beam="1">  1        2 0.82256572E-01 0.68999638E+03</pdfrwt>
<pdfrwt beam="2">  1       -2 0.11464146E+00 0.68999638E+03</pdfrwt>
<totfact> 0.34401365E+01</totfact>
</mgrwt>
</event>
<event>
 4    2  0.3747163E-007  0.1094378E+04  0.7818608E-02  0.9267341E-01
         -2   -1    0    0    0  501 -0.00000000000E+00  0.00000000000E+00  0.24064638128E+04  0.24064638128E+04  0.25500000000E-02 0.  1.
          2   -1    0    0  501    0  0.00000000000E+00 -0.00000000000E+00 -0.64255708541E+03  0.64255708542E+03  0.25500000000E-02 0. -1.
    8880023    1    1    2    0    0  0.83975846568E+03 -0.24219660124E+03  0.22505453719E+02  0.10946095998E+04  0.65864270000E+03 0. -1.
    8880022    1    1    2    0    0 -0.83975846568E+03  0.24219660124E+03  0.17414012736E+04  0.19544112984E+04  0.15294330000E+03 0.  0.
<mgrwt>
<rscale>  0 0.10384589E+04</rscale>
<asrwt>0</asrwt>
<pdfrwt beam="1">  1        2 0.98854936E-01 0.10943782E+04</pdfrwt>
<pdfrwt beam="2">  1       -2 0.37022520E+00 0.10943782E+04</pdfrwt>
<totfact> 0.52913384E-01</totfact>
</mgrwt>
</event>
<event>
 4    2  0.3747163E-007  0.7568649E+03  0.7818608E-02  0.9813293E-01
         -2   -1    0    0    0  501 -0.00000000000E+00  0.00000000000E+00  0.49006149888E+03  0.49006149888E+03  0.25500000000E-02 0.  1.
          2   -1    0    0  501    0  0.00000000000E+00 -0.00000000000E+00 -0.12602609131E+04  0.12602609131E+04  0.25500000000E-02 0. -1.
    8880023    1    1    2    0    0 -0.22319440978E+03  0.29869462640E+03 -0.10245192094E+04  0.12737676559E+04  0.65864270000E+03 0.  0.
    8880022    1    1    2    0    0  0.22319440978E+03 -0.29869462640E+03  0.25431979515E+03  0.47655475616E+03  0.15294330000E+03 0.  0.
<mgrwt>
<rscale>  0 0.64654039E+03</rscale>
<asrwt>0</asrwt>
<pdfrwt beam="1">  1        2 0.19388629E+00 0.75686487E+03</pdfrwt>
<pdfrwt beam="2">  1       -2 0.75394078E-01 0.75686487E+03</pdfrwt>
<totfact> 0.28050173E+01</totfact>
</mgrwt>
</event>
<event>
 4    2  0.3747163E-007  0.1398739E+04  0.7818608E-02  0.8984663E-01
         -2   -1    0    0    0  501 -0.00000000000E+00  0.00000000000E+00  0.76242836403E+03  0.76242836404E+03  0.25500000000E-02 0.  1.
          2   -1    0    0  501    0  0.00000000000E+00 -0.00000000000E+00 -0.24431448015E+04  0.24431448015E+04  0.25500000000E-02 0. -1.
    8880023    1    1    2    0    0 -0.47834245077E+03 -0.11374752437E+04 -0.48476180507E+03  0.14803599712E+04  0.65864270000E+03 0.  1.
    8880022    1    1    2    0    0  0.47834245077E+03  0.11374752437E+04 -0.11959546324E+04  0.17252131944E+04  0.15294330000E+03 0.  0.
<mgrwt>
<rscale>  0 0.13581747E+04</rscale>
<asrwt>0</asrwt>
<pdfrwt beam="1">  1        2 0.37586843E+00 0.13987393E+04</pdfrwt>
<pdfrwt beam="2">  1       -2 0.11729667E+00 0.13987393E+04</pdfrwt>
<totfact> 0.20238816E+00</totfact>
</mgrwt>
</event>
<event>
 4    2  0.3747163E-007  0.6913081E+03  0.7818608E-02  0.1003537E+00
          2   -1    0    0  501    0  0.00000000000E+00  0.00000000000E+00  0.72542800010E+03  0.72542800010E+03  0.25500000000E-02 0. -1.
         -2   -1    0    0    0  501 -0.00000000000E+00 -0.00000000000E+00 -0.33516927581E+03  0.33516927582E+03  0.25500000000E-02 0.  1.
    8880023    1    1    2    0    0  0.12867321363E+03 -0.16595166683E+03  0.40354567930E+03  0.80047240625E+03  0.65864270000E+03 0.  0.
    8880022    1    1    2    0    0 -0.12867321363E+03  0.16595166683E+03 -0.13286955007E+02  0.26012486967E+03  0.15294330000E+03 0.  0.
<mgrwt>
<rscale>  0 0.54126183E+03</rscale>
<asrwt>0</asrwt>
<pdfrwt beam="1">  1        2 0.11160431E+00 0.69130815E+03</pdfrwt>
<pdfrwt beam="2">  1       -2 0.51564505E-01 0.69130815E+03</pdfrwt>
<totfact> 0.14108829E+02</totfact>
</mgrwt>
</event>
<event>
 4    2  0.3747163E-007  0.6786136E+03  0.7818608E-02  0.1010119E+00
          2   -1    0    0  501    0  0.00000000000E+00  0.00000000000E+00  0.72934431993E+03  0.72934431993E+03  0.25500000000E-02 0. -1.
         -2   -1    0    0    0  501 -0.00000000000E+00 -0.00000000000E+00 -0.48221192428E+03  0.48221192429E+03  0.25500000000E-02 0.  1.
    8880023    1    1    2    0    0 -0.13730394549E+03  0.88622161453E+02  0.52267124513E+03  0.85656389003E+03  0.65864270000E+03 0.  1.
    8880022    1    1    2    0    0  0.13730394549E+03 -0.88622161453E+02 -0.27553884949E+03  0.35499235420E+03  0.15294330000E+03 0.  0.
<mgrwt>
<rscale>  0 0.51427379E+03</rscale>
<asrwt>0</asrwt>
<pdfrwt beam="1">  1        2 0.11220682E+00 0.67861364E+03</pdfrwt>
<pdfrwt beam="2">  1       -2 0.74186450E-01 0.67861364E+03</pdfrwt>
<totfact> 0.64762744E+01</totfact>
</mgrwt>
</event>
<event>
 4    2  0.3747163E-007  0.8345242E+03  0.7818608E-02  0.9640593E-01
          2   -1    0    0  501    0  0.00000000000E+00  0.00000000000E+00  0.10669662522E+04  0.10669662522E+04  0.25500000000E-02 0. -1.
         -2   -1    0    0    0  501 -0.00000000000E+00 -0.00000000000E+00 -0.11312496507E+04  0.11312496507E+04  0.25500000000E-02 0.  1.
    8880023    1    1    2    0    0 -0.14421191448E+03  0.49175532109E+03  0.81666942602E+03  0.11676384414E+04  0.65864270000E+03 0. -1.
    8880022    1    1    2    0    0  0.14421191448E+03 -0.49175532109E+03 -0.88095282458E+03  0.10305774616E+04  0.15294330000E+03 0.  0.
<mgrwt>
<rscale>  0 0.74666746E+03</rscale>
<asrwt>0</asrwt>
<pdfrwt beam="1">  1        2 0.16414865E+00 0.83452416E+03</pdfrwt>
<pdfrwt beam="2">  1       -2 0.17403841E+00 0.83452416E+03</pdfrwt>
<totfact> 0.46044752E+00</totfact>
</mgrwt>
</event>
<event>
 4    2  0.3747163E-007  0.8351824E+03  0.7818608E-02  0.9639332E-01
          2   -1    0    0  501    0  0.00000000000E+00  0.00000000000E+00  0.36562017657E+04  0.36562017657E+04  0.25500000000E-02 0. -1.
         -2   -1    0    0    0  501 -0.00000000000E+00 -0.00000000000E+00 -0.17011995226E+03  0.17011995228E+03  0.25500000000E-02 0.  1.
    8880023    1    1    2    0    0 -0.47282937223E+03 -0.20037927074E+03  0.29593769514E+04  0.30749701810E+04  0.65864270000E+03 0.  0.
    8880022    1    1    2    0    0  0.47282937223E+03  0.20037927074E+03  0.52670486204E+03  0.75135153697E+03  0.15294330000E+03 0.  0.
<mgrwt>
<rscale>  0 0.74746741E+03</rscale>
<asrwt>0</asrwt>
<pdfrwt beam="1">  1        2 0.56249250E+00 0.83518242E+03</pdfrwt>
<pdfrwt beam="2">  1       -2 0.26172304E-01 0.83518242E+03</pdfrwt>
<totfact> 0.88644527E+00</totfact>
</mgrwt>
</event>
<event>
 4    2  0.3747163E-007  0.6992866E+03  0.7818608E-02  0.1000017E+00
          2   -1    0    0  501    0  0.00000000000E+00  0.00000000000E+00  0.23353884639E+04  0.23353884639E+04  0.25500000000E-02 0. -1.
         -2   -1    0    0    0  501 -0.00000000000E+00 -0.00000000000E+00 -0.18836036890E+03  0.18836036892E+03  0.25500000000E-02 0.  1.
    8880023    1    1    2    0    0  0.19521863689E+03 -0.13069517963E+03  0.21311808934E+04  0.22429743094E+04  0.65864270000E+03 0. -1.
    8880022    1    1    2    0    0 -0.19521863689E+03  0.13069517963E+03  0.15847201612E+02  0.28077452338E+03  0.15294330000E+03 0.  0.
<mgrwt>
<rscale>  0 0.55642626E+03</rscale>
<asrwt>0</asrwt>
<pdfrwt beam="1">  1        2 0.35929051E+00 0.69928660E+03</pdfrwt>
<pdfrwt beam="2">  1       -2 0.28978520E-01 0.69928660E+03</pdfrwt>
<totfact> 0.49406157E+01</totfact>
</mgrwt>
</event>
<event>
 4    2  0.3747163E-007  0.1740738E+04  0.7818608E-02  0.8756046E-01
          2   -1    0    0  501    0  0.00000000000E+00  0.00000000000E+00  0.21672710471E+04  0.21672710471E+04  0.25500000000E-02 0. -1.
         -2   -1    0    0    0  501 -0.00000000000E+00 -0.00000000000E+00 -0.17992952860E+04  0.17992952860E+04  0.25500000000E-02 0.  1.
    8880023    1    1    2    0    0  0.16089349022E+04  0.87670341979E+02  0.12312557560E+04  0.21321722612E+04  0.65864270000E+03 0.  0.
    8880022    1    1    2    0    0 -0.16089349022E+04 -0.87670341979E+02 -0.86327999496E+03  0.18343940719E+04  0.15294330000E+03 0.  0.
<mgrwt>
<rscale>  0 0.17093558E+04</rscale>
<asrwt>0</asrwt>
<pdfrwt beam="1">  1        2 0.33342631E+00 0.17407377E+04</pdfrwt>
<pdfrwt beam="2">  1       -2 0.27681466E+00 0.17407377E+04</pdfrwt>
<totfact> 0.21656815E-01</totfact>
</mgrwt>
</event>
<event>
 4    2  0.3747163E-007  0.7053684E+03  0.7818608E-02  0.9975620E-01
         -2   -1    0    0    0  501 -0.00000000000E+00  0.00000000000E+00  0.56277962402E+03  0.56277962402E+03  0.25500000000E-02 0.  1.
          2   -1    0    0  501    0  0.00000000000E+00 -0.00000000000E+00 -0.14070982831E+04  0.14070982831E+04  0.25500000000E-02 0. -1.
    8880023    1    1    2    0    0  0.75258576442E+02  0.24097821974E+03 -0.12694896759E+04  0.14522908108E+04  0.65864270000E+03 0. -1.
    8880022    1    1    2    0    0 -0.75258576442E+02 -0.24097821974E+03  0.42517101681E+03  0.51758709631E+03  0.15294330000E+03 0.  0.
<mgrwt>
<rscale>  0 0.56732311E+03</rscale>
<asrwt>0</asrwt>
<pdfrwt beam="1">  1        2 0.21647666E+00 0.70536839E+03</pdfrwt>
<pdfrwt beam="2">  1       -2 0.86581481E-01 0.70536839E+03</pdfrwt>
<totfact> 0.17029621E+01</totfact>
</mgrwt>
</event>
<event>
 4    2  0.3747163E-007  0.8986538E+03  0.7818608E-02  0.9528196E-01
          2   -1    0    0  501    0  0.00000000000E+00  0.00000000000E+00  0.90675034031E+03  0.90675034032E+03  0.25500000000E-02 0. -1.
         -2   -1    0    0    0  501 -0.00000000000E+00 -0.00000000000E+00 -0.94345212500E+03  0.94345212500E+03  0.25500000000E-02 0.  1.
    8880023    1    1    2    0    0  0.33726191227E+03 -0.50992441326E+03  0.49473139534E+03  0.10258352034E+04  0.65864270000E+03 0.  0.
    8880022    1    1    2    0    0 -0.33726191227E+03  0.50992441326E+03 -0.53143318003E+03  0.82436726193E+03  0.15294330000E+03 0.  0.
<mgrwt>
<rscale>  0 0.82236578E+03</rscale>
<asrwt>0</asrwt>
<pdfrwt beam="1">  1        2 0.13950005E+00 0.89865383E+03</pdfrwt>
<pdfrwt beam="2">  1       -2 0.14514648E+00 0.89865383E+03</pdfrwt>
<totfact> 0.94913715E+00</totfact>
</mgrwt>
</event>
<event>
 4    2  0.3747163E-007  0.1000306E+04  0.7818608E-02  0.9381158E-01
         -2   -1    0    0    0  501 -0.00000000000E+00  0.00000000000E+00  0.95662532661E+03  0.95662532661E+03  0.25500000000E-02 0.  1.
          2   -1    0    0  501    0  0.00000000000E+00 -0.00000000000E+00 -0.20447889669E+04  0.20447889669E+04  0.25500000000E-02 0. -1.
    8880023    1    1    2    0    0  0.44465857565E+03  0.60751946549E+03  0.58606128299E+03  0.11593442903E+04  0.65864270000E+03 0.  0.
    8880022    1    1    2    0    0 -0.44465857565E+03 -0.60751946549E+03 -0.16742249233E+04  0.18420700032E+04  0.15294330000E+03 0.  0.
<mgrwt>
<rscale>  0 0.93642667E+03</rscale>
<asrwt>0</asrwt>
<pdfrwt beam="1">  1        2 0.31458292E+00 0.10003056E+04</pdfrwt>
<pdfrwt beam="2">  1       -2 0.14717313E+00 0.10003056E+04</pdfrwt>
<totfact> 0.19843729E+00</totfact>
</mgrwt>
</event>
<event>
 4    2  0.3747163E-007  0.6681180E+03  0.7818608E-02  0.1017050E+00
         -2   -1    0    0    0  501 -0.00000000000E+00  0.00000000000E+00  0.39508286328E+03  0.39508286329E+03  0.25500000000E-02 0.  1.
          2   -1    0    0  501    0  0.00000000000E+00 -0.00000000000E+00 -0.13895054594E+04  0.13895054594E+04  0.25500000000E-02 0. -1.
    8880023    1    1    2    0    0 -0.97275270852E+02 -0.55758029745E+02 -0.12787798777E+04  0.14427957645E+04  0.65864270000E+03 0. -1.
    8880022    1    1    2    0    0  0.97275270852E+02  0.55758029745E+02  0.28435728161E+03  0.34179255817E+03  0.15294330000E+03 0.  0.
<mgrwt>
<rscale>  0 0.48766546E+03</rscale>
<asrwt>0</asrwt>
<pdfrwt beam="1">  1        2 0.21377007E+00 0.66811799E+03</pdfrwt>
<pdfrwt beam="2">  1       -2 0.60781980E-01 0.66811799E+03</pdfrwt>
<totfact> 0.38098112E+01</totfact>
</mgrwt>
</event>
<event>
 4    2  0.3747163E-007  0.1138788E+04  0.7818608E-02  0.9219051E-01
          2   -1    0    0  501    0  0.00000000000E+00  0.00000000000E+00  0.14759155789E+04  0.14759155789E+04  0.25500000000E-02 0. -1.
         -2   -1    0    0    0  501 -0.00000000000E+00 -0.00000000000E+00 -0.10677769876E+04  0.10677769876E+04  0.25500000000E-02 0.  1.
    8880023    1    1    2    0    0 -0.60010393183E+03  0.70915715731E+03  0.92726681493E+03  0.14685579849E+04  0.65864270000E+03 0.  0.
    8880022    1    1    2    0    0  0.60010393183E+03 -0.70915715731E+03 -0.51912822365E+03  0.10751345815E+04  0.15294330000E+03 0.  0.
<mgrwt>
<rscale>  0 0.10858934E+04</rscale>
<asrwt>0</asrwt>
<pdfrwt beam="1">  1        2 0.22706393E+00 0.11387883E+04</pdfrwt>
<pdfrwt beam="2">  1       -2 0.16427338E+00 0.11387883E+04</pdfrwt>
<totfact> 0.29996011E+00</totfact>
</mgrwt>
</event>
<event>
 4    2  0.3747163E-007  0.6662181E+03  0.7818608E-02  0.1018533E+00
         -2   -1    0    0    0  501 -0.00000000000E+00  0.00000000000E+00  0.26722545161E+03  0.26722545162E+03  0.25500000000E-02 0.  1.
          2   -1    0    0  501    0  0.00000000000E+00 -0.00000000000E+00 -0.22519721136E+04  0.22519721136E+04  0.25500000000E-02 0. -1.
    8880023    1    1    2    0    0 -0.72448294587E+02  0.69192582232E+02 -0.21633474914E+04  0.22636075065E+04  0.65864270000E+03 0.  0.
    8880022    1    1    2    0    0  0.72448294587E+02 -0.69192582232E+02  0.17860082940E+03  0.25559005869E+03  0.15294330000E+03 0.  1.
<mgrwt>
<rscale>  0 0.48219884E+03</rscale>
<asrwt>0</asrwt>
<pdfrwt beam="1">  1        2 0.34645724E+00 0.66621811E+03</pdfrwt>
<pdfrwt beam="2">  1       -2 0.41111609E-01 0.66621811E+03</pdfrwt>
<totfact> 0.28431447E+01</totfact>
</mgrwt>
</event>
<event>
 4    2  0.3747163E-007  0.6978727E+03  0.7818608E-02  0.1000614E+00
          2   -1    0    0  501    0  0.00000000000E+00  0.00000000000E+00  0.21596249685E+04  0.21596249685E+04  0.25500000000E-02 0. -1.
         -2   -1    0    0    0  501 -0.00000000000E+00 -0.00000000000E+00 -0.22267700250E+03  0.22267700252E+03  0.25500000000E-02 0.  1.
    8880023    1    1    2    0    0  0.23059264330E+03  0.65648015635E+01  0.19825474638E+04  0.21017898840E+04  0.65864270000E+03 0. -1.
    8880022    1    1    2    0    0 -0.23059264330E+03 -0.65648015635E+01 -0.45599497826E+02  0.28051208705E+03  0.15294330000E+03 0.  0.
<mgrwt>
<rscale>  0 0.55381691E+03</rscale>
<asrwt>0</asrwt>
<pdfrwt beam="1">  1        2 0.33224999E+00 0.69787267E+03</pdfrwt>
<pdfrwt beam="2">  1       -2 0.34258001E-01 0.69787267E+03</pdfrwt>
<totfact> 0.45188933E+01</totfact>
</mgrwt>
</event>
<event>
 4    2  0.3747163E-007  0.1118152E+04  0.7818608E-02  0.9241111E-01
         -2   -1    0    0    0  501 -0.00000000000E+00  0.00000000000E+00  0.10353117577E+04  0.10353117577E+04  0.25500000000E-02 0.  1.
          2   -1    0    0  501    0  0.00000000000E+00 -0.00000000000E+00 -0.11954586966E+04  0.11954586966E+04  0.25500000000E-02 0. -1.
    8880023    1    1    2    0    0  0.61266155614E+03 -0.66415271952E+03 -0.53634093214E+03  0.12401309685E+04  0.65864270000E+03 0. -1.
    8880022    1    1    2    0    0 -0.61266155614E+03  0.66415271952E+03  0.37619399328E+03  0.99063948579E+03  0.15294330000E+03 0.  0.
<mgrwt>
<rscale>  0 0.10638990E+04</rscale>
<asrwt>0</asrwt>
<pdfrwt beam="1">  1        2 0.18391672E+00 0.11181517E+04</pdfrwt>
<pdfrwt beam="2">  1       -2 0.15927873E+00 0.11181517E+04</pdfrwt>
<totfact> 0.47615595E+00</totfact>
</mgrwt>
</event>
<event>
 4    2  0.3747163E-007  0.7600406E+03  0.7818608E-02  0.9805002E-01
          2   -1    0    0  501    0  0.00000000000E+00  0.00000000000E+00  0.34449109164E+04  0.34449109164E+04  0.25500000000E-02 0. -1.
         -2   -1    0    0    0  501 -0.00000000000E+00 -0.00000000000E+00 -0.13402497154E+03  0.13402497157E+03  0.25500000000E-02 0.  1.
    8880023    1    1    2    0    0 -0.33990225430E+03  0.16827954656E+03  0.29048983286E+04  0.30026814773E+04  0.65864270000E+03 0. -1.
    8880022    1    1    2    0    0  0.33990225430E+03 -0.16827954656E+03  0.40598761628E+03  0.57625441071E+03  0.15294330000E+03 0.  0.
<mgrwt>
<rscale>  0 0.65094780E+03</rscale>
<asrwt>0</asrwt>
<pdfrwt beam="1">  1        2 0.52998624E+00 0.76004063E+03</pdfrwt>
<pdfrwt beam="2">  1       -2 0.20619228E-01 0.76004063E+03</pdfrwt>
<totfact> 0.19268812E+01</totfact>
</mgrwt>
</event>
<event>
 4    2  0.3747163E-007  0.6655506E+03  0.7818608E-02  0.1019076E+00
         -2   -1    0    0    0  501 -0.00000000000E+00  0.00000000000E+00  0.30361446444E+03  0.30361446445E+03  0.25500000000E-02 0.  1.
          2   -1    0    0  501    0  0.00000000000E+00 -0.00000000000E+00 -0.17349660204E+04  0.17349660204E+04  0.25500000000E-02 0. -1.
    8880023    1    1    2    0    0 -0.19842043226E+01  0.95621309921E+02 -0.16357510401E+04  0.17659668863E+04  0.65864270000E+03 0. -1.
    8880022    1    1    2    0    0  0.19842043226E+01 -0.95621309921E+02  0.20439948416E+03  0.27261359855E+03  0.15294330000E+03 0.  0.
<mgrwt>
<rscale>  0 0.48021571E+03</rscale>
<asrwt>0</asrwt>
<pdfrwt beam="1">  1        2 0.26691785E+00 0.66555058E+03</pdfrwt>
<pdfrwt beam="2">  1       -2 0.46709918E-01 0.66555058E+03</pdfrwt>
<totfact> 0.42246628E+01</totfact>
</mgrwt>
</event>
<event>
 4    2  0.3747163E-007  0.1358635E+04  0.7818608E-02  0.9016510E-01
          2   -1    0    0  501    0  0.00000000000E+00  0.00000000000E+00  0.19766780314E+04  0.19766780314E+04  0.25500000000E-02 0. -1.
         -2   -1    0    0    0  501 -0.00000000000E+00 -0.00000000000E+00 -0.12252283302E+04  0.12252283302E+04  0.25500000000E-02 0.  1.
    8880023    1    1    2    0    0  0.11866368848E+04 -0.63023717720E+02  0.13034199079E+04  0.18827619998E+04  0.65864270000E+03 0.  0.
    8880022    1    1    2    0    0 -0.11866368848E+04  0.63023717720E+02 -0.55197020662E+03  0.13191443619E+04  0.15294330000E+03 0.  0.
<mgrwt>
<rscale>  0 0.13165926E+04</rscale>
<asrwt>0</asrwt>
<pdfrwt beam="1">  1        2 0.30410431E+00 0.13586351E+04</pdfrwt>
<pdfrwt beam="2">  1       -2 0.18849667E+00 0.13586351E+04</pdfrwt>
<totfact> 0.10418700E+00</totfact>
</mgrwt>
</event>
<event>
 4    2  0.3747163E-007  0.7758269E+03  0.7818608E-02  0.9765732E-01
         -2   -1    0    0    0  501 -0.00000000000E+00  0.00000000000E+00  0.84535545088E+03  0.84535545088E+03  0.25500000000E-02 0.  1.
          2   -1    0    0  501    0  0.00000000000E+00 -0.00000000000E+00 -0.15201205467E+04  0.15201205467E+04  0.25500000000E-02 0. -1.
    8880023    1    1    2    0    0  0.19792409266E+03 -0.35905888642E+03 -0.13522229462E+04  0.15589786185E+04  0.65864270000E+03 0.  0.
    8880022    1    1    2    0    0 -0.19792409266E+03  0.35905888642E+03  0.67745785041E+03  0.80649737908E+03  0.15294330000E+03 0.  0.
<mgrwt>
<rscale>  0 0.67234408E+03</rscale>
<asrwt>0</asrwt>
<pdfrwt beam="1">  1        2 0.23386470E+00 0.77582694E+03</pdfrwt>
<pdfrwt beam="2">  1       -2 0.13005469E+00 0.77582694E+03</pdfrwt>
<totfact> 0.54829319E+00</totfact>
</mgrwt>
</event>
<event>
 4    2  0.3747163E-007  0.8105465E+03  0.7818608E-02  0.9688440E-01
         -2   -1    0    0    0  501 -0.00000000000E+00  0.00000000000E+00  0.83548586157E+03  0.83548586157E+03  0.25500000000E-02 0.  1.
          2   -1    0    0  501    0  0.00000000000E+00 -0.00000000000E+00 -0.75566018361E+03  0.75566018361E+03  0.25500000000E-02 0. -1.
    8880023    1    1    2    0    0  0.33077129597E+03  0.33729173295E+03 -0.39715147315E+03  0.90261556725E+03  0.65864270000E+03 0.  0.
    8880022    1    1    2    0    0 -0.33077129597E+03 -0.33729173295E+03  0.47697715111E+03  0.68853047793E+03  0.15294330000E+03 0.  0.
<mgrwt>
<rscale>  0 0.71709271E+03</rscale>
<asrwt>0</asrwt>
<pdfrwt beam="1">  1        2 0.11625541E+00 0.81054646E+03</pdfrwt>
<pdfrwt beam="2">  1       -2 0.12853629E+00 0.81054646E+03</pdfrwt>
<totfact> 0.16741200E+01</totfact>
</mgrwt>
</event>
<event>
 4    2  0.3747163E-007  0.7847328E+03  0.7818608E-02  0.9744835E-01
         -2   -1    0    0    0  501 -0.00000000000E+00  0.00000000000E+00  0.89541627585E+03  0.89541627586E+03  0.25500000000E-02 0.  1.
          2   -1    0    0  501    0  0.00000000000E+00 -0.00000000000E+00 -0.10066444060E+04  0.10066444060E+04  0.25500000000E-02 0. -1.
    8880023    1    1    2    0    0  0.16792596762E+03 -0.39216858646E+03 -0.77199640086E+03  0.11008106013E+04  0.65864270000E+03 0.  0.
    8880022    1    1    2    0    0 -0.16792596762E+03  0.39216858646E+03  0.66076827076E+03  0.80125008048E+03  0.15294330000E+03 0.  0.
<mgrwt>
<rscale>  0 0.68408956E+03</rscale>
<asrwt>0</asrwt>
<pdfrwt beam="1">  1        2 0.15486837E+00 0.78473278E+03</pdfrwt>
<pdfrwt beam="2">  1       -2 0.13775635E+00 0.78473278E+03</pdfrwt>
<totfact> 0.94687740E+00</totfact>
</mgrwt>
</event>
<event>
 4    2  0.3747163E-007  0.7439562E+03  0.7818608E-02  0.9848569E-01
          2   -1    0    0  501    0  0.00000000000E+00  0.00000000000E+00  0.12298834808E+04  0.12298834808E+04  0.25500000000E-02 0. -1.
         -2   -1    0    0    0  501 -0.00000000000E+00 -0.00000000000E+00 -0.39009988220E+03  0.39009988221E+03  0.25500000000E-02 0.  1.
    8880023    1    1    2    0    0 -0.42608488772E+02 -0.34328585473E+03  0.96778531911E+03  0.12206880402E+04  0.65864270000E+03 0. -1.
    8880022    1    1    2    0    0  0.42608488772E+02  0.34328585473E+03 -0.12800172047E+03  0.39929532283E+03  0.15294330000E+03 0.  0.
<mgrwt>
<rscale>  0 0.62819923E+03</rscale>
<asrwt>0</asrwt>
<pdfrwt beam="1">  1        2 0.18921284E+00 0.74395623E+03</pdfrwt>
<pdfrwt beam="2">  1       -2 0.60015368E-01 0.74395623E+03</pdfrwt>
<totfact> 0.47942382E+01</totfact>
</mgrwt>
</event>
<event>
 4    2  0.3747163E-007  0.8444593E+03  0.7818608E-02  0.9621829E-01
         -2   -1    0    0    0  501 -0.00000000000E+00  0.00000000000E+00  0.52030388426E+03  0.52030388427E+03  0.25500000000E-02 0.  1.
          2   -1    0    0  501    0  0.00000000000E+00 -0.00000000000E+00 -0.11969526609E+04  0.11969526609E+04  0.25500000000E-02 0. -1.
    8880023    1    1    2    0    0 -0.50598127048E+03 -0.15259162333E+03 -0.78903522884E+03  0.11557197100E+04  0.65864270000E+03 0. -1.
    8880022    1    1    2    0    0  0.50598127048E+03  0.15259162333E+03  0.11238645217E+03  0.56153683515E+03  0.15294330000E+03 0.  0.
<mgrwt>
<rscale>  0 0.75868118E+03</rscale>
<asrwt>0</asrwt>
<pdfrwt beam="1">  1        2 0.18414656E+00 0.84445927E+03</pdfrwt>
<pdfrwt beam="2">  1       -2 0.80046752E-01 0.84445927E+03</pdfrwt>
<totfact> 0.26499140E+01</totfact>
</mgrwt>
</event>
<event>
 4    2  0.3747163E-007  0.6772570E+03  0.7818608E-02  0.1010920E+00
          2   -1    0    0  501    0  0.00000000000E+00  0.00000000000E+00  0.80856904808E+03  0.80856904808E+03  0.25500000000E-02 0. -1.
         -2   -1    0    0    0  501 -0.00000000000E+00 -0.00000000000E+00 -0.83923936637E+03  0.83923936637E+03  0.25500000000E-02 0.  1.
    8880023    1    1    2    0    0 -0.11274921033E+03 -0.11024700278E+03  0.64626041726E+03  0.93612473487E+03  0.65864270000E+03 0. -1.
    8880022    1    1    2    0    0  0.11274921033E+03  0.11024700278E+03 -0.67693073555E+03  0.71168367959E+03  0.15294330000E+03 0.  0.
<mgrwt>
<rscale>  0 0.51110693E+03</rscale>
<asrwt>0</asrwt>
<pdfrwt beam="1">  1        2 0.12439524E+00 0.67725696E+03</pdfrwt>
<pdfrwt beam="2">  1       -2 0.12911375E+00 0.67725696E+03</pdfrwt>
<totfact> 0.15354253E+01</totfact>
</mgrwt>
</event>
<event>
 4    2  0.3747163E-007  0.8287759E+03  0.7818608E-02  0.9651719E-01
         -2   -1    0    0    0  501 -0.00000000000E+00  0.00000000000E+00  0.52930588022E+03  0.52930588023E+03  0.25500000000E-02 0.  1.
          2   -1    0    0  501    0  0.00000000000E+00 -0.00000000000E+00 -0.17890049280E+04  0.17890049280E+04  0.25500000000E-02 0. -1.
    8880023    1    1    2    0    0 -0.11648621488E+03  0.48937734643E+03 -0.15202696676E+04  0.17314991464E+04  0.65864270000E+03 0. -1.
    8880022    1    1    2    0    0  0.11648621488E+03 -0.48937734643E+03  0.26057061988E+03  0.58681166179E+03  0.15294330000E+03 0.  0.
<mgrwt>
<rscale>  0 0.73965648E+03</rscale>
<asrwt>0</asrwt>
<pdfrwt beam="1">  1        2 0.27523152E+00 0.82877586E+03</pdfrwt>
<pdfrwt beam="2">  1       -2 0.81431675E-01 0.82877586E+03</pdfrwt>
<totfact> 0.11848467E+01</totfact>
</mgrwt>
</event>
<event>
 4    2  0.3747163E-007  0.9102064E+03  0.7818608E-02  0.9509842E-01
          2   -1    0    0  501    0  0.00000000000E+00  0.00000000000E+00  0.34926047273E+04  0.34926047273E+04  0.25500000000E-02 0. -1.
         -2   -1    0    0    0  501 -0.00000000000E+00 -0.00000000000E+00 -0.29857381304E+03  0.29857381305E+03  0.25500000000E-02 0.  1.
    8880023    1    1    2    0    0 -0.16055887482E+03  0.60736017706E+03  0.29708713209E+04  0.31071775213E+04  0.65864270000E+03 0. -1.
    8880022    1    1    2    0    0  0.16055887482E+03 -0.60736017706E+03  0.22315959332E+03  0.68400101906E+03  0.15294330000E+03 0.  0.
<mgrwt>
<rscale>  0 0.83562108E+03</rscale>
<asrwt>0</asrwt>
<pdfrwt beam="1">  1        2 0.53732379E+00 0.91020643E+03</pdfrwt>
<pdfrwt beam="2">  1       -2 0.45934434E-01 0.91020643E+03</pdfrwt>
<totfact> 0.38904195E+00</totfact>
</mgrwt>
</event>
<event>
 4    2  0.4766033E-007  0.8560008E+03  0.7818608E-02  0.9600717E-01
          2   -1    0    0  501    0  0.00000000000E+00  0.00000000000E+00  0.14076907984E+04  0.14076907984E+04  0.25500000000E-02 0. -1.
         -2   -1    0    0    0  501 -0.00000000000E+00 -0.00000000000E+00 -0.18054274073E+04  0.18054274073E+04  0.25500000000E-02 0.  1.
    8880023    1    1    2    0    0 -0.50211205399E+02 -0.54443178446E+03  0.12247111514E+04  0.14942070618E+04  0.65864270000E+03 0. -1.
    8880022    1    1    2    0    0  0.50211205399E+02  0.54443178446E+03 -0.16224477602E+04  0.17189111439E+04  0.15294330000E+03 0.  0.
<mgrwt>
<rscale>  0 0.77248726E+03</rscale>
<asrwt>0</asrwt>
<pdfrwt beam="1">  1        2 0.21656781E+00 0.85600078E+03</pdfrwt>
<pdfrwt beam="2">  1       -2 0.27775806E+00 0.85600078E+03</pdfrwt>
<totfact> 0.63860897E-01</totfact>
</mgrwt>
</event>
<event>
 4    2  0.3747163E-007  0.6731528E+03  0.7818608E-02  0.1013497E+00
         -2   -1    0    0    0  501 -0.00000000000E+00  0.00000000000E+00  0.17342154278E+03  0.17342154280E+03  0.25500000000E-02 0.  1.
          2   -1    0    0  501    0  0.00000000000E+00 -0.00000000000E+00 -0.13472862826E+04  0.13472862826E+04  0.25500000000E-02 0. -1.
    8880023    1    1    2    0    0 -0.11164191365E-01 -0.13901241294E+03 -0.11206572381E+04  0.13072900606E+04  0.65864270000E+03 0. -1.
    8880022    1    1    2    0    0  0.11164191365E-01  0.13901241294E+03 -0.53207501757E+02  0.21341776480E+03  0.15294330000E+03 0.  0.
<mgrwt>
<rscale>  0 0.50108244E+03</rscale>
<asrwt>0</asrwt>
<pdfrwt beam="1">  1        2 0.20727481E+00 0.67315277E+03</pdfrwt>
<pdfrwt beam="2">  1       -2 0.26680238E-01 0.67315277E+03</pdfrwt>
<totfact> 0.20126350E+02</totfact>
</mgrwt>
</event>
<event>
 4    2  0.3747163E-007  0.1019128E+04  0.7818608E-02  0.9356949E-01
          2   -1    0    0  501    0  0.00000000000E+00  0.00000000000E+00  0.19691268899E+04  0.19691268899E+04  0.25500000000E-02 0. -1.
         -2   -1    0    0    0  501 -0.00000000000E+00 -0.00000000000E+00 -0.42774672466E+03  0.42774672467E+03  0.25500000000E-02 0.  1.
    8880023    1    1    2    0    0 -0.62670017655E+03 -0.46049912323E+03  0.10554783275E+04  0.14671936682E+04  0.65864270000E+03 0.  0.
    8880022    1    1    2    0    0  0.62670017655E+03  0.46049912323E+03  0.48590183766E+03  0.92967994635E+03  0.15294330000E+03 0.  0.
<mgrwt>
<rscale>  0 0.95704926E+03</rscale>
<asrwt>0</asrwt>
<pdfrwt beam="1">  1        2 0.30294260E+00 0.10191284E+04</pdfrwt>
<pdfrwt beam="2">  1       -2 0.65807187E-01 0.10191284E+04</pdfrwt>
<totfact> 0.14788688E+01</totfact>
</mgrwt>
</event>
<event>
 4    2  0.3747163E-007  0.6897150E+03  0.7818608E-02  0.1004288E+00
          2   -1    0    0  501    0  0.00000000000E+00  0.00000000000E+00  0.65731026729E+03  0.65731026729E+03  0.25500000000E-02 0. -1.
         -2   -1    0    0    0  501 -0.00000000000E+00 -0.00000000000E+00 -0.35080371544E+03  0.35080371545E+03  0.25500000000E-02 0.  1.
    8880023    1    1    2    0    0  0.15733683168E+03 -0.13092645621E+03  0.14188088370E+03  0.70415694768E+03  0.65864270000E+03 0.  1.
    8880022    1    1    2    0    0 -0.15733683168E+03  0.13092645621E+03  0.16462566815E+03  0.30395703507E+03  0.15294330000E+03 0.  1.
<mgrwt>
<rscale>  0 0.53809216E+03</rscale>
<asrwt>0</asrwt>
<pdfrwt beam="1">  1        2 0.10112466E+00 0.68971503E+03</pdfrwt>
<pdfrwt beam="2">  1       -2 0.53969803E-01 0.68971503E+03</pdfrwt>
<totfact> 0.14539505E+02</totfact>
</mgrwt>
</event>
<event>
 4    2  0.3747163E-007  0.9840624E+03  0.7818608E-02  0.9402712E-01
          2   -1    0    0  501    0  0.00000000000E+00  0.00000000000E+00  0.11555366454E+04  0.11555366454E+04  0.25500000000E-02 0. -1.
         -2   -1    0    0    0  501 -0.00000000000E+00 -0.00000000000E+00 -0.17689798923E+04  0.17689798923E+04  0.25500000000E-02 0.  1.
    8880023    1    1    2    0    0 -0.58011586340E+03  0.44501022604E+03  0.83775021191E+03  0.12923637801E+04  0.65864270000E+03 0. -1.
    8880022    1    1    2    0    0  0.58011586340E+03 -0.44501022604E+03 -0.14511934588E+04  0.16321527576E+04  0.15294330000E+03 0.  0.
<mgrwt>
<rscale>  0 0.91852792E+03</rscale>
<asrwt>0</asrwt>
<pdfrwt beam="1">  1        2 0.17777487E+00 0.98406236E+03</pdfrwt>
<pdfrwt beam="2">  1       -2 0.27215075E+00 0.98406236E+03</pdfrwt>
<totfact> 0.94926579E-01</totfact>
</mgrwt>
</event>
<event>
 4    2  0.3747163E-007  0.7566304E+03  0.7818608E-02  0.9813910E-01
          2   -1    0    0  501    0  0.00000000000E+00  0.00000000000E+00  0.16062144169E+04  0.16062144169E+04  0.25500000000E-02 0. -1.
         -2   -1    0    0    0  501 -0.00000000000E+00 -0.00000000000E+00 -0.22473385962E+03  0.22473385963E+03  0.25500000000E-02 0.  1.
    8880023    1    1    2    0    0 -0.25555502925E+02 -0.37151879810E+03  0.11174400076E+04  0.13495042342E+04  0.65864270000E+03 0.  0.
    8880022    1    1    2    0    0  0.25555502925E+02  0.37151879810E+03  0.26404054963E+03  0.48144404237E+03  0.15294330000E+03 0.  0.
<mgrwt>
<rscale>  0 0.64621342E+03</rscale>
<asrwt>0</asrwt>
<pdfrwt beam="1">  1        2 0.24710990E+00 0.75663036E+03</pdfrwt>
<pdfrwt beam="2">  1       -2 0.34574441E-01 0.75663036E+03</pdfrwt>
<totfact> 0.88460570E+01</totfact>
</mgrwt>
</event>
<event>
 4    2  0.3747163E-007  0.7144260E+03  0.7818608E-02  0.9941918E-01
          2   -1    0    0  501    0  0.00000000000E+00  0.00000000000E+00  0.68977337790E+03  0.68977337790E+03  0.25500000000E-02 0. -1.
         -2   -1    0    0    0  501 -0.00000000000E+00 -0.00000000000E+00 -0.10739759072E+04  0.10739759072E+04  0.25500000000E-02 0.  1.
    8880023    1    1    2    0    0  0.12462338021E+03  0.24710993557E+03  0.46847697215E+03  0.85432733004E+03  0.65864270000E+03 0. -1.
    8880022    1    1    2    0    0 -0.12462338021E+03 -0.24710993557E+03 -0.85267950148E+03  0.90942195509E+03  0.15294330000E+03 0.  0.
<mgrwt>
<rscale>  0 0.58272053E+03</rscale>
<asrwt>0</asrwt>
<pdfrwt beam="1">  1        2 0.10611898E+00 0.71442600E+03</pdfrwt>
<pdfrwt beam="2">  1       -2 0.16522706E+00 0.71442600E+03</pdfrwt>
<totfact> 0.98256270E+00</totfact>
</mgrwt>
</event>
<event>
 4    2  0.3747163E-007  0.7423499E+03  0.7818608E-02  0.9853154E-01
         -2   -1    0    0    0  501 -0.00000000000E+00  0.00000000000E+00  0.81477893496E+03  0.81477893496E+03  0.25500000000E-02 0.  1.
          2   -1    0    0  501    0  0.00000000000E+00 -0.00000000000E+00 -0.55593276894E+03  0.55593276895E+03  0.25500000000E-02 0. -1.
    8880023    1    1    2    0    0 -0.26403575692E+03  0.21807865569E+03 -0.20888717796E+03  0.77117912341E+03  0.65864270000E+03 0.  0.
    8880022    1    1    2    0    0  0.26403575692E+03 -0.21807865569E+03  0.46773334398E+03  0.59953258051E+03  0.15294330000E+03 0.  0.
<mgrwt>
<rscale>  0 0.62586359E+03</rscale>
<asrwt>0</asrwt>
<pdfrwt beam="1">  1        2 0.85528119E-01 0.74234991E+03</pdfrwt>
<pdfrwt beam="2">  1       -2 0.12535060E+00 0.74234991E+03</pdfrwt>
<totfact> 0.26226225E+01</totfact>
</mgrwt>
</event>
<event>
 4    2  0.3747163E-007  0.7110055E+03  0.7818608E-02  0.9954286E-01
          2   -1    0    0  501    0  0.00000000000E+00  0.00000000000E+00  0.16253697892E+04  0.16253697892E+04  0.25500000000E-02 0. -1.
         -2   -1    0    0    0  501 -0.00000000000E+00 -0.00000000000E+00 -0.16713379386E+03  0.16713379388E+03  0.25500000000E-02 0.  1.
    8880023    1    1    2    0    0  0.23818283063E+03 -0.12242364946E+03  0.83178881632E+03  0.10942584027E+04  0.65864270000E+03 0.  0.
    8880022    1    1    2    0    0 -0.23818283063E+03  0.12242364946E+03  0.62644717900E+03  0.69824518033E+03  0.15294330000E+03 0.  0.
<mgrwt>
<rscale>  0 0.57700974E+03</rscale>
<asrwt>0</asrwt>
<pdfrwt beam="1">  1        2 0.25005689E+00 0.71100550E+03</pdfrwt>
<pdfrwt beam="2">  1       -2 0.25712891E-01 0.71100550E+03</pdfrwt>
<totfact> 0.15014580E+02</totfact>
</mgrwt>
</event>
<event>
 4    2  0.3747163E-007  0.9575083E+03  0.7818608E-02  0.9439393E-01
          2   -1    0    0  501    0  0.00000000000E+00  0.00000000000E+00  0.19498944476E+04  0.19498944476E+04  0.25500000000E-02 0. -1.
         -2   -1    0    0    0  501 -0.00000000000E+00 -0.00000000000E+00 -0.49877194961E+03  0.49877194962E+03  0.25500000000E-02 0.  1.
    8880023    1    1    2    0    0 -0.68486886162E+03  0.11817992716E+03  0.14493098120E+04  0.17370437502E+04  0.65864270000E+03 0. -1.
    8880022    1    1    2    0    0  0.68486886162E+03 -0.11817992716E+03  0.18126859443E+01  0.71162264695E+03  0.15294330000E+03 0.  0.
<mgrwt>
<rscale>  0 0.88903525E+03</rscale>
<asrwt>0</asrwt>
<pdfrwt beam="1">  1        2 0.29998377E+00 0.95750826E+03</pdfrwt>
<pdfrwt beam="2">  1       -2 0.76734144E-01 0.95750826E+03</pdfrwt>
<totfact> 0.10882593E+01</totfact>
</mgrwt>
</event>
<event>
 4    2  0.3747163E-007  0.8507181E+03  0.7818608E-02  0.9610292E-01
         -2   -1    0    0    0  501 -0.00000000000E+00  0.00000000000E+00  0.63871394619E+03  0.63871394620E+03  0.25500000000E-02 0.  1.
          2   -1    0    0  501    0  0.00000000000E+00 -0.00000000000E+00 -0.13417471876E+04  0.13417471876E+04  0.25500000000E-02 0. -1.
    8880023    1    1    2    0    0  0.26614475415E+03 -0.46805765294E+03 -0.10271161664E+04  0.13336749312E+04  0.65864270000E+03 0.  0.
    8880022    1    1    2    0    0 -0.26614475415E+03  0.46805765294E+03  0.32408292494E+03  0.64678620262E+03  0.15294330000E+03 0.  1.
<mgrwt>
<rscale>  0 0.76618694E+03</rscale>
<asrwt>0</asrwt>
<pdfrwt beam="1">  1        2 0.20642264E+00 0.85071805E+03</pdfrwt>
<pdfrwt beam="2">  1       -2 0.98263684E-01 0.85071805E+03</pdfrwt>
<totfact> 0.13589543E+01</totfact>
</mgrwt>
</event>
<event>
 4    2  0.3747163E-007  0.6948552E+03  0.7818608E-02  0.1001925E+00
         -2   -1    0    0    0  501 -0.00000000000E+00  0.00000000000E+00  0.27181362501E+03  0.27181362502E+03  0.25500000000E-02 0.  1.
          2   -1    0    0  501    0  0.00000000000E+00 -0.00000000000E+00 -0.12659013018E+04  0.12659013018E+04  0.25500000000E-02 0. -1.
    8880023    1    1    2    0    0 -0.13901859137E+03 -0.17230043235E+03 -0.10536285411E+04  0.12621239704E+04  0.65864270000E+03 0. -1.
    8880022    1    1    2    0    0  0.13901859137E+03  0.17230043235E+03  0.59540864315E+02  0.27559095644E+03  0.15294330000E+03 0.  0.
<mgrwt>
<rscale>  0 0.54814066E+03</rscale>
<asrwt>0</asrwt>
<pdfrwt beam="1">  1        2 0.19475404E+00 0.69485525E+03</pdfrwt>
<pdfrwt beam="2">  1       -2 0.41817482E-01 0.69485525E+03</pdfrwt>
<totfact> 0.95758331E+01</totfact>
</mgrwt>
</event>
<event>
 4    2  0.3747163E-007  0.6762921E+03  0.7818608E-02  0.1011504E+00
          2   -1    0    0  501    0  0.00000000000E+00  0.00000000000E+00  0.10056157857E+04  0.10056157857E+04  0.25500000000E-02 0. -1.
         -2   -1    0    0    0  501 -0.00000000000E+00 -0.00000000000E+00 -0.49417600390E+03  0.49417600391E+03  0.25500000000E-02 0.  1.
    8880023    1    1    2    0    0  0.48286853061E+02 -0.14570251153E+03  0.85712792188E+03  0.10918055334E+04  0.65864270000E+03 0. -1.
    8880022    1    1    2    0    0 -0.48286853061E+02  0.14570251153E+03 -0.34568814008E+03  0.40798625621E+03  0.15294330000E+03 0.  0.
<mgrwt>
<rscale>  0 0.50881287E+03</rscale>
<asrwt>0</asrwt>
<pdfrwt beam="1">  1        2 0.15471012E+00 0.67629213E+03</pdfrwt>
<pdfrwt beam="2">  1       -2 0.76027077E-01 0.67629213E+03</pdfrwt>
<totfact> 0.39596404E+01</totfact>
</mgrwt>
</event>
<event>
 4    2  0.3747163E-007  0.9821677E+03  0.7818608E-02  0.9405269E-01
         -2   -1    0    0    0  501 -0.00000000000E+00  0.00000000000E+00  0.75298250806E+03  0.75298250806E+03  0.25500000000E-02 0.  1.
          2   -1    0    0  501    0  0.00000000000E+00 -0.00000000000E+00 -0.23600089361E+04  0.23600089361E+04  0.25500000000E-02 0. -1.
    8880023    1    1    2    0    0  0.66782106796E+03  0.29130429466E+03 -0.20311740487E+04  0.22561740610E+04  0.65864270000E+03 0. -1.
    8880022    1    1    2    0    0 -0.66782106796E+03 -0.29130429466E+03  0.42414762073E+03  0.85681738316E+03  0.15294330000E+03 0.  0.
<mgrwt>
<rscale>  0 0.91643351E+03</rscale>
<asrwt>0</asrwt>
<pdfrwt beam="1">  1        2 0.36307829E+00 0.98216769E+03</pdfrwt>
<pdfrwt beam="2">  1       -2 0.11584346E+00 0.98216769E+03</pdfrwt>
<totfact> 0.24451625E+00</totfact>
</mgrwt>
</event>
<event>
 4    2  0.3747163E-007  0.9176804E+03  0.7818608E-02  0.9498225E-01
          2   -1    0    0  501    0  0.00000000000E+00  0.00000000000E+00  0.13854849516E+04  0.13854849516E+04  0.25500000000E-02 0. -1.
         -2   -1    0    0    0  501 -0.00000000000E+00 -0.00000000000E+00 -0.87197042723E+03  0.87197042723E+03  0.25500000000E-02 0.  1.
    8880023    1    1    2    0    0  0.48008883905E+03 -0.42171287176E+03  0.10605687686E+04  0.14024775787E+04  0.65864270000E+03 0.  0.
    8880022    1    1    2    0    0 -0.48008883905E+03  0.42171287176E+03 -0.54705424423E+03  0.85497780014E+03  0.15294330000E+03 0.  0.
<mgrwt>
<rscale>  0 0.84414817E+03</rscale>
<asrwt>0</asrwt>
<pdfrwt beam="1">  1        2 0.21315153E+00 0.91768036E+03</pdfrwt>
<pdfrwt beam="2">  1       -2 0.13414930E+00 0.91768036E+03</pdfrwt>
<totfact> 0.59240741E+00</totfact>
</mgrwt>
</event>
<event>
 4    2  0.3747163E-007  0.1357728E+04  0.7818608E-02  0.9017245E-01
         -2   -1    0    0    0  501 -0.00000000000E+00  0.00000000000E+00  0.12585735118E+04  0.12585735118E+04  0.25500000000E-02 0.  1.
          2   -1    0    0  501    0  0.00000000000E+00 -0.00000000000E+00 -0.19555835137E+04  0.19555835137E+04  0.25500000000E-02 0. -1.
    8880023    1    1    2    0    0 -0.69015745251E+03 -0.96607398777E+03  0.56870201637E+03  0.14720218914E+04  0.65864270000E+03 0.  0.
    8880022    1    1    2    0    0  0.69015745251E+03  0.96607398777E+03 -0.12657120183E+04  0.17421351340E+04  0.15294330000E+03 0.  0.
<mgrwt>
<rscale>  0 0.13156512E+04</rscale>
<asrwt>0</asrwt>
<pdfrwt beam="1">  1        2 0.30085900E+00 0.13577284E+04</pdfrwt>
<pdfrwt beam="2">  1       -2 0.19362669E+00 0.13577284E+04</pdfrwt>
<totfact> 0.98868897E-01</totfact>
</mgrwt>
</event>
<event>
 4    2  0.3747163E-007  0.8029930E+03  0.7818608E-02  0.9704361E-01
         -2   -1    0    0    0  501 -0.00000000000E+00  0.00000000000E+00  0.34496139679E+03  0.34496139680E+03  0.25500000000E-02 0.  1.
          2   -1    0    0  501    0  0.00000000000E+00 -0.00000000000E+00 -0.41019533120E+04  0.41019533120E+04  0.25500000000E-02 0. -1.
    8880023    1    1    2    0    0 -0.24760708873E+03  0.38688287697E+03 -0.38677941554E+04  0.39502695434E+04  0.65864270000E+03 0. -1.
    8880022    1    1    2    0    0  0.24760708873E+03 -0.38688287697E+03  0.11080224017E+03  0.49664516541E+03  0.15294330000E+03 0.  0.
<mgrwt>
<rscale>  0 0.70757706E+03</rscale>
<asrwt>0</asrwt>
<pdfrwt beam="1">  1        2 0.63106970E+00 0.80299305E+03</pdfrwt>
<pdfrwt beam="2">  1       -2 0.53070987E-01 0.80299305E+03</pdfrwt>
<totfact> 0.10413612E+00</totfact>
</mgrwt>
</event>
<event>
 4    2  0.3747163E-007  0.8109783E+03  0.7818608E-02  0.9687543E-01
          2   -1    0    0  501    0  0.00000000000E+00  0.00000000000E+00  0.31537412980E+04  0.31537412980E+04  0.25500000000E-02 0. -1.
         -2   -1    0    0    0  501 -0.00000000000E+00 -0.00000000000E+00 -0.19488213415E+03  0.19488213417E+03  0.25500000000E-02 0.  1.
    8880023    1    1    2    0    0  0.41875069514E+03  0.22028039660E+03  0.26306416610E+04  0.27528097197E+04  0.65864270000E+03 0. -1.
    8880022    1    1    2    0    0 -0.41875069514E+03 -0.22028039660E+03  0.32821750281E+03  0.59581371248E+03  0.15294330000E+03 0.  0.
<mgrwt>
<rscale>  0 0.71763358E+03</rscale>
<asrwt>0</asrwt>
<pdfrwt beam="1">  1        2 0.48519096E+00 0.81097830E+03</pdfrwt>
<pdfrwt beam="2">  1       -2 0.29981867E-01 0.81097830E+03</pdfrwt>
<totfact> 0.15043937E+01</totfact>
</mgrwt>
</event>
<event>
 4    2  0.3747163E-007  0.8567621E+03  0.7818608E-02  0.9599349E-01
         -2   -1    0    0    0  501 -0.00000000000E+00  0.00000000000E+00  0.37720326336E+03  0.37720326336E+03  0.25500000000E-02 0.  1.
          2   -1    0    0  501    0  0.00000000000E+00 -0.00000000000E+00 -0.25574077337E+04  0.25574077337E+04  0.25500000000E-02 0. -1.
    8880023    1    1    2    0    0  0.47677087216E+03 -0.27003807339E+03 -0.22045814826E+04  0.23652105076E+04  0.65864270000E+03 0.  0.
    8880022    1    1    2    0    0 -0.47677087216E+03  0.27003807339E+03  0.24377012286E+02  0.56940048943E+03  0.15294330000E+03 0.  0.
<mgrwt>
<rscale>  0 0.77339265E+03</rscale>
<asrwt>0</asrwt>
<pdfrwt beam="1">  1        2 0.39344733E+00 0.85676206E+03</pdfrwt>
<pdfrwt beam="2">  1       -2 0.58031273E-01 0.85676206E+03</pdfrwt>
<totfact> 0.92505032E+00</totfact>
</mgrwt>
</event>
<event>
 4    2  0.3747163E-007  0.7210204E+03  0.7818608E-02  0.9919148E-01
         -2   -1    0    0    0  501 -0.00000000000E+00  0.00000000000E+00  0.18473297951E+03  0.18473297953E+03  0.25500000000E-02 0.  1.
          2   -1    0    0  501    0  0.00000000000E+00 -0.00000000000E+00 -0.19672859987E+04  0.19672859987E+04  0.25500000000E-02 0. -1.
    8880023    1    1    2    0    0 -0.16567853746E+03  0.24209662719E+03 -0.16405362922E+04  0.17919904260E+04  0.65864270000E+03 0. -1.
    8880022    1    1    2    0    0  0.16567853746E+03 -0.24209662719E+03 -0.14201672706E+03  0.36002855227E+03  0.15294330000E+03 0.  0.
<mgrwt>
<rscale>  0 0.59342182E+03</rscale>
<asrwt>0</asrwt>
<pdfrwt beam="1">  1        2 0.30265937E+00 0.72102036E+03</pdfrwt>
<pdfrwt beam="2">  1       -2 0.28420460E-01 0.72102036E+03</pdfrwt>
<totfact> 0.81335542E+01</totfact>
</mgrwt>
</event>
<event>
 4    2  0.3747163E-007  0.1081254E+04  0.7818608E-02  0.9282220E-01
         -2   -1    0    0    0  501 -0.00000000000E+00  0.00000000000E+00  0.10878558628E+04  0.10878558628E+04  0.25500000000E-02 0.  1.
          2   -1    0    0  501    0  0.00000000000E+00 -0.00000000000E+00 -0.18170809402E+04  0.18170809402E+04  0.25500000000E-02 0. -1.
    8880023    1    1    2    0    0  0.49790470232E+03 -0.69813457384E+03 -0.14259491433E+04  0.17895368511E+04  0.65864270000E+03 0.  0.
    8880022    1    1    2    0    0 -0.49790470232E+03  0.69813457384E+03  0.69672406593E+03  0.11153999520E+04  0.15294330000E+03 0.  0.
<mgrwt>
<rscale>  0 0.10243637E+04</rscale>
<asrwt>0</asrwt>
<pdfrwt beam="1">  1        2 0.27955091E+00 0.10812544E+04</pdfrwt>
<pdfrwt beam="2">  1       -2 0.16736244E+00 0.10812544E+04</pdfrwt>
<totfact> 0.18510375E+00</totfact>
</mgrwt>
</event>
<event>
 4    2  0.3747163E-007  0.9094267E+03  0.7818608E-02  0.9511065E-01
          2   -1    0    0  501    0  0.00000000000E+00  0.00000000000E+00  0.12406119602E+04  0.12406119602E+04  0.25500000000E-02 0. -1.
         -2   -1    0    0    0  501 -0.00000000000E+00 -0.00000000000E+00 -0.10237180649E+04  0.10237180649E+04  0.25500000000E-02 0.  1.
    8880023    1    1    2    0    0 -0.48983800997E+03  0.39154247550E+03  0.93118461755E+03  0.13015997020E+04  0.65864270000E+03 0. -1.
    8880022    1    1    2    0    0  0.48983800997E+03 -0.39154247550E+03 -0.71429072224E+03  0.96273032310E+03  0.15294330000E+03 0.  0.
<mgrwt>
<rscale>  0 0.83472939E+03</rscale>
<asrwt>0</asrwt>
<pdfrwt beam="1">  1        2 0.19086338E+00 0.90942674E+03</pdfrwt>
<pdfrwt beam="2">  1       -2 0.15749509E+00 0.90942674E+03</pdfrwt>
<totfact> 0.47175480E+00</totfact>
</mgrwt>
</event>
<event>
 4    2  0.3747163E-007  0.8390328E+03  0.7818608E-02  0.9632007E-01
         -2   -1    0    0    0  501 -0.00000000000E+00  0.00000000000E+00  0.15594725527E+03  0.15594725529E+03  0.25500000000E-02 0.  1.
          2   -1    0    0  501    0  0.00000000000E+00 -0.00000000000E+00 -0.41542421713E+04  0.41542421713E+04  0.25500000000E-02 0. -1.
    8880023    1    1    2    0    0  0.44010936046E+03 -0.27653145315E+03 -0.34044559875E+04  0.35063223854E+04  0.65864270000E+03 0.  0.
    8880022    1    1    2    0    0 -0.44010936046E+03  0.27653145315E+03 -0.59383892852E+03  0.80386704112E+03  0.15294330000E+03 0.  0.
<mgrwt>
<rscale>  0 0.75213513E+03</rscale>
<asrwt>0</asrwt>
<pdfrwt beam="1">  1        2 0.63911410E+00 0.83903284E+03</pdfrwt>
<pdfrwt beam="2">  1       -2 0.23991889E-01 0.83903284E+03</pdfrwt>
<totfact> 0.42918454E+00</totfact>
</mgrwt>
</event>
<event>
 4    2  0.3747163E-007  0.6698907E+03  0.7818608E-02  0.1015741E+00
          2   -1    0    0  501    0  0.00000000000E+00  0.00000000000E+00  0.16136810787E+04  0.16136810787E+04  0.25500000000E-02 0. -1.
         -2   -1    0    0    0  501 -0.00000000000E+00 -0.00000000000E+00 -0.31994529815E+03  0.31994529816E+03  0.25500000000E-02 0.  1.
    8880023    1    1    2    0    0  0.49145271394E+02 -0.11192921188E+03  0.15039249384E+04  0.16463729325E+04  0.65864270000E+03 0. -1.
    8880022    1    1    2    0    0 -0.49145271394E+02  0.11192921188E+03 -0.21018915790E+03  0.28725344434E+03  0.15294330000E+03 0.  0.
<mgrwt>
<rscale>  0 0.49255247E+03</rscale>
<asrwt>0</asrwt>
<pdfrwt beam="1">  1        2 0.24825863E+00 0.66989075E+03</pdfrwt>
<pdfrwt beam="2">  1       -2 0.49222353E-01 0.66989075E+03</pdfrwt>
<totfact> 0.44251887E+01</totfact>
</mgrwt>
</event>
<event>
 4    2  0.3747163E-007  0.6966725E+03  0.7818608E-02  0.1001130E+00
         -2   -1    0    0    0  501 -0.00000000000E+00  0.00000000000E+00  0.27569196775E+03  0.27569196776E+03  0.25500000000E-02 0.  1.
          2   -1    0    0  501    0  0.00000000000E+00 -0.00000000000E+00 -0.14128096714E+04  0.14128096714E+04  0.25500000000E-02 0. -1.
    8880023    1    1    2    0    0  0.17444746227E+03  0.14529436079E+03 -0.12179088474E+04  0.14030875009E+04  0.65864270000E+03 0. -1.
    8880022    1    1    2    0    0 -0.17444746227E+03 -0.14529436079E+03  0.80791143784E+02  0.28541413822E+03  0.15294330000E+03 0.  0.
<mgrwt>
<rscale>  0 0.55157730E+03</rscale>
<asrwt>0</asrwt>
<pdfrwt beam="1">  1        2 0.21735533E+00 0.69667250E+03</pdfrwt>
<pdfrwt beam="2">  1       -2 0.42414150E-01 0.69667250E+03</pdfrwt>
<totfact> 0.76765533E+01</totfact>
</mgrwt>
</event>
<event>
 4    2  0.3747163E-007  0.7710235E+03  0.7818608E-02  0.9777362E-01
         -2   -1    0    0    0  501 -0.00000000000E+00  0.00000000000E+00  0.58606675537E+03  0.58606675538E+03  0.25500000000E-02 0.  1.
          2   -1    0    0  501    0  0.00000000000E+00 -0.00000000000E+00 -0.15088831041E+04  0.15088831041E+04  0.25500000000E-02 0. -1.
    8880023    1    1    2    0    0 -0.31186408008E+03  0.25180924596E+03 -0.13080337024E+04  0.15183640781E+04  0.65864270000E+03 0.  0.
    8880022    1    1    2    0    0  0.31186408008E+03 -0.25180924596E+03  0.38521735363E+03  0.57658578143E+03  0.15294330000E+03 0.  0.
<mgrwt>
<rscale>  0 0.66591729E+03</rscale>
<asrwt>0</asrwt>
<pdfrwt beam="1">  1        2 0.23213586E+00 0.77102355E+03</pdfrwt>
<pdfrwt beam="2">  1       -2 0.90164117E-01 0.77102355E+03</pdfrwt>
<totfact> 0.13493093E+01</totfact>
</mgrwt>
</event>
<event>
 4    2  0.3747163E-007  0.7571698E+03  0.7818608E-02  0.9812491E-01
         -2   -1    0    0    0  501 -0.00000000000E+00  0.00000000000E+00  0.21867658156E+03  0.21867658158E+03  0.25500000000E-02 0.  1.
          2   -1    0    0  501    0  0.00000000000E+00 -0.00000000000E+00 -0.17019122403E+04  0.17019122403E+04  0.25500000000E-02 0. -1.
    8880023    1    1    2    0    0  0.21985096173E+03 -0.30192945879E+03 -0.12292380755E+04  0.14437216823E+04  0.65864270000E+03 0.  0.
    8880022    1    1    2    0    0 -0.21985096173E+03  0.30192945879E+03 -0.25399758317E+03  0.47686713950E+03  0.15294330000E+03 0.  0.
<mgrwt>
<rscale>  0 0.64696519E+03</rscale>
<asrwt>0</asrwt>
<pdfrwt beam="1">  1        2 0.26183264E+00 0.75716976E+03</pdfrwt>
<pdfrwt beam="2">  1       -2 0.33642552E-01 0.75716976E+03</pdfrwt>
<totfact> 0.82543228E+01</totfact>
</mgrwt>
</event>
<event>
 4    2  0.3747163E-007  0.7010818E+03  0.7818608E-02  0.9992743E-01
          2   -1    0    0  501    0  0.00000000000E+00  0.00000000000E+00  0.16034812714E+04  0.16034812714E+04  0.25500000000E-02 0. -1.
         -2   -1    0    0    0  501 -0.00000000000E+00 -0.00000000000E+00 -0.21707680218E+03  0.21707680219E+03  0.25500000000E-02 0.  1.
    8880023    1    1    2    0    0  0.23973602236E+03  0.15237632873E+02  0.13655672400E+04  0.15350210549E+04  0.65864270000E+03 0. -1.
    8880022    1    1    2    0    0 -0.23973602236E+03 -0.15237632873E+02  0.20837229198E+02  0.28553701863E+03  0.15294330000E+03 0.  0.
<mgrwt>
<rscale>  0 0.55969609E+03</rscale>
<asrwt>0</asrwt>
<pdfrwt beam="1">  1        2 0.24668944E+00 0.70108184E+03</pdfrwt>
<pdfrwt beam="2">  1       -2 0.33396430E-01 0.70108184E+03</pdfrwt>
<totfact> 0.95308952E+01</totfact>
</mgrwt>
</event>
<event>
 4    2  0.3747163E-007  0.8419892E+03  0.7818608E-02  0.9626441E-01
         -2   -1    0    0    0  501 -0.00000000000E+00  0.00000000000E+00  0.86327328692E+03  0.86327328692E+03  0.25500000000E-02 0.  1.
          2   -1    0    0  501    0  0.00000000000E+00 -0.00000000000E+00 -0.63063335810E+03  0.63063335811E+03  0.25500000000E-02 0. -1.
    8880023    1    1    2    0    0 -0.10115640310E+03  0.51468724648E+03 -0.10975269728E+03  0.84911214831E+03  0.65864270000E+03 0.  0.
    8880022    1    1    2    0    0  0.10115640310E+03 -0.51468724648E+03  0.34239262610E+03  0.64479449672E+03  0.15294330000E+03 0.  0.
<mgrwt>
<rscale>  0 0.75570601E+03</rscale>
<asrwt>0</asrwt>
<pdfrwt beam="1">  1        2 0.97020517E-01 0.84198918E+03</pdfrwt>
<pdfrwt beam="2">  1       -2 0.13281127E+00 0.84198918E+03</pdfrwt>
<totfact> 0.19305196E+01</totfact>
</mgrwt>
</event>
<event>
 4    2  0.3747163E-007  0.7416334E+03  0.7818608E-02  0.9855214E-01
          2   -1    0    0  501    0  0.00000000000E+00  0.00000000000E+00  0.17860451152E+04  0.17860451152E+04  0.25500000000E-02 0. -1.
         -2   -1    0    0    0  501 -0.00000000000E+00 -0.00000000000E+00 -0.35319614787E+03  0.35319614788E+03  0.25500000000E-02 0.  1.
    8880023    1    1    2    0    0 -0.25814105541E+03  0.22265007541E+03  0.15738928055E+04  0.17398731649E+04  0.65864270000E+03 0. -1.
    8880022    1    1    2    0    0  0.25814105541E+03 -0.22265007541E+03 -0.14104383812E+03  0.39936809819E+03  0.15294330000E+03 0.  0.
<mgrwt>
<rscale>  0 0.62481755E+03</rscale>
<asrwt>0</asrwt>
<pdfrwt beam="1">  1        2 0.27477617E+00 0.74163338E+03</pdfrwt>
<pdfrwt beam="2">  1       -2 0.54337869E-01 0.74163338E+03</pdfrwt>
<totfact> 0.28834270E+01</totfact>
</mgrwt>
</event>
<event>
 4    2  0.3747163E-007  0.8635311E+03  0.7818608E-02  0.9587313E-01
         -2   -1    0    0    0  501 -0.00000000000E+00  0.00000000000E+00  0.50483814441E+03  0.50483814441E+03  0.25500000000E-02 0.  1.
          2   -1    0    0  501    0  0.00000000000E+00 -0.00000000000E+00 -0.12704796157E+04  0.12704796157E+04  0.25500000000E-02 0. -1.
    8880023    1    1    2    0    0 -0.68810958348E+02  0.55420288406E+03 -0.82370820554E+03  0.11933906313E+04  0.65864270000E+03 0.  0.
    8880022    1    1    2    0    0  0.68810958348E+02 -0.55420288406E+03  0.58066734202E+02  0.58192712888E+03  0.15294330000E+03 0.  0.
<mgrwt>
<rscale>  0 0.78141621E+03</rscale>
<asrwt>0</asrwt>
<pdfrwt beam="1">  1        2 0.19545840E+00 0.86353112E+03</pdfrwt>
<pdfrwt beam="2">  1       -2 0.77667407E-01 0.86353112E+03</pdfrwt>
<totfact> 0.25619263E+01</totfact>
</mgrwt>
</event>
<event>
 4    2  0.3747163E-007  0.9672235E+03  0.7818608E-02  0.9425755E-01
          2   -1    0    0  501    0  0.00000000000E+00  0.00000000000E+00  0.19557851564E+04  0.19557851564E+04  0.25500000000E-02 0. -1.
         -2   -1    0    0    0  501 -0.00000000000E+00 -0.00000000000E+00 -0.78243777682E+03  0.78243777682E+03  0.25500000000E-02 0.  1.
    8880023    1    1    2    0    0  0.68973742535E+03 -0.16116269905E+03  0.16201535084E+04  0.18869071860E+04  0.65864270000E+03 0. -1.
    8880022    1    1    2    0    0 -0.68973742535E+03  0.16116269905E+03 -0.44680612891E+03  0.85131574715E+03  0.15294330000E+03 0.  0.
<mgrwt>
<rscale>  0 0.89986151E+03</rscale>
<asrwt>0</asrwt>
<pdfrwt beam="1">  1        2 0.30089002E+00 0.96722352E+03</pdfrwt>
<pdfrwt beam="2">  1       -2 0.12037504E+00 0.96722352E+03</pdfrwt>
<totfact> 0.37352069E+00</totfact>
</mgrwt>
</event>
<event>
 4    2  0.3747163E-007  0.8269386E+03  0.7818608E-02  0.9655319E-01
          2   -1    0    0  501    0  0.00000000000E+00  0.00000000000E+00  0.56139585612E+03  0.56139585613E+03  0.25500000000E-02 0. -1.
         -2   -1    0    0    0  501 -0.00000000000E+00 -0.00000000000E+00 -0.87735415401E+03  0.87735415401E+03  0.25500000000E-02 0.  1.
    8880023    1    1    2    0    0 -0.35575999352E+03  0.35135742333E+03 -0.38347033043E+03  0.91152449912E+03  0.65864270000E+03 0.  1.
    8880022    1    1    2    0    0  0.35575999352E+03 -0.35135742333E+03  0.67512032538E+02  0.52722551102E+03  0.15294330000E+03 0. -1.
<mgrwt>
<rscale>  0 0.73740574E+03</rscale>
<asrwt>0</asrwt>
<pdfrwt beam="1">  1        2 0.86368594E-01 0.82693858E+03</pdfrwt>
<pdfrwt beam="2">  1       -2 0.13497756E+00 0.82693858E+03</pdfrwt>
<totfact> 0.21347553E+01</totfact>
</mgrwt>
</event>
<event>
 4    2  0.3747163E-007  0.7435790E+03  0.7818608E-02  0.9849642E-01
          2   -1    0    0  501    0  0.00000000000E+00  0.00000000000E+00  0.15654833859E+04  0.15654833859E+04  0.25500000000E-02 0. -1.
         -2   -1    0    0    0  501 -0.00000000000E+00 -0.00000000000E+00 -0.22183079652E+03  0.22183079653E+03  0.25500000000E-02 0.  1.
    8880023    1    1    2    0    0 -0.25181000300E+03 -0.23598978771E+03  0.11324915524E+04  0.13547866179E+04  0.65864270000E+03 0. -1.
    8880022    1    1    2    0    0  0.25181000300E+03  0.23598978771E+03  0.21116103694E+03  0.43252756450E+03  0.15294330000E+03 0.  1.
<mgrwt>
<rscale>  0 0.62765182E+03</rscale>
<asrwt>0</asrwt>
<pdfrwt beam="1">  1        2 0.24084360E+00 0.74357896E+03</pdfrwt>
<pdfrwt beam="2">  1       -2 0.34127815E-01 0.74357896E+03</pdfrwt>
<totfact> 0.95605107E+01</totfact>
</mgrwt>
</event>
<event>
 4    2  0.3747163E-007  0.9577304E+03  0.7818608E-02  0.9439078E-01
          2   -1    0    0  501    0  0.00000000000E+00  0.00000000000E+00  0.15782638490E+04  0.15782638490E+04  0.25500000000E-02 0. -1.
         -2   -1    0    0    0  501 -0.00000000000E+00 -0.00000000000E+00 -0.70407301630E+03  0.70407301630E+03  0.25500000000E-02 0.  1.
    8880023    1    1    2    0    0 -0.46038125559E+03  0.52104359715E+03 -0.21457712012E+03  0.98147382918E+03  0.65864270000E+03 0.  1.
    8880022    1    1    2    0    0  0.46038125559E+03 -0.52104359715E+03  0.10887679528E+04  0.13008630361E+04  0.15294330000E+03 0.  0.
<mgrwt>
<rscale>  0 0.88928330E+03</rscale>
<asrwt>0</asrwt>
<pdfrwt beam="1">  1        2 0.24280982E+00 0.95773041E+03</pdfrwt>
<pdfrwt beam="2">  1       -2 0.10831893E+00 0.95773041E+03</pdfrwt>
<totfact> 0.78216044E+00</totfact>
</mgrwt>
</event>
<event>
 4    2  0.3747163E-007  0.7857610E+03  0.7818608E-02  0.9742474E-01
         -2   -1    0    0    0  501 -0.00000000000E+00  0.00000000000E+00  0.19030818776E+03  0.19030818777E+03  0.25500000000E-02 0.  1.
          2   -1    0    0  501    0  0.00000000000E+00 -0.00000000000E+00 -0.32033560220E+04  0.32033560220E+04  0.25500000000E-02 0. -1.
    8880023    1    1    2    0    0 -0.40718920064E+03  0.13344295490E+03 -0.27670302037E+04  0.28764346719E+04  0.65864270000E+03 0.  0.
    8880022    1    1    2    0    0  0.40718920064E+03 -0.13344295490E+03 -0.24601763062E+03  0.51722953794E+03  0.15294330000E+03 0.  1.
<mgrwt>
<rscale>  0 0.68543232E+03</rscale>
<asrwt>0</asrwt>
<pdfrwt beam="1">  1        2 0.49282396E+00 0.78576095E+03</pdfrwt>
<pdfrwt beam="2">  1       -2 0.29278185E-01 0.78576095E+03</pdfrwt>
<totfact> 0.14682397E+01</totfact>
</mgrwt>
</event>
<event>
 4    2  0.3864606E-007  0.1012101E+04  0.7818608E-02  0.9365894E-01
          2   -1    0    0  501    0  0.00000000000E+00  0.00000000000E+00  0.19625022821E+04  0.19625022821E+04  0.25500000000E-02 0. -1.
         -2   -1    0    0    0  501 -0.00000000000E+00 -0.00000000000E+00 -0.15611352414E+04  0.15611352414E+04  0.25500000000E-02 0.  1.
    8880023    1    1    2    0    0 -0.70578422903E+03 -0.30398465378E+03  0.17165697277E+04  0.19927267459E+04  0.65864270000E+03 0. -1.
    8880022    1    1    2    0    0  0.70578422903E+03  0.30398465378E+03 -0.13152026871E+04  0.15309107775E+04  0.15294330000E+03 0.  1.
<mgrwt>
<rscale>  0 0.94936385E+03</rscale>
<asrwt>0</asrwt>
<pdfrwt beam="1">  1        2 0.30192343E+00 0.10121009E+04</pdfrwt>
<pdfrwt beam="2">  1       -2 0.24017465E+00 0.10121009E+04</pdfrwt>
<totfact> 0.51779387E-01</totfact>
</mgrwt>
</event>
<event>
 4    2  0.3747163E-007  0.6659523E+03  0.7818608E-02  0.1018748E+00
          2   -1    0    0  501    0  0.00000000000E+00  0.00000000000E+00  0.40138078327E+03  0.40138078328E+03  0.25500000000E-02 0. -1.
         -2   -1    0    0    0  501 -0.00000000000E+00 -0.00000000000E+00 -0.46373792467E+03  0.46373792467E+03  0.25500000000E-02 0.  1.
    8880023    1    1    2    0    0  0.80231604849E+02  0.56965742738E+02  0.18228938581E+02  0.66620170123E+03  0.65864270000E+03 0.  0.
    8880022    1    1    2    0    0 -0.80231604849E+02 -0.56965742738E+02 -0.80586079973E+02  0.19891700672E+03  0.15294330000E+03 0. -1.
<mgrwt>
<rscale>  0 0.48141313E+03</rscale>
<asrwt>0</asrwt>
<pdfrwt beam="1">  1        2 0.61750890E-01 0.66595226E+03</pdfrwt>
<pdfrwt beam="2">  1       -2 0.71344296E-01 0.66595226E+03</pdfrwt>
<totfact> 0.14318747E+02</totfact>
</mgrwt>
</event>
<event>
 4    2  0.3747163E-007  0.1337844E+04  0.7818608E-02  0.9033549E-01
         -2   -1    0    0    0  501 -0.00000000000E+00  0.00000000000E+00  0.78946053538E+03  0.78946053538E+03  0.25500000000E-02 0.  1.
          2   -1    0    0  501    0  0.00000000000E+00 -0.00000000000E+00 -0.24346330685E+04  0.24346330685E+04  0.25500000000E-02 0. -1.
    8880023    1    1    2    0    0  0.78908211795E+03 -0.85636739752E+03 -0.18559715757E+03  0.13506562181E+04  0.65864270000E+03 0.  1.
    8880022    1    1    2    0    0 -0.78908211795E+03  0.85636739752E+03 -0.14595753756E+04  0.18734373858E+04  0.15294330000E+03 0.  0.
<mgrwt>
<rscale>  0 0.12949876E+04</rscale>
<asrwt>0</asrwt>
<pdfrwt beam="1">  1        2 0.37455893E+00 0.13378438E+04</pdfrwt>
<pdfrwt beam="2">  1       -2 0.12145547E+00 0.13378438E+04</pdfrwt>
<totfact> 0.18878864E+00</totfact>
</mgrwt>
</event>
<event>
 4    2  0.3747163E-007  0.7941503E+03  0.7818608E-02  0.9723590E-01
         -2   -1    0    0    0  501 -0.00000000000E+00  0.00000000000E+00  0.42192783572E+03  0.42192783573E+03  0.25500000000E-02 0.  1.
          2   -1    0    0  501    0  0.00000000000E+00 -0.00000000000E+00 -0.33069821759E+04  0.33069821759E+04  0.25500000000E-02 0. -1.
    8880023    1    1    2    0    0  0.22006234834E+03 -0.38527527689E+03 -0.31090556347E+04  0.32088785615E+04  0.65864270000E+03 0. -1.
    8880022    1    1    2    0    0 -0.22006234834E+03  0.38527527689E+03  0.22400129458E+03  0.52003145014E+03  0.15294330000E+03 0.  0.
<mgrwt>
<rscale>  0 0.69629460E+03</rscale>
<asrwt>0</asrwt>
<pdfrwt beam="1">  1        2 0.50876647E+00 0.79415029E+03</pdfrwt>
<pdfrwt beam="2">  1       -2 0.64911977E-01 0.79415029E+03</pdfrwt>
<totfact> 0.25795032E+00</totfact>
</mgrwt>
</event>
<event>
 4    2  0.3747163E-007  0.9349585E+03  0.7818608E-02  0.9472094E-01
          2   -1    0    0  501    0  0.00000000000E+00  0.00000000000E+00  0.36258612543E+04  0.36258612543E+04  0.25500000000E-02 0. -1.
         -2   -1    0    0    0  501 -0.00000000000E+00 -0.00000000000E+00 -0.25467328217E+03  0.25467328218E+03  0.25500000000E-02 0.  1.
    8880023    1    1    2    0    0  0.36390012308E+03  0.55489984089E+03  0.29140097617E+04  0.30603268176E+04  0.65864270000E+03 0. -1.
    8880022    1    1    2    0    0 -0.36390012308E+03 -0.55489984089E+03  0.45717821042E+03  0.82020771887E+03  0.15294330000E+03 0.  0.
<mgrwt>
<rscale>  0 0.86372849E+03</rscale>
<asrwt>0</asrwt>
<pdfrwt beam="1">  1        2 0.55782479E+00 0.93495847E+03</pdfrwt>
<pdfrwt beam="2">  1       -2 0.39180506E-01 0.93495847E+03</pdfrwt>
<totfact> 0.42853716E+00</totfact>
</mgrwt>
</event>
<event>
 4    2  0.3747163E-007  0.1011893E+04  0.7818608E-02  0.9366160E-01
          2   -1    0    0  501    0  0.00000000000E+00  0.00000000000E+00  0.33006914583E+04  0.33006914583E+04  0.25500000000E-02 0. -1.
         -2   -1    0    0    0  501 -0.00000000000E+00 -0.00000000000E+00 -0.35861601962E+03  0.35861601963E+03  0.25500000000E-02 0.  1.
    8880023    1    1    2    0    0 -0.39262562362E+03  0.66027521830E+03  0.26268127983E+04  0.28149731664E+04  0.65864270000E+03 0.  0.
    8880022    1    1    2    0    0  0.39262562362E+03 -0.66027521830E+03  0.31526264047E+03  0.84433431158E+03  0.15294330000E+03 0.  0.
<mgrwt>
<rscale>  0 0.94913677E+03</rscale>
<asrwt>0</asrwt>
<pdfrwt beam="1">  1        2 0.50779867E+00 0.10118935E+04</pdfrwt>
<pdfrwt beam="2">  1       -2 0.55171697E-01 0.10118935E+04</pdfrwt>
<totfact> 0.35370254E+00</totfact>
</mgrwt>
</event>
<event>
 4    2  0.3747163E-007  0.1503197E+04  0.7818608E-02  0.8907382E-01
          2   -1    0    0  501    0  0.00000000000E+00  0.00000000000E+00  0.15627408297E+04  0.15627408297E+04  0.25500000000E-02 0. -1.
         -2   -1    0    0    0  501 -0.00000000000E+00 -0.00000000000E+00 -0.19155640512E+04  0.19155640512E+04  0.25500000000E-02 0.  1.
    8880023    1    1    2    0    0 -0.12818204838E+04 -0.42746434137E+03  0.79348057194E+03  0.16997679666E+04  0.65864270000E+03 0.  0.
    8880022    1    1    2    0    0  0.12818204838E+04  0.42746434137E+03 -0.11463037934E+04  0.17785369143E+04  0.15294330000E+03 0.  0.
<mgrwt>
<rscale>  0 0.14660009E+04</rscale>
<asrwt>0</asrwt>
<pdfrwt beam="1">  1        2 0.24042167E+00 0.15031965E+04</pdfrwt>
<pdfrwt beam="2">  1       -2 0.29470216E+00 0.15031965E+04</pdfrwt>
<totfact> 0.37665445E-01</totfact>
</mgrwt>
</event>
<event>
 4    2  0.3747163E-007  0.9761977E+03  0.7818608E-02  0.9413383E-01
          2   -1    0    0  501    0  0.00000000000E+00  0.00000000000E+00  0.60292274548E+03  0.60292274548E+03  0.25500000000E-02 0. -1.
         -2   -1    0    0    0  501 -0.00000000000E+00 -0.00000000000E+00 -0.16132990698E+04  0.16132990698E+04  0.25500000000E-02 0.  1.
    8880023    1    1    2    0    0  0.63692087672E+03  0.33687320118E+03 -0.11040282817E+04  0.14737165297E+04  0.65864270000E+03 0.  0.
    8880022    1    1    2    0    0 -0.63692087672E+03 -0.33687320118E+03  0.93651957444E+02  0.74250528552E+03  0.15294330000E+03 0.  0.
<mgrwt>
<rscale>  0 0.90982455E+03</rscale>
<asrwt>0</asrwt>
<pdfrwt beam="1">  1        2 0.92757346E-01 0.97619771E+03</pdfrwt>
<pdfrwt beam="2">  1       -2 0.24819986E+00 0.97619771E+03</pdfrwt>
<totfact> 0.32545617E+00</totfact>
</mgrwt>
</event>
<event>
 4    2  0.3747163E-007  0.9676935E+03  0.7818608E-02  0.9425101E-01
         -2   -1    0    0    0  501 -0.00000000000E+00  0.00000000000E+00  0.84103921599E+03  0.84103921600E+03  0.25500000000E-02 0.  1.
          2   -1    0    0  501    0  0.00000000000E+00 -0.00000000000E+00 -0.92719041497E+03  0.92719041497E+03  0.25500000000E-02 0. -1.
    8880023    1    1    2    0    0  0.11930653178E+02 -0.70885700210E+03 -0.29820313789E+03  0.10125985916E+04  0.65864270000E+03 0. -1.
    8880022    1    1    2    0    0 -0.11930653178E+02  0.70885700210E+03  0.21205193892E+03  0.75563103941E+03  0.15294330000E+03 0.  0.
<mgrwt>
<rscale>  0 0.90038420E+03</rscale>
<asrwt>0</asrwt>
<pdfrwt beam="1">  1        2 0.14264468E+00 0.96769354E+03</pdfrwt>
<pdfrwt beam="2">  1       -2 0.12939065E+00 0.96769354E+03</pdfrwt>
<totfact> 0.12293120E+01</totfact>
</mgrwt>
</event>
<event>
 4    2  0.3747163E-007  0.6792660E+03  0.7818608E-02  0.1009742E+00
         -2   -1    0    0    0  501 -0.00000000000E+00  0.00000000000E+00  0.91822609899E+02  0.91822609935E+02  0.25500000000E-02 0.  1.
          2   -1    0    0  501    0  0.00000000000E+00 -0.00000000000E+00 -0.38810160885E+04  0.38810160885E+04  0.25500000000E-02 0. -1.
    8880023    1    1    2    0    0  0.12102787639E+03  0.11377347488E+03 -0.12416482352E+04  0.14153065734E+04  0.65864270000E+03 0.  1.
    8880022    1    1    2    0    0 -0.12102787639E+03 -0.11377347488E+03 -0.25475452434E+04  0.25575321250E+04  0.15294330000E+03 0.  0.
<mgrwt>
<rscale>  0 0.51577342E+03</rscale>
<asrwt>0</asrwt>
<pdfrwt beam="1">  1        2 0.59707927E+00 0.67926604E+03</pdfrwt>
<pdfrwt beam="2">  1       -2 0.14126558E-01 0.67926604E+03</pdfrwt>
<totfact> 0.18303355E+01</totfact>
</mgrwt>
</event>
<event>
 4    2  0.3747163E-007  0.8180763E+03  0.7818608E-02  0.9672993E-01
          2   -1    0    0  501    0  0.00000000000E+00  0.00000000000E+00  0.30996662979E+04  0.30996662979E+04  0.25500000000E-02 0. -1.
         -2   -1    0    0    0  501 -0.00000000000E+00 -0.00000000000E+00 -0.35201342747E+03  0.35201342748E+03  0.25500000000E-02 0.  1.
    8880023    1    1    2    0    0 -0.48336622815E+03 -0.42376608941E+02  0.28213997296E+04  0.29376087772E+04  0.65864270000E+03 0. -1.
    8880022    1    1    2    0    0  0.48336622815E+03  0.42376608941E+02 -0.73746859173E+02  0.51407094817E+03  0.15294330000E+03 0.  0.
<mgrwt>
<rscale>  0 0.72647767E+03</rscale>
<asrwt>0</asrwt>
<pdfrwt beam="1">  1        2 0.47687175E+00 0.81807634E+03</pdfrwt>
<pdfrwt beam="2">  1       -2 0.54155910E-01 0.81807634E+03</pdfrwt>
<totfact> 0.51037653E+00</totfact>
</mgrwt>
</event>
<event>
 4    2  0.3747163E-007  0.7974595E+03  0.7818608E-02  0.9716316E-01
          2   -1    0    0  501    0  0.00000000000E+00  0.00000000000E+00  0.25820857031E+03  0.25820857032E+03  0.25500000000E-02 0. -1.
         -2   -1    0    0    0  501 -0.00000000000E+00 -0.00000000000E+00 -0.17283832459E+04  0.17283832460E+04  0.25500000000E-02 0.  1.
    8880023    1    1    2    0    0 -0.15988393353E+03  0.42020055019E+03 -0.60992755318E+03  0.10039687251E+04  0.65864270000E+03 0. -1.
    8880022    1    1    2    0    0  0.15988393353E+03 -0.42020055019E+03 -0.86024712246E+03  0.98262309117E+03  0.15294330000E+03 0. -1.
<mgrwt>
<rscale>  0 0.70053578E+03</rscale>
<asrwt>0</asrwt>
<pdfrwt beam="1">  1        2 0.39724396E-01 0.79745945E+03</pdfrwt>
<pdfrwt beam="2">  1       -2 0.26590511E+00 0.79745945E+03</pdfrwt>
<totfact> 0.68307847E+00</totfact>
</mgrwt>
</event>
<event>
 4    2  0.3747163E-007  0.7706786E+03  0.7818608E-02  0.9778207E-01
         -2   -1    0    0    0  501 -0.00000000000E+00  0.00000000000E+00  0.47581144196E+03  0.47581144197E+03  0.25500000000E-02 0.  1.
          2   -1    0    0  501    0  0.00000000000E+00 -0.00000000000E+00 -0.11681465930E+04  0.11681465930E+04  0.25500000000E-02 0. -1.
    8880023    1    1    2    0    0  0.32883180938E+03  0.22804602541E+03 -0.88559954260E+03  0.11739813051E+04  0.65864270000E+03 0.  0.
    8880022    1    1    2    0    0 -0.32883180938E+03 -0.22804602541E+03  0.19326439157E+03  0.46997672988E+03  0.15294330000E+03 0.  0.
<mgrwt>
<rscale>  0 0.66545315E+03</rscale>
<asrwt>0</asrwt>
<pdfrwt beam="1">  1        2 0.17971486E+00 0.77067863E+03</pdfrwt>
<pdfrwt beam="2">  1       -2 0.73201761E-01 0.77067863E+03</pdfrwt>
<totfact> 0.33886479E+01</totfact>
</mgrwt>
</event>
<event>
 4    2  0.3747163E-007  0.6630223E+03  0.7818608E-02  0.1021254E+00
          2   -1    0    0  501    0  0.00000000000E+00  0.00000000000E+00  0.18383256824E+03  0.18383256825E+03  0.25500000000E-02 0. -1.
         -2   -1    0    0    0  501 -0.00000000000E+00 -0.00000000000E+00 -0.10392281662E+04  0.10392281662E+04  0.25500000000E-02 0.  1.
    8880023    1    1    2    0    0 -0.75119637111E+02 -0.12058547372E+02 -0.50567281248E+03  0.83384864813E+03  0.65864270000E+03 0. -1.
    8880022    1    1    2    0    0  0.75119637111E+02  0.12058547372E+02 -0.34972278550E+03  0.38921208634E+03  0.15294330000E+03 0.  0.
<mgrwt>
<rscale>  0 0.47236945E+03</rscale>
<asrwt>0</asrwt>
<pdfrwt beam="1">  1        2 0.28281934E-01 0.66302230E+03</pdfrwt>
<pdfrwt beam="2">  1       -2 0.15988125E+00 0.66302230E+03</pdfrwt>
<totfact> 0.48833366E+01</totfact>
</mgrwt>
</event>
<event>
 4    2  0.3747163E-007  0.1026300E+04  0.7818608E-02  0.9347930E-01
         -2   -1    0    0    0  501 -0.00000000000E+00  0.00000000000E+00  0.84663834480E+03  0.84663834481E+03  0.25500000000E-02 0.  1.
          2   -1    0    0  501    0  0.00000000000E+00 -0.00000000000E+00 -0.11871872453E+04  0.11871872453E+04  0.25500000000E-02 0. -1.
    8880023    1    1    2    0    0  0.66889556684E+02 -0.78422441114E+03 -0.60279641974E+03  0.11902335358E+04  0.65864270000E+03 0. -1.
    8880022    1    1    2    0    0 -0.66889556684E+02  0.78422441114E+03  0.26224751921E+03  0.84359205435E+03  0.15294330000E+03 0.  0.
<mgrwt>
<rscale>  0 0.96487613E+03</rscale>
<asrwt>0</asrwt>
<pdfrwt beam="1">  1        2 0.18264419E+00 0.10263003E+04</pdfrwt>
<pdfrwt beam="2">  1       -2 0.13025205E+00 0.10263003E+04</pdfrwt>
<totfact> 0.82452235E+00</totfact>
</mgrwt>
</event>
<event>
 4    2  0.3747163E-007  0.8461815E+03  0.7818608E-02  0.9618633E-01
         -2   -1    0    0    0  501 -0.00000000000E+00  0.00000000000E+00  0.27754492648E+03  0.27754492650E+03  0.25500000000E-02 0.  1.
          2   -1    0    0  501    0  0.00000000000E+00 -0.00000000000E+00 -0.20017322556E+04  0.20017322556E+04  0.25500000000E-02 0. -1.
    8880023    1    1    2    0    0  0.25710785480E+03  0.46487474520E+03 -0.14072197364E+04  0.16420385411E+04  0.65864270000E+03 0. -1.
    8880022    1    1    2    0    0 -0.25710785480E+03 -0.46487474520E+03 -0.31696759273E+03  0.63723864099E+03  0.15294330000E+03 0.  0.
<mgrwt>
<rscale>  0 0.76075120E+03</rscale>
<asrwt>0</asrwt>
<pdfrwt beam="1">  1        2 0.30795880E+00 0.84618153E+03</pdfrwt>
<pdfrwt beam="2">  1       -2 0.42699221E-01 0.84618153E+03</pdfrwt>
<totfact> 0.35355699E+01</totfact>
</mgrwt>
</event>
<event>
 4    2  0.3747163E-007  0.6834447E+03  0.7818608E-02  0.1007439E+00
         -2   -1    0    0    0  501 -0.00000000000E+00  0.00000000000E+00  0.33247821833E+03  0.33247821834E+03  0.25500000000E-02 0.  1.
          2   -1    0    0  501    0  0.00000000000E+00 -0.00000000000E+00 -0.26411880227E+04  0.26411880227E+04  0.25500000000E-02 0. -1.
    8880023    1    1    2    0    0  0.17346675213E+03 -0.56530813755E+02 -0.25468361030E+04  0.26369434558E+04  0.65864270000E+03 0. -1.
    8880022    1    1    2    0    0 -0.17346675213E+03  0.56530813755E+02  0.23812629865E+03  0.33672278528E+03  0.15294330000E+03 0.  0.
<mgrwt>
<rscale>  0 0.52505457E+03</rscale>
<asrwt>0</asrwt>
<pdfrwt beam="1">  1        2 0.40633661E+00 0.68344470E+03</pdfrwt>
<pdfrwt beam="2">  1       -2 0.51150497E-01 0.68344470E+03</pdfrwt>
<totfact> 0.11067246E+01</totfact>
</mgrwt>
</event>
<event>
 4    2  0.3747163E-007  0.7402161E+03  0.7818608E-02  0.9859318E-01
          2   -1    0    0  501    0  0.00000000000E+00  0.00000000000E+00  0.96429462597E+03  0.96429462597E+03  0.25500000000E-02 0. -1.
         -2   -1    0    0    0  501 -0.00000000000E+00 -0.00000000000E+00 -0.60220342984E+03  0.60220342985E+03  0.25500000000E-02 0.  1.
    8880023    1    1    2    0    0  0.27455965271E+03 -0.19679100577E+03  0.73320468632E+03  0.10418776421E+04  0.65864270000E+03 0.  0.
    8880022    1    1    2    0    0 -0.27455965271E+03  0.19679100577E+03 -0.37111349019E+03  0.52462041370E+03  0.15294330000E+03 0.  0.
<mgrwt>
<rscale>  0 0.62274074E+03</rscale>
<asrwt>0</asrwt>
<pdfrwt beam="1">  1        2 0.14835302E+00 0.74021612E+03</pdfrwt>
<pdfrwt beam="2">  1       -2 0.92646683E-01 0.74021612E+03</pdfrwt>
<totfact> 0.26696305E+01</totfact>
</mgrwt>
</event>
<event>
 4    2  0.3747163E-007  0.7745082E+03  0.7818608E-02  0.9768899E-01
          2   -1    0    0  501    0  0.00000000000E+00  0.00000000000E+00  0.53553891216E+03  0.53553891217E+03  0.25500000000E-02 0. -1.
         -2   -1    0    0    0  501 -0.00000000000E+00 -0.00000000000E+00 -0.72223549517E+03  0.72223549517E+03  0.25500000000E-02 0.  1.
    8880023    1    1    2    0    0  0.62515513133E+02 -0.40267172670E+03 -0.25877405054E+03  0.81659471243E+03  0.65864270000E+03 0.  1.
    8880022    1    1    2    0    0 -0.62515513133E+02  0.40267172670E+03  0.72077467534E+02  0.44117969492E+03  0.15294330000E+03 0. -1.
<mgrwt>
<rscale>  0 0.67058636E+03</rscale>
<asrwt>0</asrwt>
<pdfrwt beam="1">  1        2 0.82390602E-01 0.77450818E+03</pdfrwt>
<pdfrwt beam="2">  1       -2 0.11111315E+00 0.77450818E+03</pdfrwt>
<totfact> 0.36807207E+01</totfact>
</mgrwt>
</event>
<event>
 4    2  0.3747163E-007  0.7947319E+03  0.7818608E-02  0.9722305E-01
          2   -1    0    0  501    0  0.00000000000E+00  0.00000000000E+00  0.11993404466E+04  0.11993404466E+04  0.25500000000E-02 0. -1.
         -2   -1    0    0    0  501 -0.00000000000E+00 -0.00000000000E+00 -0.33384808273E+03  0.33384808274E+03  0.25500000000E-02 0.  1.
    8880023    1    1    2    0    0  0.26984960438E+03  0.35351053689E+03  0.52261412846E+03  0.95116993340E+03  0.65864270000E+03 0.  0.
    8880022    1    1    2    0    0 -0.26984960438E+03 -0.35351053689E+03  0.34287823539E+03  0.58201859592E+03  0.15294330000E+03 0.  1.
<mgrwt>
<rscale>  0 0.69704166E+03</rscale>
<asrwt>0</asrwt>
<pdfrwt beam="1">  1        2 0.18451391E+00 0.79473185E+03</pdfrwt>
<pdfrwt beam="2">  1       -2 0.51361244E-01 0.79473185E+03</pdfrwt>
<totfact> 0.68772619E+01</totfact>
</mgrwt>
</event>
<event>
 4    2  0.3747163E-007  0.6921831E+03  0.7818608E-02  0.1003132E+00
         -2   -1    0    0    0  501 -0.00000000000E+00  0.00000000000E+00  0.16243248647E+04  0.16243248647E+04  0.25500000000E-02 0.  1.
          2   -1    0    0  501    0  0.00000000000E+00 -0.00000000000E+00 -0.45697805909E+03  0.45697805910E+03  0.25500000000E-02 0. -1.
    8880023    1    1    2    0    0  0.57121427632E+02  0.20504724911E+03 -0.17470962615E+03  0.71389137240E+03  0.65864270000E+03 0. -1.
    8880022    1    1    2    0    0 -0.57121427632E+02 -0.20504724911E+03  0.13420564317E+04  0.13674115513E+04  0.15294330000E+03 0.  0.
<mgrwt>
<rscale>  0 0.54298077E+03</rscale>
<asrwt>0</asrwt>
<pdfrwt beam="1">  1        2 0.70304317E-01 0.69218310E+03</pdfrwt>
<pdfrwt beam="2">  1       -2 0.24989613E+00 0.69218310E+03</pdfrwt>
<totfact> 0.45598265E+00</totfact>
</mgrwt>
</event>
<event>
 4    2  0.3747163E-007  0.8104854E+03  0.7818608E-02  0.9688567E-01
         -2   -1    0    0    0  501 -0.00000000000E+00  0.00000000000E+00  0.74870068392E+03  0.74870068393E+03  0.25500000000E-02 0.  1.
          2   -1    0    0  501    0  0.00000000000E+00 -0.00000000000E+00 -0.79151529098E+03  0.79151529099E+03  0.25500000000E-02 0. -1.
    8880023    1    1    2    0    0 -0.39686667882E+03  0.25607252208E+03 -0.42363427682E+03  0.91452310200E+03  0.65864270000E+03 0.  0.
    8880022    1    1    2    0    0  0.39686667882E+03 -0.25607252208E+03  0.38081966976E+03  0.62569287292E+03  0.15294330000E+03 0.  0.
<mgrwt>
<rscale>  0 0.71701614E+03</rscale>
<asrwt>0</asrwt>
<pdfrwt beam="1">  1        2 0.12177158E+00 0.81048535E+03</pdfrwt>
<pdfrwt beam="2">  1       -2 0.11518472E+00 0.81048535E+03</pdfrwt>
<totfact> 0.20701393E+01</totfact>
</mgrwt>
</event>
<event>
 4    2  0.3747163E-007  0.6974226E+03  0.7818608E-02  0.1000807E+00
         -2   -1    0    0    0  501 -0.00000000000E+00  0.00000000000E+00  0.89172706734E+02  0.89172706770E+02  0.25500000000E-02 0.  1.
          2   -1    0    0  501    0  0.00000000000E+00 -0.00000000000E+00 -0.27955653421E+04  0.27955653421E+04  0.25500000000E-02 0. -1.
    8880023    1    1    2    0    0  0.14091930411E+03 -0.18091381303E+03 -0.22037758714E+04  0.23114987249E+04  0.65864270000E+03 0.  0.
    8880022    1    1    2    0    0 -0.14091930411E+03  0.18091381303E+03 -0.50261676405E+03  0.57323932396E+03  0.15294330000E+03 0. -1.
<mgrwt>
<rscale>  0 0.55297973E+03</rscale>
<asrwt>0</asrwt>
<pdfrwt beam="1">  1        2 0.43008691E+00 0.69742259E+03</pdfrwt>
<pdfrwt beam="2">  1       -2 0.13718880E-01 0.69742259E+03</pdfrwt>
<totfact> 0.99939132E+01</totfact>
</mgrwt>
</event>
<event>
 4    2  0.3747163E-007  0.6818846E+03  0.7818608E-02  0.1008277E+00
         -2   -1    0    0    0  501 -0.00000000000E+00  0.00000000000E+00  0.10215248457E+04  0.10215248457E+04  0.25500000000E-02 0.  1.
          2   -1    0    0  501    0  0.00000000000E+00 -0.00000000000E+00 -0.46439023239E+03  0.46439023240E+03  0.25500000000E-02 0. -1.
    8880023    1    1    2    0    0 -0.30436120794E+02 -0.17386771666E+03 -0.18611986359E+03  0.70682893986E+03  0.65864270000E+03 0. -1.
    8880022    1    1    2    0    0  0.30436120794E+02  0.17386771666E+03  0.74325447688E+03  0.77908613822E+03  0.15294330000E+03 0.  0.
<mgrwt>
<rscale>  0 0.52165153E+03</rscale>
<asrwt>0</asrwt>
<pdfrwt beam="1">  1        2 0.71444651E-01 0.68188456E+03</pdfrwt>
<pdfrwt beam="2">  1       -2 0.15715767E+00 0.68188456E+03</pdfrwt>
<totfact> 0.18101261E+01</totfact>
</mgrwt>
</event>
<event>
 4    2  0.3747163E-007  0.8659048E+03  0.7818608E-02  0.9583145E-01
          2   -1    0    0  501    0  0.00000000000E+00  0.00000000000E+00  0.11435654188E+04  0.11435654188E+04  0.25500000000E-02 0. -1.
         -2   -1    0    0    0  501 -0.00000000000E+00 -0.00000000000E+00 -0.10782151374E+04  0.10782151374E+04  0.25500000000E-02 0.  1.
    8880023    1    1    2    0    0 -0.11623815923E+03 -0.54997243993E+03  0.87060036742E+03  0.12278991002E+04  0.65864270000E+03 0. -1.
    8880022    1    1    2    0    0  0.11623815923E+03  0.54997243993E+03 -0.80525008607E+03  0.99388145595E+03  0.15294330000E+03 0.  0.
<mgrwt>
<rscale>  0 0.78421877E+03</rscale>
<asrwt>0</asrwt>
<pdfrwt beam="1">  1        2 0.17593314E+00 0.86590485E+03</pdfrwt>
<pdfrwt beam="2">  1       -2 0.16587925E+00 0.86590485E+03</pdfrwt>
<totfact> 0.47033296E+00</totfact>
</mgrwt>
</event>
<event>
 4    2  0.3747163E-007  0.7536423E+03  0.7818608E-02  0.9821854E-01
          2   -1    0    0  501    0  0.00000000000E+00  0.00000000000E+00  0.49812667393E+03  0.49812667394E+03  0.25500000000E-02 0. -1.
         -2   -1    0    0    0  501 -0.00000000000E+00 -0.00000000000E+00 -0.11487066967E+04  0.11487066967E+04  0.25500000000E-02 0.  1.
    8880023    1    1    2    0    0 -0.35635074514E+03 -0.84738643866E+02  0.13596129206E+03  0.76580818129E+03  0.65864270000E+03 0. -1.
    8880022    1    1    2    0    0  0.35635074514E+03  0.84738643866E+02 -0.78654131486E+03  0.88102518938E+03  0.15294330000E+03 0.  0.
<mgrwt>
<rscale>  0 0.64202812E+03</rscale>
<asrwt>0</asrwt>
<pdfrwt beam="1">  1        2 0.76634874E-01 0.75364229E+03</pdfrwt>
<pdfrwt beam="2">  1       -2 0.17672411E+00 0.75364229E+03</pdfrwt>
<totfact> 0.12005495E+01</totfact>
</mgrwt>
</event>
<event>
 4    2  0.3747163E-007  0.9155656E+03  0.7818608E-02  0.9501492E-01
         -2   -1    0    0    0  501 -0.00000000000E+00  0.00000000000E+00  0.36857051740E+03  0.36857051741E+03  0.25500000000E-02 0.  1.
          2   -1    0    0  501    0  0.00000000000E+00 -0.00000000000E+00 -0.20017541525E+04  0.20017541525E+04  0.25500000000E-02 0. -1.
    8880023    1    1    2    0    0 -0.34263957603E+03 -0.53576890366E+03 -0.14061439507E+04  0.16779455335E+04  0.65864270000E+03 0.  0.
    8880022    1    1    2    0    0  0.34263957603E+03  0.53576890366E+03 -0.22703968442E+03  0.69237913639E+03  0.15294330000E+03 0.  0.
<mgrwt>
<rscale>  0 0.84173913E+03</rscale>
<asrwt>0</asrwt>
<pdfrwt beam="1">  1        2 0.30796217E+00 0.91556562E+03</pdfrwt>
<pdfrwt beam="2">  1       -2 0.56703158E-01 0.91556562E+03</pdfrwt>
<totfact> 0.19698628E+01</totfact>
</mgrwt>
</event>
<event>
 4    2  0.3747163E-007  0.7432699E+03  0.7818608E-02  0.9850522E-01
          2   -1    0    0  501    0  0.00000000000E+00  0.00000000000E+00  0.13502509934E+04  0.13502509934E+04  0.25500000000E-02 0. -1.
         -2   -1    0    0    0  501 -0.00000000000E+00 -0.00000000000E+00 -0.43390483092E+03  0.43390483093E+03  0.25500000000E-02 0.  1.
    8880023    1    1    2    0    0  0.21747949766E+03 -0.26710040849E+03  0.11287955140E+04  0.13515285712E+04  0.65864270000E+03 0. -1.
    8880022    1    1    2    0    0 -0.21747949766E+03  0.26710040849E+03 -0.21244935156E+03  0.43262725309E+03  0.15294330000E+03 0.  0.
<mgrwt>
<rscale>  0 0.62720288E+03</rscale>
<asrwt>0</asrwt>
<pdfrwt beam="1">  1        2 0.20773092E+00 0.74326991E+03</pdfrwt>
<pdfrwt beam="2">  1       -2 0.66754590E-01 0.74326991E+03</pdfrwt>
<totfact> 0.32542708E+01</totfact>
</mgrwt>
</event>
<event>
 4    2  0.3747163E-007  0.7621240E+03  0.7818608E-02  0.9799639E-01
         -2   -1    0    0    0  501 -0.00000000000E+00  0.00000000000E+00  0.60355667184E+03  0.60355667184E+03  0.25500000000E-02 0.  1.
          2   -1    0    0  501    0  0.00000000000E+00 -0.00000000000E+00 -0.21394486690E+04  0.21394486690E+04  0.25500000000E-02 0. -1.
    8880023    1    1    2    0    0 -0.29931038458E+02 -0.38226556948E+03 -0.19890188431E+04  0.21300302808E+04  0.65864270000E+03 0. -1.
    8880022    1    1    2    0    0  0.29931038458E+02  0.38226556948E+03  0.45312684595E+03  0.61297506002E+03  0.15294330000E+03 0.  0.
<mgrwt>
<rscale>  0 0.65381903E+03</rscale>
<asrwt>0</asrwt>
<pdfrwt beam="1">  1        2 0.32914595E+00 0.76212403E+03</pdfrwt>
<pdfrwt beam="2">  1       -2 0.92854873E-01 0.76212403E+03</pdfrwt>
<totfact> 0.56951507E+00</totfact>
</mgrwt>
</event>
<event>
 4    2  0.3747163E-007  0.8111621E+03  0.7818608E-02  0.9687161E-01
          2   -1    0    0  501    0  0.00000000000E+00  0.00000000000E+00  0.61246532689E+03  0.61246532690E+03  0.25500000000E-02 0. -1.
         -2   -1    0    0    0  501 -0.00000000000E+00 -0.00000000000E+00 -0.11361426335E+04  0.11361426335E+04  0.25500000000E-02 0.  1.
    8880023    1    1    2    0    0  0.36114319733E+03 -0.30618505341E+03  0.23213350256E+03  0.84372380859E+03  0.65864270000E+03 0.  0.
    8880022    1    1    2    0    0 -0.36114319733E+03  0.30618505341E+03 -0.75581080914E+03  0.90488415178E+03  0.15294330000E+03 0.  0.
<mgrwt>
<rscale>  0 0.71786364E+03</rscale>
<asrwt>0</asrwt>
<pdfrwt beam="1">  1        2 0.94225435E-01 0.81116207E+03</pdfrwt>
<pdfrwt beam="2">  1       -2 0.17479117E+00 0.81116207E+03</pdfrwt>
<totfact> 0.96348956E+00</totfact>
</mgrwt>
</event>
<event>
 4    2  0.3747163E-007  0.7705268E+03  0.7818608E-02  0.9778579E-01
         -2   -1    0    0    0  501 -0.00000000000E+00  0.00000000000E+00  0.40820522343E+03  0.40820522344E+03  0.25500000000E-02 0.  1.
          2   -1    0    0  501    0  0.00000000000E+00 -0.00000000000E+00 -0.17149780396E+04  0.17149780396E+04  0.25500000000E-02 0. -1.
    8880023    1    1    2    0    0 -0.45444395340E+02  0.39728600430E+03 -0.14742472344E+04  0.16634652015E+04  0.65864270000E+03 0. -1.
    8880022    1    1    2    0    0  0.45444395340E+02 -0.39728600430E+03  0.16747441825E+03  0.45971806150E+03  0.15294330000E+03 0.  0.
<mgrwt>
<rscale>  0 0.66524873E+03</rscale>
<asrwt>0</asrwt>
<pdfrwt beam="1">  1        2 0.26384277E+00 0.77052681E+03</pdfrwt>
<pdfrwt beam="2">  1       -2 0.62800804E-01 0.77052681E+03</pdfrwt>
<totfact> 0.23179827E+01</totfact>
</mgrwt>
</event>
<event>
 4    2  0.3747163E-007  0.7031384E+03  0.7818608E-02  0.9984423E-01
         -2   -1    0    0    0  501 -0.00000000000E+00  0.00000000000E+00  0.34879159396E+03  0.34879159397E+03  0.25500000000E-02 0.  1.
          2   -1    0    0  501    0  0.00000000000E+00 -0.00000000000E+00 -0.10723866879E+04  0.10723866879E+04  0.25500000000E-02 0. -1.
    8880023    1    1    2    0    0 -0.64596081014E+02 -0.23753060316E+03 -0.85159880972E+03  0.11043659629E+04  0.65864270000E+03 0.  0.
    8880022    1    1    2    0    0  0.64596081014E+02  0.23753060316E+03  0.12800371582E+03  0.31681231889E+03  0.15294330000E+03 0.  0.
<mgrwt>
<rscale>  0 0.56338581E+03</rscale>
<asrwt>0</asrwt>
<pdfrwt beam="1">  1        2 0.16498257E+00 0.70313843E+03</pdfrwt>
<pdfrwt beam="2">  1       -2 0.53660246E-01 0.70313843E+03</pdfrwt>
<totfact> 0.75584601E+01</totfact>
</mgrwt>
</event>
<event>
 4    2  0.3747163E-007  0.8008172E+03  0.7818608E-02  0.9709032E-01
         -2   -1    0    0    0  501 -0.00000000000E+00  0.00000000000E+00  0.41363306406E+03  0.41363306407E+03  0.25500000000E-02 0.  1.
          2   -1    0    0  501    0  0.00000000000E+00 -0.00000000000E+00 -0.34257825863E+04  0.34257825863E+04  0.25500000000E-02 0. -1.
    8880023    1    1    2    0    0 -0.12579457218E+03 -0.43780557567E+03 -0.32183824103E+04  0.33165182860E+04  0.65864270000E+03 0. -1.
    8880022    1    1    2    0    0  0.12579457218E+03  0.43780557567E+03  0.20623288806E+03  0.52289736432E+03  0.15294330000E+03 0.  0.
<mgrwt>
<rscale>  0 0.70481576E+03</rscale>
<asrwt>0</asrwt>
<pdfrwt beam="1">  1        2 0.52704346E+00 0.80081721E+03</pdfrwt>
<pdfrwt beam="2">  1       -2 0.63635858E-01 0.80081721E+03</pdfrwt>
<totfact> 0.22430082E+00</totfact>
</mgrwt>
</event>
<event>
 4    2  0.3747163E-007  0.8102803E+03  0.7818608E-02  0.9688993E-01
          2   -1    0    0  501    0  0.00000000000E+00  0.00000000000E+00  0.24372224136E+04  0.24372224136E+04  0.25500000000E-02 0. -1.
         -2   -1    0    0    0  501 -0.00000000000E+00 -0.00000000000E+00 -0.37343041774E+03  0.37343041775E+03  0.25500000000E-02 0.  1.
    8880023    1    1    2    0    0  0.11279286739E+03 -0.45828130174E+03  0.21584984986E+04  0.23055736720E+04  0.65864270000E+03 0.  0.
    8880022    1    1    2    0    0 -0.11279286739E+03  0.45828130174E+03 -0.94706502772E+02  0.50507915928E+03  0.15294330000E+03 0.  0.
<mgrwt>
<rscale>  0 0.71675920E+03</rscale>
<asrwt>0</asrwt>
<pdfrwt beam="1">  1        2 0.37495731E+00 0.81028031E+03</pdfrwt>
<pdfrwt beam="2">  1       -2 0.57450832E-01 0.81028031E+03</pdfrwt>
<totfact> 0.11135013E+01</totfact>
</mgrwt>
</event>
<event>
 4    2  0.3747163E-007  0.7260115E+03  0.7818608E-02  0.9902746E-01
          2   -1    0    0  501    0  0.00000000000E+00  0.00000000000E+00  0.85674014343E+03  0.85674014343E+03  0.25500000000E-02 0. -1.
         -2   -1    0    0    0  501 -0.00000000000E+00 -0.00000000000E+00 -0.94934852406E+03  0.94934852406E+03  0.25500000000E-02 0.  1.
    8880023    1    1    2    0    0 -0.17341842537E+02  0.30492909521E+03  0.65900492177E+03  0.98049996725E+03  0.65864270000E+03 0. -1.
    8880022    1    1    2    0    0  0.17341842537E+02 -0.30492909521E+03 -0.75161330240E+03  0.82558870024E+03  0.15294330000E+03 0.  0.
<mgrwt>
<rscale>  0 0.60128373E+03</rscale>
<asrwt>0</asrwt>
<pdfrwt beam="1">  1        2 0.13180618E+00 0.72601150E+03</pdfrwt>
<pdfrwt beam="2">  1       -2 0.14605362E+00 0.72601150E+03</pdfrwt>
<totfact> 0.10289064E+01</totfact>
</mgrwt>
</event>
<event>
 4    2  0.3747163E-007  0.8869360E+03  0.7818608E-02  0.9547338E-01
         -2   -1    0    0    0  501 -0.00000000000E+00  0.00000000000E+00  0.52958472647E+03  0.52958472647E+03  0.25500000000E-02 0.  1.
          2   -1    0    0  501    0  0.00000000000E+00 -0.00000000000E+00 -0.14834037552E+04  0.14834037552E+04  0.25500000000E-02 0. -1.
    8880023    1    1    2    0    0 -0.30411926373E+03 -0.51025157133E+03 -0.10688448495E+04  0.13889149402E+04  0.65864270000E+03 0.  0.
    8880022    1    1    2    0    0  0.30411926373E+03  0.51025157133E+03  0.11502582081E+03  0.62407354141E+03  0.15294330000E+03 0.  0.
<mgrwt>
<rscale>  0 0.80881997E+03</rscale>
<asrwt>0</asrwt>
<pdfrwt beam="1">  1        2 0.22821596E+00 0.88693596E+03</pdfrwt>
<pdfrwt beam="2">  1       -2 0.81474574E-01 0.88693596E+03</pdfrwt>
<totfact> 0.17343935E+01</totfact>
</mgrwt>
</event>
<event>
 4    2  0.3747163E-007  0.6638595E+03  0.7818608E-02  0.1020510E+00
         -2   -1    0    0    0  501 -0.00000000000E+00  0.00000000000E+00  0.23371108200E+04  0.23371108200E+04  0.25500000000E-02 0.  1.
          2   -1    0    0  501    0  0.00000000000E+00 -0.00000000000E+00 -0.65747020791E+03  0.65747020791E+03  0.25500000000E-02 0. -1.
    8880023    1    1    2    0    0 -0.74412893497E+02  0.36905353675E+02 -0.48550575112E+03  0.82245080368E+03  0.65864270000E+03 0. -1.
    8880022    1    1    2    0    0  0.74412893497E+02 -0.36905353675E+02  0.21651463632E+04  0.21721302242E+04  0.15294330000E+03 0.  0.
<mgrwt>
<rscale>  0 0.47503022E+03</rscale>
<asrwt>0</asrwt>
<pdfrwt beam="1">  1        2 0.10114926E+00 0.66385954E+03</pdfrwt>
<pdfrwt beam="2">  1       -2 0.35955551E+00 0.66385954E+03</pdfrwt>
<totfact> 0.64600887E-01</totfact>
</mgrwt>
</event>
<event>
 4    2  0.3747163E-007  0.6709450E+03  0.7818608E-02  0.1014994E+00
         -2   -1    0    0    0  501 -0.00000000000E+00  0.00000000000E+00  0.44338921206E+03  0.44338921207E+03  0.25500000000E-02 0.  1.
          2   -1    0    0  501    0  0.00000000000E+00 -0.00000000000E+00 -0.55794759250E+03  0.55794759250E+03  0.25500000000E-02 0. -1.
    8880023    1    1    2    0    0 -0.16274387812E+00  0.12789408925E+03 -0.29453566664E+03  0.73274715266E+03  0.65864270000E+03 0. -1.
    8880022    1    1    2    0    0  0.16274387812E+00 -0.12789408925E+03  0.17997728620E+03  0.26858965191E+03  0.15294330000E+03 0.  0.
<mgrwt>
<rscale>  0 0.49537076E+03</rscale>
<asrwt>0</asrwt>
<pdfrwt beam="1">  1        2 0.85838091E-01 0.67094495E+03</pdfrwt>
<pdfrwt beam="2">  1       -2 0.68213725E-01 0.67094495E+03</pdfrwt>
<totfact> 0.10811167E+02</totfact>
</mgrwt>
</event>
<event>
 4    2  0.3747163E-007  0.7225470E+03  0.7818608E-02  0.9914060E-01
         -2   -1    0    0    0  501 -0.00000000000E+00  0.00000000000E+00  0.30664023395E+03  0.30664023396E+03  0.25500000000E-02 0.  1.
          2   -1    0    0  501    0  0.00000000000E+00 -0.00000000000E+00 -0.15043911925E+04  0.15043911925E+04  0.25500000000E-02 0. -1.
    8880023    1    1    2    0    0  0.28417931295E+03 -0.86637409515E+02 -0.12773358370E+04  0.14675356790E+04  0.65864270000E+03 0.  0.
    8880022    1    1    2    0    0 -0.28417931295E+03  0.86637409515E+02  0.79584878365E+02  0.34349574745E+03  0.15294330000E+03 0.  0.
<mgrwt>
<rscale>  0 0.59584681E+03</rscale>
<asrwt>0</asrwt>
<pdfrwt beam="1">  1        2 0.23144480E+00 0.72254697E+03</pdfrwt>
<pdfrwt beam="2">  1       -2 0.47175421E-01 0.72254697E+03</pdfrwt>
<totfact> 0.55060304E+01</totfact>
</mgrwt>
</event>
<event>
 4    2  0.3747163E-007  0.9102481E+03  0.7818608E-02  0.9509776E-01
          2   -1    0    0  501    0  0.00000000000E+00  0.00000000000E+00  0.21067286416E+04  0.21067286417E+04  0.25500000000E-02 0. -1.
         -2   -1    0    0    0  501 -0.00000000000E+00 -0.00000000000E+00 -0.38143693869E+03  0.38143693870E+03  0.25500000000E-02 0.  1.
    8880023    1    1    2    0    0  0.61250897606E+03 -0.13990788998E+03  0.15830272164E+04  0.18260686837E+04  0.65864270000E+03 0. -1.
    8880022    1    1    2    0    0 -0.61250897606E+03  0.13990788998E+03  0.14226448656E+03  0.66209689667E+03  0.15294330000E+03 0.  0.
<mgrwt>
<rscale>  0 0.83566876E+03</rscale>
<asrwt>0</asrwt>
<pdfrwt beam="1">  1        2 0.32411209E+00 0.91024814E+03</pdfrwt>
<pdfrwt beam="2">  1       -2 0.58682607E-01 0.91024814E+03</pdfrwt>
<totfact> 0.16055363E+01</totfact>
</mgrwt>
</event>
<event>
 4    2  0.3747163E-007  0.6853504E+03  0.7818608E-02  0.1006446E+00
          2   -1    0    0  501    0  0.00000000000E+00  0.00000000000E+00  0.37361948088E+03  0.37361948088E+03  0.25500000000E-02 0. -1.
         -2   -1    0    0    0  501 -0.00000000000E+00 -0.00000000000E+00 -0.11089215810E+04  0.11089215810E+04  0.25500000000E-02 0.  1.
    8880023    1    1    2    0    0 -0.18942705273E+03  0.35178512642E+01  0.23375088735E+02  0.68574892243E+03  0.65864270000E+03 0. -1.
    8880022    1    1    2    0    0  0.18942705273E+03 -0.35178512642E+01 -0.75867718889E+03  0.79679213948E+03  0.15294330000E+03 0.  0.
<mgrwt>
<rscale>  0 0.52911992E+03</rscale>
<asrwt>0</asrwt>
<pdfrwt beam="1">  1        2 0.57479921E-01 0.68535041E+03</pdfrwt>
<pdfrwt beam="2">  1       -2 0.17060332E+00 0.68535041E+03</pdfrwt>
<totfact> 0.18490928E+01</totfact>
</mgrwt>
</event>
<event>
 4    2  0.3747163E-007  0.1485845E+04  0.7818608E-02  0.8919697E-01
          2   -1    0    0  501    0  0.00000000000E+00  0.00000000000E+00  0.23769555556E+04  0.23769555556E+04  0.25500000000E-02 0. -1.
         -2   -1    0    0    0  501 -0.00000000000E+00 -0.00000000000E+00 -0.14895488258E+04  0.14895488258E+04  0.25500000000E-02 0.  1.
    8880023    1    1    2    0    0 -0.10278681196E+03 -0.13279153739E+04 -0.81887086388E+03  0.16965506379E+04  0.65864270000E+03 0.  0.
    8880022    1    1    2    0    0  0.10278681196E+03  0.13279153739E+04  0.17062775937E+04  0.21699537435E+04  0.15294330000E+03 0.  0.
<mgrwt>
<rscale>  0 0.14481319E+04</rscale>
<asrwt>0</asrwt>
<pdfrwt beam="1">  1        2 0.36568547E+00 0.14858447E+04</pdfrwt>
<pdfrwt beam="2">  1       -2 0.22916136E+00 0.14858447E+04</pdfrwt>
<totfact> 0.33318289E-01</totfact>
</mgrwt>
</event>
<event>
 4    2  0.3747163E-007  0.6769300E+03  0.7818608E-02  0.1011116E+00
          2   -1    0    0  501    0  0.00000000000E+00  0.00000000000E+00  0.34054638021E+03  0.34054638022E+03  0.25500000000E-02 0. -1.
         -2   -1    0    0    0  501 -0.00000000000E+00 -0.00000000000E+00 -0.14511069199E+04  0.14511069199E+04  0.25500000000E-02 0.  1.
    8880023    1    1    2    0    0  0.31810107977E+02 -0.15301043840E+03 -0.17731829622E+02  0.67716224147E+03  0.65864270000E+03 0. -1.
    8880022    1    1    2    0    0 -0.31810107977E+02  0.15301043840E+03 -0.10928287101E+04  0.11144910587E+04  0.15294330000E+03 0.  0.
<mgrwt>
<rscale>  0 0.51033363E+03</rscale>
<asrwt>0</asrwt>
<pdfrwt beam="1">  1        2 0.52391751E-01 0.67693004E+03</pdfrwt>
<pdfrwt beam="2">  1       -2 0.22324722E+00 0.67693004E+03</pdfrwt>
<totfact> 0.92562669E+00</totfact>
</mgrwt>
</event>
<event>
 4    2  0.5310214E-007  0.6861989E+03  0.7818608E-02  0.1006014E+00
         -2   -1    0    0    0  501 -0.00000000000E+00  0.00000000000E+00  0.81942000552E+03  0.81942000552E+03  0.25500000000E-02 0.  1.
          2   -1    0    0  501    0  0.00000000000E+00 -0.00000000000E+00 -0.26104713601E+04  0.26104713601E+04  0.25500000000E-02 0. -1.
    8880023    1    1    2    0    0 -0.16635561380E+03  0.96873775516E+02 -0.25455116123E+04  0.26363797703E+04  0.65864270000E+03 0. -1.
    8880022    1    1    2    0    0  0.16635561380E+03 -0.96873775516E+02  0.75446025765E+03  0.79351159539E+03  0.15294330000E+03 0.  0.
<mgrwt>
<rscale>  0 0.53089958E+03</rscale>
<asrwt>0</asrwt>
<pdfrwt beam="1">  1        2 0.40161097E+00 0.68619890E+03</pdfrwt>
<pdfrwt beam="2">  1       -2 0.12606462E+00 0.68619890E+03</pdfrwt>
<totfact> 0.15059850E+00</totfact>
</mgrwt>
</event>
<event>
 4    2  0.3747163E-007  0.7667421E+03  0.7818608E-02  0.9787956E-01
         -2   -1    0    0    0  501 -0.00000000000E+00  0.00000000000E+00  0.11650616393E+03  0.11650616396E+03  0.25500000000E-02 0.  1.
          2   -1    0    0  501    0  0.00000000000E+00 -0.00000000000E+00 -0.36972909611E+04  0.36972909611E+04  0.25500000000E-02 0. -1.
    8880023    1    1    2    0    0 -0.19431308068E+03 -0.34106548487E+03 -0.29992396248E+04  0.30956956846E+04  0.65864270000E+03 0.  1.
    8880022    1    1    2    0    0  0.19431308068E+03  0.34106548487E+03 -0.58154517238E+03  0.71810144048E+03  0.15294330000E+03 0.  0.
<mgrwt>
<rscale>  0 0.66012943E+03</rscale>
<asrwt>0</asrwt>
<pdfrwt beam="1">  1        2 0.56881390E+00 0.76674210E+03</pdfrwt>
<pdfrwt beam="2">  1       -2 0.17924028E-01 0.76674210E+03</pdfrwt>
<totfact> 0.16397531E+01</totfact>
</mgrwt>
</event>
<event>
 4    2  0.3747163E-007  0.8789829E+03  0.7818608E-02  0.9560650E-01
         -2   -1    0    0    0  501 -0.00000000000E+00  0.00000000000E+00  0.71018115602E+03  0.71018115602E+03  0.25500000000E-02 0.  1.
          2   -1    0    0  501    0  0.00000000000E+00 -0.00000000000E+00 -0.35187482847E+04  0.35187482847E+04  0.25500000000E-02 0. -1.
    8880023    1    1    2    0    0  0.32121047159E+03 -0.48541172933E+03  0.39906269933E+03  0.96532997379E+03  0.65864270000E+03 0.  0.
    8880022    1    1    2    0    0 -0.32121047159E+03  0.48541172933E+03 -0.32076298280E+04  0.32635994669E+04  0.15294330000E+03 0.  0.
<mgrwt>
<rscale>  0 0.79956307E+03</rscale>
<asrwt>0</asrwt>
<pdfrwt beam="1">  1        2 0.54134588E+00 0.87898289E+03</pdfrwt>
<pdfrwt beam="2">  1       -2 0.10925864E+00 0.87898289E+03</pdfrwt>
<totfact> 0.55736152E-01</totfact>
</mgrwt>
</event>
<event>
 4    2  0.3747163E-007  0.7174792E+03  0.7818608E-02  0.9931210E-01
         -2   -1    0    0    0  501 -0.00000000000E+00  0.00000000000E+00  0.24334215015E+03  0.24334215016E+03  0.25500000000E-02 0.  1.
          2   -1    0    0  501    0  0.00000000000E+00 -0.00000000000E+00 -0.20354294078E+04  0.20354294078E+04  0.25500000000E-02 0. -1.
    8880023    1    1    2    0    0  0.93811877570E+02  0.26863631725E+03 -0.18182304190E+04  0.19546708680E+04  0.65864270000E+03 0. -1.
    8880022    1    1    2    0    0 -0.93811877570E+02 -0.26863631725E+03  0.26143161383E+02  0.32410068994E+03  0.15294330000E+03 0.  0.
<mgrwt>
<rscale>  0 0.58772285E+03</rscale>
<asrwt>0</asrwt>
<pdfrwt beam="1">  1        2 0.31314297E+00 0.71747916E+03</pdfrwt>
<pdfrwt beam="2">  1       -2 0.37437255E-01 0.71747916E+03</pdfrwt>
<totfact> 0.44482973E+01</totfact>
</mgrwt>
</event>
<event>
 4    2  0.3747163E-007  0.6992655E+03  0.7818608E-02  0.1000026E+00
          2   -1    0    0  501    0  0.00000000000E+00  0.00000000000E+00  0.21638304541E+04  0.21638304541E+04  0.25500000000E-02 0. -1.
         -2   -1    0    0    0  501 -0.00000000000E+00 -0.00000000000E+00 -0.18377158406E+03  0.18377158407E+03  0.25500000000E-02 0.  1.
    8880023    1    1    2    0    0  0.12667901535E+03 -0.19777391547E+03  0.19428630277E+04  0.20648702248E+04  0.65864270000E+03 0. -1.
    8880022    1    1    2    0    0 -0.12667901535E+03  0.19777391547E+03  0.37195842288E+02  0.28273181333E+03  0.15294330000E+03 0. -1.
<mgrwt>
<rscale>  0 0.55638762E+03</rscale>
<asrwt>0</asrwt>
<pdfrwt beam="1">  1        2 0.33289700E+00 0.69926554E+03</pdfrwt>
<pdfrwt beam="2">  1       -2 0.28272551E-01 0.69926554E+03</pdfrwt>
<totfact> 0.64300669E+01</totfact>
</mgrwt>
</event>
<event>
 4    2  0.3747163E-007  0.7511858E+03  0.7818608E-02  0.9828485E-01
         -2   -1    0    0    0  501 -0.00000000000E+00  0.00000000000E+00  0.29610423067E+03  0.29610423068E+03  0.25500000000E-02 0.  1.
          2   -1    0    0  501    0  0.00000000000E+00 -0.00000000000E+00 -0.19156555732E+04  0.19156555732E+04  0.25500000000E-02 0. -1.
    8880023    1    1    2    0    0 -0.35638595197E+03  0.58812530532E+02 -0.16554092875E+04  0.18178723762E+04  0.65864270000E+03 0. -1.
    8880022    1    1    2    0    0  0.35638595197E+03 -0.58812530532E+02  0.35857944964E+02  0.39388742775E+03  0.15294330000E+03 0.  0.
<mgrwt>
<rscale>  0 0.63856008E+03</rscale>
<asrwt>0</asrwt>
<pdfrwt beam="1">  1        2 0.29471623E+00 0.75118577E+03</pdfrwt>
<pdfrwt beam="2">  1       -2 0.45554498E-01 0.75118577E+03</pdfrwt>
<totfact> 0.35032957E+01</totfact>
</mgrwt>
</event>
<event>
 4    2  0.3747163E-007  0.7039654E+03  0.7818608E-02  0.9981132E-01
          2   -1    0    0  501    0  0.00000000000E+00  0.00000000000E+00  0.18299605609E+04  0.18299605609E+04  0.25500000000E-02 0. -1.
         -2   -1    0    0    0  501 -0.00000000000E+00 -0.00000000000E+00 -0.22426579189E+03  0.22426579191E+03  0.25500000000E-02 0.  1.
    8880023    1    1    2    0    0 -0.27285981590E+02 -0.24700723091E+03  0.16155446273E+04  0.17622575708E+04  0.65864270000E+03 0. -1.
    8880022    1    1    2    0    0  0.27285981590E+02  0.24700723091E+03 -0.98498583166E+01  0.29196878195E+03  0.15294330000E+03 0.  1.
<mgrwt>
<rscale>  0 0.56485344E+03</rscale>
<asrwt>0</asrwt>
<pdfrwt beam="1">  1        2 0.28153240E+00 0.70396541E+03</pdfrwt>
<pdfrwt beam="2">  1       -2 0.34502428E-01 0.70396541E+03</pdfrwt>
<totfact> 0.67381791E+01</totfact>
</mgrwt>
</event>
<event>
 4    2  0.3747163E-007  0.7597799E+03  0.7818608E-02  0.9805678E-01
          2   -1    0    0  501    0  0.00000000000E+00  0.00000000000E+00  0.18400637027E+04  0.18400637027E+04  0.25500000000E-02 0. -1.
         -2   -1    0    0    0  501 -0.00000000000E+00 -0.00000000000E+00 -0.95691444469E+03  0.95691444469E+03  0.25500000000E-02 0.  1.
    8880023    1    1    2    0    0  0.32425562221E+03 -0.19573841362E+03  0.17119568219E+04  0.18729820077E+04  0.65864270000E+03 0. -1.
    8880022    1    1    2    0    0 -0.32425562221E+03  0.19573841362E+03 -0.82880756388E+03  0.92399613964E+03  0.15294330000E+03 0.  0.
<mgrwt>
<rscale>  0 0.65058733E+03</rscale>
<asrwt>0</asrwt>
<pdfrwt beam="1">  1        2 0.28308672E+00 0.75977986E+03</pdfrwt>
<pdfrwt beam="2">  1       -2 0.14721761E+00 0.75977986E+03</pdfrwt>
<totfact> 0.26638358E+00</totfact>
</mgrwt>
</event>
<event>
 4    2  0.3747163E-007  0.7247786E+03  0.7818608E-02  0.9906736E-01
         -2   -1    0    0    0  501 -0.00000000000E+00  0.00000000000E+00  0.35529868105E+03  0.35529868106E+03  0.25500000000E-02 0.  1.
          2   -1    0    0  501    0  0.00000000000E+00 -0.00000000000E+00 -0.99789043619E+03  0.99789043619E+03  0.25500000000E-02 0. -1.
    8880023    1    1    2    0    0  0.95275646508E+02 -0.28708250690E+03 -0.12648391961E+03  0.73573242607E+03  0.65864270000E+03 0.  0.
    8880022    1    1    2    0    0 -0.95275646508E+02  0.28708250690E+03 -0.51610783552E+03  0.61745669118E+03  0.15294330000E+03 0.  0.
<mgrwt>
<rscale>  0 0.59935918E+03</rscale>
<asrwt>0</asrwt>
<pdfrwt beam="1">  1        2 0.15352161E+00 0.72477860E+03</pdfrwt>
<pdfrwt beam="2">  1       -2 0.54661336E-01 0.72477860E+03</pdfrwt>
<totfact> 0.80868239E+01</totfact>
</mgrwt>
</event>
<event>
 4    2  0.3747163E-007  0.1054240E+04  0.7818608E-02  0.9313802E-01
         -2   -1    0    0    0  501 -0.00000000000E+00  0.00000000000E+00  0.27758304157E+03  0.27758304158E+03  0.25500000000E-02 0.  1.
          2   -1    0    0  501    0  0.00000000000E+00 -0.00000000000E+00 -0.33861628597E+04  0.33861628597E+04  0.25500000000E-02 0. -1.
    8880023    1    1    2    0    0  0.79167776892E+03  0.22551719362E+03 -0.13234511968E+04  0.16920239274E+04  0.65864270000E+03 0.  0.
    8880022    1    1    2    0    0 -0.79167776892E+03 -0.22551719362E+03 -0.17851286214E+04  0.19717219739E+04  0.15294330000E+03 0.  0.
<mgrwt>
<rscale>  0 0.99522120E+03</rscale>
<asrwt>0</asrwt>
<pdfrwt beam="1">  1        2 0.52094810E+00 0.10542400E+04</pdfrwt>
<pdfrwt beam="2">  1       -2 0.42705086E-01 0.10542400E+04</pdfrwt>
<totfact> 0.51941324E+00</totfact>
</mgrwt>
</event>
<event>
 4    2  0.3747163E-007  0.9629500E+03  0.7818608E-02  0.9431722E-01
         -2   -1    0    0    0  501 -0.00000000000E+00  0.00000000000E+00  0.40718839414E+03  0.40718839415E+03  0.25500000000E-02 0.  1.
          2   -1    0    0  501    0  0.00000000000E+00 -0.00000000000E+00 -0.42685540850E+04  0.42685540850E+04  0.25500000000E-02 0. -1.
    8880023    1    1    2    0    0 -0.54568003811E+03 -0.44237526777E+03 -0.38374441193E+04  0.39564188551E+04  0.65864270000E+03 0.  0.
    8880022    1    1    2    0    0  0.54568003811E+03  0.44237526777E+03 -0.23921571503E+02  0.71932362406E+03  0.15294330000E+03 0.  1.
<mgrwt>
<rscale>  0 0.89510468E+03</rscale>
<asrwt>0</asrwt>
<pdfrwt beam="1">  1        2 0.65670060E+00 0.96295004E+03</pdfrwt>
<pdfrwt beam="2">  1       -2 0.62644371E-01 0.96295004E+03</pdfrwt>
<totfact> 0.51332217E-01</totfact>
</mgrwt>
</event>
<event>
 4    2  0.3747163E-007  0.9948262E+03  0.7818608E-02  0.9388358E-01
          2   -1    0    0  501    0  0.00000000000E+00  0.00000000000E+00  0.22625199747E+04  0.22625199747E+04  0.25500000000E-02 0. -1.
         -2   -1    0    0    0  501 -0.00000000000E+00 -0.00000000000E+00 -0.63018404102E+03  0.63018404102E+03  0.25500000000E-02 0.  1.
    8880023    1    1    2    0    0 -0.38794820282E+03  0.63668286439E+03  0.18505021013E+04  0.21009609970E+04  0.65864270000E+03 0. -1.
    8880022    1    1    2    0    0  0.38794820282E+03 -0.63668286439E+03 -0.21816616764E+03  0.79174301866E+03  0.15294330000E+03 0.  0.
<mgrwt>
<rscale>  0 0.93039987E+03</rscale>
<asrwt>0</asrwt>
<pdfrwt beam="1">  1        2 0.34808000E+00 0.99482616E+03</pdfrwt>
<pdfrwt beam="2">  1       -2 0.96951389E-01 0.99482616E+03</pdfrwt>
<totfact> 0.42530720E+00</totfact>
</mgrwt>
</event>
<event>
 4    2  0.3747163E-007  0.6810967E+03  0.7818608E-02  0.1008710E+00
         -2   -1    0    0    0  501 -0.00000000000E+00  0.00000000000E+00  0.16440797045E+04  0.16440797045E+04  0.25500000000E-02 0.  1.
          2   -1    0    0  501    0  0.00000000000E+00 -0.00000000000E+00 -0.11387228353E+04  0.11387228353E+04  0.25500000000E-02 0. -1.
    8880023    1    1    2    0    0 -0.15407116474E+03  0.79653030264E+02 -0.10274235631E+04  0.12326767270E+04  0.65864270000E+03 0. -1.
    8880022    1    1    2    0    0  0.15407116474E+03 -0.79653030264E+02  0.15327804323E+04  0.15501258128E+04  0.15294330000E+03 0.  0.
<mgrwt>
<rscale>  0 0.51990573E+03</rscale>
<asrwt>0</asrwt>
<pdfrwt beam="1">  1        2 0.17518813E+00 0.68109672E+03</pdfrwt>
<pdfrwt beam="2">  1       -2 0.25293534E+00 0.68109672E+03</pdfrwt>
<totfact> 0.13355594E+00</totfact>
</mgrwt>
</event>
<event>
 4    2  0.3747163E-007  0.6625502E+03  0.7818608E-02  0.1021683E+00
         -2   -1    0    0    0  501 -0.00000000000E+00  0.00000000000E+00  0.56721793725E+02  0.56721793782E+02  0.25500000000E-02 0.  1.
          2   -1    0    0  501    0  0.00000000000E+00 -0.00000000000E+00 -0.35755763120E+04  0.35755763120E+04  0.25500000000E-02 0. -1.
    8880023    1    1    2    0    0  0.67662789635E+02 -0.24173814683E+02 -0.20657153857E+04  0.21693669324E+04  0.65864270000E+03 0.  1.
    8880022    1    1    2    0    0 -0.67662789635E+02  0.24173814683E+02 -0.14531391326E+04  0.14629311734E+04  0.15294330000E+03 0.  0.
<mgrwt>
<rscale>  0 0.47083964E+03</rscale>
<asrwt>0</asrwt>
<pdfrwt beam="1">  1        2 0.55008849E+00 0.66255025E+03</pdfrwt>
<pdfrwt beam="2">  1       -2 0.87264326E-02 0.66255025E+03</pdfrwt>
<totfact> 0.67332627E+01</totfact>
</mgrwt>
</event>
<event>
 4    2  0.3747163E-007  0.1189959E+04  0.7818608E-02  0.9166945E-01
         -2   -1    0    0    0  501 -0.00000000000E+00  0.00000000000E+00  0.12655649950E+04  0.12655649950E+04  0.25500000000E-02 0.  1.
          2   -1    0    0  501    0  0.00000000000E+00 -0.00000000000E+00 -0.22481282448E+04  0.22481282448E+04  0.25500000000E-02 0. -1.
    8880023    1    1    2    0    0  0.37071162734E+03  0.91911072320E+03 -0.18420473263E+04  0.21929751915E+04  0.65864270000E+03 0. -1.
    8880022    1    1    2    0    0 -0.37071162734E+03 -0.91911072320E+03  0.85948407651E+03  0.13207180482E+04  0.15294330000E+03 0.  0.
<mgrwt>
<rscale>  0 0.11401216E+04</rscale>
<asrwt>0</asrwt>
<pdfrwt beam="1">  1        2 0.34586588E+00 0.11899588E+04</pdfrwt>
<pdfrwt beam="2">  1       -2 0.19470231E+00 0.11899588E+04</pdfrwt>
<totfact> 0.68157471E-01</totfact>
</mgrwt>
</event>
<event>
 4    2  0.3747163E-007  0.1177044E+04  0.7818608E-02  0.9179767E-01
         -2   -1    0    0    0  501 -0.00000000000E+00  0.00000000000E+00  0.20761841514E+04  0.20761841514E+04  0.25500000000E-02 0.  1.
          2   -1    0    0  501    0  0.00000000000E+00 -0.00000000000E+00 -0.12523211172E+04  0.12523211172E+04  0.25500000000E-02 0. -1.
    8880023    1    1    2    0    0 -0.55468155699E+03 -0.80246553669E+03  0.16597723296E+04  0.20347670529E+04  0.65864270000E+03 0.  1.
    8880022    1    1    2    0    0  0.55468155699E+03  0.80246553669E+03 -0.83590929547E+03  0.12937382156E+04  0.15294330000E+03 0.  0.
<mgrwt>
<rscale>  0 0.11264733E+04</rscale>
<asrwt>0</asrwt>
<pdfrwt beam="1">  1        2 0.19266479E+00 0.11770441E+04</pdfrwt>
<pdfrwt beam="2">  1       -2 0.31941294E+00 0.11770441E+04</pdfrwt>
<totfact> 0.41770785E-01</totfact>
</mgrwt>
</event>
<event>
 4    2  0.3747163E-007  0.7254182E+03  0.7818608E-02  0.9904662E-01
          2   -1    0    0  501    0  0.00000000000E+00  0.00000000000E+00  0.99702226100E+03  0.99702226100E+03  0.25500000000E-02 0. -1.
         -2   -1    0    0    0  501 -0.00000000000E+00 -0.00000000000E+00 -0.29066151264E+03  0.29066151266E+03  0.25500000000E-02 0.  1.
    8880023    1    1    2    0    0 -0.32871783881E+02 -0.30222631242E+03  0.56365352374E+03  0.91866032851E+03  0.65864270000E+03 0. -1.
    8880022    1    1    2    0    0  0.32871783881E+02  0.30222631242E+03  0.14270722461E+03  0.36902344514E+03  0.15294330000E+03 0.  1.
<mgrwt>
<rscale>  0 0.60035891E+03</rscale>
<asrwt>0</asrwt>
<pdfrwt beam="1">  1        2 0.15338804E+00 0.72541816E+03</pdfrwt>
<pdfrwt beam="2">  1       -2 0.44717157E-01 0.72541816E+03</pdfrwt>
<totfact> 0.12172149E+02</totfact>
</mgrwt>
</event>
<event>
 4    2  0.3747163E-007  0.7998286E+03  0.7818608E-02  0.9711167E-01
         -2   -1    0    0    0  501 -0.00000000000E+00  0.00000000000E+00  0.83908411662E+03  0.83908411662E+03  0.25500000000E-02 0.  1.
          2   -1    0    0  501    0  0.00000000000E+00 -0.00000000000E+00 -0.15775666629E+04  0.15775666629E+04  0.25500000000E-02 0. -1.
    8880023    1    1    2    0    0  0.13798676034E+03  0.43229062086E+03 -0.13926244845E+04  0.16059665900E+04  0.65864270000E+03 0. -1.
    8880022    1    1    2    0    0 -0.13798676034E+03 -0.43229062086E+03  0.65414193821E+03  0.81068418959E+03  0.15294330000E+03 0.  0.
<mgrwt>
<rscale>  0 0.70355797E+03</rscale>
<asrwt>0</asrwt>
<pdfrwt beam="1">  1        2 0.24270256E+00 0.79982856E+03</pdfrwt>
<pdfrwt beam="2">  1       -2 0.12908986E+00 0.79982856E+03</pdfrwt>
<totfact> 0.51740706E+00</totfact>
</mgrwt>
</event>
<event>
 4    2  0.4297134E-007  0.1284999E+04  0.7818608E-02  0.9078624E-01
          2   -1    0    0  501    0  0.00000000000E+00  0.00000000000E+00  0.26280669201E+04  0.26280669201E+04  0.25500000000E-02 0. -1.
         -2   -1    0    0    0  501 -0.00000000000E+00 -0.00000000000E+00 -0.14265969127E+04  0.14265969127E+04  0.25500000000E-02 0.  1.
    8880023    1    1    2    0    0  0.82114840390E+03  0.73697147661E+03  0.22071291356E+04  0.25539461400E+04  0.65864270000E+03 0.  0.
    8880022    1    1    2    0    0 -0.82114840390E+03 -0.73697147661E+03 -0.10056591282E+04  0.15007176929E+04  0.15294330000E+03 0.  0.
<mgrwt>
<rscale>  0 0.12399093E+04</rscale>
<asrwt>0</asrwt>
<pdfrwt beam="1">  1        2 0.40431799E+00 0.12849988E+04</pdfrwt>
<pdfrwt beam="2">  1       -2 0.21947645E+00 0.12849988E+04</pdfrwt>
<totfact> 0.28171379E-01</totfact>
</mgrwt>
</event>
<event>
 4    2  0.3747163E-007  0.7622072E+03  0.7818608E-02  0.9799426E-01
          2   -1    0    0  501    0  0.00000000000E+00  0.00000000000E+00  0.31134512756E+04  0.31134512756E+04  0.25500000000E-02 0. -1.
         -2   -1    0    0    0  501 -0.00000000000E+00 -0.00000000000E+00 -0.19098138084E+03  0.19098138086E+03  0.25500000000E-02 0.  1.
    8880023    1    1    2    0    0  0.26102859205E+03 -0.28109369072E+03  0.27555229171E+04  0.28589974365E+04  0.65864270000E+03 0. -1.
    8880022    1    1    2    0    0 -0.26102859205E+03  0.28109369072E+03  0.16694697765E+03  0.44543521997E+03  0.15294330000E+03 0.  0.
<mgrwt>
<rscale>  0 0.65393331E+03</rscale>
<asrwt>0</asrwt>
<pdfrwt beam="1">  1        2 0.47899245E+00 0.76220719E+03</pdfrwt>
<pdfrwt beam="2">  1       -2 0.29381754E-01 0.76220719E+03</pdfrwt>
<totfact> 0.16690155E+01</totfact>
</mgrwt>
</event>
<event>
 4    2  0.3949585E-007  0.7583175E+03  0.7818608E-02  0.9809483E-01
         -2   -1    0    0    0  501 -0.00000000000E+00  0.00000000000E+00  0.92305535268E+03  0.92305535269E+03  0.25500000000E-02 0.  1.
          2   -1    0    0  501    0  0.00000000000E+00 -0.00000000000E+00 -0.22816155500E+04  0.22816155500E+04  0.25500000000E-02 0. -1.
    8880023    1    1    2    0    0  0.28355616049E+02  0.37474156925E+03 -0.21693255416E+04  0.22980467351E+04  0.65864270000E+03 0. -1.
    8880022    1    1    2    0    0 -0.28355616049E+02 -0.37474156925E+03  0.81076534434E+03  0.90662416760E+03  0.15294330000E+03 0.  0.
<mgrwt>
<rscale>  0 0.64856116E+03</rscale>
<asrwt>0</asrwt>
<pdfrwt beam="1">  1        2 0.35101777E+00 0.75831754E+03</pdfrwt>
<pdfrwt beam="2">  1       -2 0.14200852E+00 0.75831754E+03</pdfrwt>
<totfact> 0.16769786E+00</totfact>
</mgrwt>
</event>
<event>
 4    2  0.3747163E-007  0.1239567E+04  0.7818608E-02  0.9119588E-01
          2   -1    0    0  501    0  0.00000000000E+00  0.00000000000E+00  0.26516119113E+04  0.26516119113E+04  0.25500000000E-02 0. -1.
         -2   -1    0    0    0  501 -0.00000000000E+00 -0.00000000000E+00 -0.65666318525E+03  0.65666318526E+03  0.25500000000E-02 0.  1.
    8880023    1    1    2    0    0 -0.89567012033E+03 -0.54817051985E+03  0.18647216154E+04  0.22391321517E+04  0.65864270000E+03 0.  0.
    8880022    1    1    2    0    0  0.89567012033E+03  0.54817051985E+03  0.13022711063E+03  0.10691429449E+04  0.15294330000E+03 0.  0.
<mgrwt>
<rscale>  0 0.11923396E+04</rscale>
<asrwt>0</asrwt>
<pdfrwt beam="1">  1        2 0.40794030E+00 0.12395669E+04</pdfrwt>
<pdfrwt beam="2">  1       -2 0.10102510E+00 0.12395669E+04</pdfrwt>
<totfact> 0.22427591E+00</totfact>
</mgrwt>
</event>
<event>
 4    2  0.3747163E-007  0.8250362E+03  0.7818608E-02  0.9659069E-01
          2   -1    0    0  501    0  0.00000000000E+00  0.00000000000E+00  0.38302758512E+04  0.38302758512E+04  0.25500000000E-02 0. -1.
         -2   -1    0    0    0  501 -0.00000000000E+00 -0.00000000000E+00 -0.13753887425E+03  0.13753887428E+03  0.25500000000E-02 0.  1.
    8880023    1    1    2    0    0 -0.12963680114E+03 -0.47965486081E+03  0.29359384915E+04  0.30496589183E+04  0.65864270000E+03 0. -1.
    8880022    1    1    2    0    0  0.12963680114E+03  0.47965486081E+03  0.75679848545E+03  0.91815580721E+03  0.15294330000E+03 0.  1.
<mgrwt>
<rscale>  0 0.73507000E+03</rscale>
<asrwt>0</asrwt>
<pdfrwt beam="1">  1        2 0.58927310E+00 0.82503618E+03</pdfrwt>
<pdfrwt beam="2">  1       -2 0.21159831E-01 0.82503618E+03</pdfrwt>
<totfact> 0.96993999E+00</totfact>
</mgrwt>
</event>
<event>
 4    2  0.3747163E-007  0.6811013E+03  0.7818608E-02  0.1008707E+00
         -2   -1    0    0    0  501 -0.00000000000E+00  0.00000000000E+00  0.12519839717E+03  0.12519839720E+03  0.25500000000E-02 0.  1.
          2   -1    0    0  501    0  0.00000000000E+00 -0.00000000000E+00 -0.28483630070E+04  0.28483630070E+04  0.25500000000E-02 0. -1.
    8880023    1    1    2    0    0 -0.92048400958E+02  0.14702347875E+03 -0.26421448244E+04  0.27285212645E+04  0.65864270000E+03 0. -1.
    8880022    1    1    2    0    0  0.92048400958E+02 -0.14702347875E+03 -0.81019785436E+02  0.24504013971E+03  0.15294330000E+03 0.  0.
<mgrwt>
<rscale>  0 0.51991601E+03</rscale>
<asrwt>0</asrwt>
<pdfrwt beam="1">  1        2 0.43820965E+00 0.68110133E+03</pdfrwt>
<pdfrwt beam="2">  1       -2 0.19261294E-01 0.68110133E+03</pdfrwt>
<totfact> 0.52275551E+01</totfact>
</mgrwt>
</event>
<event>
 4    2  0.3747163E-007  0.6899990E+03  0.7818608E-02  0.1004153E+00
         -2   -1    0    0    0  501 -0.00000000000E+00  0.00000000000E+00  0.90155049072E+03  0.90155049072E+03  0.25500000000E-02 0.  1.
          2   -1    0    0  501    0  0.00000000000E+00 -0.00000000000E+00 -0.88010842296E+03  0.88010842297E+03  0.25500000000E-02 0. -1.
    8880023    1    1    2    0    0 -0.20549400799E+03 -0.77873698979E+01 -0.71995715632E+03  0.99721459258E+03  0.65864270000E+03 0.  0.
    8880022    1    1    2    0    0  0.20549400799E+03  0.77873698979E+01  0.74139922407E+03  0.78444432111E+03  0.15294330000E+03 0.  1.
<mgrwt>
<rscale>  0 0.53866104E+03</rscale>
<asrwt>0</asrwt>
<pdfrwt beam="1">  1        2 0.13540130E+00 0.68999901E+03</pdfrwt>
<pdfrwt beam="2">  1       -2 0.13870008E+00 0.68999901E+03</pdfrwt>
<totfact> 0.11393162E+01</totfact>
</mgrwt>
</event>
<event>
 4    2  0.3747163E-007  0.6691641E+03  0.7818608E-02  0.1016269E+00
          2   -1    0    0  501    0  0.00000000000E+00  0.00000000000E+00  0.13302164814E+04  0.13302164814E+04  0.25500000000E-02 0. -1.
         -2   -1    0    0    0  501 -0.00000000000E+00 -0.00000000000E+00 -0.14385516951E+03  0.14385516953E+03  0.25500000000E-02 0.  1.
    8880023    1    1    2    0    0  0.11141361912E+03 -0.39464277926E+02  0.10151388525E+04  0.12158484773E+04  0.65864270000E+03 0. -1.
    8880022    1    1    2    0    0 -0.11141361912E+03  0.39464277926E+02  0.17122245940E+03  0.25822317358E+03  0.15294330000E+03 0.  1.
<mgrwt>
<rscale>  0 0.49057269E+03</rscale>
<asrwt>0</asrwt>
<pdfrwt beam="1">  1        2 0.20464869E+00 0.66916413E+03</pdfrwt>
<pdfrwt beam="2">  1       -2 0.22131565E-01 0.66916413E+03</pdfrwt>
<totfact> 0.28789715E+02</totfact>
</mgrwt>
</event>
<event>
 4    2  0.3747163E-007  0.7153319E+03  0.7818608E-02  0.9938710E-01
         -2   -1    0    0    0  501 -0.00000000000E+00  0.00000000000E+00  0.17482004088E+03  0.17482004090E+03  0.25500000000E-02 0.  1.
          2   -1    0    0  501    0  0.00000000000E+00 -0.00000000000E+00 -0.15296646924E+04  0.15296646924E+04  0.25500000000E-02 0. -1.
    8880023    1    1    2    0    0 -0.27461253880E+03 -0.49773615782E+02 -0.96559729822E+03  0.12016978855E+04  0.65864270000E+03 0.  0.
    8880022    1    1    2    0    0  0.27461253880E+03  0.49773615782E+02 -0.38924735326E+03  0.50278684781E+03  0.15294330000E+03 0. -1.
<mgrwt>
<rscale>  0 0.58421369E+03</rscale>
<asrwt>0</asrwt>
<pdfrwt beam="1">  1        2 0.23533302E+00 0.71533186E+03</pdfrwt>
<pdfrwt beam="2">  1       -2 0.26895392E-01 0.71533186E+03</pdfrwt>
<totfact> 0.15618970E+02</totfact>
</mgrwt>
</event>
<event>
 4    2  0.3747163E-007  0.1041208E+04  0.7818608E-02  0.9329526E-01
          2   -1    0    0  501    0  0.00000000000E+00  0.00000000000E+00  0.23916016322E+04  0.23916016322E+04  0.25500000000E-02 0. -1.
         -2   -1    0    0    0  501 -0.00000000000E+00 -0.00000000000E+00 -0.64301296913E+03  0.64301296913E+03  0.25500000000E-02 0.  1.
    8880023    1    1    2    0    0 -0.76470714510E+03 -0.25598024573E+03  0.19309763727E+04  0.21938055662E+04  0.65864270000E+03 0. -1.
    8880022    1    1    2    0    0  0.76470714510E+03  0.25598024573E+03 -0.18238770963E+03  0.84080903516E+03  0.15294330000E+03 0.  0.
<mgrwt>
<rscale>  0 0.98109453E+03</rscale>
<asrwt>0</asrwt>
<pdfrwt beam="1">  1        2 0.36793872E+00 0.10412075E+04</pdfrwt>
<pdfrwt beam="2">  1       -2 0.98925071E-01 0.10412075E+04</pdfrwt>
<totfact> 0.34103620E+00</totfact>
</mgrwt>
</event>
<event>
 4    2  0.3747163E-007  0.9722339E+03  0.7818608E-02  0.9418821E-01
          2   -1    0    0  501    0  0.00000000000E+00  0.00000000000E+00  0.44167737933E+04  0.44167737933E+04  0.25500000000E-02 0. -1.
         -2   -1    0    0    0  501 -0.00000000000E+00 -0.00000000000E+00 -0.27336995126E+03  0.27336995127E+03  0.25500000000E-02 0.  1.
    8880023    1    1    2    0    0 -0.60988967485E+03 -0.37344766960E+03  0.37203319495E+04  0.38452709395E+04  0.65864270000E+03 0.  0.
    8880022    1    1    2    0    0  0.60988967485E+03  0.37344766960E+03  0.42307189248E+03  0.84487280501E+03  0.15294330000E+03 0.  0.
<mgrwt>
<rscale>  0 0.90542828E+03</rscale>
<asrwt>0</asrwt>
<pdfrwt beam="1">  1        2 0.67950356E+00 0.97223391E+03</pdfrwt>
<pdfrwt beam="2">  1       -2 0.42056922E-01 0.97223391E+03</pdfrwt>
<totfact> 0.85512088E-01</totfact>
</mgrwt>
</event>
<event>
 4    2  0.6199106E-007  0.8347727E+03  0.7818608E-02  0.9640117E-01
         -2   -1    0    0    0  501 -0.00000000000E+00  0.00000000000E+00  0.23452816775E+04  0.23452816775E+04  0.25500000000E-02 0.  1.
          2   -1    0    0  501    0  0.00000000000E+00 -0.00000000000E+00 -0.14325728866E+04  0.14325728866E+04  0.25500000000E-02 0. -1.
    8880023    1    1    2    0    0 -0.23152803312E+03  0.45763528118E+03 -0.12759229570E+04  0.15247376427E+04  0.65864270000E+03 0. -1.
    8880022    1    1    2    0    0  0.23152803312E+03 -0.45763528118E+03  0.21886317479E+04  0.22531169214E+04  0.15294330000E+03 0.  0.
<mgrwt>
<rscale>  0 0.74696958E+03</rscale>
<asrwt>0</asrwt>
<pdfrwt beam="1">  1        2 0.22039583E+00 0.83477272E+03</pdfrwt>
<pdfrwt beam="2">  1       -2 0.36081256E+00 0.83477272E+03</pdfrwt>
<totfact> 0.19302402E-01</totfact>
</mgrwt>
</event>
<event>
 4    2  0.3747163E-007  0.7816298E+03  0.7818608E-02  0.9752022E-01
          2   -1    0    0  501    0  0.00000000000E+00  0.00000000000E+00  0.41056914632E+04  0.41056914632E+04  0.25500000000E-02 0. -1.
         -2   -1    0    0    0  501 -0.00000000000E+00 -0.00000000000E+00 -0.17282516010E+03  0.17282516012E+03  0.25500000000E-02 0.  1.
    8880023    1    1    2    0    0 -0.36415731662E+03  0.21100794796E+03  0.36844082366E+04  0.37664053374E+04  0.65864270000E+03 0. -1.
    8880022    1    1    2    0    0  0.36415731662E+03 -0.21100794796E+03  0.24845806650E+03  0.51211128592E+03  0.15294330000E+03 0.  0.
<mgrwt>
<rscale>  0 0.68002098E+03</rscale>
<asrwt>0</asrwt>
<pdfrwt beam="1">  1        2 0.63164483E+00 0.78162978E+03</pdfrwt>
<pdfrwt beam="2">  1       -2 0.26588487E-01 0.78162978E+03</pdfrwt>
<totfact> 0.39553308E+00</totfact>
</mgrwt>
</event>
<event>
 4    2  0.3747163E-007  0.7452718E+03  0.7818608E-02  0.9844848E-01
          2   -1    0    0  501    0  0.00000000000E+00  0.00000000000E+00  0.70223327574E+03  0.70223327575E+03  0.25500000000E-02 0. -1.
         -2   -1    0    0    0  501 -0.00000000000E+00 -0.00000000000E+00 -0.68026466477E+03  0.68026466478E+03  0.25500000000E-02 0.  1.
    8880023    1    1    2    0    0 -0.29456672452E+03  0.18668240488E+03  0.40007291410E+03  0.84586548479E+03  0.65864270000E+03 0.  0.
    8880022    1    1    2    0    0  0.29456672452E+03 -0.18668240488E+03 -0.37810430314E+03  0.53663245574E+03  0.15294330000E+03 0.  0.
<mgrwt>
<rscale>  0 0.63010270E+03</rscale>
<asrwt>0</asrwt>
<pdfrwt beam="1">  1        2 0.10803589E+00 0.74527182E+03</pdfrwt>
<pdfrwt beam="2">  1       -2 0.10465610E+00 0.74527182E+03</pdfrwt>
<totfact> 0.30652104E+01</totfact>
</mgrwt>
</event>
<event>
 4    2  0.3747163E-007  0.6681481E+03  0.7818608E-02  0.1017027E+00
         -2   -1    0    0    0  501 -0.00000000000E+00  0.00000000000E+00  0.16665105274E+03  0.16665105276E+03  0.25500000000E-02 0.  1.
          2   -1    0    0  501    0  0.00000000000E+00 -0.00000000000E+00 -0.27619425329E+04  0.27619425329E+04  0.25500000000E-02 0. -1.
    8880023    1    1    2    0    0 -0.39709333357E+02 -0.10504660710E+03 -0.26485409035E+04  0.27315180293E+04  0.65864270000E+03 0. -1.
    8880022    1    1    2    0    0  0.39709333357E+02  0.10504660710E+03  0.53249423305E+02  0.19707555636E+03  0.15294330000E+03 0.  0.
<mgrwt>
<rscale>  0 0.48775000E+03</rscale>
<asrwt>0</asrwt>
<pdfrwt beam="1">  1        2 0.42491420E+00 0.66814806E+03</pdfrwt>
<pdfrwt beam="2">  1       -2 0.25638625E-01 0.66814806E+03</pdfrwt>
<totfact> 0.35485868E+01</totfact>
</mgrwt>
</event>
<event>
 4    2  0.3747163E-007  0.9408038E+03  0.7818608E-02  0.9463471E-01
         -2   -1    0    0    0  501 -0.00000000000E+00  0.00000000000E+00  0.12358959682E+04  0.12358959682E+04  0.25500000000E-02 0.  1.
          2   -1    0    0  501    0  0.00000000000E+00 -0.00000000000E+00 -0.83492294784E+03  0.83492294785E+03  0.25500000000E-02 0. -1.
    8880023    1    1    2    0    0  0.31773065052E+03 -0.59190278430E+03  0.83384318851E+03  0.12571421326E+04  0.65864270000E+03 0.  0.
    8880022    1    1    2    0    0 -0.31773065052E+03  0.59190278430E+03 -0.43287016817E+03  0.81367678340E+03  0.15294330000E+03 0.  0.
<mgrwt>
<rscale>  0 0.87031397E+03</rscale>
<asrwt>0</asrwt>
<pdfrwt beam="1">  1        2 0.12844968E+00 0.94080385E+03</pdfrwt>
<pdfrwt beam="2">  1       -2 0.19013784E+00 0.94080385E+03</pdfrwt>
<totfact> 0.50210659E+00</totfact>
</mgrwt>
</event>
<event>
 4    2  0.3747163E-007  0.8284159E+03  0.7818608E-02  0.9652422E-01
         -2   -1    0    0    0  501 -0.00000000000E+00  0.00000000000E+00  0.43316844855E+03  0.43316844856E+03  0.25500000000E-02 0.  1.
          2   -1    0    0  501    0  0.00000000000E+00 -0.00000000000E+00 -0.17982824400E+04  0.17982824400E+04  0.25500000000E-02 0. -1.
    8880023    1    1    2    0    0 -0.71643761264E+02  0.49732265590E+03 -0.14779143753E+04  0.16942561081E+04  0.65864270000E+03 0. -1.
    8880022    1    1    2    0    0  0.71643761264E+02 -0.49732265590E+03  0.11280038388E+03  0.53719478052E+03  0.15294330000E+03 0.  0.
<mgrwt>
<rscale>  0 0.73921587E+03</rscale>
<asrwt>0</asrwt>
<pdfrwt beam="1">  1        2 0.27665883E+00 0.82841587E+03</pdfrwt>
<pdfrwt beam="2">  1       -2 0.66641301E-01 0.82841587E+03</pdfrwt>
<totfact> 0.18242669E+01</totfact>
</mgrwt>
</event>
<event>
 4    2  0.3747163E-007  0.1101593E+04  0.7818608E-02  0.9259285E-01
          2   -1    0    0  501    0  0.00000000000E+00  0.00000000000E+00  0.37482693782E+04  0.37482693782E+04  0.25500000000E-02 0. -1.
         -2   -1    0    0    0  501 -0.00000000000E+00 -0.00000000000E+00 -0.35822413814E+03  0.35822413815E+03  0.25500000000E-02 0.  1.
    8880023    1    1    2    0    0 -0.83183504591E+03 -0.29622204504E+03  0.28611896663E+04  0.30659278459E+04  0.65864270000E+03 0.  0.
    8880022    1    1    2    0    0  0.83183504591E+03  0.29622204504E+03  0.52885557378E+03  0.10405656704E+04  0.15294330000E+03 0.  0.
<mgrwt>
<rscale>  0 0.10461918E+04</rscale>
<asrwt>0</asrwt>
<pdfrwt beam="1">  1        2 0.57665681E+00 0.11015931E+04</pdfrwt>
<pdfrwt beam="2">  1       -2 0.55111408E-01 0.11015931E+04</pdfrwt>
<totfact> 0.17104297E+00</totfact>
</mgrwt>
</event>
<event>
 4    2  0.3747163E-007  0.1096130E+04  0.7818608E-02  0.9265377E-01
         -2   -1    0    0    0  501 -0.00000000000E+00  0.00000000000E+00  0.96989136317E+03  0.96989136317E+03  0.25500000000E-02 0.  1.
          2   -1    0    0  501    0  0.00000000000E+00 -0.00000000000E+00 -0.13274859841E+04  0.13274859841E+04  0.25500000000E-02 0. -1.
    8880023    1    1    2    0    0  0.86411455447E+03  0.14490636015E+03  0.36088106813E+03  0.11540091716E+04  0.65864270000E+03 0.  1.
    8880022    1    1    2    0    0 -0.86411455447E+03 -0.14490636015E+03 -0.71847568906E+03  0.11433681757E+04  0.15294330000E+03 0.  0.
<mgrwt>
<rscale>  0 0.10403380E+04</rscale>
<asrwt>0</asrwt>
<pdfrwt beam="1">  1        2 0.20422861E+00 0.10961305E+04</pdfrwt>
<pdfrwt beam="2">  1       -2 0.14921406E+00 0.10961305E+04</pdfrwt>
<totfact> 0.47538107E+00</totfact>
</mgrwt>
</event>
<event>
 4    2  0.3747163E-007  0.7193686E+03  0.7818608E-02  0.9924728E-01
         -2   -1    0    0    0  501 -0.00000000000E+00  0.00000000000E+00  0.49392079575E+03  0.49392079575E+03  0.25500000000E-02 0.  1.
          2   -1    0    0  501    0  0.00000000000E+00 -0.00000000000E+00 -0.10474437839E+04  0.10474437839E+04  0.25500000000E-02 0. -1.
    8880023    1    1    2    0    0  0.27650107987E+03  0.85018259811E+02 -0.84037068409E+03  0.11062160931E+04  0.65864270000E+03 0. -1.
    8880022    1    1    2    0    0 -0.27650107987E+03 -0.85018259811E+02  0.28684769594E+03  0.43514848656E+03  0.15294330000E+03 0.  0.
<mgrwt>
<rscale>  0 0.59077675E+03</rscale>
<asrwt>0</asrwt>
<pdfrwt beam="1">  1        2 0.16114520E+00 0.71936858E+03</pdfrwt>
<pdfrwt beam="2">  1       -2 0.75987815E-01 0.71936858E+03</pdfrwt>
<totfact> 0.37150797E+01</totfact>
</mgrwt>
</event>
<event>
 4    2  0.3747163E-007  0.6942898E+03  0.7818608E-02  0.1002177E+00
          2   -1    0    0  501    0  0.00000000000E+00  0.00000000000E+00  0.98294890146E+03  0.98294890146E+03  0.25500000000E-02 0. -1.
         -2   -1    0    0    0  501 -0.00000000000E+00 -0.00000000000E+00 -0.31455282242E+03  0.31455282244E+03  0.25500000000E-02 0.  1.
    8880023    1    1    2    0    0 -0.10165186869E+03  0.19466631129E+03  0.74576593617E+03  0.10189235069E+04  0.65864270000E+03 0.  0.
    8880022    1    1    2    0    0  0.10165186869E+03 -0.19466631129E+03 -0.77369857139E+02  0.27857821697E+03  0.15294330000E+03 0.  0.
<mgrwt>
<rscale>  0 0.54705962E+03</rscale>
<asrwt>0</asrwt>
<pdfrwt beam="1">  1        2 0.15122290E+00 0.69428977E+03</pdfrwt>
<pdfrwt beam="2">  1       -2 0.48392743E-01 0.69428977E+03</pdfrwt>
<totfact> 0.10631403E+02</totfact>
</mgrwt>
</event>
<event>
 4    2  0.3747163E-007  0.7419240E+03  0.7818608E-02  0.9854378E-01
         -2   -1    0    0    0  501 -0.00000000000E+00  0.00000000000E+00  0.88640741707E+03  0.88640741707E+03  0.25500000000E-02 0.  1.
          2   -1    0    0  501    0  0.00000000000E+00 -0.00000000000E+00 -0.14800709038E+04  0.14800709038E+04  0.25500000000E-02 0. -1.
    8880023    1    1    2    0    0  0.34073259770E+03  0.23286160938E+02 -0.13399435679E+04  0.15316330891E+04  0.65864270000E+03 0. -1.
    8880022    1    1    2    0    0 -0.34073259770E+03 -0.23286160938E+02  0.74628008114E+03  0.83484523173E+03  0.15294330000E+03 0.  0.
<mgrwt>
<rscale>  0 0.62524207E+03</rscale>
<asrwt>0</asrwt>
<pdfrwt beam="1">  1        2 0.22770322E+00 0.74192395E+03</pdfrwt>
<pdfrwt beam="2">  1       -2 0.13637037E+00 0.74192395E+03</pdfrwt>
<totfact> 0.51416001E+00</totfact>
</mgrwt>
</event>
<event>
 4    2  0.3747163E-007  0.8265955E+03  0.7818608E-02  0.9655993E-01
         -2   -1    0    0    0  501 -0.00000000000E+00  0.00000000000E+00  0.54409992995E+03  0.54409992996E+03  0.25500000000E-02 0.  1.
          2   -1    0    0  501    0  0.00000000000E+00 -0.00000000000E+00 -0.16217746285E+04  0.16217746285E+04  0.25500000000E-02 0. -1.
    8880023    1    1    2    0    0 -0.29167575157E+03 -0.40543217921E+03 -0.13453078614E+04  0.15789596082E+04  0.65864270000E+03 0. -1.
    8880022    1    1    2    0    0  0.29167575157E+03  0.40543217921E+03  0.26763316286E+03  0.58691495029E+03  0.15294330000E+03 0.  0.
<mgrwt>
<rscale>  0 0.73698497E+03</rscale>
<asrwt>0</asrwt>
<pdfrwt beam="1">  1        2 0.24950379E+00 0.82659555E+03</pdfrwt>
<pdfrwt beam="2">  1       -2 0.83707682E-01 0.82659555E+03</pdfrwt>
<totfact> 0.13755803E+01</totfact>
</mgrwt>
</event>
<event>
 4    2  0.3747163E-007  0.8569180E+03  0.7818608E-02  0.9599069E-01
         -2   -1    0    0    0  501 -0.00000000000E+00  0.00000000000E+00  0.28559630720E+03  0.28559630721E+03  0.25500000000E-02 0.  1.
          2   -1    0    0  501    0  0.00000000000E+00 -0.00000000000E+00 -0.23018194564E+04  0.23018194564E+04  0.25500000000E-02 0. -1.
    8880023    1    1    2    0    0 -0.35387645978E+03 -0.41865232909E+03 -0.17715877000E+04  0.19679510936E+04  0.65864270000E+03 0.  0.
    8880022    1    1    2    0    0  0.35387645978E+03  0.41865232909E+03 -0.24463544916E+03  0.61946467005E+03  0.15294330000E+03 0.  0.
<mgrwt>
<rscale>  0 0.77357808E+03</rscale>
<asrwt>0</asrwt>
<pdfrwt beam="1">  1        2 0.35412606E+00 0.85691804E+03</pdfrwt>
<pdfrwt beam="2">  1       -2 0.43937895E-01 0.85691804E+03</pdfrwt>
<totfact> 0.22780996E+01</totfact>
</mgrwt>
</event>
<event>
 4    2  0.3747163E-007  0.9184139E+03  0.7818608E-02  0.9497095E-01
          2   -1    0    0  501    0  0.00000000000E+00  0.00000000000E+00  0.34736259988E+03  0.34736259989E+03  0.25500000000E-02 0. -1.
         -2   -1    0    0    0  501 -0.00000000000E+00 -0.00000000000E+00 -0.19969414349E+04  0.19969414349E+04  0.25500000000E-02 0.  1.
    8880023    1    1    2    0    0 -0.35147067569E+03  0.53492259817E+03 -0.13206460099E+04  0.16085987416E+04  0.65864270000E+03 0.  0.
    8880022    1    1    2    0    0  0.35147067569E+03 -0.53492259817E+03 -0.32893282510E+03  0.73570529313E+03  0.15294330000E+03 0.  0.
<mgrwt>
<rscale>  0 0.84498309E+03</rscale>
<asrwt>0</asrwt>
<pdfrwt beam="1">  1        2 0.53440401E-01 0.91841387E+03</pdfrwt>
<pdfrwt beam="2">  1       -2 0.30722175E+00 0.91841387E+03</pdfrwt>
<totfact> 0.27267775E+00</totfact>
</mgrwt>
</event>
<event>
 4    2  0.3747163E-007  0.7464113E+03  0.7818608E-02  0.9841650E-01
          2   -1    0    0  501    0  0.00000000000E+00  0.00000000000E+00  0.20441792621E+04  0.20441792621E+04  0.25500000000E-02 0. -1.
         -2   -1    0    0    0  501 -0.00000000000E+00 -0.00000000000E+00 -0.21398515039E+03  0.21398515041E+03  0.25500000000E-02 0.  1.
    8880023    1    1    2    0    0 -0.23979753980E+03 -0.25654779084E+03  0.16948430827E+04  0.18519241103E+04  0.65864270000E+03 0. -1.
    8880022    1    1    2    0    0  0.23979753980E+03  0.25654779084E+03  0.13535102902E+03  0.40624030222E+03  0.15294330000E+03 0.  1.
<mgrwt>
<rscale>  0 0.63174468E+03</rscale>
<asrwt>0</asrwt>
<pdfrwt beam="1">  1        2 0.31448912E+00 0.74641130E+03</pdfrwt>
<pdfrwt beam="2">  1       -2 0.32920792E-01 0.74641130E+03</pdfrwt>
<totfact> 0.56004116E+01</totfact>
</mgrwt>
</event>
<event>
 4    2  0.1409336E-006  0.8117509E+03  0.7818608E-02  0.9685941E-01
          2   -1    0    0  501    0  0.00000000000E+00  0.00000000000E+00  0.36750193518E+04  0.36750193518E+04  0.25500000000E-02 0. -1.
         -2   -1    0    0    0  501 -0.00000000000E+00 -0.00000000000E+00 -0.18826093593E+04  0.18826093593E+04  0.25500000000E-02 0.  1.
    8880023    1    1    2    0    0 -0.46443430406E+03  0.97108460392E+02  0.35959626809E+04  0.36864464033E+04  0.65864270000E+03 0.  0.
    8880022    1    1    2    0    0  0.46443430406E+03 -0.97108460392E+02 -0.18035526884E+04  0.18711823077E+04  0.15294330000E+03 0.  0.
<mgrwt>
<rscale>  0 0.71860038E+03</rscale>
<asrwt>0</asrwt>
<pdfrwt beam="1">  1        2 0.56538759E+00 0.81175087E+03</pdfrwt>
<pdfrwt beam="2">  1       -2 0.28963221E+00 0.81175087E+03</pdfrwt>
<totfact> 0.24731866E-02</totfact>
</mgrwt>
</event>
<event>
 4    2  0.3747163E-007  0.6775210E+03  0.7818608E-02  0.1010762E+00
          2   -1    0    0  501    0  0.00000000000E+00  0.00000000000E+00  0.96125453630E+03  0.96125453630E+03  0.25500000000E-02 0. -1.
         -2   -1    0    0    0  501 -0.00000000000E+00 -0.00000000000E+00 -0.43348217664E+03  0.43348217664E+03  0.25500000000E-02 0.  1.
    8880023    1    1    2    0    0  0.96634441305E+01  0.15852801015E+03  0.79744394617E+03  0.10463993338E+04  0.65864270000E+03 0.  0.
    8880022    1    1    2    0    0 -0.96634441305E+01 -0.15852801015E+03 -0.26967158650E+03  0.34833737918E+03  0.15294330000E+03 0.  0.
<mgrwt>
<rscale>  0 0.51172857E+03</rscale>
<asrwt>0</asrwt>
<pdfrwt beam="1">  1        2 0.14788531E+00 0.67752101E+03</pdfrwt>
<pdfrwt beam="2">  1       -2 0.66689566E-01 0.67752101E+03</pdfrwt>
<totfact> 0.56308130E+01</totfact>
</mgrwt>
</event>
<event>
 4    2  0.3747163E-007  0.7488456E+03  0.7818608E-02  0.9834891E-01
          2   -1    0    0  501    0  0.00000000000E+00  0.00000000000E+00  0.32044422578E+04  0.32044422578E+04  0.25500000000E-02 0. -1.
         -2   -1    0    0    0  501 -0.00000000000E+00 -0.00000000000E+00 -0.14480282650E+03  0.14480282652E+03  0.25500000000E-02 0.  1.
    8880023    1    1    2    0    0  0.18177009960E+03  0.30646240097E+03  0.27583675852E+04  0.28582094944E+04  0.65864270000E+03 0.  1.
    8880022    1    1    2    0    0 -0.18177009960E+03 -0.30646240097E+03  0.30127184606E+03  0.49103558992E+03  0.15294330000E+03 0.  0.
<mgrwt>
<rscale>  0 0.63523233E+03</rscale>
<asrwt>0</asrwt>
<pdfrwt beam="1">  1        2 0.49299110E+00 0.74884563E+03</pdfrwt>
<pdfrwt beam="2">  1       -2 0.22277359E-01 0.74884563E+03</pdfrwt>
<totfact> 0.24196133E+01</totfact>
</mgrwt>
</event>
<event>
 4    2  0.3747163E-007  0.8537979E+03  0.7818608E-02  0.9604692E-01
         -2   -1    0    0    0  501 -0.00000000000E+00  0.00000000000E+00  0.36418237902E+03  0.36418237903E+03  0.25500000000E-02 0.  1.
          2   -1    0    0  501    0  0.00000000000E+00 -0.00000000000E+00 -0.27806583032E+04  0.27806583032E+04  0.25500000000E-02 0. -1.
    8880023    1    1    2    0    0 -0.15198162807E+03 -0.52159589343E+03 -0.24347791034E+04  0.25801395659E+04  0.65864270000E+03 0. -1.
    8880022    1    1    2    0    0  0.15198162807E+03  0.52159589343E+03  0.18303179223E+02  0.56470111625E+03  0.15294330000E+03 0.  0.
<mgrwt>
<rscale>  0 0.76986384E+03</rscale>
<asrwt>0</asrwt>
<pdfrwt beam="1">  1        2 0.42779357E+00 0.85379793E+03</pdfrwt>
<pdfrwt beam="2">  1       -2 0.56028060E-01 0.85379793E+03</pdfrwt>
<totfact> 0.73855060E+00</totfact>
</mgrwt>
</event>
<event>
 4    2  0.4013798E-007  0.7575180E+03  0.7818608E-02  0.9811576E-01
         -2   -1    0    0    0  501 -0.00000000000E+00  0.00000000000E+00  0.10076153124E+04  0.10076153124E+04  0.25500000000E-02 0.  1.
          2   -1    0    0  501    0  0.00000000000E+00 -0.00000000000E+00 -0.18913499824E+04  0.18913499824E+04  0.25500000000E-02 0. -1.
    8880023    1    1    2    0    0  0.18569767745E+03 -0.32486878122E+03 -0.17697660236E+04  0.19250728135E+04  0.65864270000E+03 0.  0.
    8880022    1    1    2    0    0 -0.18569767745E+03  0.32486878122E+03  0.88603135365E+03  0.97389248128E+03  0.15294330000E+03 0.  0.
<mgrwt>
<rscale>  0 0.64744998E+03</rscale>
<asrwt>0</asrwt>
<pdfrwt beam="1">  1        2 0.29097692E+00 0.75751803E+03</pdfrwt>
<pdfrwt beam="2">  1       -2 0.15501774E+00 0.75751803E+03</pdfrwt>
<totfact> 0.21792613E+00</totfact>
</mgrwt>
</event>
<event>
 4    2  0.3747163E-007  0.8402445E+03  0.7818608E-02  0.9629719E-01
          2   -1    0    0  501    0  0.00000000000E+00  0.00000000000E+00  0.12193697036E+04  0.12193697036E+04  0.25500000000E-02 0. -1.
         -2   -1    0    0    0  501 -0.00000000000E+00 -0.00000000000E+00 -0.75327839927E+03  0.75327839928E+03  0.25500000000E-02 0.  1.
    8880023    1    1    2    0    0  0.37600368517E+03 -0.36169294846E+03  0.93329008608E+03  0.12558029906E+04  0.65864270000E+03 0. -1.
    8880022    1    1    2    0    0 -0.37600368517E+03  0.36169294846E+03 -0.46719878177E+03  0.71684511223E+03  0.15294330000E+03 0.  0.
<mgrwt>
<rscale>  0 0.75359997E+03</rscale>
<asrwt>0</asrwt>
<pdfrwt beam="1">  1        2 0.18759534E+00 0.84024447E+03</pdfrwt>
<pdfrwt beam="2">  1       -2 0.11588899E+00 0.84024447E+03</pdfrwt>
<totfact> 0.10770416E+01</totfact>
</mgrwt>
</event>
<event>
 4    2  0.3747163E-007  0.8178989E+03  0.7818608E-02  0.9673353E-01
          2   -1    0    0  501    0  0.00000000000E+00  0.00000000000E+00  0.22087358580E+04  0.22087358580E+04  0.25500000000E-02 0. -1.
         -2   -1    0    0    0  501 -0.00000000000E+00 -0.00000000000E+00 -0.33628409951E+03  0.33628409952E+03  0.25500000000E-02 0.  1.
    8880023    1    1    2    0    0  0.45741770007E+03  0.16098895908E+03  0.18650371897E+04  0.20364975626E+04  0.65864270000E+03 0. -1.
    8880022    1    1    2    0    0 -0.45741770007E+03 -0.16098895908E+03  0.74145687953E+01  0.50852239491E+03  0.15294330000E+03 0.  0.
<mgrwt>
<rscale>  0 0.72625761E+03</rscale>
<asrwt>0</asrwt>
<pdfrwt beam="1">  1        2 0.33980552E+00 0.81789890E+03</pdfrwt>
<pdfrwt beam="2">  1       -2 0.51736015E-01 0.81789890E+03</pdfrwt>
<totfact> 0.18541855E+01</totfact>
</mgrwt>
</event>
<event>
 4    2  0.3747163E-007  0.1338804E+04  0.7818608E-02  0.9032754E-01
          2   -1    0    0  501    0  0.00000000000E+00  0.00000000000E+00  0.10984240223E+04  0.10984240223E+04  0.25500000000E-02 0. -1.
         -2   -1    0    0    0  501 -0.00000000000E+00 -0.00000000000E+00 -0.19061050135E+04  0.19061050135E+04  0.25500000000E-02 0.  1.
    8880023    1    1    2    0    0  0.10979072616E+04 -0.39138813940E+03  0.31893245626E+03  0.13762678332E+04  0.65864270000E+03 0.  0.
    8880022    1    1    2    0    0 -0.10979072616E+04  0.39138813940E+03 -0.11266134475E+04  0.16282612026E+04  0.15294330000E+03 0.  0.
<mgrwt>
<rscale>  0 0.12959858E+04</rscale>
<asrwt>0</asrwt>
<pdfrwt beam="1">  1        2 0.16898831E+00 0.13388037E+04</pdfrwt>
<pdfrwt beam="2">  1       -2 0.29324693E+00 0.13388037E+04</pdfrwt>
<totfact> 0.73387667E-01</totfact>
</mgrwt>
</event>
<event>
 4    2  0.3747163E-007  0.7576252E+03  0.7818608E-02  0.9811295E-01
         -2   -1    0    0    0  501 -0.00000000000E+00  0.00000000000E+00  0.34902616663E+03  0.34902616664E+03  0.25500000000E-02 0.  1.
          2   -1    0    0  501    0  0.00000000000E+00 -0.00000000000E+00 -0.36148511108E+04  0.36148511108E+04  0.25500000000E-02 0. -1.
    8880023    1    1    2    0    0 -0.96580015590E+02 -0.36174308013E+03 -0.34407855257E+04  0.35232089061E+04  0.65864270000E+03 0.  0.
    8880022    1    1    2    0    0  0.96580015590E+02  0.36174308013E+03  0.17496058155E+03  0.44066837139E+03  0.15294330000E+03 0.  0.
<mgrwt>
<rscale>  0 0.64759909E+03</rscale>
<asrwt>0</asrwt>
<pdfrwt beam="1">  1        2 0.55613091E+00 0.75762521E+03</pdfrwt>
<pdfrwt beam="2">  1       -2 0.53696336E-01 0.75762521E+03</pdfrwt>
<totfact> 0.23990448E+00</totfact>
</mgrwt>
</event>
<event>
 4    2  0.3747163E-007  0.7203598E+03  0.7818608E-02  0.9921370E-01
          2   -1    0    0  501    0  0.00000000000E+00  0.00000000000E+00  0.13457447030E+04  0.13457447030E+04  0.25500000000E-02 0. -1.
         -2   -1    0    0    0  501 -0.00000000000E+00 -0.00000000000E+00 -0.28951293058E+03  0.28951293059E+03  0.25500000000E-02 0.  1.
    8880023    1    1    2    0    0  0.26688807682E+03  0.11780842520E+03  0.10874350901E+04  0.13043900307E+04  0.65864270000E+03 0.  1.
    8880022    1    1    2    0    0 -0.26688807682E+03 -0.11780842520E+03 -0.31203317729E+02  0.33086760290E+03  0.15294330000E+03 0.  0.
<mgrwt>
<rscale>  0 0.59236678E+03</rscale>
<asrwt>0</asrwt>
<pdfrwt beam="1">  1        2 0.20703765E+00 0.72035982E+03</pdfrwt>
<pdfrwt beam="2">  1       -2 0.44540450E-01 0.72035982E+03</pdfrwt>
<totfact> 0.75874781E+01</totfact>
</mgrwt>
</event>
<event>
 4    2  0.3747163E-007  0.7283426E+03  0.7818608E-02  0.9895306E-01
          2   -1    0    0  501    0  0.00000000000E+00  0.00000000000E+00  0.20792181948E+04  0.20792181948E+04  0.25500000000E-02 0. -1.
         -2   -1    0    0    0  501 -0.00000000000E+00 -0.00000000000E+00 -0.25331890734E+03  0.25331890735E+03  0.25500000000E-02 0.  1.
    8880023    1    1    2    0    0  0.10247781768E+03  0.29354904337E+03  0.18469720289E+04  0.19853938213E+04  0.65864270000E+03 0.  0.
    8880022    1    1    2    0    0 -0.10247781768E+03 -0.29354904337E+03 -0.21072741421E+02  0.34714328083E+03  0.15294330000E+03 0.  0.
<mgrwt>
<rscale>  0 0.60489301E+03</rscale>
<asrwt>0</asrwt>
<pdfrwt beam="1">  1        2 0.31987972E+00 0.72834260E+03</pdfrwt>
<pdfrwt beam="2">  1       -2 0.38972140E-01 0.72834260E+03</pdfrwt>
<totfact> 0.38898557E+01</totfact>
</mgrwt>
</event>
<event>
 4    2  0.3747163E-007  0.8944518E+03  0.7818608E-02  0.9534998E-01
          2   -1    0    0  501    0  0.00000000000E+00  0.00000000000E+00  0.25563328228E+04  0.25563328228E+04  0.25500000000E-02 0. -1.
         -2   -1    0    0    0  501 -0.00000000000E+00 -0.00000000000E+00 -0.25499816079E+03  0.25499816081E+03  0.25500000000E-02 0.  1.
    8880023    1    1    2    0    0  0.43584520223E+03 -0.41984850113E+03  0.18027501496E+04  0.20124492820E+04  0.65864270000E+03 0. -1.
    8880022    1    1    2    0    0 -0.43584520223E+03  0.41984850113E+03  0.49858451235E+03  0.79888170162E+03  0.15294330000E+03 0.  0.
<mgrwt>
<rscale>  0 0.81752044E+03</rscale>
<asrwt>0</asrwt>
<pdfrwt beam="1">  1        2 0.39328197E+00 0.89445179E+03</pdfrwt>
<pdfrwt beam="2">  1       -2 0.39230486E-01 0.89445179E+03</pdfrwt>
<totfact> 0.20346791E+01</totfact>
</mgrwt>
</event>
<event>
 4    2  0.3747163E-007  0.7822173E+03  0.7818608E-02  0.9750654E-01
          2   -1    0    0  501    0  0.00000000000E+00  0.00000000000E+00  0.52363083563E+03  0.52363083563E+03  0.25500000000E-02 0. -1.
         -2   -1    0    0    0  501 -0.00000000000E+00 -0.00000000000E+00 -0.10658945494E+04  0.10658945494E+04  0.25500000000E-02 0.  1.
    8880023    1    1    2    0    0  0.38702251443E+03 -0.16812890564E+03  0.11809060172E+03  0.79108112862E+03  0.65864270000E+03 0. -1.
    8880022    1    1    2    0    0 -0.38702251443E+03  0.16812890564E+03 -0.66035431546E+03  0.79844425638E+03  0.15294330000E+03 0.  0.
<mgrwt>
<rscale>  0 0.68079326E+03</rscale>
<asrwt>0</asrwt>
<pdfrwt beam="1">  1        2 0.80558591E-01 0.78221734E+03</pdfrwt>
<pdfrwt beam="2">  1       -2 0.16398378E+00 0.78221734E+03</pdfrwt>
<totfact> 0.13902505E+01</totfact>
</mgrwt>
</event>
<event>
 4    2  0.3747163E-007  0.1116397E+04  0.7818608E-02  0.9243016E-01
         -2   -1    0    0    0  501 -0.00000000000E+00  0.00000000000E+00  0.63415697898E+03  0.63415697899E+03  0.25500000000E-02 0.  1.
          2   -1    0    0  501    0  0.00000000000E+00 -0.00000000000E+00 -0.29542359824E+04  0.29542359824E+04  0.25500000000E-02 0. -1.
    8880023    1    1    2    0    0 -0.75475580884E+03  0.49282514981E+03 -0.23647110824E+02  0.11166478189E+04  0.65864270000E+03 0.  0.
    8880022    1    1    2    0    0  0.75475580884E+03 -0.49282514981E+03 -0.22964318926E+04  0.24717451425E+04  0.15294330000E+03 0.  0.
<mgrwt>
<rscale>  0 0.10620256E+04</rscale>
<asrwt>0</asrwt>
<pdfrwt beam="1">  1        2 0.45449784E+00 0.11163974E+04</pdfrwt>
<pdfrwt beam="2">  1       -2 0.97562614E-01 0.11163974E+04</pdfrwt>
<totfact> 0.16303429E+00</totfact>
</mgrwt>
</event>
<event>
 4    2  0.3747163E-007  0.7258645E+03  0.7818608E-02  0.9903220E-01
          2   -1    0    0  501    0  0.00000000000E+00  0.00000000000E+00  0.12563300804E+04  0.12563300804E+04  0.25500000000E-02 0. -1.
         -2   -1    0    0    0  501 -0.00000000000E+00 -0.00000000000E+00 -0.35596686319E+03  0.35596686320E+03  0.25500000000E-02 0.  1.
    8880023    1    1    2    0    0 -0.19257240056E+03  0.23661146044E+03  0.10189163353E+04  0.12510275046E+04  0.65864270000E+03 0. -1.
    8880022    1    1    2    0    0  0.19257240056E+03 -0.23661146044E+03 -0.11855311817E+03  0.36126943894E+03  0.15294330000E+03 0.  0.
<mgrwt>
<rscale>  0 0.60105489E+03</rscale>
<asrwt>0</asrwt>
<pdfrwt beam="1">  1        2 0.19328155E+00 0.72586453E+03</pdfrwt>
<pdfrwt beam="2">  1       -2 0.54764132E-01 0.72586453E+03</pdfrwt>
<totfact> 0.56131880E+01</totfact>
</mgrwt>
</event>
<event>
 4    2  0.3747163E-007  0.7226728E+03  0.7818608E-02  0.9913644E-01
         -2   -1    0    0    0  501 -0.00000000000E+00  0.00000000000E+00  0.65548065392E+03  0.65548065393E+03  0.25500000000E-02 0.  1.
          2   -1    0    0  501    0  0.00000000000E+00 -0.00000000000E+00 -0.98920700449E+03  0.98920700450E+03  0.25500000000E-02 0. -1.
    8880023    1    1    2    0    0 -0.29633218536E+03 -0.25160419352E+02 -0.79536563682E+03  0.10746452965E+04  0.65864270000E+03 0. -1.
    8880022    1    1    2    0    0  0.29633218536E+03  0.25160419352E+02  0.46163928624E+03  0.57004236193E+03  0.15294330000E+03 0.  0.
<mgrwt>
<rscale>  0 0.59604590E+03</rscale>
<asrwt>0</asrwt>
<pdfrwt beam="1">  1        2 0.15218569E+00 0.72267283E+03</pdfrwt>
<pdfrwt beam="2">  1       -2 0.10084318E+00 0.72267283E+03</pdfrwt>
<totfact> 0.21123271E+01</totfact>
</mgrwt>
</event>
<event>
 4    2  0.3747163E-007  0.9166146E+03  0.7818608E-02  0.9499870E-01
         -2   -1    0    0    0  501 -0.00000000000E+00  0.00000000000E+00  0.11065057408E+04  0.11065057408E+04  0.25500000000E-02 0.  1.
          2   -1    0    0  501    0  0.00000000000E+00 -0.00000000000E+00 -0.85536678115E+03  0.85536678115E+03  0.25500000000E-02 0. -1.
    8880023    1    1    2    0    0 -0.59405362662E+03 -0.23124090547E+03 -0.43352459185E+03  0.10139654065E+04  0.65864270000E+03 0. -1.
    8880022    1    1    2    0    0  0.59405362662E+03  0.23124090547E+03  0.68466355149E+03  0.94790711539E+03  0.15294330000E+03 0.  0.
<mgrwt>
<rscale>  0 0.84293442E+03</rscale>
<asrwt>0</asrwt>
<pdfrwt beam="1">  1        2 0.13159489E+00 0.91661457E+03</pdfrwt>
<pdfrwt beam="2">  1       -2 0.17023165E+00 0.91661457E+03</pdfrwt>
<totfact> 0.66787360E+00</totfact>
</mgrwt>
</event>
<event>
 4    2  0.3747163E-007  0.6934791E+03  0.7818608E-02  0.1002541E+00
          2   -1    0    0  501    0  0.00000000000E+00  0.00000000000E+00  0.19932519275E+04  0.19932519275E+04  0.25500000000E-02 0. -1.
         -2   -1    0    0    0  501 -0.00000000000E+00 -0.00000000000E+00 -0.17385562913E+03  0.17385562915E+03  0.25500000000E-02 0.  1.
    8880023    1    1    2    0    0  0.69713612173E+02 -0.20553124589E+03  0.17646373194E+04  0.18960111171E+04  0.65864270000E+03 0. -1.
    8880022    1    1    2    0    0 -0.69713612173E+02  0.20553124589E+03  0.54758978960E+02  0.27109643957E+03  0.15294330000E+03 0.  0.
<mgrwt>
<rscale>  0 0.54549984E+03</rscale>
<asrwt>0</asrwt>
<pdfrwt beam="1">  1        2 0.30665415E+00 0.69347912E+03</pdfrwt>
<pdfrwt beam="2">  1       -2 0.26747019E-01 0.69347912E+03</pdfrwt>
<totfact> 0.88257203E+01</totfact>
</mgrwt>
</event>
<event>
 4    2  0.3747163E-007  0.8573973E+03  0.7818608E-02  0.9598210E-01
          2   -1    0    0  501    0  0.00000000000E+00  0.00000000000E+00  0.12122013620E+04  0.12122013620E+04  0.25500000000E-02 0. -1.
         -2   -1    0    0    0  501 -0.00000000000E+00 -0.00000000000E+00 -0.72942967095E+03  0.72942967095E+03  0.25500000000E-02 0.  1.
    8880023    1    1    2    0    0  0.51247736408E+03  0.19668985585E+03  0.89416234193E+03  0.12388125153E+04  0.65864270000E+03 0.  0.
    8880022    1    1    2    0    0 -0.51247736408E+03 -0.19668985585E+03 -0.41139065088E+03  0.70281851764E+03  0.15294330000E+03 0.  0.
<mgrwt>
<rscale>  0 0.77414768E+03</rscale>
<asrwt>0</asrwt>
<pdfrwt beam="1">  1        2 0.18649252E+00 0.85739731E+03</pdfrwt>
<pdfrwt beam="2">  1       -2 0.11221995E+00 0.85739731E+03</pdfrwt>
<totfact> 0.11743093E+01</totfact>
</mgrwt>
</event>
<event>
 4    2  0.3747163E-007  0.1003988E+04  0.7818608E-02  0.9376359E-01
         -2   -1    0    0    0  501 -0.00000000000E+00  0.00000000000E+00  0.18550885151E+04  0.18550885151E+04  0.25500000000E-02 0.  1.
          2   -1    0    0  501    0  0.00000000000E+00 -0.00000000000E+00 -0.94486031493E+03  0.94486031493E+03  0.25500000000E-02 0. -1.
    8880023    1    1    2    0    0  0.61268137388E+03 -0.44587326370E+03 -0.55216771102E+03  0.11458101154E+04  0.65864270000E+03 0.  0.
    8880022    1    1    2    0    0 -0.61268137388E+03  0.44587326370E+03  0.14623959112E+04  0.16541387147E+04  0.15294330000E+03 0.  0.
<mgrwt>
<rscale>  0 0.94047061E+03</rscale>
<asrwt>0</asrwt>
<pdfrwt beam="1">  1        2 0.14536313E+00 0.10039879E+04</pdfrwt>
<pdfrwt beam="2">  1       -2 0.28539823E+00 0.10039879E+04</pdfrwt>
<totfact> 0.10694765E+00</totfact>
</mgrwt>
</event>
<event>
 4    2  0.3747163E-007  0.9115001E+03  0.7818608E-02  0.9507817E-01
          2   -1    0    0  501    0  0.00000000000E+00  0.00000000000E+00  0.10976074449E+04  0.10976074449E+04  0.25500000000E-02 0. -1.
         -2   -1    0    0    0  501 -0.00000000000E+00 -0.00000000000E+00 -0.10442271198E+04  0.10442271198E+04  0.25500000000E-02 0.  1.
    8880023    1    1    2    0    0 -0.45836442901E+03 -0.43234737214E+03 -0.69896091389E+03  0.11486421398E+04  0.65864270000E+03 0.  0.
    8880022    1    1    2    0    0  0.45836442901E+03  0.43234737214E+03  0.75234123903E+03  0.99319242493E+03  0.15294330000E+03 0.  0.
<mgrwt>
<rscale>  0 0.83709965E+03</rscale>
<asrwt>0</asrwt>
<pdfrwt beam="1">  1        2 0.16886268E+00 0.91150009E+03</pdfrwt>
<pdfrwt beam="2">  1       -2 0.16065033E+00 0.91150009E+03</pdfrwt>
<totfact> 0.54485712E+00</totfact>
</mgrwt>
</event>
<event>
 4    2  0.3747163E-007  0.7320480E+03  0.7818608E-02  0.9883747E-01
         -2   -1    0    0    0  501 -0.00000000000E+00  0.00000000000E+00  0.51771382329E+03  0.51771382329E+03  0.25500000000E-02 0.  1.
          2   -1    0    0  501    0  0.00000000000E+00 -0.00000000000E+00 -0.74017216693E+03  0.74017216694E+03  0.25500000000E-02 0. -1.
    8880023    1    1    2    0    0  0.24057349314E+03 -0.21025800862E+03 -0.42835857306E+03  0.84816585004E+03  0.65864270000E+03 0. -1.
    8880022    1    1    2    0    0 -0.24057349314E+03  0.21025800862E+03  0.20590022942E+03  0.40972014019E+03  0.15294330000E+03 0.  0.
<mgrwt>
<rscale>  0 0.61055474E+03</rscale>
<asrwt>0</asrwt>
<pdfrwt beam="1">  1        2 0.11387264E+00 0.73204798E+03</pdfrwt>
<pdfrwt beam="2">  1       -2 0.79648280E-01 0.73204798E+03</pdfrwt>
<totfact> 0.54028050E+01</totfact>
</mgrwt>
</event>
<event>
 4    2  0.3747163E-007  0.9665619E+03  0.7818608E-02  0.9426675E-01
         -2   -1    0    0    0  501 -0.00000000000E+00  0.00000000000E+00  0.98024234276E+03  0.98024234276E+03  0.25500000000E-02 0.  1.
          2   -1    0    0  501    0  0.00000000000E+00 -0.00000000000E+00 -0.99968043658E+03  0.99968043658E+03  0.25500000000E-02 0. -1.
    8880023    1    1    2    0    0  0.70278522581E+03  0.80774896851E+02 -0.52226876942E+03  0.10986384898E+04  0.65864270000E+03 0.  0.
    8880022    1    1    2    0    0 -0.70278522581E+03 -0.80774896851E+02  0.50283067560E+03  0.88128428950E+03  0.15294330000E+03 0.  0.
<mgrwt>
<rscale>  0 0.89912557E+03</rscale>
<asrwt>0</asrwt>
<pdfrwt beam="1">  1        2 0.15379699E+00 0.96656188E+03</pdfrwt>
<pdfrwt beam="2">  1       -2 0.15080651E+00 0.96656188E+03</pdfrwt>
<totfact> 0.74024467E+00</totfact>
</mgrwt>
</event>
<event>
 4    2  0.3747163E-007  0.1104898E+04  0.7818608E-02  0.9255622E-01
          2   -1    0    0  501    0  0.00000000000E+00  0.00000000000E+00  0.29517252898E+04  0.29517252898E+04  0.25500000000E-02 0. -1.
         -2   -1    0    0    0  501 -0.00000000000E+00 -0.00000000000E+00 -0.53153774229E+03  0.53153774229E+03  0.25500000000E-02 0.  1.
    8880023    1    1    2    0    0  0.73508706343E+03  0.49662544679E+03  0.23298052445E+04  0.25785252585E+04  0.65864270000E+03 0. -1.
    8880022    1    1    2    0    0 -0.73508706343E+03 -0.49662544679E+03  0.90382303010E+02  0.90473777357E+03  0.15294330000E+03 0.  0.
<mgrwt>
<rscale>  0 0.10497307E+04</rscale>
<asrwt>0</asrwt>
<pdfrwt beam="1">  1        2 0.45411158E+00 0.11048982E+04</pdfrwt>
<pdfrwt beam="2">  1       -2 0.81775037E-01 0.11048982E+04</pdfrwt>
<totfact> 0.24667840E+00</totfact>
</mgrwt>
</event>
<event>
 4    2  0.3747163E-007  0.7387682E+03  0.7818608E-02  0.9863550E-01
          2   -1    0    0  501    0  0.00000000000E+00  0.00000000000E+00  0.21825752004E+04  0.21825752004E+04  0.25500000000E-02 0. -1.
         -2   -1    0    0    0  501 -0.00000000000E+00 -0.00000000000E+00 -0.41556082000E+03  0.41556082001E+03  0.25500000000E-02 0.  1.
    8880023    1    1    2    0    0 -0.21216555744E+03 -0.25875476157E+03  0.20205188220E+04  0.21513425498E+04  0.65864270000E+03 0.  0.
    8880022    1    1    2    0    0  0.21216555744E+03  0.25875476157E+03 -0.25350444162E+03  0.44679347056E+03  0.15294330000E+03 0.  0.
<mgrwt>
<rscale>  0 0.62060804E+03</rscale>
<asrwt>0</asrwt>
<pdfrwt beam="1">  1        2 0.33578080E+00 0.73876820E+03</pdfrwt>
<pdfrwt beam="2">  1       -2 0.63932435E-01 0.73876820E+03</pdfrwt>
<totfact> 0.12442356E+01</totfact>
</mgrwt>
</event>
<event>
 4    2  0.3747163E-007  0.7615742E+03  0.7818608E-02  0.9801049E-01
         -2   -1    0    0    0  501 -0.00000000000E+00  0.00000000000E+00  0.33451977593E+03  0.33451977594E+03  0.25500000000E-02 0.  1.
          2   -1    0    0  501    0  0.00000000000E+00 -0.00000000000E+00 -0.18547142337E+04  0.18547142337E+04  0.25500000000E-02 0. -1.
    8880023    1    1    2    0    0 -0.27168387006E+03  0.26902208001E+03 -0.15979574971E+04  0.17701591379E+04  0.65864270000E+03 0.  0.
    8880022    1    1    2    0    0  0.27168387006E+03 -0.26902208001E+03  0.77763039352E+02  0.41907487170E+03  0.15294330000E+03 0.  0.
<mgrwt>
<rscale>  0 0.65306275E+03</rscale>
<asrwt>0</asrwt>
<pdfrwt beam="1">  1        2 0.28534065E+00 0.76157417E+03</pdfrwt>
<pdfrwt beam="2">  1       -2 0.51464582E-01 0.76157417E+03</pdfrwt>
<totfact> 0.29509609E+01</totfact>
</mgrwt>
</event>
<event>
 4    2  0.3747163E-007  0.8030779E+03  0.7818608E-02  0.9704180E-01
          2   -1    0    0  501    0  0.00000000000E+00  0.00000000000E+00  0.47154981528E+03  0.47154981529E+03  0.25500000000E-02 0. -1.
         -2   -1    0    0    0  501 -0.00000000000E+00 -0.00000000000E+00 -0.12494939241E+04  0.12494939241E+04  0.25500000000E-02 0.  1.
    8880023    1    1    2    0    0  0.19119467855E+03  0.41781388889E+03  0.18903340562E+01  0.80308008971E+03  0.65864270000E+03 0.  0.
    8880022    1    1    2    0    0 -0.19119467855E+03 -0.41781388889E+03 -0.77983444291E+03  0.91796364973E+03  0.15294330000E+03 0.  0.
<mgrwt>
<rscale>  0 0.70768451E+03</rscale>
<asrwt>0</asrwt>
<pdfrwt beam="1">  1        2 0.72546126E-01 0.80307786E+03</pdfrwt>
<pdfrwt beam="2">  1       -2 0.19222983E+00 0.80307786E+03</pdfrwt>
<totfact> 0.99940326E+00</totfact>
</mgrwt>
</event>
<event>
 4    2  0.3747163E-007  0.7799711E+03  0.7818608E-02  0.9755905E-01
          2   -1    0    0  501    0  0.00000000000E+00  0.00000000000E+00  0.85121984982E+03  0.85121984983E+03  0.25500000000E-02 0. -1.
         -2   -1    0    0    0  501 -0.00000000000E+00 -0.00000000000E+00 -0.69777044603E+03  0.69777044603E+03  0.25500000000E-02 0.  1.
    8880023    1    1    2    0    0 -0.41238892853E+03 -0.66933811305E+02  0.54889253227E+03  0.95374943340E+03  0.65864270000E+03 0.  0.
    8880022    1    1    2    0    0  0.41238892853E+03  0.66933811305E+02 -0.39544312847E+03  0.59524086246E+03  0.15294330000E+03 0.  0.
<mgrwt>
<rscale>  0 0.67783597E+03</rscale>
<asrwt>0</asrwt>
<pdfrwt beam="1">  1        2 0.13095690E+00 0.77997113E+03</pdfrwt>
<pdfrwt beam="2">  1       -2 0.10734930E+00 0.77997113E+03</pdfrwt>
<totfact> 0.22342137E+01</totfact>
</mgrwt>
</event>
<event>
 4    2  0.3747163E-007  0.1482774E+04  0.7818608E-02  0.8921896E-01
         -2   -1    0    0    0  501 -0.00000000000E+00  0.00000000000E+00  0.18878096537E+04  0.18878096537E+04  0.25500000000E-02 0.  1.
          2   -1    0    0  501    0  0.00000000000E+00 -0.00000000000E+00 -0.24954716478E+04  0.24954716478E+04  0.25500000000E-02 0. -1.
    8880023    1    1    2    0    0  0.12085191479E+04 -0.55162549820E+03 -0.19757098026E+04  0.24702325096E+04  0.65864270000E+03 0.  0.
    8880022    1    1    2    0    0 -0.12085191479E+04  0.55162549820E+03  0.13680478084E+04  0.19130487920E+04  0.15294330000E+03 0.  0.
<mgrwt>
<rscale>  0 0.14449683E+04</rscale>
<asrwt>0</asrwt>
<pdfrwt beam="1">  1        2 0.38391871E+00 0.14827742E+04</pdfrwt>
<pdfrwt beam="2">  1       -2 0.29043226E+00 0.14827742E+04</pdfrwt>
<totfact> 0.11975264E-01</totfact>
</mgrwt>
</event>
<event>
 4    2  0.3747163E-007  0.6806523E+03  0.7818608E-02  0.1008957E+00
          2   -1    0    0  501    0  0.00000000000E+00  0.00000000000E+00  0.10976634669E+04  0.10976634669E+04  0.25500000000E-02 0. -1.
         -2   -1    0    0    0  501 -0.00000000000E+00 -0.00000000000E+00 -0.29596217408E+03  0.29596217410E+03  0.25500000000E-02 0.  1.
    8880023    1    1    2    0    0 -0.11267026877E+03 -0.12954803136E+03  0.91249566501E+03  0.11383917721E+04  0.65864270000E+03 0. -1.
    8880022    1    1    2    0    0  0.11267026877E+03  0.12954803136E+03 -0.11079437221E+03  0.25523386887E+03  0.15294330000E+03 0.  0.
<mgrwt>
<rscale>  0 0.51891238E+03</rscale>
<asrwt>0</asrwt>
<pdfrwt beam="1">  1        2 0.16887131E+00 0.68065225E+03</pdfrwt>
<pdfrwt beam="2">  1       -2 0.45532641E-01 0.68065225E+03</pdfrwt>
<totfact> 0.10196788E+02</totfact>
</mgrwt>
</event>
<event>
 4    2  0.3747163E-007  0.7632446E+03  0.7818608E-02  0.9796779E-01
          2   -1    0    0  501    0  0.00000000000E+00  0.00000000000E+00  0.19541363064E+04  0.19541363064E+04  0.25500000000E-02 0. -1.
         -2   -1    0    0    0  501 -0.00000000000E+00 -0.00000000000E+00 -0.79243932050E+03  0.79243932051E+03  0.25500000000E-02 0.  1.
    8880023    1    1    2    0    0  0.24505744386E+03 -0.29779024288E+03  0.18171059121E+04  0.19708922552E+04  0.65864270000E+03 0. -1.
    8880022    1    1    2    0    0 -0.24505744386E+03  0.29779024288E+03 -0.65540892622E+03  0.77568337170E+03  0.15294330000E+03 0.  0.
<mgrwt>
<rscale>  0 0.65535701E+03</rscale>
<asrwt>0</asrwt>
<pdfrwt beam="1">  1        2 0.30063635E+00 0.76324464E+03</pdfrwt>
<pdfrwt beam="2">  1       -2 0.12191374E+00 0.76324464E+03</pdfrwt>
<totfact> 0.37363971E+00</totfact>
</mgrwt>
</event>
<event>
 4    2  0.3747163E-007  0.7231917E+03  0.7818608E-02  0.9911931E-01
          2   -1    0    0  501    0  0.00000000000E+00  0.00000000000E+00  0.15166243952E+04  0.15166243952E+04  0.25500000000E-02 0. -1.
         -2   -1    0    0    0  501 -0.00000000000E+00 -0.00000000000E+00 -0.19344773986E+03  0.19344773988E+03  0.25500000000E-02 0.  1.
    8880023    1    1    2    0    0 -0.24819487221E+03  0.16611855518E+03  0.10620517074E+04  0.12848969236E+04  0.65864270000E+03 0.  0.
    8880022    1    1    2    0    0  0.24819487221E+03 -0.16611855518E+03  0.26112494798E+03  0.42517521146E+03  0.15294330000E+03 0.  1.
<mgrwt>
<rscale>  0 0.59686549E+03</rscale>
<asrwt>0</asrwt>
<pdfrwt beam="1">  1        2 0.23332683E+00 0.72319173E+03</pdfrwt>
<pdfrwt beam="2">  1       -2 0.29761191E-01 0.72319173E+03</pdfrwt>
<totfact> 0.13175714E+02</totfact>
</mgrwt>
</event>
<event>
 4    2  0.3747163E-007  0.8027773E+03  0.7818608E-02  0.9704823E-01
         -2   -1    0    0    0  501 -0.00000000000E+00  0.00000000000E+00  0.20731728226E+03  0.20731728228E+03  0.25500000000E-02 0.  1.
          2   -1    0    0  501    0  0.00000000000E+00 -0.00000000000E+00 -0.20755541546E+04  0.20755541546E+04  0.25500000000E-02 0. -1.
    8880023    1    1    2    0    0 -0.18849515932E+03  0.41846230292E+03 -0.13736515682E+04  0.15910279574E+04  0.65864270000E+03 0.  0.
    8880022    1    1    2    0    0  0.18849515932E+03 -0.41846230292E+03 -0.49458530412E+03  0.69184347949E+03  0.15294330000E+03 0.  0.
<mgrwt>
<rscale>  0 0.70730362E+03</rscale>
<asrwt>0</asrwt>
<pdfrwt beam="1">  1        2 0.31931601E+00 0.80277726E+03</pdfrwt>
<pdfrwt beam="2">  1       -2 0.31894968E-01 0.80277726E+03</pdfrwt>
<totfact> 0.56765815E+01</totfact>
</mgrwt>
</event>
<event>
 4    2  0.3747163E-007  0.7499801E+03  0.7818608E-02  0.9831775E-01
         -2   -1    0    0    0  501 -0.00000000000E+00  0.00000000000E+00  0.45839397221E+03  0.45839397222E+03  0.25500000000E-02 0.  1.
          2   -1    0    0  501    0  0.00000000000E+00 -0.00000000000E+00 -0.18257404386E+04  0.18257404386E+04  0.25500000000E-02 0. -1.
    8880023    1    1    2    0    0 -0.34280862491E+03 -0.10555667173E+03 -0.16433525741E+04  0.18063991401E+04  0.65864270000E+03 0.  0.
    8880022    1    1    2    0    0  0.34280862491E+03  0.10555667173E+03  0.27600610780E+03  0.47773527064E+03  0.15294330000E+03 0.  0.
<mgrwt>
<rscale>  0 0.63684859E+03</rscale>
<asrwt>0</asrwt>
<pdfrwt beam="1">  1        2 0.28088314E+00 0.74998011E+03</pdfrwt>
<pdfrwt beam="2">  1       -2 0.70522151E-01 0.74998011E+03</pdfrwt>
<totfact> 0.15740478E+01</totfact>
</mgrwt>
</event>
<event>
 4    2  0.3747163E-007  0.9174465E+03  0.7818608E-02  0.9498585E-01
          2   -1    0    0  501    0  0.00000000000E+00  0.00000000000E+00  0.19398958964E+04  0.19398958964E+04  0.25500000000E-02 0. -1.
         -2   -1    0    0    0  501 -0.00000000000E+00 -0.00000000000E+00 -0.44505437837E+03  0.44505437838E+03  0.25500000000E-02 0.  1.
    8880023    1    1    2    0    0  0.20674377584E+02  0.63833418464E+03  0.14637295478E+04  0.17274872957E+04  0.65864270000E+03 0. -1.
    8880022    1    1    2    0    0 -0.20674377584E+02 -0.63833418464E+03  0.31111970145E+02  0.65746297909E+03  0.15294330000E+03 0.  0.
<mgrwt>
<rscale>  0 0.84388196E+03</rscale>
<asrwt>0</asrwt>
<pdfrwt beam="1">  1        2 0.29844553E+00 0.91744655E+03</pdfrwt>
<pdfrwt beam="2">  1       -2 0.68469904E-01 0.91744655E+03</pdfrwt>
<totfact> 0.14237676E+01</totfact>
</mgrwt>
</event>
<event>
 4    2  0.3747163E-007  0.6916731E+03  0.7818608E-02  0.1003367E+00
         -2   -1    0    0    0  501 -0.00000000000E+00  0.00000000000E+00  0.81005231791E+03  0.81005231791E+03  0.25500000000E-02 0.  1.
          2   -1    0    0  501    0  0.00000000000E+00 -0.00000000000E+00 -0.46398420524E+03  0.46398420525E+03  0.25500000000E-02 0. -1.
    8880023    1    1    2    0    0  0.12917036251E+03 -0.16708221162E+03 -0.15531899463E+03  0.70889748508E+03  0.65864270000E+03 0. -1.
    8880022    1    1    2    0    0 -0.12917036251E+03  0.16708221162E+03  0.50138710729E+03  0.56513903808E+03  0.15294330000E+03 0.  0.
<mgrwt>
<rscale>  0 0.54198063E+03</rscale>
<asrwt>0</asrwt>
<pdfrwt beam="1">  1        2 0.71382186E-01 0.69167308E+03</pdfrwt>
<pdfrwt beam="2">  1       -2 0.12462343E+00 0.69167308E+03</pdfrwt>
<totfact> 0.32979635E+01</totfact>
</mgrwt>
</event>
<event>
 4    2  0.3747163E-007  0.8012003E+03  0.7818608E-02  0.9708207E-01
         -2   -1    0    0    0  501 -0.00000000000E+00  0.00000000000E+00  0.33828213673E+03  0.33828213674E+03  0.25500000000E-02 0.  1.
          2   -1    0    0  501    0  0.00000000000E+00 -0.00000000000E+00 -0.44786751735E+04  0.44786751735E+04  0.25500000000E-02 0. -1.
    8880023    1    1    2    0    0 -0.22552802085E+03 -0.39654611699E+03 -0.42488551333E+04  0.43237358686E+04  0.65864270000E+03 0. -1.
    8880022    1    1    2    0    0  0.22552802085E+03  0.39654611699E+03  0.10846209656E+03  0.49322144164E+03  0.15294330000E+03 0.  0.
<mgrwt>
<rscale>  0 0.70530261E+03</rscale>
<asrwt>0</asrwt>
<pdfrwt beam="1">  1        2 0.68902691E+00 0.80120030E+03</pdfrwt>
<pdfrwt beam="2">  1       -2 0.52043409E-01 0.80120030E+03</pdfrwt>
<totfact> 0.50652492E-01</totfact>
</mgrwt>
</event>
<event>
 4    2  0.3747163E-007  0.8207715E+03  0.7818608E-02  0.9667562E-01
         -2   -1    0    0    0  501 -0.00000000000E+00  0.00000000000E+00  0.71979164245E+03  0.71979164245E+03  0.25500000000E-02 0.  1.
          2   -1    0    0  501    0  0.00000000000E+00 -0.00000000000E+00 -0.93145085144E+03  0.93145085144E+03  0.25500000000E-02 0. -1.
    8880023    1    1    2    0    0  0.41612362663E+03  0.25825713729E+03 -0.59248606703E+03  0.10122774163E+04  0.65864270000E+03 0.  0.
    8880022    1    1    2    0    0 -0.41612362663E+03 -0.25825713729E+03  0.38082685804E+03  0.63896507762E+03  0.15294330000E+03 0.  0.
<mgrwt>
<rscale>  0 0.72981398E+03</rscale>
<asrwt>0</asrwt>
<pdfrwt beam="1">  1        2 0.14330013E+00 0.82077148E+03</pdfrwt>
<pdfrwt beam="2">  1       -2 0.11073718E+00 0.82077148E+03</pdfrwt>
<totfact> 0.18213532E+01</totfact>
</mgrwt>
</event>
<event>
 4    2  0.3747163E-007  0.6809817E+03  0.7818608E-02  0.1008774E+00
          2   -1    0    0  501    0  0.00000000000E+00  0.00000000000E+00  0.23235677216E+04  0.23235677216E+04  0.25500000000E-02 0. -1.
         -2   -1    0    0    0  501 -0.00000000000E+00 -0.00000000000E+00 -0.35241112767E+03  0.35241112768E+03  0.25500000000E-02 0.  1.
    8880023    1    1    2    0    0  0.14010340320E+03 -0.10147337816E+03  0.22285022745E+04  0.23302271142E+04  0.65864270000E+03 0.  0.
    8880022    1    1    2    0    0 -0.14010340320E+03  0.10147337816E+03 -0.25734568050E+03  0.34575173514E+03  0.15294330000E+03 0.  0.
<mgrwt>
<rscale>  0 0.51964918E+03</rscale>
<asrwt>0</asrwt>
<pdfrwt beam="1">  1        2 0.35747195E+00 0.68098166E+03</pdfrwt>
<pdfrwt beam="2">  1       -2 0.54217098E-01 0.68098166E+03</pdfrwt>
<totfact> 0.14845743E+01</totfact>
</mgrwt>
</event>
<event>
 4    2  0.3747163E-007  0.6647148E+03  0.7818608E-02  0.1019774E+00
         -2   -1    0    0    0  501 -0.00000000000E+00  0.00000000000E+00  0.93475168481E+03  0.93475168482E+03  0.25500000000E-02 0.  1.
          2   -1    0    0  501    0  0.00000000000E+00 -0.00000000000E+00 -0.52276916137E+03  0.52276916137E+03  0.25500000000E-02 0. -1.
    8880023    1    1    2    0    0 -0.42628431205E+02  0.78856843043E+02 -0.29602872434E+03  0.72765293701E+03  0.65864270000E+03 0. -1.
    8880022    1    1    2    0    0  0.42628431205E+02 -0.78856843043E+02  0.70801124779E+03  0.72986790918E+03  0.15294330000E+03 0.  0.
<mgrwt>
<rscale>  0 0.47768301E+03</rscale>
<asrwt>0</asrwt>
<pdfrwt beam="1">  1        2 0.80426026E-01 0.66471482E+03</pdfrwt>
<pdfrwt beam="2">  1       -2 0.14380795E+00 0.66471482E+03</pdfrwt>
<totfact> 0.19994403E+01</totfact>
</mgrwt>
</event>
<event>
 4    2  0.3747163E-007  0.8744813E+03  0.7818608E-02  0.9568306E-01
          2   -1    0    0  501    0  0.00000000000E+00  0.00000000000E+00  0.31310715956E+04  0.31310715956E+04  0.25500000000E-02 0. -1.
         -2   -1    0    0    0  501 -0.00000000000E+00 -0.00000000000E+00 -0.24792897436E+03  0.24792897437E+03  0.25500000000E-02 0.  1.
    8880023    1    1    2    0    0  0.57516817559E+03 -0.94252566612E+01  0.25524107616E+04  0.26980582217E+04  0.65864270000E+03 0.  0.
    8880022    1    1    2    0    0 -0.57516817559E+03  0.94252566612E+01  0.33073185971E+03  0.68094234831E+03  0.15294330000E+03 0.  0.
<mgrwt>
<rscale>  0 0.79429917E+03</rscale>
<asrwt>0</asrwt>
<pdfrwt beam="1">  1        2 0.48170331E+00 0.87448126E+03</pdfrwt>
<pdfrwt beam="2">  1       -2 0.38142920E-01 0.87448126E+03</pdfrwt>
<totfact> 0.97477325E+00</totfact>
</mgrwt>
</event>
<event>
 4    2  0.3747163E-007  0.9195157E+03  0.7818608E-02  0.9495402E-01
         -2   -1    0    0    0  501 -0.00000000000E+00  0.00000000000E+00  0.64983229151E+03  0.64983229152E+03  0.25500000000E-02 0.  1.
          2   -1    0    0  501    0  0.00000000000E+00 -0.00000000000E+00 -0.14612888917E+04  0.14612888917E+04  0.25500000000E-02 0. -1.
    8880023    1    1    2    0    0  0.35808169605E+03 -0.53242507365E+03 -0.10626895305E+04  0.14052822509E+04  0.65864270000E+03 0.  0.
    8880022    1    1    2    0    0 -0.35808169605E+03  0.53242507365E+03  0.25123293034E+03  0.70583893233E+03  0.15294330000E+03 0.  0.
<mgrwt>
<rscale>  0 0.84623666E+03</rscale>
<asrwt>0</asrwt>
<pdfrwt beam="1">  1        2 0.22481367E+00 0.91951572E+03</pdfrwt>
<pdfrwt beam="2">  1       -2 0.99974199E-01 0.91951572E+03</pdfrwt>
<totfact> 0.11073481E+01</totfact>
</mgrwt>
</event>
<event>
 4    2  0.3747163E-007  0.7060940E+03  0.7818608E-02  0.9972802E-01
          2   -1    0    0  501    0  0.00000000000E+00  0.00000000000E+00  0.14317787711E+04  0.14317787711E+04  0.25500000000E-02 0. -1.
         -2   -1    0    0    0  501 -0.00000000000E+00 -0.00000000000E+00 -0.42342544305E+03  0.42342544306E+03  0.25500000000E-02 0.  1.
    8880023    1    1    2    0    0  0.17662367682E+03  0.18320086152E+03  0.12741446090E+04  0.14567131391E+04  0.65864270000E+03 0. -1.
    8880022    1    1    2    0    0 -0.17662367682E+03 -0.18320086152E+03 -0.26579128091E+03  0.39849107505E+03  0.15294330000E+03 0.  0.
<mgrwt>
<rscale>  0 0.56859069E+03</rscale>
<asrwt>0</asrwt>
<pdfrwt beam="1">  1        2 0.22027366E+00 0.70609396E+03</pdfrwt>
<pdfrwt beam="2">  1       -2 0.65142376E-01 0.70609396E+03</pdfrwt>
<totfact> 0.30977145E+01</totfact>
</mgrwt>
</event>
<event>
 4    2  0.3747163E-007  0.9149411E+03  0.7818608E-02  0.9502460E-01
         -2   -1    0    0    0  501 -0.00000000000E+00  0.00000000000E+00  0.31799911995E+03  0.31799911996E+03  0.25500000000E-02 0.  1.
          2   -1    0    0  501    0  0.00000000000E+00 -0.00000000000E+00 -0.21470459542E+04  0.21470459542E+04  0.25500000000E-02 0. -1.
    8880023    1    1    2    0    0  0.26526031236E+03  0.57701301231E+03 -0.14359477125E+04  0.17026635278E+04  0.65864270000E+03 0.  0.
    8880022    1    1    2    0    0 -0.26526031236E+03 -0.57701301231E+03 -0.39309912178E+03  0.76238154637E+03  0.15294330000E+03 0.  0.
<mgrwt>
<rscale>  0 0.84102717E+03</rscale>
<asrwt>0</asrwt>
<pdfrwt beam="1">  1        2 0.33031475E+00 0.91494112E+03</pdfrwt>
<pdfrwt beam="2">  1       -2 0.48922943E-01 0.91494112E+03</pdfrwt>
<totfact> 0.22215716E+01</totfact>
</mgrwt>
</event>
<event>
 4    2  0.3747163E-007  0.8947641E+03  0.7818608E-02  0.9534490E-01
         -2   -1    0    0    0  501 -0.00000000000E+00  0.00000000000E+00  0.39914700258E+03  0.39914700259E+03  0.25500000000E-02 0.  1.
          2   -1    0    0  501    0  0.00000000000E+00 -0.00000000000E+00 -0.25662755964E+04  0.25662755964E+04  0.25500000000E-02 0. -1.
    8880023    1    1    2    0    0 -0.45867938009E+03  0.39548181546E+03 -0.22120804562E+03  0.92170268839E+03  0.65864270000E+03 0.  1.
    8880022    1    1    2    0    0  0.45867938009E+03 -0.39548181546E+03 -0.19459205482E+04  0.20437199106E+04  0.15294330000E+03 0.  0.
<mgrwt>
<rscale>  0 0.81788105E+03</rscale>
<asrwt>0</asrwt>
<pdfrwt beam="1">  1        2 0.39481162E+00 0.89476413E+03</pdfrwt>
<pdfrwt beam="2">  1       -2 0.61407233E-01 0.89476413E+03</pdfrwt>
<totfact> 0.80681075E+00</totfact>
</mgrwt>
</event>
<event>
 4    2  0.3747163E-007  0.8847568E+03  0.7818608E-02  0.9550959E-01
         -2   -1    0    0    0  501 -0.00000000000E+00  0.00000000000E+00  0.20738487319E+04  0.20738487319E+04  0.25500000000E-02 0.  1.
          2   -1    0    0  501    0  0.00000000000E+00 -0.00000000000E+00 -0.38489660846E+03  0.38489660847E+03  0.25500000000E-02 0. -1.
    8880023    1    1    2    0    0 -0.28790514374E+03  0.51584391759E+03  0.28765440093E+03  0.93034379653E+03  0.65864270000E+03 0.  1.
    8880022    1    1    2    0    0  0.28790514374E+03 -0.51584391759E+03  0.14012977225E+04  0.15284015439E+04  0.15294330000E+03 0.  0.
<mgrwt>
<rscale>  0 0.80628879E+03</rscale>
<asrwt>0</asrwt>
<pdfrwt beam="1">  1        2 0.59214862E-01 0.88475676E+03</pdfrwt>
<pdfrwt beam="2">  1       -2 0.31905366E+00 0.88475676E+03</pdfrwt>
<totfact> 0.20672409E+00</totfact>
</mgrwt>
</event>
<event>
 4    2  0.3747163E-007  0.8084699E+03  0.7818608E-02  0.9692773E-01
          2   -1    0    0  501    0  0.00000000000E+00  0.00000000000E+00  0.27583968827E+04  0.27583968827E+04  0.25500000000E-02 0. -1.
         -2   -1    0    0    0  501 -0.00000000000E+00 -0.00000000000E+00 -0.16827487876E+03  0.16827487878E+03  0.25500000000E-02 0.  1.
    8880023    1    1    2    0    0 -0.40179871306E+03 -0.24160133088E+03  0.20024210716E+04  0.21594707136E+04  0.65864270000E+03 0.  0.
    8880022    1    1    2    0    0  0.40179871306E+03  0.24160133088E+03  0.58770093237E+03  0.76720104785E+03  0.15294330000E+03 0.  0.
<mgrwt>
<rscale>  0 0.71448724E+03</rscale>
<asrwt>0</asrwt>
<pdfrwt beam="1">  1        2 0.42436874E+00 0.80846992E+03</pdfrwt>
<pdfrwt beam="2">  1       -2 0.25888443E-01 0.80846992E+03</pdfrwt>
<totfact> 0.34304568E+01</totfact>
</mgrwt>
</event>
<event>
 4    2  0.3747163E-007  0.7043967E+03  0.7818608E-02  0.9979429E-01
         -2   -1    0    0    0  501 -0.00000000000E+00  0.00000000000E+00  0.16018596698E+03  0.16018596700E+03  0.25500000000E-02 0.  1.
          2   -1    0    0  501    0  0.00000000000E+00 -0.00000000000E+00 -0.23058170544E+04  0.23058170544E+04  0.25500000000E-02 0. -1.
    8880023    1    1    2    0    0 -0.17145560370E+03  0.18156942655E+03 -0.20341507825E+04  0.21526597718E+04  0.65864270000E+03 0.  0.
    8880022    1    1    2    0    0  0.17145560370E+03 -0.18156942655E+03 -0.11148030492E+03  0.31334324965E+03  0.15294330000E+03 0.  0.
<mgrwt>
<rscale>  0 0.56561527E+03</rscale>
<asrwt>0</asrwt>
<pdfrwt beam="1">  1        2 0.35474106E+00 0.70439668E+03</pdfrwt>
<pdfrwt beam="2">  1       -2 0.24643997E-01 0.70439668E+03</pdfrwt>
<totfact> 0.68868384E+01</totfact>
</mgrwt>
</event>
<event>
 4    2  0.3747163E-007  0.9611878E+03  0.7818608E-02  0.9434197E-01
         -2   -1    0    0    0  501 -0.00000000000E+00  0.00000000000E+00  0.64671240650E+03  0.64671240651E+03  0.25500000000E-02 0.  1.
          2   -1    0    0  501    0  0.00000000000E+00 -0.00000000000E+00 -0.30085907963E+04  0.30085907963E+04  0.25500000000E-02 0. -1.
    8880023    1    1    2    0    0 -0.28906201175E+03 -0.63758517220E+03 -0.26977950372E+04  0.28639099091E+04  0.65864270000E+03 0. -1.
    8880022    1    1    2    0    0  0.28906201175E+03  0.63758517220E+03  0.33591664734E+03  0.79139329377E+03  0.15294330000E+03 0.  0.
<mgrwt>
<rscale>  0 0.89314065E+03</rscale>
<asrwt>0</asrwt>
<pdfrwt beam="1">  1        2 0.46286012E+00 0.96118776E+03</pdfrwt>
<pdfrwt beam="2">  1       -2 0.99494218E-01 0.96118776E+03</pdfrwt>
<totfact> 0.14754292E+00</totfact>
</mgrwt>
</event>
<event>
 4    2  0.3747163E-007  0.1040924E+04  0.7818608E-02  0.9329872E-01
          2   -1    0    0  501    0  0.00000000000E+00  0.00000000000E+00  0.31222140669E+04  0.31222140669E+04  0.25500000000E-02 0. -1.
         -2   -1    0    0    0  501 -0.00000000000E+00 -0.00000000000E+00 -0.57116042548E+03  0.57116042548E+03  0.25500000000E-02 0.  1.
    8880023    1    1    2    0    0  0.19784512778E+03  0.78138972266E+03  0.26687295791E+04  0.28645488940E+04  0.65864270000E+03 0.  0.
    8880022    1    1    2    0    0 -0.19784512778E+03 -0.78138972266E+03 -0.11767593768E+03  0.82882559842E+03  0.15294330000E+03 0.  0.
<mgrwt>
<rscale>  0 0.98078669E+03</rscale>
<asrwt>0</asrwt>
<pdfrwt beam="1">  1        2 0.48034061E+00 0.10409240E+04</pdfrwt>
<pdfrwt beam="2">  1       -2 0.87870837E-01 0.10409240E+04</pdfrwt>
<totfact> 0.16540616E+00</totfact>
</mgrwt>
</event>
<event>
 4    2  0.3747163E-007  0.8556592E+03  0.7818608E-02  0.9601332E-01
          2   -1    0    0  501    0  0.00000000000E+00  0.00000000000E+00  0.23110376931E+04  0.23110376931E+04  0.25500000000E-02 0. -1.
         -2   -1    0    0    0  501 -0.00000000000E+00 -0.00000000000E+00 -0.41819809274E+03  0.41819809275E+03  0.25500000000E-02 0.  1.
    8880023    1    1    2    0    0  0.37754718532E+03  0.39471577223E+03  0.19784879972E+04  0.21555897984E+04  0.65864270000E+03 0.  1.
    8880022    1    1    2    0    0 -0.37754718532E+03 -0.39471577223E+03 -0.85648396786E+02  0.57364598742E+03  0.15294330000E+03 0.  0.
<mgrwt>
<rscale>  0 0.77208078E+03</rscale>
<asrwt>0</asrwt>
<pdfrwt beam="1">  1        2 0.35554426E+00 0.85565918E+03</pdfrwt>
<pdfrwt beam="2">  1       -2 0.64338169E-01 0.85565918E+03</pdfrwt>
<totfact> 0.10240955E+01</totfact>
</mgrwt>
</event>
<event>
 4    2  0.3747163E-007  0.8773176E+03  0.7818608E-02  0.9563471E-01
         -2   -1    0    0    0  501 -0.00000000000E+00  0.00000000000E+00  0.28483127146E+03  0.28483127147E+03  0.25500000000E-02 0.  1.
          2   -1    0    0  501    0  0.00000000000E+00 -0.00000000000E+00 -0.19583108543E+04  0.19583108543E+04  0.25500000000E-02 0. -1.
    8880023    1    1    2    0    0 -0.52012887386E+03  0.25562078257E+03 -0.82488607036E+03  0.12042106399E+04  0.65864270000E+03 0.  1.
    8880022    1    1    2    0    0  0.52012887386E+03 -0.25562078257E+03 -0.84859351252E+03  0.10389314859E+04  0.15294330000E+03 0. -1.
<mgrwt>
<rscale>  0 0.79761794E+03</rscale>
<asrwt>0</asrwt>
<pdfrwt beam="1">  1        2 0.30127858E+00 0.87731764E+03</pdfrwt>
<pdfrwt beam="2">  1       -2 0.43820197E-01 0.87731764E+03</pdfrwt>
<totfact> 0.35355144E+01</totfact>
</mgrwt>
</event>
<event>
 4    2  0.3747163E-007  0.9598452E+03  0.7818608E-02  0.9436088E-01
         -2   -1    0    0    0  501 -0.00000000000E+00  0.00000000000E+00  0.37550497333E+03  0.37550497334E+03  0.25500000000E-02 0.  1.
          2   -1    0    0  501    0  0.00000000000E+00 -0.00000000000E+00 -0.34947980587E+04  0.34947980587E+04  0.25500000000E-02 0. -1.
    8880023    1    1    2    0    0  0.58524238229E+03 -0.38076756018E+03 -0.36847696616E+03  0.10281430162E+04  0.65864270000E+03 0.  0.
    8880022    1    1    2    0    0 -0.58524238229E+03  0.38076756018E+03 -0.27508161192E+04  0.28421600158E+04  0.15294330000E+03 0.  0.
<mgrwt>
<rscale>  0 0.89164342E+03</rscale>
<asrwt>0</asrwt>
<pdfrwt beam="1">  1        2 0.53766122E+00 0.95984519E+03</pdfrwt>
<pdfrwt beam="2">  1       -2 0.57769998E-01 0.95984519E+03</pdfrwt>
<totfact> 0.24002575E+00</totfact>
</mgrwt>
</event>
<event>
 4    2  0.3747163E-007  0.1246644E+04  0.7818608E-02  0.9113062E-01
          2   -1    0    0  501    0  0.00000000000E+00  0.00000000000E+00  0.24008001164E+04  0.24008001164E+04  0.25500000000E-02 0. -1.
         -2   -1    0    0    0  501 -0.00000000000E+00 -0.00000000000E+00 -0.97369828107E+03  0.97369828107E+03  0.25500000000E-02 0.  1.
    8880023    1    1    2    0    0 -0.10469045442E+04 -0.15589330039E+03  0.18446794509E+04  0.22264241125E+04  0.65864270000E+03 0.  0.
    8880022    1    1    2    0    0  0.10469045442E+04  0.15589330039E+03 -0.41757761557E+03  0.11480742850E+04  0.15294330000E+03 0.  0.
<mgrwt>
<rscale>  0 0.11997648E+04</rscale>
<asrwt>0</asrwt>
<pdfrwt beam="1">  1        2 0.36935386E+00 0.12466443E+04</pdfrwt>
<pdfrwt beam="2">  1       -2 0.14979974E+00 0.12466443E+04</pdfrwt>
<totfact> 0.11595287E+00</totfact>
</mgrwt>
</event>
<event>
 4    2  0.3747163E-007  0.7515563E+03  0.7818608E-02  0.9827479E-01
         -2   -1    0    0    0  501 -0.00000000000E+00  0.00000000000E+00  0.12647253764E+04  0.12647253764E+04  0.25500000000E-02 0.  1.
          2   -1    0    0  501    0  0.00000000000E+00 -0.00000000000E+00 -0.13109216161E+04  0.13109216161E+04  0.25500000000E-02 0. -1.
    8880023    1    1    2    0    0 -0.29828414107E+03 -0.20506873131E+03 -0.11669364102E+04  0.13880120335E+04  0.65864270000E+03 0.  0.
    8880022    1    1    2    0    0  0.29828414107E+03  0.20506873131E+03  0.11207401705E+04  0.11876349591E+04  0.15294330000E+03 0.  0.
<mgrwt>
<rscale>  0 0.63908476E+03</rscale>
<asrwt>0</asrwt>
<pdfrwt beam="1">  1        2 0.20168025E+00 0.75155627E+03</pdfrwt>
<pdfrwt beam="2">  1       -2 0.19457314E+00 0.75155627E+03</pdfrwt>
<totfact> 0.24187484E+00</totfact>
</mgrwt>
</event>
<event>
 4    2  0.3747163E-007  0.8620707E+03  0.7818608E-02  0.9589891E-01
         -2   -1    0    0    0  501 -0.00000000000E+00  0.00000000000E+00  0.10561981044E+04  0.10561981044E+04  0.25500000000E-02 0.  1.
          2   -1    0    0  501    0  0.00000000000E+00 -0.00000000000E+00 -0.83752353341E+03  0.83752353342E+03  0.25500000000E-02 0. -1.
    8880023    1    1    2    0    0 -0.18495977660E+03  0.52454320152E+03 -0.48079125951E+03  0.98707959694E+03  0.65864270000E+03 0. -1.
    8880022    1    1    2    0    0  0.18495977660E+03 -0.52454320152E+03  0.69946583045E+03  0.90664204083E+03  0.15294330000E+03 0.  0.
<mgrwt>
<rscale>  0 0.77968915E+03</rscale>
<asrwt>0</asrwt>
<pdfrwt beam="1">  1        2 0.12884977E+00 0.86207070E+03</pdfrwt>
<pdfrwt beam="2">  1       -2 0.16249202E+00 0.86207070E+03</pdfrwt>
<totfact> 0.78584551E+00</totfact>
</mgrwt>
</event>
<event>
 4    2  0.3747163E-007  0.8289889E+03  0.7818608E-02  0.9651303E-01
          2   -1    0    0  501    0  0.00000000000E+00  0.00000000000E+00  0.24458396151E+04  0.24458396151E+04  0.25500000000E-02 0. -1.
         -2   -1    0    0    0  501 -0.00000000000E+00 -0.00000000000E+00 -0.50540037338E+03  0.50540037339E+03  0.25500000000E-02 0.  1.
    8880023    1    1    2    0    0  0.26240810572E+02 -0.50271648277E+03  0.22097971665E+04  0.23601750286E+04  0.65864270000E+03 0. -1.
    8880022    1    1    2    0    0 -0.26240810572E+02  0.50271648277E+03 -0.26935792478E+03  0.59106495992E+03  0.15294330000E+03 0.  0.
<mgrwt>
<rscale>  0 0.73991718E+03</rscale>
<asrwt>0</asrwt>
<pdfrwt beam="1">  1        2 0.37628303E+00 0.82898893E+03</pdfrwt>
<pdfrwt beam="2">  1       -2 0.77753901E-01 0.82898893E+03</pdfrwt>
<totfact> 0.57025798E+00</totfact>
</mgrwt>
</event>
<event>
 4    2  0.3747163E-007  0.8267012E+03  0.7818608E-02  0.9655785E-01
         -2   -1    0    0    0  501 -0.00000000000E+00  0.00000000000E+00  0.12837501295E+03  0.12837501298E+03  0.25500000000E-02 0.  1.
          2   -1    0    0  501    0  0.00000000000E+00 -0.00000000000E+00 -0.41966208447E+04  0.41966208447E+04  0.25500000000E-02 0. -1.
    8880023    1    1    2    0    0 -0.25693421170E+02 -0.49896337147E+03 -0.32551414582E+04  0.33584789291E+04  0.65864270000E+03 0. -1.
    8880022    1    1    2    0    0  0.25693421170E+02  0.49896337147E+03 -0.81310437353E+03  0.96651692858E+03  0.15294330000E+03 0.  0.
<mgrwt>
<rscale>  0 0.73711453E+03</rscale>
<asrwt>0</asrwt>
<pdfrwt beam="1">  1        2 0.64563387E+00 0.82670116E+03</pdfrwt>
<pdfrwt beam="2">  1       -2 0.19750005E-01 0.82670116E+03</pdfrwt>
<totfact> 0.55970291E+00</totfact>
</mgrwt>
</event>
<event>
 4    2  0.3747163E-007  0.7647010E+03  0.7818608E-02  0.9793086E-01
         -2   -1    0    0    0  501 -0.00000000000E+00  0.00000000000E+00  0.40699763631E+03  0.40699763631E+03  0.25500000000E-02 0.  1.
          2   -1    0    0  501    0  0.00000000000E+00 -0.00000000000E+00 -0.11241304180E+04  0.11241304180E+04  0.25500000000E-02 0. -1.
    8880023    1    1    2    0    0  0.11125566953E+03  0.37226273224E+03 -0.79862524906E+03  0.11056988109E+04  0.65864270000E+03 0. -1.
    8880022    1    1    2    0    0 -0.11125566953E+03 -0.37226273224E+03  0.81492467412E+02  0.42542924333E+03  0.15294330000E+03 0.  0.
<mgrwt>
<rscale>  0 0.65734925E+03</rscale>
<asrwt>0</asrwt>
<pdfrwt beam="1">  1        2 0.17294314E+00 0.76470097E+03</pdfrwt>
<pdfrwt beam="2">  1       -2 0.62615021E-01 0.76470097E+03</pdfrwt>
<totfact> 0.50568355E+01</totfact>
</mgrwt>
</event>
<event>
 4    2  0.3747163E-007  0.1061802E+04  0.7818608E-02  0.9304826E-01
          2   -1    0    0  501    0  0.00000000000E+00  0.00000000000E+00  0.30671248000E+04  0.30671248000E+04  0.25500000000E-02 0. -1.
         -2   -1    0    0    0  501 -0.00000000000E+00 -0.00000000000E+00 -0.36531821572E+03  0.36531821573E+03  0.25500000000E-02 0.  1.
    8880023    1    1    2    0    0 -0.91396923388E+01 -0.83278460077E+03  0.73577626321E+03  0.12918167986E+04  0.65864270000E+03 0.  0.
    8880022    1    1    2    0    0  0.91396923388E+01  0.83278460077E+03  0.19660303210E+04  0.21406262171E+04  0.15294330000E+03 0.  0.
<mgrwt>
<rscale>  0 0.10033975E+04</rscale>
<asrwt>0</asrwt>
<pdfrwt beam="1">  1        2 0.47186535E+00 0.10618022E+04</pdfrwt>
<pdfrwt beam="2">  1       -2 0.56202803E-01 0.10618022E+04</pdfrwt>
<totfact> 0.47673451E+00</totfact>
</mgrwt>
</event>
<event>
 4    2  0.3747163E-007  0.7847503E+03  0.7818608E-02  0.9744795E-01
         -2   -1    0    0    0  501 -0.00000000000E+00  0.00000000000E+00  0.46516730755E+03  0.46516730755E+03  0.25500000000E-02 0.  1.
          2   -1    0    0  501    0  0.00000000000E+00 -0.00000000000E+00 -0.19854650388E+04  0.19854650388E+04  0.25500000000E-02 0. -1.
    8880023    1    1    2    0    0 -0.24127530240E+03  0.35186507025E+03 -0.17678545823E+04  0.19342034095E+04  0.65864270000E+03 0. -1.
    8880022    1    1    2    0    0  0.24127530240E+03 -0.35186507025E+03  0.24755685105E+03  0.51642893677E+03  0.15294330000E+03 0.  0.
<mgrwt>
<rscale>  0 0.68411244E+03</rscale>
<asrwt>0</asrwt>
<pdfrwt beam="1">  1        2 0.30545615E+00 0.78475028E+03</pdfrwt>
<pdfrwt beam="2">  1       -2 0.71564202E-01 0.78475028E+03</pdfrwt>
<totfact> 0.12412013E+01</totfact>
</mgrwt>
</event>
<event>
 4    2  0.3747163E-007  0.6774648E+03  0.7818608E-02  0.1010796E+00
          2   -1    0    0  501    0  0.00000000000E+00  0.00000000000E+00  0.36210935315E+03  0.36210935316E+03  0.25500000000E-02 0. -1.
         -2   -1    0    0    0  501 -0.00000000000E+00 -0.00000000000E+00 -0.71878825496E+03  0.71878825497E+03  0.25500000000E-02 0.  1.
    8880023    1    1    2    0    0  0.12639989105E+03 -0.95767268918E+02 -0.19036465996E+02  0.67773217096E+03  0.65864270000E+03 0. -1.
    8880022    1    1    2    0    0 -0.12639989105E+03  0.95767268918E+02 -0.33764243581E+03  0.40316543717E+03  0.15294330000E+03 0.  1.
<mgrwt>
<rscale>  0 0.51159637E+03</rscale>
<asrwt>0</asrwt>
<pdfrwt beam="1">  1        2 0.55709131E-01 0.67746477E+03</pdfrwt>
<pdfrwt beam="2">  1       -2 0.11058281E+00 0.67746477E+03</pdfrwt>
<totfact> 0.58576028E+01</totfact>
</mgrwt>
</event>
<event>
 4    2  0.3747163E-007  0.7820615E+03  0.7818608E-02  0.9751017E-01
         -2   -1    0    0    0  501 -0.00000000000E+00  0.00000000000E+00  0.25365139795E+03  0.25365139796E+03  0.25500000000E-02 0.  1.
          2   -1    0    0  501    0  0.00000000000E+00 -0.00000000000E+00 -0.31687304270E+04  0.31687304270E+04  0.25500000000E-02 0. -1.
    8880023    1    1    2    0    0 -0.31665315760E+03  0.27846150855E+03 -0.28664233277E+04  0.29711955395E+04  0.65864270000E+03 0. -1.
    8880022    1    1    2    0    0  0.31665315760E+03 -0.27846150855E+03 -0.48655701400E+02  0.45118628554E+03  0.15294330000E+03 0.  0.
<mgrwt>
<rscale>  0 0.68058856E+03</rscale>
<asrwt>0</asrwt>
<pdfrwt beam="1">  1        2 0.48749696E+00 0.78206153E+03</pdfrwt>
<pdfrwt beam="2">  1       -2 0.39023294E-01 0.78206153E+03</pdfrwt>
<totfact> 0.89661195E+00</totfact>
</mgrwt>
</event>
<event>
 4    2  0.3747163E-007  0.8237741E+03  0.7818608E-02  0.9661570E-01
         -2   -1    0    0    0  501 -0.00000000000E+00  0.00000000000E+00  0.32148055966E+03  0.32148055967E+03  0.25500000000E-02 0.  1.
          2   -1    0    0  501    0  0.00000000000E+00 -0.00000000000E+00 -0.27837893995E+04  0.27837893995E+04  0.25500000000E-02 0. -1.
    8880023    1    1    2    0    0 -0.17943791681E+03  0.46108089798E+03 -0.29194351456E+03  0.87397641984E+03  0.65864270000E+03 0.  1.
    8880022    1    1    2    0    0  0.17943791681E+03 -0.46108089798E+03 -0.21703653253E+04  0.22312935393E+04  0.15294330000E+03 0.  0.
<mgrwt>
<rscale>  0 0.73351746E+03</rscale>
<asrwt>0</asrwt>
<pdfrwt beam="1">  1        2 0.42827528E+00 0.82377410E+03</pdfrwt>
<pdfrwt beam="2">  1       -2 0.49458549E-01 0.82377410E+03</pdfrwt>
<totfact> 0.95541964E+00</totfact>
</mgrwt>
</event>
<event>
 4    2  0.3747163E-007  0.9152016E+03  0.7818608E-02  0.9502056E-01
         -2   -1    0    0    0  501 -0.00000000000E+00  0.00000000000E+00  0.92204346155E+03  0.92204346155E+03  0.25500000000E-02 0.  1.
          2   -1    0    0  501    0  0.00000000000E+00 -0.00000000000E+00 -0.10023585635E+04  0.10023585635E+04  0.25500000000E-02 0. -1.
    8880023    1    1    2    0    0  0.22087510128E+03 -0.59581710886E+03 -0.59575404179E+03  0.10920242315E+04  0.65864270000E+03 0. -1.
    8880022    1    1    2    0    0 -0.22087510128E+03  0.59581710886E+03  0.51543893981E+03  0.83237779360E+03  0.15294330000E+03 0.  0.
<mgrwt>
<rscale>  0 0.84132420E+03</rscale>
<asrwt>0</asrwt>
<pdfrwt beam="1">  1        2 0.15420901E+00 0.91520164E+03</pdfrwt>
<pdfrwt beam="2">  1       -2 0.14185284E+00 0.91520164E+03</pdfrwt>
<totfact> 0.87076897E+00</totfact>
</mgrwt>
</event>
<event>
 4    2  0.3747163E-007  0.8662500E+03  0.7818608E-02  0.9582541E-01
         -2   -1    0    0    0  501 -0.00000000000E+00  0.00000000000E+00  0.38404310325E+03  0.38404310326E+03  0.25500000000E-02 0.  1.
          2   -1    0    0  501    0  0.00000000000E+00 -0.00000000000E+00 -0.16944067047E+04  0.16944067047E+04  0.25500000000E-02 0. -1.
    8880023    1    1    2    0    0  0.49390352715E+02 -0.56048136842E+03 -0.12079570893E+04  0.14864552826E+04  0.65864270000E+03 0.  0.
    8880022    1    1    2    0    0 -0.49390352715E+02  0.56048136842E+03 -0.10240651211E+03  0.59199452533E+03  0.15294330000E+03 0.  0.
<mgrwt>
<rscale>  0 0.78462575E+03</rscale>
<asrwt>0</asrwt>
<pdfrwt beam="1">  1        2 0.26067795E+00 0.86624995E+03</pdfrwt>
<pdfrwt beam="2">  1       -2 0.59083555E-01 0.86624995E+03</pdfrwt>
<totfact> 0.26782550E+01</totfact>
</mgrwt>
</event>
<event>
 4    2  0.3747163E-007  0.8707453E+03  0.7818608E-02  0.9574728E-01
         -2   -1    0    0    0  501 -0.00000000000E+00  0.00000000000E+00  0.43774429038E+03  0.43774429039E+03  0.25500000000E-02 0.  1.
          2   -1    0    0  501    0  0.00000000000E+00 -0.00000000000E+00 -0.17659877490E+04  0.17659877490E+04  0.25500000000E-02 0. -1.
    8880023    1    1    2    0    0 -0.30118631085E+03  0.48339829791E+03 -0.13580790001E+04  0.16132500999E+04  0.65864270000E+03 0.  0.
    8880022    1    1    2    0    0  0.30118631085E+03 -0.48339829791E+03  0.29835541454E+02  0.59048193945E+03  0.15294330000E+03 0.  0.
<mgrwt>
<rscale>  0 0.78991657E+03</rscale>
<asrwt>0</asrwt>
<pdfrwt beam="1">  1        2 0.27169042E+00 0.87074526E+03</pdfrwt>
<pdfrwt beam="2">  1       -2 0.67345277E-01 0.87074526E+03</pdfrwt>
<totfact> 0.18481378E+01</totfact>
</mgrwt>
</event>
<event>
 4    2  0.3747163E-007  0.7683104E+03  0.7818608E-02  0.9784049E-01
         -2   -1    0    0    0  501 -0.00000000000E+00  0.00000000000E+00  0.75177679085E+03  0.75177679085E+03  0.25500000000E-02 0.  1.
          2   -1    0    0  501    0  0.00000000000E+00 -0.00000000000E+00 -0.13820126275E+04  0.13820126275E+04  0.25500000000E-02 0. -1.
    8880023    1    1    2    0    0 -0.16198945465E+03  0.36090176918E+03 -0.11991557302E+04  0.14241753199E+04  0.65864270000E+03 0. -1.
    8880022    1    1    2    0    0  0.16198945465E+03 -0.36090176918E+03  0.56891989353E+03  0.70961409842E+03  0.15294330000E+03 0.  0.
<mgrwt>
<rscale>  0 0.66225630E+03</rscale>
<asrwt>0</asrwt>
<pdfrwt beam="1">  1        2 0.21261733E+00 0.76831040E+03</pdfrwt>
<pdfrwt beam="2">  1       -2 0.11565797E+00 0.76831040E+03</pdfrwt>
<totfact> 0.87914392E+00</totfact>
</mgrwt>
</event>
<event>
 4    2  0.3747163E-007  0.6880752E+03  0.7818608E-02  0.1005081E+00
         -2   -1    0    0    0  501 -0.00000000000E+00  0.00000000000E+00  0.49094207868E+03  0.49094207869E+03  0.25500000000E-02 0.  1.
          2   -1    0    0  501    0  0.00000000000E+00 -0.00000000000E+00 -0.16361056330E+04  0.16361056330E+04  0.25500000000E-02 0. -1.
    8880023    1    1    2    0    0 -0.45280066226E+02  0.19387366820E+03 -0.15242538453E+04  0.16723627820E+04  0.65864270000E+03 0. -1.
    8880022    1    1    2    0    0  0.45280066226E+02 -0.19387366820E+03  0.37909029092E+03  0.45468492970E+03  0.15294330000E+03 0.  0.
<mgrwt>
<rscale>  0 0.53477295E+03</rscale>
<asrwt>0</asrwt>
<pdfrwt beam="1">  1        2 0.25170856E+00 0.68807521E+03</pdfrwt>
<pdfrwt beam="2">  1       -2 0.75529551E-01 0.68807521E+03</pdfrwt>
<totfact> 0.17327093E+01</totfact>
</mgrwt>
</event>
<event>
 4    2  0.3747163E-007  0.7470700E+03  0.7818608E-02  0.9839811E-01
          2   -1    0    0  501    0  0.00000000000E+00  0.00000000000E+00  0.27107559334E+04  0.27107559334E+04  0.25500000000E-02 0. -1.
         -2   -1    0    0    0  501 -0.00000000000E+00 -0.00000000000E+00 -0.12777918626E+03  0.12777918629E+03  0.25500000000E-02 0.  1.
    8880023    1    1    2    0    0  0.10998437067E+03 -0.33497290016E+03  0.20466120162E+04  0.21787001531E+04  0.65864270000E+03 0.  0.
    8880022    1    1    2    0    0 -0.10998437067E+03  0.33497290016E+03  0.53636473091E+03  0.65983496664E+03  0.15294330000E+03 0.  0.
<mgrwt>
<rscale>  0 0.63269110E+03</rscale>
<asrwt>0</asrwt>
<pdfrwt beam="1">  1        2 0.41703937E+00 0.74707002E+03</pdfrwt>
<pdfrwt beam="2">  1       -2 0.19658337E-01 0.74707002E+03</pdfrwt>
<totfact> 0.60210700E+01</totfact>
</mgrwt>
</event>
<event>
 4    2  0.3747163E-007  0.8222257E+03  0.7818608E-02  0.9664652E-01
         -2   -1    0    0    0  501 -0.00000000000E+00  0.00000000000E+00  0.28380270307E+03  0.28380270308E+03  0.25500000000E-02 0.  1.
          2   -1    0    0  501    0  0.00000000000E+00 -0.00000000000E+00 -0.17477462504E+04  0.17477462504E+04  0.25500000000E-02 0. -1.
    8880023    1    1    2    0    0  0.13823972961E+03 -0.47237127439E+03 -0.57272947207E+03  0.10020349785E+04  0.65864270000E+03 0.  1.
    8880022    1    1    2    0    0 -0.13823972961E+03  0.47237127439E+03 -0.89121407522E+03  0.10295139749E+04  0.15294330000E+03 0.  0.
<mgrwt>
<rscale>  0 0.73160934E+03</rscale>
<asrwt>0</asrwt>
<pdfrwt beam="1">  1        2 0.26888403E+00 0.82222567E+03</pdfrwt>
<pdfrwt beam="2">  1       -2 0.43661955E-01 0.82222567E+03</pdfrwt>
<totfact> 0.46706695E+01</totfact>
</mgrwt>
</event>
<event>
 4    2  0.3747163E-007  0.1084325E+04  0.7818608E-02  0.9278713E-01
         -2   -1    0    0    0  501 -0.00000000000E+00  0.00000000000E+00  0.48620752120E+03  0.48620752120E+03  0.25500000000E-02 0.  1.
          2   -1    0    0  501    0  0.00000000000E+00 -0.00000000000E+00 -0.28286648515E+04  0.28286648515E+04  0.25500000000E-02 0. -1.
    8880023    1    1    2    0    0 -0.19218018137E+03  0.83965248743E+03 -0.21662321798E+04  0.24224618851E+04  0.65864270000E+03 0.  0.
    8880022    1    1    2    0    0  0.19218018137E+03 -0.83965248743E+03 -0.17622515056E+03  0.89241048765E+03  0.15294330000E+03 0.  0.
<mgrwt>
<rscale>  0 0.10276645E+04</rscale>
<asrwt>0</asrwt>
<pdfrwt beam="1">  1        2 0.43517920E+00 0.10843245E+04</pdfrwt>
<pdfrwt beam="2">  1       -2 0.74801159E-01 0.10843245E+04</pdfrwt>
<totfact> 0.35894112E+00</totfact>
</mgrwt>
</event>
<event>
 4    2  0.3747163E-007  0.1109176E+04  0.7818608E-02  0.9250908E-01
         -2   -1    0    0    0  501 -0.00000000000E+00  0.00000000000E+00  0.19540781149E+04  0.19540781149E+04  0.25500000000E-02 0.  1.
          2   -1    0    0  501    0  0.00000000000E+00 -0.00000000000E+00 -0.60986590365E+03  0.60986590365E+03  0.25500000000E-02 0. -1.
    8880023    1    1    2    0    0 -0.32501697918E+03 -0.83115885676E+03  0.12219284989E+04  0.16502668101E+04  0.65864270000E+03 0.  0.
    8880022    1    1    2    0    0  0.32501697918E+03  0.83115885676E+03  0.12228371240E+03  0.91367720846E+03  0.15294330000E+03 0.  0.
<mgrwt>
<rscale>  0 0.10543075E+04</rscale>
<asrwt>0</asrwt>
<pdfrwt beam="1">  1        2 0.93825523E-01 0.11091760E+04</pdfrwt>
<pdfrwt beam="2">  1       -2 0.30062740E+00 0.11091760E+04</pdfrwt>
<totfact> 0.15216776E+00</totfact>
</mgrwt>
</event>
<event>
 4    2  0.3747163E-007  0.6996757E+03  0.7818608E-02  0.9998549E-01
         -2   -1    0    0    0  501 -0.00000000000E+00  0.00000000000E+00  0.24215308036E+03  0.24215308037E+03  0.25500000000E-02 0.  1.
          2   -1    0    0  501    0  0.00000000000E+00 -0.00000000000E+00 -0.27310591677E+04  0.27310591677E+04  0.25500000000E-02 0. -1.
    8880023    1    1    2    0    0 -0.23581626846E+03  0.11249580600E+02 -0.25833976874E+04  0.26764696305E+04  0.65864270000E+03 0. -1.
    8880022    1    1    2    0    0  0.23581626846E+03 -0.11249580600E+02  0.94491600122E+02  0.29674261750E+03  0.15294330000E+03 0.  0.
<mgrwt>
<rscale>  0 0.55713896E+03</rscale>
<asrwt>0</asrwt>
<pdfrwt beam="1">  1        2 0.42016293E+00 0.69967569E+03</pdfrwt>
<pdfrwt beam="2">  1       -2 0.37254322E-01 0.69967569E+03</pdfrwt>
<totfact> 0.18339381E+01</totfact>
</mgrwt>
</event>
<event>
 4    2  0.3747163E-007  0.6787208E+03  0.7818608E-02  0.1010057E+00
          2   -1    0    0  501    0  0.00000000000E+00  0.00000000000E+00  0.90908250931E+03  0.90908250931E+03  0.25500000000E-02 0. -1.
         -2   -1    0    0    0  501 -0.00000000000E+00 -0.00000000000E+00 -0.34275792071E+03  0.34275792072E+03  0.25500000000E-02 0.  1.
    8880023    1    1    2    0    0 -0.15225935154E+03  0.60570606954E+02  0.71266311724E+03  0.98414970076E+03  0.65864270000E+03 0. -1.
    8880022    1    1    2    0    0  0.15225935154E+03 -0.60570606954E+02 -0.14633852864E+03  0.26769072927E+03  0.15294330000E+03 0.  0.
<mgrwt>
<rscale>  0 0.51452111E+03</rscale>
<asrwt>0</asrwt>
<pdfrwt beam="1">  1        2 0.13985885E+00 0.67872079E+03</pdfrwt>
<pdfrwt beam="2">  1       -2 0.52731987E-01 0.67872079E+03</pdfrwt>
<totfact> 0.99872821E+01</totfact>
</mgrwt>
</event>
<event>
 4    2  0.3747163E-007  0.9321771E+03  0.7818608E-02  0.9476235E-01
         -2   -1    0    0    0  501 -0.00000000000E+00  0.00000000000E+00  0.64201608727E+03  0.64201608728E+03  0.25500000000E-02 0.  1.
          2   -1    0    0  501    0  0.00000000000E+00 -0.00000000000E+00 -0.15614949144E+04  0.15614949144E+04  0.25500000000E-02 0. -1.
    8880023    1    1    2    0    0  0.19257943902E+03 -0.63091765582E+03  0.14351233679E+03  0.94315954421E+03  0.65864270000E+03 0.  1.
    8880022    1    1    2    0    0 -0.19257943902E+03  0.63091765582E+03 -0.10629911639E+04  0.12603514575E+04  0.15294330000E+03 0.  0.
<mgrwt>
<rscale>  0 0.86058833E+03</rscale>
<asrwt>0</asrwt>
<pdfrwt beam="1">  1        2 0.24022999E+00 0.93217709E+03</pdfrwt>
<pdfrwt beam="2">  1       -2 0.98771706E-01 0.93217709E+03</pdfrwt>
<totfact> 0.10000144E+01</totfact>
</mgrwt>
</event>
<event>
 4    2  0.4129417E-007  0.8667981E+03  0.7818608E-02  0.9581583E-01
         -2   -1    0    0    0  501 -0.00000000000E+00  0.00000000000E+00  0.78559041935E+03  0.78559041935E+03  0.25500000000E-02 0.  1.
          2   -1    0    0  501    0  0.00000000000E+00 -0.00000000000E+00 -0.24532061450E+04  0.24532061450E+04  0.25500000000E-02 0. -1.
    8880023    1    1    2    0    0  0.56193544225E+03 -0.41921004350E+02 -0.22517862528E+04  0.24128572992E+04  0.65864270000E+03 0. -1.
    8880022    1    1    2    0    0 -0.56193544225E+03  0.41921004350E+02  0.58417052716E+03  0.82593926513E+03  0.15294330000E+03 0.  0.
<mgrwt>
<rscale>  0 0.78527200E+03</rscale>
<asrwt>0</asrwt>
<pdfrwt beam="1">  1        2 0.37741633E+00 0.86679814E+03</pdfrwt>
<pdfrwt beam="2">  1       -2 0.12086007E+00 0.86679814E+03</pdfrwt>
<totfact> 0.19853927E+00</totfact>
</mgrwt>
</event>
<event>
 4    2  0.3747163E-007  0.7240118E+03  0.7818608E-02  0.9909238E-01
          2   -1    0    0  501    0  0.00000000000E+00  0.00000000000E+00  0.70262355994E+03  0.70262355994E+03  0.25500000000E-02 0. -1.
         -2   -1    0    0    0  501 -0.00000000000E+00 -0.00000000000E+00 -0.97335372822E+03  0.97335372822E+03  0.25500000000E-02 0.  1.
    8880023    1    1    2    0    0  0.28675785991E+03 -0.90293182926E+02  0.46922682051E+03  0.86276702791E+03  0.65864270000E+03 0.  0.
    8880022    1    1    2    0    0 -0.28675785991E+03  0.90293182926E+02 -0.73995698879E+03  0.81321026025E+03  0.15294330000E+03 0.  0.
<mgrwt>
<rscale>  0 0.59815661E+03</rscale>
<asrwt>0</asrwt>
<pdfrwt beam="1">  1        2 0.10809593E+00 0.72401183E+03</pdfrwt>
<pdfrwt beam="2">  1       -2 0.14974673E+00 0.72401183E+03</pdfrwt>
<totfact> 0.12494756E+01</totfact>
</mgrwt>
</event>
<event>
 4    2  0.3747163E-007  0.7161919E+03  0.7818608E-02  0.9935688E-01
          2   -1    0    0  501    0  0.00000000000E+00  0.00000000000E+00  0.37931029997E+04  0.37931029997E+04  0.25500000000E-02 0. -1.
         -2   -1    0    0    0  501 -0.00000000000E+00 -0.00000000000E+00 -0.11258260988E+03  0.11258260991E+03  0.25500000000E-02 0.  1.
    8880023    1    1    2    0    0 -0.13133788602E+03  0.24873887534E+03  0.34163044741E+04  0.34905683111E+04  0.65864270000E+03 0. -1.
    8880022    1    1    2    0    0  0.13133788602E+03 -0.24873887534E+03  0.26421591579E+03  0.41511729858E+03  0.15294330000E+03 0.  0.
<mgrwt>
<rscale>  0 0.58562428E+03</rscale>
<asrwt>0</asrwt>
<pdfrwt beam="1">  1        2 0.58355436E+00 0.71619193E+03</pdfrwt>
<pdfrwt beam="2">  1       -2 0.17320400E-01 0.71619193E+03</pdfrwt>
<totfact> 0.14951512E+01</totfact>
</mgrwt>
</event>
<event>
 4    2  0.3747163E-007  0.7889742E+03  0.7818608E-02  0.9735164E-01
         -2   -1    0    0    0  501 -0.00000000000E+00  0.00000000000E+00  0.24910764359E+03  0.24910764360E+03  0.25500000000E-02 0.  1.
          2   -1    0    0  501    0  0.00000000000E+00 -0.00000000000E+00 -0.35162174157E+04  0.35162174157E+04  0.25500000000E-02 0. -1.
    8880023    1    1    2    0    0 -0.33584362608E+03  0.27546159293E+03 -0.32049657673E+04  0.33006493006E+04  0.65864270000E+03 0.  0.
    8880022    1    1    2    0    0  0.33584362608E+03 -0.27546159293E+03 -0.62144004897E+02  0.46467575869E+03  0.15294330000E+03 0.  0.
<mgrwt>
<rscale>  0 0.68961208E+03</rscale>
<asrwt>0</asrwt>
<pdfrwt beam="1">  1        2 0.54095649E+00 0.78897417E+03</pdfrwt>
<pdfrwt beam="2">  1       -2 0.38324255E-01 0.78897417E+03</pdfrwt>
<totfact> 0.54766680E+00</totfact>
</mgrwt>
</event>
<event>
 4    2  0.3965841E-007  0.1135704E+04  0.7818608E-02  0.9222308E-01
          2   -1    0    0  501    0  0.00000000000E+00  0.00000000000E+00  0.34555017144E+04  0.34555017144E+04  0.25500000000E-02 0. -1.
         -2   -1    0    0    0  501 -0.00000000000E+00 -0.00000000000E+00 -0.10464805793E+04  0.10464805793E+04  0.25500000000E-02 0.  1.
    8880023    1    1    2    0    0  0.73165956840E+03 -0.56629273225E+03  0.31231667029E+04  0.33232504635E+04  0.65864270000E+03 0.  0.
    8880022    1    1    2    0    0 -0.73165956840E+03  0.56629273225E+03 -0.71414556779E+03  0.11787318302E+04  0.15294330000E+03 0.  0.
<mgrwt>
<rscale>  0 0.10826110E+04</rscale>
<asrwt>0</asrwt>
<pdfrwt beam="1">  1        2 0.53161565E+00 0.11357039E+04</pdfrwt>
<pdfrwt beam="2">  1       -2 0.16099701E+00 0.11357039E+04</pdfrwt>
<totfact> 0.21705348E-01</totfact>
</mgrwt>
</event>
<event>
 4    2  0.3747163E-007  0.6608692E+03  0.7818608E-02  0.1023283E+00
         -2   -1    0    0    0  501 -0.00000000000E+00  0.00000000000E+00  0.18755464768E+03  0.18755464770E+03  0.25500000000E-02 0.  1.
          2   -1    0    0  501    0  0.00000000000E+00 -0.00000000000E+00 -0.15770210359E+04  0.15770210359E+04  0.25500000000E-02 0. -1.
    8880023    1    1    2    0    0 -0.48610221558E+02  0.23977535440E+02 -0.14483160983E+04  0.15919697242E+04  0.65864270000E+03 0. -1.
    8880022    1    1    2    0    0  0.48610221558E+02 -0.23977535440E+02  0.58849710060E+02  0.17260595944E+03  0.15294330000E+03 0.  0.
<mgrwt>
<rscale>  0 0.46520247E+03</rscale>
<asrwt>0</asrwt>
<pdfrwt beam="1">  1        2 0.24261861E+00 0.66086919E+03</pdfrwt>
<pdfrwt beam="2">  1       -2 0.28854562E-01 0.66086919E+03</pdfrwt>
<totfact> 0.12994416E+02</totfact>
</mgrwt>
</event>
<event>
 4    2  0.3747163E-007  0.6594162E+03  0.7818608E-02  0.1024763E+00
          2   -1    0    0  501    0  0.00000000000E+00  0.00000000000E+00  0.10930746204E+04  0.10930746204E+04  0.25500000000E-02 0. -1.
         -2   -1    0    0    0  501 -0.00000000000E+00 -0.00000000000E+00 -0.17476037670E+03  0.17476037672E+03  0.25500000000E-02 0.  1.
    8880023    1    1    2    0    0  0.15336066821E+02 -0.28004685450E+02  0.89218447015E+03  0.11094245321E+04  0.65864270000E+03 0. -1.
    8880022    1    1    2    0    0 -0.15336066821E+02  0.28004685450E+02  0.26129773557E+02  0.15841046504E+03  0.15294330000E+03 0.  0.
<mgrwt>
<rscale>  0 0.46006387E+03</rscale>
<asrwt>0</asrwt>
<pdfrwt beam="1">  1        2 0.16816533E+00 0.65941615E+03</pdfrwt>
<pdfrwt beam="2">  1       -2 0.26886211E-01 0.65941615E+03</pdfrwt>
<totfact> 0.28016135E+02</totfact>
</mgrwt>
</event>
<event>
 4    2  0.3747163E-007  0.8715261E+03  0.7818608E-02  0.9573381E-01
          2   -1    0    0  501    0  0.00000000000E+00  0.00000000000E+00  0.12633829196E+04  0.12633829196E+04  0.25500000000E-02 0. -1.
         -2   -1    0    0    0  501 -0.00000000000E+00 -0.00000000000E+00 -0.59330148110E+03  0.59330148110E+03  0.25500000000E-02 0.  1.
    8880023    1    1    2    0    0 -0.47339698503E+03 -0.31881478544E+03 -0.10960915343E+03  0.87839168122E+03  0.65864270000E+03 0.  1.
    8880022    1    1    2    0    0  0.47339698503E+03  0.31881478544E+03  0.77969059194E+03  0.97829271950E+03  0.15294330000E+03 0.  0.
<mgrwt>
<rscale>  0 0.79083364E+03</rscale>
<asrwt>0</asrwt>
<pdfrwt beam="1">  1        2 0.19436660E+00 0.87152612E+03</pdfrwt>
<pdfrwt beam="2">  1       -2 0.91277152E-01 0.87152612E+03</pdfrwt>
<totfact> 0.17889854E+01</totfact>
</mgrwt>
</event>
<event>
 4    2  0.3747163E-007  0.8402030E+03  0.7818608E-02  0.9629798E-01
          2   -1    0    0  501    0  0.00000000000E+00  0.00000000000E+00  0.53707812101E+03  0.53707812101E+03  0.25500000000E-02 0. -1.
         -2   -1    0    0    0  501 -0.00000000000E+00 -0.00000000000E+00 -0.14173147638E+04  0.14173147638E+04  0.25500000000E-02 0.  1.
    8880023    1    1    2    0    0  0.50052633310E+03 -0.14698412305E+03  0.87166129894E+02  0.84471242623E+03  0.65864270000E+03 0. -1.
    8880022    1    1    2    0    0 -0.50052633310E+03  0.14698412305E+03 -0.96740277266E+03  0.11096804586E+04  0.15294330000E+03 0.  0.
<mgrwt>
<rscale>  0 0.75354991E+03</rscale>
<asrwt>0</asrwt>
<pdfrwt beam="1">  1        2 0.82627404E-01 0.84020304E+03</pdfrwt>
<pdfrwt beam="2">  1       -2 0.21804842E+00 0.84020304E+03</pdfrwt>
<totfact> 0.58286421E+00</totfact>
</mgrwt>
</event>
<event>
 4    2  0.3747163E-007  0.6949160E+03  0.7818608E-02  0.1001898E+00
          2   -1    0    0  501    0  0.00000000000E+00  0.00000000000E+00  0.20732764681E+04  0.20732764681E+04  0.25500000000E-02 0. -1.
         -2   -1    0    0    0  501 -0.00000000000E+00 -0.00000000000E+00 -0.24704424616E+03  0.24704424617E+03  0.25500000000E-02 0.  1.
    8880023    1    1    2    0    0  0.34104471572E+01 -0.22155455311E+03  0.19147111103E+04  0.20369160251E+04  0.65864270000E+03 0. -1.
    8880022    1    1    2    0    0 -0.34104471572E+01  0.22155455311E+03 -0.88478888343E+02  0.28340468918E+03  0.15294330000E+03 0.  0.
<mgrwt>
<rscale>  0 0.54825649E+03</rscale>
<asrwt>0</asrwt>
<pdfrwt beam="1">  1        2 0.31896561E+00 0.69491601E+03</pdfrwt>
<pdfrwt beam="2">  1       -2 0.38006808E-01 0.69491601E+03</pdfrwt>
<totfact> 0.41324538E+01</totfact>
</mgrwt>
</event>
<event>
 4    2  0.3747163E-007  0.7103109E+03  0.7818608E-02  0.9956848E-01
         -2   -1    0    0    0  501 -0.00000000000E+00  0.00000000000E+00  0.35270586063E+03  0.35270586064E+03  0.25500000000E-02 0.  1.
          2   -1    0    0  501    0  0.00000000000E+00 -0.00000000000E+00 -0.13170300543E+04  0.13170300543E+04  0.25500000000E-02 0. -1.
    8880023    1    1    2    0    0 -0.26521494200E+03  0.19810546872E+02 -0.11195780220E+04  0.13258946326E+04  0.65864270000E+03 0. -1.
    8880022    1    1    2    0    0  0.26521494200E+03 -0.19810546872E+02  0.15525382830E+03  0.34384128234E+03  0.15294330000E+03 0.  0.
<mgrwt>
<rscale>  0 0.57583544E+03</rscale>
<asrwt>0</asrwt>
<pdfrwt beam="1">  1        2 0.20262001E+00 0.71031094E+03</pdfrwt>
<pdfrwt beam="2">  1       -2 0.54262441E-01 0.71031094E+03</pdfrwt>
<totfact> 0.52855961E+01</totfact>
</mgrwt>
</event>
<event>
 4    2  0.3747163E-007  0.7336416E+03  0.7818608E-02  0.9878871E-01
         -2   -1    0    0    0  501 -0.00000000000E+00  0.00000000000E+00  0.51718583806E+03  0.51718583806E+03  0.25500000000E-02 0.  1.
          2   -1    0    0  501    0  0.00000000000E+00 -0.00000000000E+00 -0.60780520621E+03  0.60780520622E+03  0.25500000000E-02 0. -1.
    8880023    1    1    2    0    0 -0.32087971101E+03  0.38157041955E+02 -0.18222571459E+03  0.75593396941E+03  0.65864270000E+03 0.  0.
    8880022    1    1    2    0    0  0.32087971101E+03 -0.38157041955E+02  0.91606346430E+02  0.36905707487E+03  0.15294330000E+03 0. -1.
<mgrwt>
<rscale>  0 0.61296284E+03</rscale>
<asrwt>0</asrwt>
<pdfrwt beam="1">  1        2 0.93508493E-01 0.73364157E+03</pdfrwt>
<pdfrwt beam="2">  1       -2 0.79567052E-01 0.73364157E+03</pdfrwt>
<totfact> 0.69212709E+01</totfact>
</mgrwt>
</event>
<event>
 4    2  0.3747163E-007  0.6857062E+03  0.7818608E-02  0.1006264E+00
          2   -1    0    0  501    0  0.00000000000E+00  0.00000000000E+00  0.31151928434E+03  0.31151928435E+03  0.25500000000E-02 0. -1.
         -2   -1    0    0    0  501 -0.00000000000E+00 -0.00000000000E+00 -0.14325580889E+04  0.14325580889E+04  0.25500000000E-02 0.  1.
    8880023    1    1    2    0    0 -0.14203063767E+03 -0.12731880095E+03 -0.98534176824E+02  0.69274957191E+03  0.65864270000E+03 0. -1.
    8880022    1    1    2    0    0  0.14203063767E+03  0.12731880095E+03 -0.10225046278E+04  0.10513278014E+04  0.15294330000E+03 0.  0.
<mgrwt>
<rscale>  0 0.52986836E+03</rscale>
<asrwt>0</asrwt>
<pdfrwt beam="1">  1        2 0.47926045E-01 0.68570619E+03</pdfrwt>
<pdfrwt beam="2">  1       -2 0.22039355E+00 0.68570619E+03</pdfrwt>
<totfact> 0.10635830E+01</totfact>
</mgrwt>
</event>
<event>
 4    2  0.3747163E-007  0.6892122E+03  0.7818608E-02  0.1004529E+00
          2   -1    0    0  501    0  0.00000000000E+00  0.00000000000E+00  0.76957324298E+03  0.76957324299E+03  0.25500000000E-02 0. -1.
         -2   -1    0    0    0  501 -0.00000000000E+00 -0.00000000000E+00 -0.48007967886E+03  0.48007967886E+03  0.25500000000E-02 0.  1.
    8880023    1    1    2    0    0  0.11149885231E+03  0.16962083892E+03  0.55293278618E+03  0.88359951073E+03  0.65864270000E+03 0. -1.
    8880022    1    1    2    0    0 -0.11149885231E+03 -0.16962083892E+03 -0.26343922205E+03  0.36605341112E+03  0.15294330000E+03 0.  0.
<mgrwt>
<rscale>  0 0.53708060E+03</rscale>
<asrwt>0</asrwt>
<pdfrwt beam="1">  1        2 0.11839588E+00 0.68921218E+03</pdfrwt>
<pdfrwt beam="2">  1       -2 0.73858412E-01 0.68921218E+03</pdfrwt>
<totfact> 0.60975922E+01</totfact>
</mgrwt>
</event>
<event>
 4    2  0.3747163E-007  0.8271593E+03  0.7818608E-02  0.9654885E-01
          2   -1    0    0  501    0  0.00000000000E+00  0.00000000000E+00  0.25989329793E+04  0.25989329793E+04  0.25500000000E-02 0. -1.
         -2   -1    0    0    0  501 -0.00000000000E+00 -0.00000000000E+00 -0.23473142887E+03  0.23473142888E+03  0.25500000000E-02 0.  1.
    8880023    1    1    2    0    0  0.17724127320E+03 -0.46794002633E+03  0.68229605954E+03  0.10722501836E+04  0.65864270000E+03 0.  0.
    8880022    1    1    2    0    0 -0.17724127320E+03  0.46794002633E+03  0.16819054909E+04  0.17614142246E+04  0.15294330000E+03 0.  0.
<mgrwt>
<rscale>  0 0.73767642E+03</rscale>
<asrwt>0</asrwt>
<pdfrwt beam="1">  1        2 0.39983585E+00 0.82715932E+03</pdfrwt>
<pdfrwt beam="2">  1       -2 0.36112527E-01 0.82715932E+03</pdfrwt>
<totfact> 0.22772232E+01</totfact>
</mgrwt>
</event>
<event>
 4    2  0.6596454E-007  0.1122976E+04  0.7818608E-02  0.9235896E-01
          2   -1    0    0  501    0  0.00000000000E+00  0.00000000000E+00  0.27827835321E+04  0.27827835321E+04  0.25500000000E-02 0. -1.
         -2   -1    0    0    0  501 -0.00000000000E+00 -0.00000000000E+00 -0.15549501401E+04  0.15549501401E+04  0.25500000000E-02 0.  1.
    8880023    1    1    2    0    0  0.85912950136E+03 -0.29860049904E+03  0.25149507404E+04  0.27542790692E+04  0.65864270000E+03 0.  0.
    8880022    1    1    2    0    0 -0.85912950136E+03  0.29860049904E+03 -0.12871173484E+04  0.15834546030E+04  0.15294330000E+03 0.  0.
<mgrwt>
<rscale>  0 0.10690482E+04</rscale>
<asrwt>0</asrwt>
<pdfrwt beam="1">  1        2 0.42812054E+00 0.11229764E+04</pdfrwt>
<pdfrwt beam="2">  1       -2 0.23922310E+00 0.11229764E+04</pdfrwt>
<totfact> 0.17620833E-01</totfact>
</mgrwt>
</event>
<event>
 4    2  0.3747163E-007  0.9313507E+03  0.7818608E-02  0.9477470E-01
          2   -1    0    0  501    0  0.00000000000E+00  0.00000000000E+00  0.35444748132E+04  0.35444748132E+04  0.25500000000E-02 0. -1.
         -2   -1    0    0    0  501 -0.00000000000E+00 -0.00000000000E+00 -0.37586661831E+03  0.37586661832E+03  0.25500000000E-02 0.  1.
    8880023    1    1    2    0    0  0.41755947447E+03 -0.50916405422E+03  0.31046165059E+04  0.32413049538E+04  0.65864270000E+03 0.  0.
    8880022    1    1    2    0    0 -0.41755947447E+03  0.50916405422E+03  0.63991689052E+02  0.67903647775E+03  0.15294330000E+03 0.  0.
<mgrwt>
<rscale>  0 0.85965450E+03</rscale>
<asrwt>0</asrwt>
<pdfrwt beam="1">  1        2 0.54530382E+00 0.93135072E+03</pdfrwt>
<pdfrwt beam="2">  1       -2 0.57825633E-01 0.93135072E+03</pdfrwt>
<totfact> 0.22245484E+00</totfact>
</mgrwt>
</event>
<event>
 4    2  0.3747163E-007  0.6662332E+03  0.7818608E-02  0.1018520E+00
         -2   -1    0    0    0  501 -0.00000000000E+00  0.00000000000E+00  0.12257894224E+03  0.12257894227E+03  0.25500000000E-02 0.  1.
          2   -1    0    0  501    0  0.00000000000E+00 -0.00000000000E+00 -0.17375861137E+04  0.17375861137E+04  0.25500000000E-02 0. -1.
    8880023    1    1    2    0    0  0.96421053021E+02 -0.27557848495E+02 -0.15071604059E+04  0.16478468224E+04  0.65864270000E+03 0. -1.
    8880022    1    1    2    0    0 -0.96421053021E+02  0.27557848495E+02 -0.10784676555E+03  0.21231823364E+03  0.15294330000E+03 0.  0.
<mgrwt>
<rscale>  0 0.48224323E+03</rscale>
<asrwt>0</asrwt>
<pdfrwt beam="1">  1        2 0.26732092E+00 0.66623319E+03</pdfrwt>
<pdfrwt beam="2">  1       -2 0.18858300E-01 0.66623319E+03</pdfrwt>
<totfact> 0.22665348E+02</totfact>
</mgrwt>
</event>
<event>
 4    2  0.3747163E-007  0.1042321E+04  0.7818608E-02  0.9328170E-01
          2   -1    0    0  501    0  0.00000000000E+00  0.00000000000E+00  0.30907516894E+04  0.30907516894E+04  0.25500000000E-02 0. -1.
         -2   -1    0    0    0  501 -0.00000000000E+00 -0.00000000000E+00 -0.74559373623E+03  0.74559373624E+03  0.25500000000E-02 0.  1.
    8880023    1    1    2    0    0 -0.30794659087E+03  0.74685510882E+03  0.27346471517E+04  0.29265558097E+04  0.65864270000E+03 0.  0.
    8880022    1    1    2    0    0  0.30794659087E+03 -0.74685510882E+03 -0.38948919860E+03  0.90978961593E+03  0.15294330000E+03 0.  0.
<mgrwt>
<rscale>  0 0.98230375E+03</rscale>
<asrwt>0</asrwt>
<pdfrwt beam="1">  1        2 0.47550025E+00 0.10423214E+04</pdfrwt>
<pdfrwt beam="2">  1       -2 0.11470673E+00 0.10423214E+04</pdfrwt>
<totfact> 0.91741143E-01</totfact>
</mgrwt>
</event>
<event>
 4    2  0.3747163E-007  0.7356037E+03  0.7818608E-02  0.9872943E-01
         -2   -1    0    0    0  501 -0.00000000000E+00  0.00000000000E+00  0.95816465087E+03  0.95816465088E+03  0.25500000000E-02 0.  1.
          2   -1    0    0  501    0  0.00000000000E+00 -0.00000000000E+00 -0.11276437430E+04  0.11276437430E+04  0.25500000000E-02 0. -1.
    8880023    1    1    2    0    0 -0.26452412565E+03  0.19320871676E+03 -0.96417729593E+03  0.12127451033E+04  0.65864270000E+03 0. -1.
    8880022    1    1    2    0    0  0.26452412565E+03 -0.19320871676E+03  0.79469820379E+03  0.87306329061E+03  0.15294330000E+03 0.  0.
<mgrwt>
<rscale>  0 0.61590681E+03</rscale>
<asrwt>0</asrwt>
<pdfrwt beam="1">  1        2 0.17348365E+00 0.73560372E+03</pdfrwt>
<pdfrwt beam="2">  1       -2 0.14740995E+00 0.73560372E+03</pdfrwt>
<totfact> 0.67176680E+00</totfact>
</mgrwt>
</event>
<event>
 4    2  0.3747163E-007  0.7424511E+03  0.7818608E-02  0.9852864E-01
         -2   -1    0    0    0  501 -0.00000000000E+00  0.00000000000E+00  0.55305654259E+03  0.55305654260E+03  0.25500000000E-02 0.  1.
          2   -1    0    0  501    0  0.00000000000E+00 -0.00000000000E+00 -0.56867616792E+03  0.56867616793E+03  0.25500000000E-02 0. -1.
    8880023    1    1    2    0    0 -0.33506519715E+03 -0.71796662759E+02 -0.54623304261E+02  0.74445776157E+03  0.65864270000E+03 0. -1.
    8880022    1    1    2    0    0  0.33506519715E+03  0.71796662759E+02  0.39003678934E+02  0.37727494896E+03  0.15294330000E+03 0. -1.
<mgrwt>
<rscale>  0 0.62601112E+03</rscale>
<asrwt>0</asrwt>
<pdfrwt beam="1">  1        2 0.87488641E-01 0.74245111E+03</pdfrwt>
<pdfrwt beam="2">  1       -2 0.85085622E-01 0.74245111E+03</pdfrwt>
<totfact> 0.64384119E+01</totfact>
</mgrwt>
</event>
<event>
 4    2  0.3747163E-007  0.6864243E+03  0.7818608E-02  0.1005901E+00
         -2   -1    0    0    0  501 -0.00000000000E+00  0.00000000000E+00  0.12439113273E+03  0.12439113276E+03  0.25500000000E-02 0.  1.
          2   -1    0    0  501    0  0.00000000000E+00 -0.00000000000E+00 -0.20785885567E+04  0.20785885567E+04  0.25500000000E-02 0. -1.
    8880023    1    1    2    0    0 -0.17595565624E+03 -0.80048337216E+02 -0.17601772749E+04  0.18892862077E+04  0.65864270000E+03 0. -1.
    8880022    1    1    2    0    0  0.17595565624E+03  0.80048337216E+02 -0.19402014911E+03  0.31369348180E+03  0.15294330000E+03 0.  0.
<mgrwt>
<rscale>  0 0.53136937E+03</rscale>
<asrwt>0</asrwt>
<pdfrwt beam="1">  1        2 0.31978283E+00 0.68642431E+03</pdfrwt>
<pdfrwt beam="2">  1       -2 0.19137099E-01 0.68642431E+03</pdfrwt>
<totfact> 0.14388530E+02</totfact>
</mgrwt>
</event>
<event>
 4    2  0.3747163E-007  0.8612017E+03  0.7818608E-02  0.9591429E-01
         -2   -1    0    0    0  501 -0.00000000000E+00  0.00000000000E+00  0.22826173936E+03  0.22826173938E+03  0.25500000000E-02 0.  1.
          2   -1    0    0  501    0  0.00000000000E+00 -0.00000000000E+00 -0.24707843430E+04  0.24707843430E+04  0.25500000000E-02 0. -1.
    8880023    1    1    2    0    0  0.10107291111E+03  0.54556609206E+03 -0.17114701681E+04  0.19159327850E+04  0.65864270000E+03 0.  0.
    8880022    1    1    2    0    0 -0.10107291111E+03 -0.54556609206E+03 -0.53105243549E+03  0.78311329730E+03  0.15294330000E+03 0.  0.
<mgrwt>
<rscale>  0 0.77866040E+03</rscale>
<asrwt>0</asrwt>
<pdfrwt beam="1">  1        2 0.38012065E+00 0.86120166E+03</pdfrwt>
<pdfrwt beam="2">  1       -2 0.35117192E-01 0.86120166E+03</pdfrwt>
<totfact> 0.28308004E+01</totfact>
</mgrwt>
</event>
<event>
 4    2  0.3747163E-007  0.6677924E+03  0.7818608E-02  0.1017297E+00
          2   -1    0    0  501    0  0.00000000000E+00  0.00000000000E+00  0.97942342167E+03  0.97942342168E+03  0.25500000000E-02 0. -1.
         -2   -1    0    0    0  501 -0.00000000000E+00 -0.00000000000E+00 -0.85941871111E+03  0.85941871111E+03  0.25500000000E-02 0.  1.
    8880023    1    1    2    0    0  0.72239855188E+02  0.83173834445E+02  0.85225507077E+03  0.10827212916E+04  0.65864270000E+03 0. -1.
    8880022    1    1    2    0    0 -0.72239855188E+02 -0.83173834445E+02 -0.73225036021E+03  0.75612084117E+03  0.15294330000E+03 0.  0.
<mgrwt>
<rscale>  0 0.48674630E+03</rscale>
<asrwt>0</asrwt>
<pdfrwt beam="1">  1        2 0.15068053E+00 0.66779240E+03</pdfrwt>
<pdfrwt beam="2">  1       -2 0.13221826E+00 0.66779240E+03</pdfrwt>
<totfact> 0.11103142E+01</totfact>
</mgrwt>
</event>
<event>
 4    2  0.3747163E-007  0.7446057E+03  0.7818608E-02  0.9846729E-01
          2   -1    0    0  501    0  0.00000000000E+00  0.00000000000E+00  0.91635486551E+03  0.91635486551E+03  0.25500000000E-02 0. -1.
         -2   -1    0    0    0  501 -0.00000000000E+00 -0.00000000000E+00 -0.66035814720E+03  0.66035814720E+03  0.25500000000E-02 0.  1.
    8880023    1    1    2    0    0 -0.31366402577E+03  0.14913856350E+03 -0.38010103318E+03  0.83601102497E+03  0.65864270000E+03 0.  1.
    8880022    1    1    2    0    0  0.31366402577E+03 -0.14913856350E+03  0.63609775149E+03  0.74070198775E+03  0.15294330000E+03 0.  0.
<mgrwt>
<rscale>  0 0.62913996E+03</rscale>
<asrwt>0</asrwt>
<pdfrwt beam="1">  1        2 0.14097767E+00 0.74460569E+03</pdfrwt>
<pdfrwt beam="2">  1       -2 0.10159356E+00 0.74460569E+03</pdfrwt>
<totfact> 0.23104306E+01</totfact>
</mgrwt>
</event>
<event>
 4    2  0.3747163E-007  0.8574814E+03  0.7818608E-02  0.9598059E-01
          2   -1    0    0  501    0  0.00000000000E+00  0.00000000000E+00  0.94424253089E+03  0.94424253089E+03  0.25500000000E-02 0. -1.
         -2   -1    0    0    0  501 -0.00000000000E+00 -0.00000000000E+00 -0.75361409255E+03  0.75361409255E+03  0.25500000000E-02 0.  1.
    8880023    1    1    2    0    0 -0.38906855289E+03  0.38741423105E+03  0.55496157331E+03  0.10213993731E+04  0.65864270000E+03 0. -1.
    8880022    1    1    2    0    0  0.38906855289E+03 -0.38741423105E+03 -0.36433313498E+03  0.67645725033E+03  0.15294330000E+03 0.  0.
<mgrwt>
<rscale>  0 0.77424757E+03</rscale>
<asrwt>0</asrwt>
<pdfrwt beam="1">  1        2 0.14526808E+00 0.85748139E+03</pdfrwt>
<pdfrwt beam="2">  1       -2 0.11594063E+00 0.85748139E+03</pdfrwt>
<totfact> 0.15914501E+01</totfact>
</mgrwt>
</event>
<event>
 4    2  0.3747163E-007  0.9292401E+03  0.7818608E-02  0.9480634E-01
          2   -1    0    0  501    0  0.00000000000E+00  0.00000000000E+00  0.26591567957E+04  0.26591567957E+04  0.25500000000E-02 0. -1.
         -2   -1    0    0    0  501 -0.00000000000E+00 -0.00000000000E+00 -0.51922605319E+03  0.51922605320E+03  0.25500000000E-02 0.  1.
    8880023    1    1    2    0    0  0.32535711130E+03  0.56905163679E+03  0.23050644633E+04  0.24853187726E+04  0.65864270000E+03 0.  0.
    8880022    1    1    2    0    0 -0.32535711130E+03 -0.56905163679E+03 -0.16513372073E+03  0.69306407636E+03  0.15294330000E+03 0.  0.
<mgrwt>
<rscale>  0 0.85726772E+03</rscale>
<asrwt>0</asrwt>
<pdfrwt beam="1">  1        2 0.40910105E+00 0.92924013E+03</pdfrwt>
<pdfrwt beam="2">  1       -2 0.79880930E-01 0.92924013E+03</pdfrwt>
<totfact> 0.39877151E+00</totfact>
</mgrwt>
</event>
<event>
 4    2  0.3747163E-007  0.7393577E+03  0.7818608E-02  0.9861822E-01
          2   -1    0    0  501    0  0.00000000000E+00  0.00000000000E+00  0.10513047924E+04  0.10513047924E+04  0.25500000000E-02 0. -1.
         -2   -1    0    0    0  501 -0.00000000000E+00 -0.00000000000E+00 -0.73974200116E+03  0.73974200117E+03  0.25500000000E-02 0.  1.
    8880023    1    1    2    0    0  0.15497829335E+03  0.29802896222E+03  0.85738247969E+03  0.11321459519E+04  0.65864270000E+03 0. -1.
    8880022    1    1    2    0    0 -0.15497829335E+03 -0.29802896222E+03 -0.54581968848E+03  0.65890084161E+03  0.15294330000E+03 0.  0.
<mgrwt>
<rscale>  0 0.62147762E+03</rscale>
<asrwt>0</asrwt>
<pdfrwt beam="1">  1        2 0.16173920E+00 0.73935765E+03</pdfrwt>
<pdfrwt beam="2">  1       -2 0.11380646E+00 0.73935765E+03</pdfrwt>
<totfact> 0.14396271E+01</totfact>
</mgrwt>
</event>
<event>
 4    2  0.3747163E-007  0.8285136E+03  0.7818608E-02  0.9652231E-01
          2   -1    0    0  501    0  0.00000000000E+00  0.00000000000E+00  0.34493650418E+04  0.34493650418E+04  0.25500000000E-02 0. -1.
         -2   -1    0    0    0  501 -0.00000000000E+00 -0.00000000000E+00 -0.40034307545E+03  0.40034307545E+03  0.25500000000E-02 0.  1.
    8880023    1    1    2    0    0  0.27696495661E+03 -0.41942213802E+03  0.31980336764E+04  0.33036122834E+04  0.65864270000E+03 0. -1.
    8880022    1    1    2    0    0 -0.27696495661E+03  0.41942213802E+03 -0.14901171005E+03  0.54609583390E+03  0.15294330000E+03 0.  0.
<mgrwt>
<rscale>  0 0.73933545E+03</rscale>
<asrwt>0</asrwt>
<pdfrwt beam="1">  1        2 0.53067155E+00 0.82851356E+03</pdfrwt>
<pdfrwt beam="2">  1       -2 0.61591242E-01 0.82851356E+03</pdfrwt>
<totfact> 0.23055423E+00</totfact>
</mgrwt>
</event>
<event>
 4    2  0.3747163E-007  0.7705103E+03  0.7818608E-02  0.9778620E-01
         -2   -1    0    0    0  501 -0.00000000000E+00  0.00000000000E+00  0.34493753297E+03  0.34493753298E+03  0.25500000000E-02 0.  1.
          2   -1    0    0  501    0  0.00000000000E+00 -0.00000000000E+00 -0.27523915997E+04  0.27523915997E+04  0.25500000000E-02 0. -1.
    8880023    1    1    2    0    0  0.39750313766E+03  0.43210854900E+02 -0.25359037813E+04  0.26503762217E+04  0.65864270000E+03 0. -1.
    8880022    1    1    2    0    0 -0.39750313766E+03 -0.43210854900E+02  0.12844971457E+03  0.44695291096E+03  0.15294330000E+03 0.  0.
<mgrwt>
<rscale>  0 0.66522650E+03</rscale>
<asrwt>0</asrwt>
<pdfrwt beam="1">  1        2 0.42344485E+00 0.77051030E+03</pdfrwt>
<pdfrwt beam="2">  1       -2 0.53067315E-01 0.77051030E+03</pdfrwt>
<totfact> 0.87072968E+00</totfact>
</mgrwt>
</event>
<event>
 4    2  0.3747163E-007  0.9968192E+03  0.7818608E-02  0.9385731E-01
         -2   -1    0    0    0  501 -0.00000000000E+00  0.00000000000E+00  0.51477176136E+03  0.51477176137E+03  0.25500000000E-02 0.  1.
          2   -1    0    0  501    0  0.00000000000E+00 -0.00000000000E+00 -0.25623700917E+04  0.25623700917E+04  0.25500000000E-02 0. -1.
    8880023    1    1    2    0    0  0.63742111006E+03 -0.39183240462E+03 -0.20865738304E+04  0.23124529964E+04  0.65864270000E+03 0.  0.
    8880022    1    1    2    0    0 -0.63742111006E+03  0.39183240462E+03  0.38975500028E+02  0.76468885664E+03  0.15294330000E+03 0.  0.
<mgrwt>
<rscale>  0 0.93259326E+03</rscale>
<asrwt>0</asrwt>
<pdfrwt beam="1">  1        2 0.39421077E+00 0.99681920E+03</pdfrwt>
<pdfrwt beam="2">  1       -2 0.79195658E-01 0.99681920E+03</pdfrwt>
<totfact> 0.45818436E+00</totfact>
</mgrwt>
</event>
<event>
 4    2  0.3747163E-007  0.6751664E+03  0.7818608E-02  0.1012202E+00
         -2   -1    0    0    0  501 -0.00000000000E+00  0.00000000000E+00  0.25521273491E+03  0.25521273492E+03  0.25500000000E-02 0.  1.
          2   -1    0    0  501    0  0.00000000000E+00 -0.00000000000E+00 -0.12629647234E+04  0.12629647234E+04  0.25500000000E-02 0. -1.
    8880023    1    1    2    0    0 -0.13437335812E+03 -0.63112807329E+02 -0.10961740784E+04  0.12874188294E+04  0.65864270000E+03 0. -1.
    8880022    1    1    2    0    0  0.13437335812E+03  0.63112807329E+02  0.88422089929E+02  0.23075862893E+03  0.15294330000E+03 0.  0.
<mgrwt>
<rscale>  0 0.50608939E+03</rscale>
<asrwt>0</asrwt>
<pdfrwt beam="1">  1        2 0.19430226E+00 0.67516637E+03</pdfrwt>
<pdfrwt beam="2">  1       -2 0.39263498E-01 0.67516637E+03</pdfrwt>
<totfact> 0.10891364E+02</totfact>
</mgrwt>
</event>
<event>
 4    2  0.3747163E-007  0.6973694E+03  0.7818608E-02  0.1000829E+00
          2   -1    0    0  501    0  0.00000000000E+00  0.00000000000E+00  0.16790665866E+04  0.16790665866E+04  0.25500000000E-02 0. -1.
         -2   -1    0    0    0  501 -0.00000000000E+00 -0.00000000000E+00 -0.28665940927E+03  0.28665940928E+03  0.25500000000E-02 0.  1.
    8880023    1    1    2    0    0  0.13809749444E+03 -0.18287421507E+03  0.15122346096E+04  0.16652860467E+04  0.65864270000E+03 0. -1.
    8880022    1    1    2    0    0 -0.13809749444E+03  0.18287421507E+03 -0.11982743231E+03  0.30043994917E+03  0.15294330000E+03 0.  0.
<mgrwt>
<rscale>  0 0.55288062E+03</rscale>
<asrwt>0</asrwt>
<pdfrwt beam="1">  1        2 0.25831794E+00 0.69736942E+03</pdfrwt>
<pdfrwt beam="2">  1       -2 0.44101447E-01 0.69736942E+03</pdfrwt>
<totfact> 0.50620290E+01</totfact>
</mgrwt>
</event>
<event>
 4    2  0.3747163E-007  0.7609854E+03  0.7818608E-02  0.9802563E-01
          2   -1    0    0  501    0  0.00000000000E+00  0.00000000000E+00  0.19409264353E+04  0.19409264353E+04  0.25500000000E-02 0. -1.
         -2   -1    0    0    0  501 -0.00000000000E+00 -0.00000000000E+00 -0.20245532418E+03  0.20245532420E+03  0.25500000000E-02 0.  1.
    8880023    1    1    2    0    0 -0.20975558187E+03  0.31826266097E+03  0.14622907647E+04  0.16484517015E+04  0.65864270000E+03 0.  0.
    8880022    1    1    2    0    0  0.20975558187E+03 -0.31826266097E+03  0.27618034636E+03  0.49493005791E+03  0.15294330000E+03 0.  0.
<mgrwt>
<rscale>  0 0.65225173E+03</rscale>
<asrwt>0</asrwt>
<pdfrwt beam="1">  1        2 0.29860407E+00 0.76098537E+03</pdfrwt>
<pdfrwt beam="2">  1       -2 0.31146972E-01 0.76098537E+03</pdfrwt>
<totfact> 0.70630939E+01</totfact>
</mgrwt>
</event>
<event>
 4    2  0.3747163E-007  0.8422708E+03  0.7818608E-02  0.9625913E-01
         -2   -1    0    0    0  501 -0.00000000000E+00  0.00000000000E+00  0.25143207832E+03  0.25143207833E+03  0.25500000000E-02 0.  1.
          2   -1    0    0  501    0  0.00000000000E+00 -0.00000000000E+00 -0.32942641524E+04  0.32942641524E+04  0.25500000000E-02 0. -1.
    8880023    1    1    2    0    0  0.38858342493E+03  0.35300551303E+03 -0.28403482094E+04  0.29625998932E+04  0.65864270000E+03 0.  0.
    8880022    1    1    2    0    0 -0.38858342493E+03 -0.35300551303E+03 -0.20248386468E+03  0.58309633752E+03  0.15294330000E+03 0.  0.
<mgrwt>
<rscale>  0 0.75604565E+03</rscale>
<asrwt>0</asrwt>
<pdfrwt beam="1">  1        2 0.50680984E+00 0.84227085E+03</pdfrwt>
<pdfrwt beam="2">  1       -2 0.38681861E-01 0.84227085E+03</pdfrwt>
<totfact> 0.74956844E+00</totfact>
</mgrwt>
</event>
<event>
 4    2  0.3747163E-007  0.8758698E+03  0.7818608E-02  0.9565935E-01
         -2   -1    0    0    0  501 -0.00000000000E+00  0.00000000000E+00  0.36765695068E+03  0.36765695069E+03  0.25500000000E-02 0.  1.
          2   -1    0    0  501    0  0.00000000000E+00 -0.00000000000E+00 -0.19642997980E+04  0.19642997980E+04  0.25500000000E-02 0. -1.
    8880023    1    1    2    0    0  0.54488980913E+03  0.19087396489E+03 -0.14854227700E+04  0.17244212903E+04  0.65864270000E+03 0.  0.
    8880022    1    1    2    0    0 -0.54488980913E+03 -0.19087396489E+03 -0.11122007730E+03  0.60753545837E+03  0.15294330000E+03 0.  0.
<mgrwt>
<rscale>  0 0.79592482E+03</rscale>
<asrwt>0</asrwt>
<pdfrwt beam="1">  1        2 0.30219996E+00 0.87586984E+03</pdfrwt>
<pdfrwt beam="2">  1       -2 0.56562609E-01 0.87586984E+03</pdfrwt>
<totfact> 0.20854324E+01</totfact>
</mgrwt>
</event>
<event>
 4    2  0.3747163E-007  0.1037144E+04  0.7818608E-02  0.9334498E-01
          2   -1    0    0  501    0  0.00000000000E+00  0.00000000000E+00  0.42880775975E+04  0.42880775975E+04  0.25500000000E-02 0. -1.
         -2   -1    0    0    0  501 -0.00000000000E+00 -0.00000000000E+00 -0.45756886859E+03  0.45756886860E+03  0.25500000000E-02 0.  1.
    8880023    1    1    2    0    0 -0.62479348800E+03 -0.50148871715E+03  0.37896346753E+04  0.39289946570E+04  0.65864270000E+03 0.  0.
    8880022    1    1    2    0    0  0.62479348800E+03  0.50148871715E+03  0.40874053615E+02  0.81665180913E+03  0.15294330000E+03 0.  1.
<mgrwt>
<rscale>  0 0.97668028E+03</rscale>
<asrwt>0</asrwt>
<pdfrwt beam="1">  1        2 0.65970429E+00 0.10371442E+04</pdfrwt>
<pdfrwt beam="2">  1       -2 0.70395206E-01 0.10371442E+04</pdfrwt>
<totfact> 0.37753101E-01</totfact>
</mgrwt>
</event>
<event>
 4    2  0.3747163E-007  0.6989710E+03  0.7818608E-02  0.1000150E+00
         -2   -1    0    0    0  501 -0.00000000000E+00  0.00000000000E+00  0.16952884657E+03  0.16952884659E+03  0.25500000000E-02 0.  1.
          2   -1    0    0  501    0  0.00000000000E+00 -0.00000000000E+00 -0.23929043698E+04  0.23929043698E+04  0.25500000000E-02 0. -1.
    8880023    1    1    2    0    0  0.20483878008E+03 -0.11309898315E+03 -0.21674341666E+04  0.22773518346E+04  0.65864270000E+03 0. -1.
    8880022    1    1    2    0    0 -0.20483878008E+03  0.11309898315E+03 -0.55941356568E+02  0.28508138172E+03  0.15294330000E+03 0.  0.
<mgrwt>
<rscale>  0 0.55584656E+03</rscale>
<asrwt>0</asrwt>
<pdfrwt beam="1">  1        2 0.36813911E+00 0.69897104E+03</pdfrwt>
<pdfrwt beam="2">  1       -2 0.26081363E-01 0.69897104E+03</pdfrwt>
<totfact> 0.55639255E+01</totfact>
</mgrwt>
</event>
<event>
 4    2  0.3747163E-007  0.1048888E+04  0.7818608E-02  0.9320220E-01
         -2   -1    0    0    0  501 -0.00000000000E+00  0.00000000000E+00  0.89826188657E+03  0.89826188658E+03  0.25500000000E-02 0.  1.
          2   -1    0    0  501    0  0.00000000000E+00 -0.00000000000E+00 -0.21586080183E+04  0.21586080183E+04  0.25500000000E-02 0. -1.
    8880023    1    1    2    0    0 -0.80170336351E+03 -0.15371076875E+03 -0.17879777068E+04  0.20729278255E+04  0.65864270000E+03 0.  0.
    8880022    1    1    2    0    0  0.80170336351E+03  0.15371076875E+03  0.52763157509E+03  0.98394207936E+03  0.15294330000E+03 0.  0.
<mgrwt>
<rscale>  0 0.98942523E+03</rscale>
<asrwt>0</asrwt>
<pdfrwt beam="1">  1        2 0.33209354E+00 0.10488877E+04</pdfrwt>
<pdfrwt beam="2">  1       -2 0.13819414E+00 0.10488877E+04</pdfrwt>
<totfact> 0.20109665E+00</totfact>
</mgrwt>
</event>
<event>
 4    2  0.3747163E-007  0.7519253E+03  0.7818608E-02  0.9826479E-01
          2   -1    0    0  501    0  0.00000000000E+00  0.00000000000E+00  0.80862096976E+03  0.80862096976E+03  0.25500000000E-02 0. -1.
         -2   -1    0    0    0  501 -0.00000000000E+00 -0.00000000000E+00 -0.12818544694E+04  0.12818544694E+04  0.25500000000E-02 0.  1.
    8880023    1    1    2    0    0  0.36239544370E+03  0.15843365341E+02  0.59060181269E+03  0.95613920391E+03  0.65864270000E+03 0.  0.
    8880022    1    1    2    0    0 -0.36239544370E+03 -0.15843365341E+02 -0.10638353123E+04  0.11343362352E+04  0.15294330000E+03 0.  0.
<mgrwt>
<rscale>  0 0.63960681E+03</rscale>
<asrwt>0</asrwt>
<pdfrwt beam="1">  1        2 0.12440323E+00 0.75192531E+03</pdfrwt>
<pdfrwt beam="2">  1       -2 0.19720838E+00 0.75192531E+03</pdfrwt>
<totfact> 0.48120512E+00</totfact>
</mgrwt>
</event>
<event>
 4    2  0.3747163E-007  0.8281844E+03  0.7818608E-02  0.9652875E-01
         -2   -1    0    0    0  501 -0.00000000000E+00  0.00000000000E+00  0.25503249239E+03  0.25503249240E+03  0.25500000000E-02 0.  1.
          2   -1    0    0  501    0  0.00000000000E+00 -0.00000000000E+00 -0.19275736522E+04  0.19275736522E+04  0.25500000000E-02 0. -1.
    8880023    1    1    2    0    0  0.18180795609E+03 -0.46800120633E+03 -0.73095639174E+03  0.11046206204E+04  0.65864270000E+03 0.  0.
    8880022    1    1    2    0    0 -0.18180795609E+03  0.46800120633E+03 -0.94158476809E+03  0.10779855243E+04  0.15294330000E+03 0.  0.
<mgrwt>
<rscale>  0 0.73893250E+03</rscale>
<asrwt>0</asrwt>
<pdfrwt beam="1">  1        2 0.29654978E+00 0.82818444E+03</pdfrwt>
<pdfrwt beam="2">  1       -2 0.39235769E-01 0.82818444E+03</pdfrwt>
<totfact> 0.45919218E+01</totfact>
</mgrwt>
</event>
<event>
 4    2  0.3747163E-007  0.7446961E+03  0.7818608E-02  0.9846473E-01
          2   -1    0    0  501    0  0.00000000000E+00  0.00000000000E+00  0.91626774575E+03  0.91626774576E+03  0.25500000000E-02 0. -1.
         -2   -1    0    0    0  501 -0.00000000000E+00 -0.00000000000E+00 -0.48803986106E+03  0.48803986106E+03  0.25500000000E-02 0.  1.
    8880023    1    1    2    0    0  0.65373054010E+02  0.34130407066E+03  0.62902422740E+03  0.97480448797E+03  0.65864270000E+03 0. -1.
    8880022    1    1    2    0    0 -0.65373054010E+02 -0.34130407066E+03 -0.20079634270E+03  0.42950311885E+03  0.15294330000E+03 0.  0.
<mgrwt>
<rscale>  0 0.62927078E+03</rscale>
<asrwt>0</asrwt>
<pdfrwt beam="1">  1        2 0.14096427E+00 0.74469612E+03</pdfrwt>
<pdfrwt beam="2">  1       -2 0.75083056E-01 0.74469612E+03</pdfrwt>
<totfact> 0.46234158E+01</totfact>
</mgrwt>
</event>
<event>
 4    2  0.3747163E-007  0.9767301E+03  0.7818608E-02  0.9412656E-01
         -2   -1    0    0    0  501 -0.00000000000E+00  0.00000000000E+00  0.30702627178E+03  0.30702627179E+03  0.25500000000E-02 0.  1.
          2   -1    0    0  501    0  0.00000000000E+00 -0.00000000000E+00 -0.32560277293E+04  0.32560277293E+04  0.25500000000E-02 0. -1.
    8880023    1    1    2    0    0  0.69470758661E+03 -0.19383742204E+03 -0.25368711856E+04  0.27184034277E+04  0.65864270000E+03 0. -1.
    8880022    1    1    2    0    0 -0.69470758661E+03  0.19383742204E+03 -0.41213027190E+03  0.84465057338E+03  0.15294330000E+03 0.  0.
<mgrwt>
<rscale>  0 0.91041457E+03</rscale>
<asrwt>0</asrwt>
<pdfrwt beam="1">  1        2 0.50092732E+00 0.97673015E+03</pdfrwt>
<pdfrwt beam="2">  1       -2 0.47234813E-01 0.97673015E+03</pdfrwt>
<totfact> 0.52306094E+00</totfact>
</mgrwt>
</event>
<event>
 4    2  0.3747163E-007  0.7915926E+03  0.7818608E-02  0.9729278E-01
          2   -1    0    0  501    0  0.00000000000E+00  0.00000000000E+00  0.19854853914E+04  0.19854853914E+04  0.25500000000E-02 0. -1.
         -2   -1    0    0    0  501 -0.00000000000E+00 -0.00000000000E+00 -0.71118690367E+03  0.71118690368E+03  0.25500000000E-02 0.  1.
    8880023    1    1    2    0    0 -0.43907181357E+03  0.49520433745E+01  0.18170456160E+04  0.19819872747E+04  0.65864270000E+03 0. -1.
    8880022    1    1    2    0    0  0.43907181357E+03 -0.49520433745E+01 -0.54274712822E+03  0.71468502042E+03  0.15294330000E+03 0.  0.
<mgrwt>
<rscale>  0 0.69300010E+03</rscale>
<asrwt>0</asrwt>
<pdfrwt beam="1">  1        2 0.30545929E+00 0.79159256E+03</pdfrwt>
<pdfrwt beam="2">  1       -2 0.10941337E+00 0.79159256E+03</pdfrwt>
<totfact> 0.46613601E+00</totfact>
</mgrwt>
</event>
<event>
 4    2  0.3747163E-007  0.7885745E+03  0.7818608E-02  0.9736068E-01
          2   -1    0    0  501    0  0.00000000000E+00  0.00000000000E+00  0.63304138806E+03  0.63304138806E+03  0.25500000000E-02 0. -1.
         -2   -1    0    0    0  501 -0.00000000000E+00 -0.00000000000E+00 -0.10602904863E+04  0.10602904863E+04  0.25500000000E-02 0.  1.
    8880023    1    1    2    0    0  0.43091241718E+03  0.48518813486E+02  0.29095921526E+03  0.84053974192E+03  0.65864270000E+03 0. -1.
    8880022    1    1    2    0    0 -0.43091241718E+03 -0.48518813486E+02 -0.71820831345E+03  0.85279213239E+03  0.15294330000E+03 0.  1.
<mgrwt>
<rscale>  0 0.68909358E+03</rscale>
<asrwt>0</asrwt>
<pdfrwt beam="1">  1        2 0.97390983E-01 0.78857453E+03</pdfrwt>
<pdfrwt beam="2">  1       -2 0.16312161E+00 0.78857453E+03</pdfrwt>
<totfact> 0.11229738E+01</totfact>
</mgrwt>
</event>
<event>
 4    2  0.3747163E-007  0.8712336E+03  0.7818608E-02  0.9573885E-01
         -2   -1    0    0    0  501 -0.00000000000E+00  0.00000000000E+00  0.87547906255E+03  0.87547906256E+03  0.25500000000E-02 0.  1.
          2   -1    0    0  501    0  0.00000000000E+00 -0.00000000000E+00 -0.82543990853E+03  0.82543990853E+03  0.25500000000E-02 0. -1.
    8880023    1    1    2    0    0 -0.55103734872E+03  0.14695462444E+03 -0.39984790566E+03  0.95860647570E+03  0.65864270000E+03 0.  0.
    8880022    1    1    2    0    0  0.55103734872E+03 -0.14695462444E+03  0.44988705968E+03  0.74231249539E+03  0.15294330000E+03 0.  0.
<mgrwt>
<rscale>  0 0.79049019E+03</rscale>
<asrwt>0</asrwt>
<pdfrwt beam="1">  1        2 0.12699076E+00 0.87123362E+03</pdfrwt>
<pdfrwt beam="2">  1       -2 0.13468909E+00 0.87123362E+03</pdfrwt>
<totfact> 0.13151425E+01</totfact>
</mgrwt>
</event>
<event>
 4    2  0.3747163E-007  0.6843837E+03  0.7818608E-02  0.1006945E+00
          2   -1    0    0  501    0  0.00000000000E+00  0.00000000000E+00  0.28008700495E+04  0.28008700495E+04  0.25500000000E-02 0. -1.
         -2   -1    0    0    0  501 -0.00000000000E+00 -0.00000000000E+00 -0.86877099552E+02  0.86877099589E+02  0.25500000000E-02 0.  1.
    8880023    1    1    2    0    0  0.12699712372E+03 -0.13580322184E+03  0.23771841726E+04  0.24737391902E+04  0.65864270000E+03 0. -1.
    8880022    1    1    2    0    0 -0.12699712372E+03  0.13580322184E+03  0.33680877734E+03  0.41400795887E+03  0.15294330000E+03 0.  0.
<mgrwt>
<rscale>  0 0.52706970E+03</rscale>
<asrwt>0</asrwt>
<pdfrwt beam="1">  1        2 0.43090300E+00 0.68438366E+03</pdfrwt>
<pdfrwt beam="2">  1       -2 0.13365710E-01 0.68438366E+03</pdfrwt>
<totfact> 0.10382764E+02</totfact>
</mgrwt>
</event>
<event>
 4    2  0.5819676E-007  0.7366449E+03  0.7818608E-02  0.9869830E-01
          2   -1    0    0  501    0  0.00000000000E+00  0.00000000000E+00  0.24508260421E+04  0.24508260421E+04  0.25500000000E-02 0. -1.
         -2   -1    0    0    0  501 -0.00000000000E+00 -0.00000000000E+00 -0.94340806481E+03  0.94340806481E+03  0.25500000000E-02 0.  1.
    8880023    1    1    2    0    0  0.10278327546E+03  0.31348221964E+03  0.23573584979E+04  0.24697742402E+04  0.65864270000E+03 0. -1.
    8880022    1    1    2    0    0 -0.10278327546E+03 -0.31348221964E+03 -0.84994052056E+03  0.92445986676E+03  0.15294330000E+03 0.  0.
<mgrwt>
<rscale>  0 0.61745985E+03</rscale>
<asrwt>0</asrwt>
<pdfrwt beam="1">  1        2 0.37705016E+00 0.73664490E+03</pdfrwt>
<pdfrwt beam="2">  1       -2 0.14513970E+00 0.73664490E+03</pdfrwt>
<totfact> 0.12796989E+00</totfact>
</mgrwt>
</event>
<event>
 4    2  0.3747163E-007  0.6631979E+03  0.7818608E-02  0.1021096E+00
          2   -1    0    0  501    0  0.00000000000E+00  0.00000000000E+00  0.33268114070E+04  0.33268114070E+04  0.25500000000E-02 0. -1.
         -2   -1    0    0    0  501 -0.00000000000E+00 -0.00000000000E+00 -0.55103716034E+02  0.55103716093E+02  0.25500000000E-02 0.  1.
    8880023    1    1    2    0    0  0.57807796287E+02  0.51764578120E+02  0.28605490100E+04  0.29364216587E+04  0.65864270000E+03 0.  0.
    8880022    1    1    2    0    0 -0.57807796287E+02 -0.51764578120E+02  0.41115868094E+03  0.44549346436E+03  0.15294330000E+03 0.  0.
<mgrwt>
<rscale>  0 0.47293312E+03</rscale>
<asrwt>0</asrwt>
<pdfrwt beam="1">  1        2 0.51181715E+00 0.66319795E+03</pdfrwt>
<pdfrwt beam="2">  1       -2 0.84774946E-02 0.66319795E+03</pdfrwt>
<totfact> 0.10364733E+02</totfact>
</mgrwt>
</event>
<event>
 4    2  0.3747163E-007  0.7067902E+03  0.7818608E-02  0.9970119E-01
          2   -1    0    0  501    0  0.00000000000E+00  0.00000000000E+00  0.24812019545E+04  0.24812019545E+04  0.25500000000E-02 0. -1.
         -2   -1    0    0    0  501 -0.00000000000E+00 -0.00000000000E+00 -0.12459251940E+03  0.12459251943E+03  0.25500000000E-02 0.  1.
    8880023    1    1    2    0    0  0.17582251603E+03 -0.18662425200E+03  0.20873178453E+04  0.22037350481E+04  0.65864270000E+03 0. -1.
    8880022    1    1    2    0    0 -0.17582251603E+03  0.18662425200E+03  0.26929158983E+03  0.40205942589E+03  0.15294330000E+03 0.  0.
<mgrwt>
<rscale>  0 0.56980099E+03</rscale>
<asrwt>0</asrwt>
<pdfrwt beam="1">  1        2 0.38172337E+00 0.70679019E+03</pdfrwt>
<pdfrwt beam="2">  1       -2 0.19168080E-01 0.70679019E+03</pdfrwt>
<totfact> 0.85647896E+01</totfact>
</mgrwt>
</event>
<event>
 4    2  0.3747163E-007  0.6674522E+03  0.7818608E-02  0.1017559E+00
         -2   -1    0    0    0  501 -0.00000000000E+00  0.00000000000E+00  0.22578735283E+03  0.22578735285E+03  0.25500000000E-02 0.  1.
          2   -1    0    0  501    0  0.00000000000E+00 -0.00000000000E+00 -0.21986238306E+04  0.21986238306E+04  0.25500000000E-02 0. -1.
    8880023    1    1    2    0    0  0.85755470961E+02 -0.65788955491E+02 -0.20963693092E+04  0.22000583343E+04  0.65864270000E+03 0. -1.
    8880022    1    1    2    0    0 -0.85755470961E+02  0.65788955491E+02  0.12353283144E+03  0.22435284915E+03  0.15294330000E+03 0.  0.
<mgrwt>
<rscale>  0 0.48577820E+03</rscale>
<asrwt>0</asrwt>
<pdfrwt beam="1">  1        2 0.33824981E+00 0.66745217E+03</pdfrwt>
<pdfrwt beam="2">  1       -2 0.34736517E-01 0.66745217E+03</pdfrwt>
<totfact> 0.42079917E+01</totfact>
</mgrwt>
</event>
<event>
 4    2  0.3747163E-007  0.8673243E+03  0.7818608E-02  0.9580665E-01
          2   -1    0    0  501    0  0.00000000000E+00  0.00000000000E+00  0.19995418970E+04  0.19995418970E+04  0.25500000000E-02 0. -1.
         -2   -1    0    0    0  501 -0.00000000000E+00 -0.00000000000E+00 -0.29620309755E+03  0.29620309756E+03  0.25500000000E-02 0.  1.
    8880023    1    1    2    0    0  0.17390072118E+03  0.53684241570E+03  0.13735950375E+04  0.16245044701E+04  0.65864270000E+03 0. -1.
    8880022    1    1    2    0    0 -0.17390072118E+03 -0.53684241570E+03  0.32974376197E+03  0.67124052447E+03  0.15294330000E+03 0.  0.
<mgrwt>
<rscale>  0 0.78589200E+03</rscale>
<asrwt>0</asrwt>
<pdfrwt beam="1">  1        2 0.30762183E+00 0.86732430E+03</pdfrwt>
<pdfrwt beam="2">  1       -2 0.45569708E-01 0.86732430E+03</pdfrwt>
<totfact> 0.31073098E+01</totfact>
</mgrwt>
</event>
<event>
 4    2  0.3747163E-007  0.7049210E+03  0.7818608E-02  0.9977368E-01
          2   -1    0    0  501    0  0.00000000000E+00  0.00000000000E+00  0.29712880974E+04  0.29712880975E+04  0.25500000000E-02 0. -1.
         -2   -1    0    0    0  501 -0.00000000000E+00 -0.00000000000E+00 -0.89972118197E+02  0.89972118233E+02  0.25500000000E-02 0.  1.
    8880023    1    1    2    0    0  0.24996180411E+02 -0.24995728332E+03  0.16309150881E+04  0.17767379333E+04  0.65864270000E+03 0.  0.
    8880022    1    1    2    0    0 -0.24996180411E+02  0.24995728332E+03  0.12504008911E+04  0.12845222824E+04  0.15294330000E+03 0.  0.
<mgrwt>
<rscale>  0 0.56653832E+03</rscale>
<asrwt>0</asrwt>
<pdfrwt beam="1">  1        2 0.45712121E+00 0.70492103E+03</pdfrwt>
<pdfrwt beam="2">  1       -2 0.13841866E-01 0.70492103E+03</pdfrwt>
<totfact> 0.77209310E+01</totfact>
</mgrwt>
</event>
<event>
 4    2  0.3747163E-007  0.9292448E+03  0.7818608E-02  0.9480627E-01
         -2   -1    0    0    0  501 -0.00000000000E+00  0.00000000000E+00  0.38314907378E+03  0.38314907379E+03  0.25500000000E-02 0.  1.
          2   -1    0    0  501    0  0.00000000000E+00 -0.00000000000E+00 -0.32649696970E+04  0.32649696970E+04  0.25500000000E-02 0. -1.
    8880023    1    1    2    0    0  0.64740656445E+03  0.10271510647E+03 -0.28235057436E+04  0.29724872654E+04  0.65864270000E+03 0. -1.
    8880022    1    1    2    0    0 -0.64740656445E+03 -0.10271510647E+03 -0.58314879583E+02  0.67563150532E+03  0.15294330000E+03 0.  0.
<mgrwt>
<rscale>  0 0.85727298E+03</rscale>
<asrwt>0</asrwt>
<pdfrwt beam="1">  1        2 0.50230301E+00 0.92924478E+03</pdfrwt>
<pdfrwt beam="2">  1       -2 0.58946013E-01 0.92924478E+03</pdfrwt>
<totfact> 0.32911070E+00</totfact>
</mgrwt>
</event>
<event>
 4    2  0.3747163E-007  0.7928160E+03  0.7818608E-02  0.9726550E-01
          2   -1    0    0  501    0  0.00000000000E+00  0.00000000000E+00  0.52197182716E+03  0.52197182717E+03  0.25500000000E-02 0. -1.
         -2   -1    0    0    0  501 -0.00000000000E+00 -0.00000000000E+00 -0.10409564358E+04  0.10409564358E+04  0.25500000000E-02 0.  1.
    8880023    1    1    2    0    0 -0.75085967268E+02 -0.43486678374E+03  0.87296671486E+02  0.79760763361E+03  0.65864270000E+03 0. -1.
    8880022    1    1    2    0    0  0.75085967268E+02  0.43486678374E+03 -0.60628128011E+03  0.76532062935E+03  0.15294330000E+03 0.  1.
<mgrwt>
<rscale>  0 0.69457779E+03</rscale>
<asrwt>0</asrwt>
<pdfrwt beam="1">  1        2 0.80303358E-01 0.79281601E+03</pdfrwt>
<pdfrwt beam="2">  1       -2 0.16014714E+00 0.79281601E+03</pdfrwt>
<totfact> 0.14870251E+01</totfact>
</mgrwt>
</event>
<event>
 4    2  0.3747163E-007  0.7360675E+03  0.7818608E-02  0.9871554E-01
          2   -1    0    0  501    0  0.00000000000E+00  0.00000000000E+00  0.64023971214E+03  0.64023971214E+03  0.25500000000E-02 0. -1.
         -2   -1    0    0    0  501 -0.00000000000E+00 -0.00000000000E+00 -0.13336556866E+04  0.13336556866E+04  0.25500000000E-02 0.  1.
    8880023    1    1    2    0    0  0.24631596542E+02  0.32768647045E+03  0.38890713619E+03  0.83249270586E+03  0.65864270000E+03 0. -1.
    8880022    1    1    2    0    0 -0.24631596542E+02 -0.32768647045E+03 -0.10823231107E+04  0.11414026929E+04  0.15294330000E+03 0.  0.
<mgrwt>
<rscale>  0 0.61659934E+03</rscale>
<asrwt>0</asrwt>
<pdfrwt beam="1">  1        2 0.98498417E-01 0.73606749E+03</pdfrwt>
<pdfrwt beam="2">  1       -2 0.20517780E+00 0.73606749E+03</pdfrwt>
<totfact> 0.57664600E+00</totfact>
</mgrwt>
</event>
<event>
 4    2  0.3747163E-007  0.9164533E+03  0.7818608E-02  0.9500119E-01
         -2   -1    0    0    0  501 -0.00000000000E+00  0.00000000000E+00  0.48102478503E+03  0.48102478504E+03  0.25500000000E-02 0.  1.
          2   -1    0    0  501    0  0.00000000000E+00 -0.00000000000E+00 -0.23274308506E+04  0.23274308506E+04  0.25500000000E-02 0. -1.
    8880023    1    1    2    0    0 -0.48324904428E+03  0.41538746598E+03 -0.74770808103E+02  0.91949837721E+03  0.65864270000E+03 0.  1.
    8880022    1    1    2    0    0  0.48324904428E+03 -0.41538746598E+03 -0.17716352575E+04  0.18889572584E+04  0.15294330000E+03 0.  0.
<mgrwt>
<rscale>  0 0.84275066E+03</rscale>
<asrwt>0</asrwt>
<pdfrwt beam="1">  1        2 0.35806628E+00 0.91645327E+03</pdfrwt>
<pdfrwt beam="2">  1       -2 0.74003815E-01 0.91645327E+03</pdfrwt>
<totfact> 0.73275582E+00</totfact>
</mgrwt>
</event>
<event>
 4    2  0.3747163E-007  0.8196775E+03  0.7818608E-02  0.9669761E-01
         -2   -1    0    0    0  501 -0.00000000000E+00  0.00000000000E+00  0.27238871359E+03  0.27238871360E+03  0.25500000000E-02 0.  1.
          2   -1    0    0  501    0  0.00000000000E+00 -0.00000000000E+00 -0.22292539270E+04  0.22292539270E+04  0.25500000000E-02 0. -1.
    8880023    1    1    2    0    0  0.46871776112E+03  0.13551627929E+03 -0.17816003290E+04  0.19611147188E+04  0.65864270000E+03 0.  0.
    8880022    1    1    2    0    0 -0.46871776112E+03 -0.13551627929E+03 -0.17526488437E+03  0.54052792181E+03  0.15294330000E+03 0.  0.
<mgrwt>
<rscale>  0 0.72846115E+03</rscale>
<asrwt>0</asrwt>
<pdfrwt beam="1">  1        2 0.34296213E+00 0.81967750E+03</pdfrwt>
<pdfrwt beam="2">  1       -2 0.41905957E-01 0.81967750E+03</pdfrwt>
<totfact> 0.27584478E+01</totfact>
</mgrwt>
</event>
<event>
 4    2  0.3747163E-007  0.1350485E+04  0.7818608E-02  0.9023145E-01
          2   -1    0    0  501    0  0.00000000000E+00  0.00000000000E+00  0.21497451556E+04  0.21497451556E+04  0.25500000000E-02 0. -1.
         -2   -1    0    0    0  501 -0.00000000000E+00 -0.00000000000E+00 -0.87946017322E+03  0.87946017322E+03  0.25500000000E-02 0.  1.
    8880023    1    1    2    0    0  0.70103589245E+02 -0.11768958509E+04  0.12499682073E+04  0.18401709385E+04  0.65864270000E+03 0.  0.
    8880022    1    1    2    0    0 -0.70103589245E+02  0.11768958509E+04  0.20316775073E+02  0.11890343904E+04  0.15294330000E+03 0.  0.
<mgrwt>
<rscale>  0 0.13081272E+04</rscale>
<asrwt>0</asrwt>
<pdfrwt beam="1">  1        2 0.33073002E+00 0.13504846E+04</pdfrwt>
<pdfrwt beam="2">  1       -2 0.13530156E+00 0.13504846E+04</pdfrwt>
<totfact> 0.20755294E+00</totfact>
</mgrwt>
</event>
<event>
 4    2  0.3747163E-007  0.6928537E+03  0.7818608E-02  0.1002825E+00
         -2   -1    0    0    0  501 -0.00000000000E+00  0.00000000000E+00  0.31283161970E+03  0.31283161971E+03  0.25500000000E-02 0.  1.
          2   -1    0    0  501    0  0.00000000000E+00 -0.00000000000E+00 -0.77632352875E+03  0.77632352876E+03  0.25500000000E-02 0. -1.
    8880023    1    1    2    0    0 -0.27192919191E+02  0.21329939693E+03 -0.44749120189E+03  0.82479977547E+03  0.65864270000E+03 0.  0.
    8880022    1    1    2    0    0  0.27192919191E+02 -0.21329939693E+03 -0.16000707163E+02  0.26435537299E+03  0.15294330000E+03 0.  0.
<mgrwt>
<rscale>  0 0.54428825E+03</rscale>
<asrwt>0</asrwt>
<pdfrwt beam="1">  1        2 0.11943439E+00 0.69285373E+03</pdfrwt>
<pdfrwt beam="2">  1       -2 0.48127942E-01 0.69285373E+03</pdfrwt>
<totfact> 0.14870127E+02</totfact>
</mgrwt>
</event>
<event>
 4    2  0.3747163E-007  0.6971712E+03  0.7818608E-02  0.1000914E+00
          2   -1    0    0  501    0  0.00000000000E+00  0.00000000000E+00  0.14853135329E+04  0.14853135329E+04  0.25500000000E-02 0. -1.
         -2   -1    0    0    0  501 -0.00000000000E+00 -0.00000000000E+00 -0.46540317583E+03  0.46540317584E+03  0.25500000000E-02 0.  1.
    8880023    1    1    2    0    0  0.22423374039E+03  0.44235191995E+02  0.13510188865E+04  0.15202959450E+04  0.65864270000E+03 0. -1.
    8880022    1    1    2    0    0 -0.22423374039E+03 -0.44235191995E+02 -0.33110852944E+03  0.43042076370E+03  0.15294330000E+03 0.  0.
<mgrwt>
<rscale>  0 0.55251079E+03</rscale>
<asrwt>0</asrwt>
<pdfrwt beam="1">  1        2 0.22850978E+00 0.69717123E+03</pdfrwt>
<pdfrwt beam="2">  1       -2 0.71600488E-01 0.69717123E+03</pdfrwt>
<totfact> 0.23580307E+01</totfact>
</mgrwt>
</event>
<event>
 4    2  0.3747163E-007  0.9074738E+03  0.7818608E-02  0.9514139E-01
         -2   -1    0    0    0  501 -0.00000000000E+00  0.00000000000E+00  0.37428129698E+03  0.37428129699E+03  0.25500000000E-02 0.  1.
          2   -1    0    0  501    0  0.00000000000E+00 -0.00000000000E+00 -0.26926075506E+04  0.26926075506E+04  0.25500000000E-02 0. -1.
    8880023    1    1    2    0    0 -0.26147957192E+02  0.62371055541E+03 -0.22431844227E+04  0.24197903076E+04  0.65864270000E+03 0. -1.
    8880022    1    1    2    0    0  0.26147957192E+02 -0.62371055541E+03 -0.75141830929E+02  0.64709853992E+03  0.15294330000E+03 0.  0.
<mgrwt>
<rscale>  0 0.83249417E+03</rscale>
<asrwt>0</asrwt>
<pdfrwt beam="1">  1        2 0.41424730E+00 0.90747384E+03</pdfrwt>
<pdfrwt beam="2">  1       -2 0.57581740E-01 0.90747384E+03</pdfrwt>
<totfact> 0.77948293E+00</totfact>
</mgrwt>
</event>
<event>
 4    2  0.3747163E-007  0.8496125E+03  0.7818608E-02  0.9612315E-01
          2   -1    0    0  501    0  0.00000000000E+00  0.00000000000E+00  0.34143187685E+04  0.34143187685E+04  0.25500000000E-02 0. -1.
         -2   -1    0    0    0  501 -0.00000000000E+00 -0.00000000000E+00 -0.32501361286E+03  0.32501361287E+03  0.25500000000E-02 0.  1.
    8880023    1    1    2    0    0 -0.27732699199E+03 -0.45947890057E+03  0.30651893561E+04  0.31807588899E+04  0.65864270000E+03 0. -1.
    8880022    1    1    2    0    0  0.27732699199E+03  0.45947890057E+03  0.24115799495E+02  0.55857349145E+03  0.15294330000E+03 0.  0.
<mgrwt>
<rscale>  0 0.76486440E+03</rscale>
<asrwt>0</asrwt>
<pdfrwt beam="1">  1        2 0.52527979E+00 0.84961246E+03</pdfrwt>
<pdfrwt beam="2">  1       -2 0.50002097E-01 0.84961246E+03</pdfrwt>
<totfact> 0.37420532E+00</totfact>
</mgrwt>
</event>
<event>
 4    2  0.3747163E-007  0.7050580E+03  0.7818608E-02  0.9976832E-01
         -2   -1    0    0    0  501 -0.00000000000E+00  0.00000000000E+00  0.14635975184E+03  0.14635975186E+03  0.25500000000E-02 0.  1.
          2   -1    0    0  501    0  0.00000000000E+00 -0.00000000000E+00 -0.43293387477E+04  0.43293387477E+04  0.25500000000E-02 0. -1.
    8880023    1    1    2    0    0 -0.17408721326E+03  0.18163203469E+03 -0.41130984713E+04  0.41730906765E+04  0.65864270000E+03 0. -1.
    8880022    1    1    2    0    0  0.17408721326E+03 -0.18163203469E+03 -0.69880524611E+02  0.30260782307E+03  0.15294330000E+03 0. -1.
<mgrwt>
<rscale>  0 0.56677884E+03</rscale>
<asrwt>0</asrwt>
<pdfrwt beam="1">  1        2 0.66605202E+00 0.70505798E+03</pdfrwt>
<pdfrwt beam="2">  1       -2 0.22516888E-01 0.70505798E+03</pdfrwt>
<totfact> 0.35022397E+00</totfact>
</mgrwt>
</event>
<event>
 4    2  0.3747163E-007  0.6678069E+03  0.7818608E-02  0.1017286E+00
         -2   -1    0    0    0  501 -0.00000000000E+00  0.00000000000E+00  0.14402939157E+03  0.14402939159E+03  0.25500000000E-02 0.  1.
          2   -1    0    0  501    0  0.00000000000E+00 -0.00000000000E+00 -0.12880263726E+04  0.12880263726E+04  0.25500000000E-02 0. -1.
    8880023    1    1    2    0    0  0.10420978288E+03 -0.36001737148E+02 -0.95287380514E+03  0.11635869107E+04  0.65864270000E+03 0. -1.
    8880022    1    1    2    0    0 -0.10420978288E+03  0.36001737148E+02 -0.19112317589E+03  0.26846885351E+03  0.15294330000E+03 0.  1.
<mgrwt>
<rscale>  0 0.48678729E+03</rscale>
<asrwt>0</asrwt>
<pdfrwt beam="1">  1        2 0.19815790E+00 0.66780687E+03</pdfrwt>
<pdfrwt beam="2">  1       -2 0.22158369E-01 0.66780687E+03</pdfrwt>
<totfact> 0.30376151E+02</totfact>
</mgrwt>
</event>
<event>
 4    2  0.3747163E-007  0.8145431E+03  0.7818608E-02  0.9680190E-01
         -2   -1    0    0    0  501 -0.00000000000E+00  0.00000000000E+00  0.33258839846E+03  0.33258839847E+03  0.25500000000E-02 0.  1.
          2   -1    0    0  501    0  0.00000000000E+00 -0.00000000000E+00 -0.31327333093E+04  0.31327333093E+04  0.25500000000E-02 0. -1.
    8880023    1    1    2    0    0  0.66616331948E+02 -0.47458669657E+03 -0.28459181025E+04  0.29601909264E+04  0.65864270000E+03 0. -1.
    8880022    1    1    2    0    0 -0.66616331948E+02  0.47458669657E+03  0.45773191631E+02  0.50513078141E+03  0.15294330000E+03 0.  0.
<mgrwt>
<rscale>  0 0.72208597E+03</rscale>
<asrwt>0</asrwt>
<pdfrwt beam="1">  1        2 0.48195895E+00 0.81454311E+03</pdfrwt>
<pdfrwt beam="2">  1       -2 0.51167448E-01 0.81454311E+03</pdfrwt>
<totfact> 0.54726072E+00</totfact>
</mgrwt>
</event>
<event>
 4    2  0.3747163E-007  0.1031982E+04  0.7818608E-02  0.9340861E-01
         -2   -1    0    0    0  501 -0.00000000000E+00  0.00000000000E+00  0.13152370778E+04  0.13152370778E+04  0.25500000000E-02 0.  1.
          2   -1    0    0  501    0  0.00000000000E+00 -0.00000000000E+00 -0.21016747478E+04  0.21016747478E+04  0.25500000000E-02 0. -1.
    8880023    1    1    2    0    0  0.10234371627E+03  0.78784721943E+03 -0.18273116534E+04  0.20985841805E+04  0.65864270000E+03 0.  0.
    8880022    1    1    2    0    0 -0.10234371627E+03 -0.78784721943E+03  0.10408739834E+04  0.13183276451E+04  0.15294330000E+03 0.  0.
<mgrwt>
<rscale>  0 0.97106580E+03</rscale>
<asrwt>0</asrwt>
<pdfrwt beam="1">  1        2 0.32333458E+00 0.10319824E+04</pdfrwt>
<pdfrwt beam="2">  1       -2 0.20234417E+00 0.10319824E+04</pdfrwt>
<totfact> 0.74907792E-01</totfact>
</mgrwt>
</event>
<event>
 4    2  0.3747163E-007  0.9961029E+03  0.7818608E-02  0.9386674E-01
          2   -1    0    0  501    0  0.00000000000E+00  0.00000000000E+00  0.86044464240E+03  0.86044464241E+03  0.25500000000E-02 0. -1.
         -2   -1    0    0    0  501 -0.00000000000E+00 -0.00000000000E+00 -0.92051666475E+03  0.92051666476E+03  0.25500000000E-02 0.  1.
    8880023    1    1    2    0    0  0.72675054265E+03  0.17390909959E+03  0.10155191791E+03  0.10012660608E+04  0.65864270000E+03 0.  0.
    8880022    1    1    2    0    0 -0.72675054265E+03 -0.17390909959E+03 -0.16162394026E+03  0.77969524639E+03  0.15294330000E+03 0.  0.
<mgrwt>
<rscale>  0 0.93180510E+03</rscale>
<asrwt>0</asrwt>
<pdfrwt beam="1">  1        2 0.13237610E+00 0.99610287E+03</pdfrwt>
<pdfrwt beam="2">  1       -2 0.14161795E+00 0.99610287E+03</pdfrwt>
<totfact> 0.10794915E+01</totfact>
</mgrwt>
</event>
<event>
 4    2  0.3747163E-007  0.6751916E+03  0.7818608E-02  0.1012186E+00
         -2   -1    0    0    0  501 -0.00000000000E+00  0.00000000000E+00  0.12732162209E+03  0.12732162211E+03  0.25500000000E-02 0.  1.
          2   -1    0    0  501    0  0.00000000000E+00 -0.00000000000E+00 -0.21915163594E+04  0.21915163594E+04  0.25500000000E-02 0. -1.
    8880023    1    1    2    0    0 -0.12272090900E+03 -0.83743853812E+02 -0.19758603379E+04  0.20880392083E+04  0.65864270000E+03 0. -1.
    8880022    1    1    2    0    0  0.12272090900E+03  0.83743853812E+02 -0.88334399448E+02  0.23079877317E+03  0.15294330000E+03 0.  0.
<mgrwt>
<rscale>  0 0.50615093E+03</rscale>
<asrwt>0</asrwt>
<pdfrwt beam="1">  1        2 0.33715633E+00 0.67519157E+03</pdfrwt>
<pdfrwt beam="2">  1       -2 0.19587944E-01 0.67519157E+03</pdfrwt>
<totfact> 0.11999506E+02</totfact>
</mgrwt>
</event>
<event>
 4    2  0.3747163E-007  0.1211525E+04  0.7818608E-02  0.9146000E-01
          2   -1    0    0  501    0  0.00000000000E+00  0.00000000000E+00  0.14440922979E+04  0.14440922979E+04  0.25500000000E-02 0. -1.
         -2   -1    0    0    0  501 -0.00000000000E+00 -0.00000000000E+00 -0.12361466233E+04  0.12361466233E+04  0.25500000000E-02 0.  1.
    8880023    1    1    2    0    0 -0.11276931607E+03  0.10105771502E+04  0.83907405722E+03  0.14737159071E+04  0.65864270000E+03 0. -1.
    8880022    1    1    2    0    0  0.11276931607E+03 -0.10105771502E+04 -0.63112838265E+03  0.12065230141E+04  0.15294330000E+03 0.  0.
<mgrwt>
<rscale>  0 0.11628614E+04</rscale>
<asrwt>0</asrwt>
<pdfrwt beam="1">  1        2 0.22216805E+00 0.12115252E+04</pdfrwt>
<pdfrwt beam="2">  1       -2 0.19017640E+00 0.12115252E+04</pdfrwt>
<totfact> 0.20455553E+00</totfact>
</mgrwt>
</event>
<event>
 4    2  0.3747163E-007  0.6861346E+03  0.7818608E-02  0.1006047E+00
         -2   -1    0    0    0  501 -0.00000000000E+00  0.00000000000E+00  0.23254950886E+03  0.23254950887E+03  0.25500000000E-02 0.  1.
          2   -1    0    0  501    0  0.00000000000E+00 -0.00000000000E+00 -0.13019470918E+04  0.13019470918E+04  0.25500000000E-02 0. -1.
    8880023    1    1    2    0    0 -0.15074888650E+03  0.11935349217E+03 -0.10899696713E+04  0.12879497558E+04  0.65864270000E+03 0. -1.
    8880022    1    1    2    0    0  0.15074888650E+03 -0.11935349217E+03  0.20572088372E+02  0.24654684486E+03  0.15294330000E+03 0.  0.
<mgrwt>
<rscale>  0 0.53076535E+03</rscale>
<asrwt>0</asrwt>
<pdfrwt beam="1">  1        2 0.20029955E+00 0.68613460E+03</pdfrwt>
<pdfrwt beam="2">  1       -2 0.35776848E-01 0.68613460E+03</pdfrwt>
<totfact> 0.12356224E+02</totfact>
</mgrwt>
</event>
<event>
 4    2  0.3747163E-007  0.6643242E+03  0.7818608E-02  0.1020107E+00
          2   -1    0    0  501    0  0.00000000000E+00  0.00000000000E+00  0.15474951315E+04  0.15474951315E+04  0.25500000000E-02 0. -1.
         -2   -1    0    0    0  501 -0.00000000000E+00 -0.00000000000E+00 -0.21579038488E+03  0.21579038490E+03  0.25500000000E-02 0.  1.
    8880023    1    1    2    0    0  0.70131268973E+01 -0.86412928041E+02  0.14191411631E+04  0.15669359352E+04  0.65864270000E+03 0. -1.
    8880022    1    1    2    0    0 -0.70131268973E+01  0.86412928041E+02 -0.87436416477E+02  0.19634958116E+03  0.15294330000E+03 0.  0.
<mgrwt>
<rscale>  0 0.47647920E+03</rscale>
<asrwt>0</asrwt>
<pdfrwt beam="1">  1        2 0.23807617E+00 0.66432416E+03</pdfrwt>
<pdfrwt beam="2">  1       -2 0.33198521E-01 0.66432416E+03</pdfrwt>
<totfact> 0.10386339E+02</totfact>
</mgrwt>
</event>
<event>
 4    2  0.3747163E-007  0.8845798E+03  0.7818608E-02  0.9551254E-01
          2   -1    0    0  501    0  0.00000000000E+00  0.00000000000E+00  0.12678872562E+04  0.12678872562E+04  0.25500000000E-02 0. -1.
         -2   -1    0    0    0  501 -0.00000000000E+00 -0.00000000000E+00 -0.16518995865E+04  0.16518995865E+04  0.25500000000E-02 0.  1.
    8880023    1    1    2    0    0 -0.46797579793E+03 -0.36009710957E+03  0.10431639413E+04  0.13677252979E+04  0.65864270000E+03 0. -1.
    8880022    1    1    2    0    0  0.46797579793E+03  0.36009710957E+03 -0.14271762716E+04  0.15520615448E+04  0.15294330000E+03 0.  0.
<mgrwt>
<rscale>  0 0.80608312E+03</rscale>
<asrwt>0</asrwt>
<pdfrwt beam="1">  1        2 0.19505958E+00 0.88457983E+03</pdfrwt>
<pdfrwt beam="2">  1       -2 0.25413840E+00 0.88457983E+03</pdfrwt>
<totfact> 0.10618924E+00</totfact>
</mgrwt>
</event>
<event>
 4    2  0.3747163E-007  0.8333703E+03  0.7818608E-02  0.9642810E-01
         -2   -1    0    0    0  501 -0.00000000000E+00  0.00000000000E+00  0.25072081061E+03  0.25072081063E+03  0.25500000000E-02 0.  1.
          2   -1    0    0  501    0  0.00000000000E+00 -0.00000000000E+00 -0.23996639669E+04  0.23996639669E+04  0.25500000000E-02 0. -1.
    8880023    1    1    2    0    0  0.50954910141E+03 -0.32489216117E+02 -0.64207496231E+03  0.10520296096E+04  0.65864270000E+03 0.  1.
    8880022    1    1    2    0    0 -0.50954910141E+03  0.32489216117E+02 -0.15068681939E+04  0.15983551679E+04  0.15294330000E+03 0.  0.
<mgrwt>
<rscale>  0 0.74526380E+03</rscale>
<asrwt>0</asrwt>
<pdfrwt beam="1">  1        2 0.36917906E+00 0.83337029E+03</pdfrwt>
<pdfrwt beam="2">  1       -2 0.38572434E-01 0.83337029E+03</pdfrwt>
<totfact> 0.26012968E+01</totfact>
</mgrwt>
</event>
<event>
 4    2  0.3747163E-007  0.7895034E+03  0.7818608E-02  0.9733969E-01
         -2   -1    0    0    0  501 -0.00000000000E+00  0.00000000000E+00  0.24511681266E+03  0.24511681267E+03  0.25500000000E-02 0.  1.
          2   -1    0    0  501    0  0.00000000000E+00 -0.00000000000E+00 -0.19119139950E+04  0.19119139950E+04  0.25500000000E-02 0. -1.
    8880023    1    1    2    0    0 -0.21904116105E+03  0.37619994468E+03 -0.14415277374E+04  0.16435686334E+04  0.65864270000E+03 0.  0.
    8880022    1    1    2    0    0  0.21904116105E+03 -0.37619994468E+03 -0.22526944493E+03  0.51346217431E+03  0.15294330000E+03 0.  0.
<mgrwt>
<rscale>  0 0.69029817E+03</rscale>
<asrwt>0</asrwt>
<pdfrwt beam="1">  1        2 0.29414060E+00 0.78950341E+03</pdfrwt>
<pdfrwt beam="2">  1       -2 0.37710280E-01 0.78950341E+03</pdfrwt>
<totfact> 0.50789960E+01</totfact>
</mgrwt>
</event>
<event>
 4    2  0.3747163E-007  0.1029038E+04  0.7818608E-02  0.9344516E-01
         -2   -1    0    0    0  501 -0.00000000000E+00  0.00000000000E+00  0.65444199286E+03  0.65444199286E+03  0.25500000000E-02 0.  1.
          2   -1    0    0  501    0  0.00000000000E+00 -0.00000000000E+00 -0.13994584194E+04  0.13994584194E+04  0.25500000000E-02 0. -1.
    8880023    1    1    2    0    0 -0.79059817384E+03 -0.79489458993E+01 -0.70545899424E+03  0.12476342641E+04  0.65864270000E+03 0.  0.
    8880022    1    1    2    0    0  0.79059817384E+03  0.79489458993E+01 -0.39557432344E+02  0.80626614817E+03  0.15294330000E+03 0.  0.
<mgrwt>
<rscale>  0 0.96785942E+03</rscale>
<asrwt>0</asrwt>
<pdfrwt beam="1">  1        2 0.21530129E+00 0.10290378E+04</pdfrwt>
<pdfrwt beam="2">  1       -2 0.10068338E+00 0.10290378E+04</pdfrwt>
<totfact> 0.11676210E+01</totfact>
</mgrwt>
</event>
<event>
 4    2  0.3747163E-007  0.6792941E+03  0.7818608E-02  0.1009726E+00
          2   -1    0    0  501    0  0.00000000000E+00  0.00000000000E+00  0.45771147405E+03  0.45771147406E+03  0.25500000000E-02 0. -1.
         -2   -1    0    0    0  501 -0.00000000000E+00 -0.00000000000E+00 -0.17005010187E+04  0.17005010187E+04  0.25500000000E-02 0.  1.
    8880023    1    1    2    0    0 -0.94412889341E+02 -0.13680836676E+03  0.19187663268E+03  0.70587333943E+03  0.65864270000E+03 0. -1.
    8880022    1    1    2    0    0  0.94412889341E+02  0.13680836676E+03 -0.14346661773E+04  0.14523391533E+04  0.15294330000E+03 0.  0.
<mgrwt>
<rscale>  0 0.51583768E+03</rscale>
<asrwt>0</asrwt>
<pdfrwt beam="1">  1        2 0.70417151E-01 0.67929414E+03</pdfrwt>
<pdfrwt beam="2">  1       -2 0.26161554E+00 0.67929414E+03</pdfrwt>
<totfact> 0.38760296E+00</totfact>
</mgrwt>
</event>
<event>
 4    2  0.3747163E-007  0.9025656E+03  0.7818608E-02  0.9521925E-01
          2   -1    0    0  501    0  0.00000000000E+00  0.00000000000E+00  0.30310306109E+04  0.30310306109E+04  0.25500000000E-02 0. -1.
         -2   -1    0    0    0  501 -0.00000000000E+00 -0.00000000000E+00 -0.72854456496E+03  0.72854456496E+03  0.25500000000E-02 0.  1.
    8880023    1    1    2    0    0  0.46655495144E+03  0.40390714097E+03  0.28066246036E+04  0.29481801799E+04  0.65864270000E+03 0.  0.
    8880022    1    1    2    0    0 -0.46655495144E+03 -0.40390714097E+03 -0.50413855764E+03  0.81139499601E+03  0.15294330000E+03 0.  0.
<mgrwt>
<rscale>  0 0.82686471E+03</rscale>
<asrwt>0</asrwt>
<pdfrwt beam="1">  1        2 0.46631240E+00 0.90256563E+03</pdfrwt>
<pdfrwt beam="2">  1       -2 0.11208378E+00 0.90256563E+03</pdfrwt>
<totfact> 0.10834030E+00</totfact>
</mgrwt>
</event>
<event>
 4    2  0.3747163E-007  0.8754292E+03  0.7818608E-02  0.9566686E-01
         -2   -1    0    0    0  501 -0.00000000000E+00  0.00000000000E+00  0.23291672416E+04  0.23291672416E+04  0.25500000000E-02 0.  1.
          2   -1    0    0  501    0  0.00000000000E+00 -0.00000000000E+00 -0.82695532207E+03  0.82695532207E+03  0.25500000000E-02 0. -1.
    8880023    1    1    2    0    0 -0.55724955682E+03 -0.14845556939E+03 -0.53997642750E+03  0.10285673887E+04  0.65864270000E+03 0. -1.
    8880022    1    1    2    0    0  0.55724955682E+03  0.14845556939E+03  0.20421883471E+04  0.21275551750E+04  0.15294330000E+03 0.  0.
<mgrwt>
<rscale>  0 0.79540917E+03</rscale>
<asrwt>0</asrwt>
<pdfrwt beam="1">  1        2 0.12722390E+00 0.87542923E+03</pdfrwt>
<pdfrwt beam="2">  1       -2 0.35833342E+00 0.87542923E+03</pdfrwt>
<totfact> 0.46934908E-01</totfact>
</mgrwt>
</event>
<event>
 4    2  0.3747163E-007  0.7306031E+03  0.7818608E-02  0.9888217E-01
          2   -1    0    0  501    0  0.00000000000E+00  0.00000000000E+00  0.81556316210E+03  0.81556316210E+03  0.25500000000E-02 0. -1.
         -2   -1    0    0    0  501 -0.00000000000E+00 -0.00000000000E+00 -0.48380934374E+03  0.48380934374E+03  0.25500000000E-02 0.  1.
    8880023    1    1    2    0    0  0.23214935121E+03  0.21465649274E+03  0.52389156950E+03  0.89902353362E+03  0.65864270000E+03 0.  0.
    8880022    1    1    2    0    0 -0.23214935121E+03 -0.21465649274E+03 -0.19213775113E+03  0.40034897223E+03  0.15294330000E+03 0. -1.
<mgrwt>
<rscale>  0 0.60835768E+03</rscale>
<asrwt>0</asrwt>
<pdfrwt beam="1">  1        2 0.12547126E+00 0.73060313E+03</pdfrwt>
<pdfrwt beam="2">  1       -2 0.74432207E-01 0.73060313E+03</pdfrwt>
<totfact> 0.55343407E+01</totfact>
</mgrwt>
</event>
<event>
 4    2  0.3747163E-007  0.1025399E+04  0.7818608E-02  0.9349057E-01
          2   -1    0    0  501    0  0.00000000000E+00  0.00000000000E+00  0.23591297045E+04  0.23591297045E+04  0.25500000000E-02 0. -1.
         -2   -1    0    0    0  501 -0.00000000000E+00 -0.00000000000E+00 -0.49388708141E+03  0.49388708141E+03  0.25500000000E-02 0.  1.
    8880023    1    1    2    0    0  0.77362574235E+03 -0.13833419987E+03  0.17715567230E+04  0.20469139134E+04  0.65864270000E+03 0.  0.
    8880022    1    1    2    0    0 -0.77362574235E+03  0.13833419987E+03  0.93685900107E+02  0.80610287245E+03  0.15294330000E+03 0.  0.
<mgrwt>
<rscale>  0 0.96389351E+03</rscale>
<asrwt>0</asrwt>
<pdfrwt beam="1">  1        2 0.36294303E+00 0.10253991E+04</pdfrwt>
<pdfrwt beam="2">  1       -2 0.75982628E-01 0.10253991E+04</pdfrwt>
<totfact> 0.65397395E+00</totfact>
</mgrwt>
</event>
<event>
 4    2  0.3747163E-007  0.7197616E+03  0.7818608E-02  0.9923393E-01
         -2   -1    0    0    0  501 -0.00000000000E+00  0.00000000000E+00  0.11578520210E+04  0.11578520210E+04  0.25500000000E-02 0.  1.
          2   -1    0    0  501    0  0.00000000000E+00 -0.00000000000E+00 -0.62026087682E+03  0.62026087682E+03  0.25500000000E-02 0. -1.
    8880023    1    1    2    0    0 -0.98074909700E+02  0.27318104876E+03 -0.37267958369E+03  0.81052257938E+03  0.65864270000E+03 0. -1.
    8880022    1    1    2    0    0  0.98074909700E+02 -0.27318104876E+03  0.91027072790E+03  0.96759031848E+03  0.15294330000E+03 0.  0.
<mgrwt>
<rscale>  0 0.59140818E+03</rscale>
<asrwt>0</asrwt>
<pdfrwt beam="1">  1        2 0.95424751E-01 0.71976161E+03</pdfrwt>
<pdfrwt beam="2">  1       -2 0.17813108E+00 0.71976161E+03</pdfrwt>
<totfact> 0.90830935E+00</totfact>
</mgrwt>
</event>
<event>
 4    2  0.3747163E-007  0.1187721E+04  0.7818608E-02  0.9169152E-01
         -2   -1    0    0    0  501 -0.00000000000E+00  0.00000000000E+00  0.21128856834E+04  0.21128856834E+04  0.25500000000E-02 0.  1.
          2   -1    0    0  501    0  0.00000000000E+00 -0.00000000000E+00 -0.63010093690E+03  0.63010093691E+03  0.25500000000E-02 0. -1.
    8880023    1    1    2    0    0  0.80946944292E+03  0.56712347130E+03  0.36379347918E+03  0.12421858607E+04  0.65864270000E+03 0. -1.
    8880022    1    1    2    0    0 -0.80946944292E+03 -0.56712347130E+03  0.11189912673E+04  0.15008007596E+04  0.15294330000E+03 0.  0.
<mgrwt>
<rscale>  0 0.11377580E+04</rscale>
<asrwt>0</asrwt>
<pdfrwt beam="1">  1        2 0.96938605E-01 0.11877205E+04</pdfrwt>
<pdfrwt beam="2">  1       -2 0.32505934E+00 0.11877205E+04</pdfrwt>
<totfact> 0.10274501E+00</totfact>
</mgrwt>
</event>
<event>
 4    2  0.3747163E-007  0.7326511E+03  0.7818608E-02  0.9881895E-01
         -2   -1    0    0    0  501 -0.00000000000E+00  0.00000000000E+00  0.36394521154E+03  0.36394521155E+03  0.25500000000E-02 0.  1.
          2   -1    0    0  501    0  0.00000000000E+00 -0.00000000000E+00 -0.21165030246E+04  0.21165030246E+04  0.25500000000E-02 0. -1.
    8880023    1    1    2    0    0 -0.31928956943E+03 -0.31963069995E+02 -0.19434511750E+04  0.20769641651E+04  0.65864270000E+03 0. -1.
    8880022    1    1    2    0    0  0.31928956943E+03  0.31963069995E+02  0.19089336194E+03  0.40348407111E+03  0.15294330000E+03 0.  0.
<mgrwt>
<rscale>  0 0.61146801E+03</rscale>
<asrwt>0</asrwt>
<pdfrwt beam="1">  1        2 0.32561584E+00 0.73265113E+03</pdfrwt>
<pdfrwt beam="2">  1       -2 0.55991572E-01 0.73265113E+03</pdfrwt>
<totfact> 0.17911777E+01</totfact>
</mgrwt>
</event>
<event>
 4    2  0.3747163E-007  0.7383235E+03  0.7818608E-02  0.9864858E-01
         -2   -1    0    0    0  501 -0.00000000000E+00  0.00000000000E+00  0.67438359760E+03  0.67438359760E+03  0.25500000000E-02 0.  1.
          2   -1    0    0  501    0  0.00000000000E+00 -0.00000000000E+00 -0.53196669215E+03  0.53196669216E+03  0.25500000000E-02 0. -1.
    8880023    1    1    2    0    0 -0.15399691775E+03  0.29596680644E+03 -0.12947723618E+03  0.74959052965E+03  0.65864270000E+03 0.  0.
    8880022    1    1    2    0    0  0.15399691775E+03 -0.29596680644E+03  0.27189414163E+03  0.45675976011E+03  0.15294330000E+03 0. -1.
<mgrwt>
<rscale>  0 0.61995077E+03</rscale>
<asrwt>0</asrwt>
<pdfrwt beam="1">  1        2 0.81841029E-01 0.73832351E+03</pdfrwt>
<pdfrwt beam="2">  1       -2 0.10375132E+00 0.73832351E+03</pdfrwt>
<totfact> 0.43878815E+01</totfact>
</mgrwt>
</event>
<event>
 4    2  0.3747163E-007  0.1004986E+04  0.7818608E-02  0.9375063E-01
         -2   -1    0    0    0  501 -0.00000000000E+00  0.00000000000E+00  0.46838038602E+03  0.46838038603E+03  0.25500000000E-02 0.  1.
          2   -1    0    0  501    0  0.00000000000E+00 -0.00000000000E+00 -0.17581215455E+04  0.17581215455E+04  0.25500000000E-02 0. -1.
    8880023    1    1    2    0    0  0.74487668899E+03 -0.14610172682E+03 -0.94283835535E+03  0.13780208151E+04  0.65864270000E+03 0.  0.
    8880022    1    1    2    0    0 -0.74487668899E+03  0.14610172682E+03 -0.34690280416E+03  0.84848111642E+03  0.15294330000E+03 0.  0.
<mgrwt>
<rscale>  0 0.94156614E+03</rscale>
<asrwt>0</asrwt>
<pdfrwt beam="1">  1        2 0.27048024E+00 0.10049862E+04</pdfrwt>
<pdfrwt beam="2">  1       -2 0.72058521E-01 0.10049862E+04</pdfrwt>
<totfact> 0.15871784E+01</totfact>
</mgrwt>
</event>
<event>
 4    2  0.3747163E-007  0.8138648E+03  0.7818608E-02  0.9681582E-01
         -2   -1    0    0    0  501 -0.00000000000E+00  0.00000000000E+00  0.19497931051E+03  0.19497931053E+03  0.25500000000E-02 0.  1.
          2   -1    0    0  501    0  0.00000000000E+00 -0.00000000000E+00 -0.33728690985E+04  0.33728690985E+04  0.25500000000E-02 0. -1.
    8880023    1    1    2    0    0 -0.47723661287E+03 -0.28477996050E+02 -0.28603625187E+04  0.29738947066E+04  0.65864270000E+03 0.  0.
    8880022    1    1    2    0    0  0.47723661287E+03  0.28477996050E+02 -0.31752726925E+03  0.59395370246E+03  0.15294330000E+03 0.  0.
<mgrwt>
<rscale>  0 0.72124051E+03</rscale>
<asrwt>0</asrwt>
<pdfrwt beam="1">  1        2 0.51890289E+00 0.81386485E+03</pdfrwt>
<pdfrwt beam="2">  1       -2 0.29996820E-01 0.81386485E+03</pdfrwt>
<totfact> 0.10838977E+01</totfact>
</mgrwt>
</event>
<event>
 4    2  0.3747163E-007  0.6599732E+03  0.7818608E-02  0.1024184E+00
         -2   -1    0    0    0  501 -0.00000000000E+00  0.00000000000E+00  0.15492466491E+03  0.15492466493E+03  0.25500000000E-02 0.  1.
          2   -1    0    0  501    0  0.00000000000E+00 -0.00000000000E+00 -0.11077027018E+04  0.11077027018E+04  0.25500000000E-02 0. -1.
    8880023    1    1    2    0    0 -0.16510322295E+02  0.38494061415E+02 -0.83895111658E+03  0.10674284828E+04  0.65864270000E+03 0.  1.
    8880022    1    1    2    0    0  0.16510322295E+02 -0.38494061415E+02 -0.11382692033E+03  0.19519888399E+03  0.15294330000E+03 0.  0.
<mgrwt>
<rscale>  0 0.46206535E+03</rscale>
<asrwt>0</asrwt>
<pdfrwt beam="1">  1        2 0.17041580E+00 0.65997317E+03</pdfrwt>
<pdfrwt beam="2">  1       -2 0.23834565E-01 0.65997317E+03</pdfrwt>
<totfact> 0.34108466E+02</totfact>
</mgrwt>
</event>
<event>
 4    2  0.3747163E-007  0.7130327E+03  0.7818608E-02  0.9946907E-01
          2   -1    0    0  501    0  0.00000000000E+00  0.00000000000E+00  0.84962298467E+03  0.84962298467E+03  0.25500000000E-02 0. -1.
         -2   -1    0    0    0  501 -0.00000000000E+00 -0.00000000000E+00 -0.32484859038E+03  0.32484859039E+03  0.25500000000E-02 0.  1.
    8880023    1    1    2    0    0 -0.26202281768E+03  0.77132366609E+02  0.47682764165E+03  0.85777629080E+03  0.65864270000E+03 0. -1.
    8880022    1    1    2    0    0  0.26202281768E+03 -0.77132366609E+02  0.47946752646E+02  0.31669528426E+03  0.15294330000E+03 0. -1.
<mgrwt>
<rscale>  0 0.58040837E+03</rscale>
<asrwt>0</asrwt>
<pdfrwt beam="1">  1        2 0.13071123E+00 0.71303265E+03</pdfrwt>
<pdfrwt beam="2">  1       -2 0.49976707E-01 0.71303265E+03</pdfrwt>
<totfact> 0.12202223E+02</totfact>
</mgrwt>
</event>
<event>
 4    2  0.3747163E-007  0.6750008E+03  0.7818608E-02  0.1012306E+00
         -2   -1    0    0    0  501 -0.00000000000E+00  0.00000000000E+00  0.28462802533E+03  0.28462802534E+03  0.25500000000E-02 0.  1.
          2   -1    0    0  501    0  0.00000000000E+00 -0.00000000000E+00 -0.19497683078E+04  0.19497683078E+04  0.25500000000E-02 0. -1.
    8880023    1    1    2    0    0 -0.71868852467E+01 -0.14752705819E+03 -0.18394939549E+04  0.19594295345E+04  0.65864270000E+03 0. -1.
    8880022    1    1    2    0    0  0.71868852467E+01  0.14752705819E+03  0.17435367248E+03  0.27496679861E+03  0.15294330000E+03 0.  0.
<mgrwt>
<rscale>  0 0.50568442E+03</rscale>
<asrwt>0</asrwt>
<pdfrwt beam="1">  1        2 0.29996435E+00 0.67500081E+03</pdfrwt>
<pdfrwt beam="2">  1       -2 0.43788928E-01 0.67500081E+03</pdfrwt>
<totfact> 0.36679846E+01</totfact>
</mgrwt>
</event>
<event>
 4    2  0.3747163E-007  0.7224648E+03  0.7818608E-02  0.9914332E-01
         -2   -1    0    0    0  501 -0.00000000000E+00  0.00000000000E+00  0.10743826685E+04  0.10743826685E+04  0.25500000000E-02 0.  1.
          2   -1    0    0  501    0  0.00000000000E+00 -0.00000000000E+00 -0.29065029171E+03  0.29065029172E+03  0.25500000000E-02 0. -1.
    8880023    1    1    2    0    0 -0.18835122680E+03  0.22949735536E+03  0.31178389841E+03  0.78687014578E+03  0.65864270000E+03 0.  0.
    8880022    1    1    2    0    0  0.18835122680E+03 -0.22949735536E+03  0.47194847840E+03  0.57816281447E+03  0.15294330000E+03 0.  0.
<mgrwt>
<rscale>  0 0.59571679E+03</rscale>
<asrwt>0</asrwt>
<pdfrwt beam="1">  1        2 0.44715429E-01 0.72246483E+03</pdfrwt>
<pdfrwt beam="2">  1       -2 0.16528964E+00 0.72246483E+03</pdfrwt>
<totfact> 0.26599786E+01</totfact>
</mgrwt>
</event>
<event>
 4    2  0.3747163E-007  0.7121428E+03  0.7818608E-02  0.9950128E-01
         -2   -1    0    0    0  501 -0.00000000000E+00  0.00000000000E+00  0.79425447414E+03  0.79425447414E+03  0.25500000000E-02 0.  1.
          2   -1    0    0  501    0  0.00000000000E+00 -0.00000000000E+00 -0.10384190623E+04  0.10384190623E+04  0.25500000000E-02 0. -1.
    8880023    1    1    2    0    0  0.25994649868E+03 -0.75927282181E+02 -0.87569646890E+03  0.11287123842E+04  0.65864270000E+03 0. -1.
    8880022    1    1    2    0    0 -0.25994649868E+03  0.75927282181E+02  0.63153188078E+03  0.70396115220E+03  0.15294330000E+03 0.  0.
<mgrwt>
<rscale>  0 0.57892163E+03</rscale>
<asrwt>0</asrwt>
<pdfrwt beam="1">  1        2 0.15975678E+00 0.71214278E+03</pdfrwt>
<pdfrwt beam="2">  1       -2 0.12219300E+00 0.71214278E+03</pdfrwt>
<totfact> 0.12349993E+01</totfact>
</mgrwt>
</event>
<event>
 4    2  0.3747163E-007  0.1168749E+04  0.7818608E-02  0.9188116E-01
         -2   -1    0    0    0  501 -0.00000000000E+00  0.00000000000E+00  0.70744485511E+03  0.70744485512E+03  0.25500000000E-02 0.  1.
          2   -1    0    0  501    0  0.00000000000E+00 -0.00000000000E+00 -0.44297852219E+04  0.44297852219E+04  0.25500000000E-02 0. -1.
    8880023    1    1    2    0    0  0.71250776804E+03  0.65153335072E+03  0.11775847512E+03  0.11746660340E+04  0.65864270000E+03 0.  0.
    8880022    1    1    2    0    0 -0.71250776804E+03 -0.65153335072E+03 -0.38400988419E+04  0.39625640430E+04  0.15294330000E+03 0.  0.
<mgrwt>
<rscale>  0 0.11176936E+04</rscale>
<asrwt>0</asrwt>
<pdfrwt beam="1">  1        2 0.68150540E+00 0.11687486E+04</pdfrwt>
<pdfrwt beam="2">  1       -2 0.10883767E+00 0.11687486E+04</pdfrwt>
<totfact> 0.10009063E-01</totfact>
</mgrwt>
</event>
<event>
 4    2  0.3747163E-007  0.7299575E+03  0.7818608E-02  0.9890229E-01
          2   -1    0    0  501    0  0.00000000000E+00  0.00000000000E+00  0.69502626511E+03  0.69502626512E+03  0.25500000000E-02 0. -1.
         -2   -1    0    0    0  501 -0.00000000000E+00 -0.00000000000E+00 -0.12650013750E+04  0.12650013750E+04  0.25500000000E-02 0.  1.
    8880023    1    1    2    0    0  0.12886512174E+03  0.28709146512E+03  0.46636454911E+03  0.86621811796E+03  0.65864270000E+03 0. -1.
    8880022    1    1    2    0    0 -0.12886512174E+03 -0.28709146512E+03 -0.10363396590E+04  0.10938095222E+04  0.15294330000E+03 0.  0.
<mgrwt>
<rscale>  0 0.60737156E+03</rscale>
<asrwt>0</asrwt>
<pdfrwt beam="1">  1        2 0.10692712E+00 0.72995749E+03</pdfrwt>
<pdfrwt beam="2">  1       -2 0.19461560E+00 0.72995749E+03</pdfrwt>
<totfact> 0.61040789E+00</totfact>
</mgrwt>
</event>
<event>
 4    2  0.3747163E-007  0.7830808E+03  0.7818608E-02  0.9748649E-01
         -2   -1    0    0    0  501 -0.00000000000E+00  0.00000000000E+00  0.92505512790E+03  0.92505512790E+03  0.25500000000E-02 0.  1.
          2   -1    0    0  501    0  0.00000000000E+00 -0.00000000000E+00 -0.12090537613E+04  0.12090537613E+04  0.25500000000E-02 0. -1.
    8880023    1    1    2    0    0  0.71309248478E+02  0.41751679789E+03 -0.10110786244E+04  0.12788649172E+04  0.65864270000E+03 0. -1.
    8880022    1    1    2    0    0 -0.71309248478E+02 -0.41751679789E+03  0.72707999096E+03  0.85524397204E+03  0.15294330000E+03 0.  0.
<mgrwt>
<rscale>  0 0.68192654E+03</rscale>
<asrwt>0</asrwt>
<pdfrwt beam="1">  1        2 0.18600827E+00 0.78308077E+03</pdfrwt>
<pdfrwt beam="2">  1       -2 0.14231617E+00 0.78308077E+03</pdfrwt>
<totfact> 0.65432313E+00</totfact>
</mgrwt>
</event>
<event>
 4    2  0.3747163E-007  0.8329843E+03  0.7818608E-02  0.9643554E-01
         -2   -1    0    0    0  501 -0.00000000000E+00  0.00000000000E+00  0.32977057282E+03  0.32977057283E+03  0.25500000000E-02 0.  1.
          2   -1    0    0  501    0  0.00000000000E+00 -0.00000000000E+00 -0.21316692438E+04  0.21316692438E+04  0.25500000000E-02 0. -1.
    8880023    1    1    2    0    0  0.27922834280E+03 -0.42671319926E+03 -0.17353315051E+04  0.19248995456E+04  0.65864270000E+03 0. -1.
    8880022    1    1    2    0    0 -0.27922834280E+03  0.42671319926E+03 -0.66567165888E+02  0.53654027103E+03  0.15294330000E+03 0.  0.
<mgrwt>
<rscale>  0 0.74479383E+03</rscale>
<asrwt>0</asrwt>
<pdfrwt beam="1">  1        2 0.32794911E+00 0.83298429E+03</pdfrwt>
<pdfrwt beam="2">  1       -2 0.50733936E-01 0.83298429E+03</pdfrwt>
<totfact> 0.21243610E+01</totfact>
</mgrwt>
</event>
<event>
 4    2  0.3747163E-007  0.7593860E+03  0.7818608E-02  0.9806700E-01
          2   -1    0    0  501    0  0.00000000000E+00  0.00000000000E+00  0.20431768432E+04  0.20431768432E+04  0.25500000000E-02 0. -1.
         -2   -1    0    0    0  501 -0.00000000000E+00 -0.00000000000E+00 -0.54957102156E+03  0.54957102156E+03  0.25500000000E-02 0.  1.
    8880023    1    1    2    0    0  0.25691379570E+03  0.27722235475E+03  0.18821246169E+04  0.20295467997E+04  0.65864270000E+03 0. -1.
    8880022    1    1    2    0    0 -0.25691379570E+03 -0.27722235475E+03 -0.38851879526E+03  0.56320106506E+03  0.15294330000E+03 0.  0.
<mgrwt>
<rscale>  0 0.65004242E+03</rscale>
<asrwt>0</asrwt>
<pdfrwt beam="1">  1        2 0.31433490E+00 0.75938603E+03</pdfrwt>
<pdfrwt beam="2">  1       -2 0.84549388E-01 0.75938603E+03</pdfrwt>
<totfact> 0.79806477E+00</totfact>
</mgrwt>
</event>
<event>
 4    2  0.3747163E-007  0.7730690E+03  0.7818608E-02  0.9772377E-01
          2   -1    0    0  501    0  0.00000000000E+00  0.00000000000E+00  0.13342380376E+04  0.13342380376E+04  0.25500000000E-02 0. -1.
         -2   -1    0    0    0  501 -0.00000000000E+00 -0.00000000000E+00 -0.74923377593E+03  0.74923377593E+03  0.25500000000E-02 0.  1.
    8880023    1    1    2    0    0  0.18421497226E+01  0.40474945365E+03  0.11414466009E+04  0.13785993119E+04  0.65864270000E+03 0.  0.
    8880022    1    1    2    0    0 -0.18421497226E+01 -0.40474945365E+03 -0.55644233921E+03  0.70487250168E+03  0.15294330000E+03 0.  0.
<mgrwt>
<rscale>  0 0.66866242E+03</rscale>
<asrwt>0</asrwt>
<pdfrwt beam="1">  1        2 0.20526739E+00 0.77306903E+03</pdfrwt>
<pdfrwt beam="2">  1       -2 0.11526673E+00 0.77306903E+03</pdfrwt>
<totfact> 0.94326459E+00</totfact>
</mgrwt>
</event>
<event>
 4    2  0.3747163E-007  0.8089414E+03  0.7818608E-02  0.9691786E-01
         -2   -1    0    0    0  501 -0.00000000000E+00  0.00000000000E+00  0.37670612527E+03  0.37670612528E+03  0.25500000000E-02 0.  1.
          2   -1    0    0  501    0  0.00000000000E+00 -0.00000000000E+00 -0.32881352671E+04  0.32881352671E+04  0.25500000000E-02 0. -1.
    8880023    1    1    2    0    0  0.35676106399E+03  0.30544645195E+03 -0.30470725515E+04  0.31526238806E+04  0.65864270000E+03 0. -1.
    8880022    1    1    2    0    0 -0.35676106399E+03 -0.30544645195E+03  0.13564340971E+03  0.51221751181E+03  0.15294330000E+03 0.  0.
<mgrwt>
<rscale>  0 0.71507950E+03</rscale>
<asrwt>0</asrwt>
<pdfrwt beam="1">  1        2 0.50586695E+00 0.80894141E+03</pdfrwt>
<pdfrwt beam="2">  1       -2 0.57954791E-01 0.80894141E+03</pdfrwt>
<totfact> 0.33659797E+00</totfact>
</mgrwt>
</event>
<event>
 4    2  0.3747163E-007  0.6623320E+03  0.7818608E-02  0.1021885E+00
          2   -1    0    0  501    0  0.00000000000E+00  0.00000000000E+00  0.22843074196E+04  0.22843074196E+04  0.25500000000E-02 0. -1.
         -2   -1    0    0    0  501 -0.00000000000E+00 -0.00000000000E+00 -0.14040114333E+03  0.14040114335E+03  0.25500000000E-02 0.  1.
    8880023    1    1    2    0    0  0.56129206606E+02  0.41508619869E+02  0.21566891501E+04  0.22561010061E+04  0.65864270000E+03 0.  0.
    8880022    1    1    2    0    0 -0.56129206606E+02 -0.41508619869E+02 -0.12782873797E+02  0.16860755687E+03  0.15294330000E+03 0.  0.
<mgrwt>
<rscale>  0 0.47012476E+03</rscale>
<asrwt>0</asrwt>
<pdfrwt beam="1">  1        2 0.35143191E+00 0.66233199E+03</pdfrwt>
<pdfrwt beam="2">  1       -2 0.21600176E-01 0.66233199E+03</pdfrwt>
<totfact> 0.90011140E+01</totfact>
</mgrwt>
</event>
<event>
 4    2  0.3747163E-007  0.6852069E+03  0.7818608E-02  0.1006519E+00
         -2   -1    0    0    0  501 -0.00000000000E+00  0.00000000000E+00  0.50327225486E+03  0.50327225486E+03  0.25500000000E-02 0.  1.
          2   -1    0    0  501    0  0.00000000000E+00 -0.00000000000E+00 -0.69355966716E+03  0.69355966716E+03  0.25500000000E-02 0. -1.
    8880023    1    1    2    0    0  0.18887374592E+03  0.50034798468E+01 -0.46646467560E+03  0.82891364240E+03  0.65864270000E+03 0. -1.
    8880022    1    1    2    0    0 -0.18887374592E+03 -0.50034798468E+01  0.27617726329E+03  0.36791827963E+03  0.15294330000E+03 0.  0.
<mgrwt>
<rscale>  0 0.52881716E+03</rscale>
<asrwt>0</asrwt>
<pdfrwt beam="1">  1        2 0.10670149E+00 0.68520693E+03</pdfrwt>
<pdfrwt beam="2">  1       -2 0.77426500E-01 0.68520693E+03</pdfrwt>
<totfact> 0.62742646E+01</totfact>
</mgrwt>
</event>
<event>
 4    2  0.3747163E-007  0.8307092E+03  0.7818608E-02  0.9647954E-01
          2   -1    0    0  501    0  0.00000000000E+00  0.00000000000E+00  0.27390261285E+04  0.27390261285E+04  0.25500000000E-02 0. -1.
         -2   -1    0    0    0  501 -0.00000000000E+00 -0.00000000000E+00 -0.51137887984E+03  0.51137887985E+03  0.25500000000E-02 0.  1.
    8880023    1    1    2    0    0 -0.49813307858E+03 -0.90172113532E+02  0.25149349435E+04  0.26485799120E+04  0.65864270000E+03 0. -1.
    8880022    1    1    2    0    0  0.49813307858E+03  0.90172113532E+02 -0.28728769479E+03  0.60182509638E+03  0.15294330000E+03 0.  0.
<mgrwt>
<rscale>  0 0.74201966E+03</rscale>
<asrwt>0</asrwt>
<pdfrwt beam="1">  1        2 0.42138864E+00 0.83070920E+03</pdfrwt>
<pdfrwt beam="2">  1       -2 0.78673673E-01 0.83070920E+03</pdfrwt>
<totfact> 0.37648344E+00</totfact>
</mgrwt>
</event>
<event>
 4    2  0.3747163E-007  0.7437013E+03  0.7818608E-02  0.9849294E-01
         -2   -1    0    0    0  501 -0.00000000000E+00  0.00000000000E+00  0.47475557790E+03  0.47475557791E+03  0.25500000000E-02 0.  1.
          2   -1    0    0  501    0  0.00000000000E+00 -0.00000000000E+00 -0.98828678408E+03  0.98828678408E+03  0.25500000000E-02 0. -1.
    8880023    1    1    2    0    0  0.32963236012E+03  0.10307270428E+03 -0.71782194595E+03  0.10336150287E+04  0.65864270000E+03 0. -1.
    8880022    1    1    2    0    0 -0.32963236012E+03 -0.10307270428E+03  0.20429073977E+03  0.42942733329E+03  0.15294330000E+03 0.  0.
<mgrwt>
<rscale>  0 0.62782947E+03</rscale>
<asrwt>0</asrwt>
<pdfrwt beam="1">  1        2 0.15204412E+00 0.74370134E+03</pdfrwt>
<pdfrwt beam="2">  1       -2 0.73039320E-01 0.74370134E+03</pdfrwt>
<totfact> 0.44098256E+01</totfact>
</mgrwt>
</event>
<event>
 4    2  0.3747163E-007  0.6648413E+03  0.7818608E-02  0.1019667E+00
          2   -1    0    0  501    0  0.00000000000E+00  0.00000000000E+00  0.11046150958E+04  0.11046150958E+04  0.25500000000E-02 0. -1.
         -2   -1    0    0    0  501 -0.00000000000E+00 -0.00000000000E+00 -0.61417536067E+03  0.61417536068E+03  0.25500000000E-02 0.  1.
    8880023    1    1    2    0    0  0.72215962830E+02 -0.54667941463E+02  0.98775647172E+03  0.11906623295E+04  0.65864270000E+03 0. -1.
    8880022    1    1    2    0    0 -0.72215962830E+02  0.54667941463E+02 -0.49731673655E+03  0.52812812705E+03  0.15294330000E+03 0.  0.
<mgrwt>
<rscale>  0 0.47806994E+03</rscale>
<asrwt>0</asrwt>
<pdfrwt beam="1">  1        2 0.16994078E+00 0.66484129E+03</pdfrwt>
<pdfrwt beam="2">  1       -2 0.94488518E-01 0.66484129E+03</pdfrwt>
<totfact> 0.20994942E+01</totfact>
</mgrwt>
</event>
<event>
 4    2  0.3747163E-007  0.9146342E+03  0.7818608E-02  0.9502936E-01
         -2   -1    0    0    0  501 -0.00000000000E+00  0.00000000000E+00  0.63226863098E+03  0.63226863098E+03  0.25500000000E-02 0.  1.
          2   -1    0    0  501    0  0.00000000000E+00 -0.00000000000E+00 -0.12170571450E+04  0.12170571450E+04  0.25500000000E-02 0. -1.
    8880023    1    1    2    0    0 -0.12262359315E+03  0.62266273993E+03 -0.74212705045E+03  0.11778404810E+04  0.65864270000E+03 0.  0.
    8880022    1    1    2    0    0  0.12262359315E+03 -0.62266273993E+03  0.15733853648E+03  0.67148529498E+03  0.15294330000E+03 0.  0.
<mgrwt>
<rscale>  0 0.84067712E+03</rscale>
<asrwt>0</asrwt>
<pdfrwt beam="1">  1        2 0.18723956E+00 0.91463416E+03</pdfrwt>
<pdfrwt beam="2">  1       -2 0.97272097E-01 0.91463416E+03</pdfrwt>
<totfact> 0.16348131E+01</totfact>
</mgrwt>
</event>
<event>
 4    2  0.3747163E-007  0.8514951E+03  0.7818608E-02  0.9608875E-01
          2   -1    0    0  501    0  0.00000000000E+00  0.00000000000E+00  0.53352873683E+03  0.53352873683E+03  0.25500000000E-02 0. -1.
         -2   -1    0    0    0  501 -0.00000000000E+00 -0.00000000000E+00 -0.11730635426E+04  0.11730635426E+04  0.25500000000E-02 0.  1.
    8880023    1    1    2    0    0 -0.36328910547E+03  0.39906741269E+03 -0.75023829665E+03  0.11348574721E+04  0.65864270000E+03 0.  1.
    8880022    1    1    2    0    0  0.36328910547E+03 -0.39906741269E+03  0.11070349085E+03  0.57173480734E+03  0.15294330000E+03 0.  0.
<mgrwt>
<rscale>  0 0.76711568E+03</rscale>
<asrwt>0</asrwt>
<pdfrwt beam="1">  1        2 0.82081344E-01 0.85149514E+03</pdfrwt>
<pdfrwt beam="2">  1       -2 0.18047131E+00 0.85149514E+03</pdfrwt>
<totfact> 0.10340549E+01</totfact>
</mgrwt>
</event>
<event>
 4    2  0.3747163E-007  0.7795492E+03  0.7818608E-02  0.9756897E-01
          2   -1    0    0  501    0  0.00000000000E+00  0.00000000000E+00  0.21711870845E+04  0.21711870845E+04  0.25500000000E-02 0. -1.
         -2   -1    0    0    0  501 -0.00000000000E+00 -0.00000000000E+00 -0.62175727421E+03  0.62175727421E+03  0.25500000000E-02 0.  1.
    8880023    1    1    2    0    0  0.41666743456E+03  0.16583834523E+02  0.20083184837E+04  0.21543073395E+04  0.65864270000E+03 0.  0.
    8880022    1    1    2    0    0 -0.41666743456E+03 -0.16583834523E+02 -0.45888867349E+03  0.63863701918E+03  0.15294330000E+03 0.  0.
<mgrwt>
<rscale>  0 0.67727899E+03</rscale>
<asrwt>0</asrwt>
<pdfrwt beam="1">  1        2 0.33402879E+00 0.77954922E+03</pdfrwt>
<pdfrwt beam="2">  1       -2 0.95654964E-01 0.77954922E+03</pdfrwt>
<totfact> 0.50898058E+00</totfact>
</mgrwt>
</event>
<event>
 4    2  0.3747163E-007  0.7466263E+03  0.7818608E-02  0.9841049E-01
          2   -1    0    0  501    0  0.00000000000E+00  0.00000000000E+00  0.31717123807E+04  0.31717123807E+04  0.25500000000E-02 0. -1.
         -2   -1    0    0    0  501 -0.00000000000E+00 -0.00000000000E+00 -0.22693985051E+03  0.22693985052E+03  0.25500000000E-02 0.  1.
    8880023    1    1    2    0    0  0.19232559978E+02 -0.35109927264E+03  0.29205107954E+04  0.30144376097E+04  0.65864270000E+03 0. -1.
    8880022    1    1    2    0    0 -0.19232559978E+02  0.35109927264E+03  0.24261734835E+02  0.38421462154E+03  0.15294330000E+03 0.  0.
<mgrwt>
<rscale>  0 0.63205377E+03</rscale>
<asrwt>0</asrwt>
<pdfrwt beam="1">  1        2 0.48795576E+00 0.74662628E+03</pdfrwt>
<pdfrwt beam="2">  1       -2 0.34913822E-01 0.74662628E+03</pdfrwt>
<totfact> 0.11127437E+01</totfact>
</mgrwt>
</event>
<event>
 4    2  0.3747163E-007  0.1067624E+04  0.7818608E-02  0.9297989E-01
          2   -1    0    0  501    0  0.00000000000E+00  0.00000000000E+00  0.20164617392E+04  0.20164617392E+04  0.25500000000E-02 0. -1.
         -2   -1    0    0    0  501 -0.00000000000E+00 -0.00000000000E+00 -0.57935738886E+03  0.57935738886E+03  0.25500000000E-02 0.  1.
    8880023    1    1    2    0    0 -0.81942812732E+03 -0.18587181328E+03  0.13731787494E+04  0.17393794500E+04  0.65864270000E+03 0. -1.
    8880022    1    1    2    0    0  0.81942812732E+03  0.18587181328E+03  0.63925600943E+02  0.85643967813E+03  0.15294330000E+03 0.  0.
<mgrwt>
<rscale>  0 0.10096821E+04</rscale>
<asrwt>0</asrwt>
<pdfrwt beam="1">  1        2 0.31022489E+00 0.10676240E+04</pdfrwt>
<pdfrwt beam="2">  1       -2 0.89131904E-01 0.10676240E+04</pdfrwt>
<totfact> 0.70269905E+00</totfact>
</mgrwt>
</event>
<event>
 4    2  0.3747163E-007  0.1343592E+04  0.7818608E-02  0.9028801E-01
         -2   -1    0    0    0  501 -0.00000000000E+00  0.00000000000E+00  0.82686625129E+03  0.82686625130E+03  0.25500000000E-02 0.  1.
          2   -1    0    0  501    0  0.00000000000E+00 -0.00000000000E+00 -0.37506584247E+04  0.37506584247E+04  0.25500000000E-02 0. -1.
    8880023    1    1    2    0    0  0.66249557901E+03  0.96567547275E+03 -0.31044814763E+04  0.33827570048E+04  0.65864270000E+03 0.  0.
    8880022    1    1    2    0    0 -0.66249557901E+03 -0.96567547275E+03  0.18068930288E+03  0.11947676712E+04  0.15294330000E+03 0.  0.
<mgrwt>
<rscale>  0 0.13009644E+04</rscale>
<asrwt>0</asrwt>
<pdfrwt beam="1">  1        2 0.57702436E+00 0.13435921E+04</pdfrwt>
<pdfrwt beam="2">  1       -2 0.12721020E+00 0.13435921E+04</pdfrwt>
<totfact> 0.24090101E-01</totfact>
</mgrwt>
</event>
<event>
 4    2  0.4454294E-007  0.8361392E+03  0.7818608E-02  0.9637504E-01
          2   -1    0    0  501    0  0.00000000000E+00  0.00000000000E+00  0.26039333027E+04  0.26039333027E+04  0.25500000000E-02 0. -1.
         -2   -1    0    0    0  501 -0.00000000000E+00 -0.00000000000E+00 -0.10223229358E+04  0.10223229358E+04  0.25500000000E-02 0.  1.
    8880023    1    1    2    0    0 -0.42609563385E+03  0.28941493310E+03  0.24590784888E+04  0.25973439728E+04  0.65864270000E+03 0. -1.
    8880022    1    1    2    0    0  0.42609563385E+03 -0.28941493310E+03 -0.87746812181E+03  0.10289122657E+04  0.15294330000E+03 0.  0.
<mgrwt>
<rscale>  0 0.74862906E+03</rscale>
<asrwt>0</asrwt>
<pdfrwt beam="1">  1        2 0.40060512E+00 0.83613916E+03</pdfrwt>
<pdfrwt beam="2">  1       -2 0.15728045E+00 0.83613916E+03</pdfrwt>
<totfact> 0.82888844E-01</totfact>
</mgrwt>
</event>
<event>
 4    2  0.3747163E-007  0.7700429E+03  0.7818608E-02  0.9779769E-01
         -2   -1    0    0    0  501 -0.00000000000E+00  0.00000000000E+00  0.26238211606E+03  0.26238211607E+03  0.25500000000E-02 0.  1.
          2   -1    0    0  501    0  0.00000000000E+00 -0.00000000000E+00 -0.21179226783E+04  0.21179226783E+04  0.25500000000E-02 0. -1.
    8880023    1    1    2    0    0 -0.36178622497E+03  0.16812667561E+03 -0.17892757550E+04  0.19479409091E+04  0.65864270000E+03 0.  0.
    8880022    1    1    2    0    0  0.36178622497E+03 -0.16812667561E+03 -0.66264807276E+02  0.43236388532E+03  0.15294330000E+03 0.  0.
<mgrwt>
<rscale>  0 0.66459669E+03</rscale>
<asrwt>0</asrwt>
<pdfrwt beam="1">  1        2 0.32583425E+00 0.77004289E+03</pdfrwt>
<pdfrwt beam="2">  1       -2 0.40366481E-01 0.77004289E+03</pdfrwt>
<totfact> 0.34409135E+01</totfact>
</mgrwt>
</event>
<event>
 4    2  0.3747163E-007  0.7046534E+03  0.7818608E-02  0.9978419E-01
         -2   -1    0    0    0  501 -0.00000000000E+00  0.00000000000E+00  0.75580382459E+03  0.75580382460E+03  0.25500000000E-02 0.  1.
          2   -1    0    0  501    0  0.00000000000E+00 -0.00000000000E+00 -0.21074733381E+04  0.21074733381E+04  0.25500000000E-02 0. -1.
    8880023    1    1    2    0    0  0.20209520869E+03 -0.14793128995E+03 -0.20167620628E+04  0.21363205668E+04  0.65864270000E+03 0. -1.
    8880022    1    1    2    0    0 -0.20209520869E+03  0.14793128995E+03  0.66509254939E+03  0.72695659581E+03  0.15294330000E+03 0.  0.
<mgrwt>
<rscale>  0 0.56606754E+03</rscale>
<asrwt>0</asrwt>
<pdfrwt beam="1">  1        2 0.32422667E+00 0.70465335E+03</pdfrwt>
<pdfrwt beam="2">  1       -2 0.11627751E+00 0.70465335E+03</pdfrwt>
<totfact> 0.34995065E+00</totfact>
</mgrwt>
</event>
<event>
 4    2  0.3747163E-007  0.8501493E+03  0.7818608E-02  0.9611332E-01
         -2   -1    0    0    0  501 -0.00000000000E+00  0.00000000000E+00  0.22387225048E+03  0.22387225050E+03  0.25500000000E-02 0.  1.
          2   -1    0    0  501    0  0.00000000000E+00 -0.00000000000E+00 -0.30102716550E+04  0.30102716550E+04  0.25500000000E-02 0. -1.
    8880023    1    1    2    0    0 -0.36135890384E+03 -0.39794891082E+03 -0.24222414550E+04  0.25671009847E+04  0.65864270000E+03 0. -1.
    8880022    1    1    2    0    0  0.36135890384E+03  0.39794891082E+03 -0.36415794954E+03  0.66704292083E+03  0.15294330000E+03 0.  0.
<mgrwt>
<rscale>  0 0.76550674E+03</rscale>
<asrwt>0</asrwt>
<pdfrwt beam="1">  1        2 0.46311869E+00 0.85014928E+03</pdfrwt>
<pdfrwt beam="2">  1       -2 0.34441887E-01 0.85014928E+03</pdfrwt>
<totfact> 0.14153539E+01</totfact>
</mgrwt>
</event>
<event>
 4    2  0.3747163E-007  0.8656572E+03  0.7818608E-02  0.9583578E-01
          2   -1    0    0  501    0  0.00000000000E+00  0.00000000000E+00  0.15509133653E+04  0.15509133653E+04  0.25500000000E-02 0. -1.
         -2   -1    0    0    0  501 -0.00000000000E+00 -0.00000000000E+00 -0.40748436829E+03  0.40748436830E+03  0.25500000000E-02 0.  1.
    8880023    1    1    2    0    0  0.48034080933E+03 -0.29124717961E+03  0.10626747878E+04  0.13706349344E+04  0.65864270000E+03 0.  0.
    8880022    1    1    2    0    0 -0.48034080933E+03  0.29124717961E+03  0.80754209259E+02  0.58776279915E+03  0.15294330000E+03 0.  0.
<mgrwt>
<rscale>  0 0.78392667E+03</rscale>
<asrwt>0</asrwt>
<pdfrwt beam="1">  1        2 0.23860206E+00 0.86565722E+03</pdfrwt>
<pdfrwt beam="2">  1       -2 0.62689903E-01 0.86565722E+03</pdfrwt>
<totfact> 0.28353505E+01</totfact>
</mgrwt>
</event>
<event>
 4    2  0.3747163E-007  0.7414386E+03  0.7818608E-02  0.9855776E-01
         -2   -1    0    0    0  501 -0.00000000000E+00  0.00000000000E+00  0.10116500257E+04  0.10116500257E+04  0.25500000000E-02 0.  1.
          2   -1    0    0  501    0  0.00000000000E+00 -0.00000000000E+00 -0.75291710832E+03  0.75291710832E+03  0.25500000000E-02 0. -1.
    8880023    1    1    2    0    0  0.33120221600E+03  0.78905614411E+02 -0.51687695814E+03  0.90382133189E+03  0.65864270000E+03 0. -1.
    8880022    1    1    2    0    0 -0.33120221600E+03 -0.78905614411E+02  0.77560987554E+03  0.86074580215E+03  0.15294330000E+03 0.  0.
<mgrwt>
<rscale>  0 0.62453275E+03</rscale>
<asrwt>0</asrwt>
<pdfrwt beam="1">  1        2 0.11583340E+00 0.74143861E+03</pdfrwt>
<pdfrwt beam="2">  1       -2 0.15563847E+00 0.74143861E+03</pdfrwt>
<totfact> 0.10303383E+01</totfact>
</mgrwt>
</event>
<event>
 4    2  0.3747163E-007  0.7114037E+03  0.7818608E-02  0.9952825E-01
         -2   -1    0    0    0  501 -0.00000000000E+00  0.00000000000E+00  0.36370726853E+03  0.36370726854E+03  0.25500000000E-02 0.  1.
          2   -1    0    0  501    0  0.00000000000E+00 -0.00000000000E+00 -0.15847622993E+04  0.15847622993E+04  0.25500000000E-02 0. -1.
    8880023    1    1    2    0    0  0.22356069786E+03  0.14935087083E+03 -0.14147268362E+04  0.15835236959E+04  0.65864270000E+03 0. -1.
    8880022    1    1    2    0    0 -0.22356069786E+03 -0.14935087083E+03  0.19367180538E+03  0.36494587196E+03  0.15294330000E+03 0.  0.
<mgrwt>
<rscale>  0 0.57768074E+03</rscale>
<asrwt>0</asrwt>
<pdfrwt beam="1">  1        2 0.24380958E+00 0.71140374E+03</pdfrwt>
<pdfrwt beam="2">  1       -2 0.55954965E-01 0.71140374E+03</pdfrwt>
<totfact> 0.35099326E+01</totfact>
</mgrwt>
</event>
<event>
 4    2  0.3747163E-007  0.1259382E+04  0.7818608E-02  0.9101455E-01
         -2   -1    0    0    0  501 -0.00000000000E+00  0.00000000000E+00  0.42701526513E+03  0.42701526514E+03  0.25500000000E-02 0.  1.
          2   -1    0    0  501    0  0.00000000000E+00 -0.00000000000E+00 -0.43479568569E+04  0.43479568569E+04  0.25500000000E-02 0. -1.
    8880023    1    1    2    0    0 -0.96603523433E+03 -0.46798350192E+03 -0.32846239760E+04  0.35177830379E+04  0.65864270000E+03 0.  0.
    8880022    1    1    2    0    0  0.96603523433E+03  0.46798350192E+03 -0.63631761577E+03  0.12571890841E+04  0.15294330000E+03 0.  0.
<mgrwt>
<rscale>  0 0.12131141E+04</rscale>
<asrwt>0</asrwt>
<pdfrwt beam="1">  1        2 0.66891641E+00 0.12593819E+04</pdfrwt>
<pdfrwt beam="2">  1       -2 0.65694659E-01 0.12593819E+04</pdfrwt>
<totfact> 0.37324021E-01</totfact>
</mgrwt>
</event>
<event>
 4    2  0.3747163E-007  0.8176516E+03  0.7818608E-02  0.9673854E-01
         -2   -1    0    0    0  501 -0.00000000000E+00  0.00000000000E+00  0.11845750884E+04  0.11845750884E+04  0.25500000000E-02 0.  1.
          2   -1    0    0  501    0  0.00000000000E+00 -0.00000000000E+00 -0.11861069186E+04  0.11861069187E+04  0.25500000000E-02 0. -1.
    8880023    1    1    2    0    0  0.47826361282E+03 -0.77510622438E+02  0.97343738601E+03  0.12712727995E+04  0.65864270000E+03 0.  0.
    8880022    1    1    2    0    0 -0.47826361282E+03  0.77510622438E+02 -0.97496921628E+03  0.10994092076E+04  0.15294330000E+03 0.  0.
<mgrwt>
<rscale>  0 0.72595086E+03</rscale>
<asrwt>0</asrwt>
<pdfrwt beam="1">  1        2 0.18247799E+00 0.81765163E+03</pdfrwt>
<pdfrwt beam="2">  1       -2 0.18224232E+00 0.81765163E+03</pdfrwt>
<totfact> 0.34269614E+00</totfact>
</mgrwt>
</event>
<event>
 4    2  0.4361359E-007  0.7398436E+03  0.7818608E-02  0.9860403E-01
         -2   -1    0    0    0  501 -0.00000000000E+00  0.00000000000E+00  0.13200710432E+04  0.13200710433E+04  0.25500000000E-02 0.  1.
          2   -1    0    0  501    0  0.00000000000E+00 -0.00000000000E+00 -0.13464149839E+04  0.13464149839E+04  0.25500000000E-02 0. -1.
    8880023    1    1    2    0    0 -0.26705312299E+03 -0.20552623150E+03 -0.12144605852E+04  0.14220700129E+04  0.65864270000E+03 0. -1.
    8880022    1    1    2    0    0  0.26705312299E+03  0.20552623150E+03  0.11881166446E+04  0.12444160142E+04  0.15294330000E+03 0.  0.
<mgrwt>
<rscale>  0 0.62219316E+03</rscale>
<asrwt>0</asrwt>
<pdfrwt beam="1">  1        2 0.20714077E+00 0.73984364E+03</pdfrwt>
<pdfrwt beam="2">  1       -2 0.20308785E+00 0.73984364E+03</pdfrwt>
<totfact> 0.20349857E+00</totfact>
</mgrwt>
</event>
<event>
 4    2  0.3747163E-007  0.8826682E+03  0.7818608E-02  0.9554448E-01
          2   -1    0    0  501    0  0.00000000000E+00  0.00000000000E+00  0.18696099775E+04  0.18696099775E+04  0.25500000000E-02 0. -1.
         -2   -1    0    0    0  501 -0.00000000000E+00 -0.00000000000E+00 -0.56910085794E+03  0.56910085795E+03  0.25500000000E-02 0.  1.
    8880023    1    1    2    0    0  0.58161062376E+03  0.83797162127E+02  0.15488408859E+04  0.17826977248E+04  0.65864270000E+03 0.  0.
    8880022    1    1    2    0    0 -0.58161062376E+03 -0.83797162127E+02 -0.24833176637E+03  0.65601311058E+03  0.15294330000E+03 0.  0.
<mgrwt>
<rscale>  0 0.80385916E+03</rscale>
<asrwt>0</asrwt>
<pdfrwt beam="1">  1        2 0.28763230E+00 0.88266816E+03</pdfrwt>
<pdfrwt beam="2">  1       -2 0.87553979E-01 0.88266816E+03</pdfrwt>
<totfact> 0.90118013E+00</totfact>
</mgrwt>
</event>
<event>
 4    2  0.3747163E-007  0.7023140E+03  0.7818608E-02  0.9987734E-01
          2   -1    0    0  501    0  0.00000000000E+00  0.00000000000E+00  0.16189398318E+04  0.16189398318E+04  0.25500000000E-02 0. -1.
         -2   -1    0    0    0  501 -0.00000000000E+00 -0.00000000000E+00 -0.18424325613E+03  0.18424325615E+03  0.25500000000E-02 0.  1.
    8880023    1    1    2    0    0  0.19337212509E+03  0.14846549193E+03  0.13163860503E+04  0.14920178352E+04  0.65864270000E+03 0. -1.
    8880022    1    1    2    0    0 -0.19337212509E+03 -0.14846549193E+03  0.11831052537E+03  0.31116525269E+03  0.15294330000E+03 0.  0.
<mgrwt>
<rscale>  0 0.56191371E+03</rscale>
<asrwt>0</asrwt>
<pdfrwt beam="1">  1        2 0.24906766E+00 0.70231402E+03</pdfrwt>
<pdfrwt beam="2">  1       -2 0.28345117E-01 0.70231402E+03</pdfrwt>
<totfact> 0.12682488E+02</totfact>
</mgrwt>
</event>
<event>
 4    2  0.3747163E-007  0.6628560E+03  0.7818608E-02  0.1021404E+00
         -2   -1    0    0    0  501 -0.00000000000E+00  0.00000000000E+00  0.20074814262E+03  0.20074814263E+03  0.25500000000E-02 0.  1.
          2   -1    0    0  501    0  0.00000000000E+00 -0.00000000000E+00 -0.86419906787E+03  0.86419906787E+03  0.25500000000E-02 0. -1.
    8880023    1    1    2    0    0  0.73693651904E+02  0.11707773717E+02 -0.52908001366E+03  0.84811773558E+03  0.65864270000E+03 0.  1.
    8880022    1    1    2    0    0 -0.73693651904E+02 -0.11707773717E+02 -0.13437091159E+03  0.21682947492E+03  0.15294330000E+03 0.  1.
<mgrwt>
<rscale>  0 0.47183290E+03</rscale>
<asrwt>0</asrwt>
<pdfrwt beam="1">  1        2 0.13295370E+00 0.66285597E+03</pdfrwt>
<pdfrwt beam="2">  1       -2 0.30884330E-01 0.66285597E+03</pdfrwt>
<totfact> 0.30471446E+02</totfact>
</mgrwt>
</event>
<event>
 4    2  0.3747163E-007  0.6668624E+03  0.7818608E-02  0.1018020E+00
         -2   -1    0    0    0  501 -0.00000000000E+00  0.00000000000E+00  0.10267830485E+04  0.10267830485E+04  0.25500000000E-02 0.  1.
          2   -1    0    0  501    0  0.00000000000E+00 -0.00000000000E+00 -0.70227853771E+03  0.70227853771E+03  0.25500000000E-02 0. -1.
    8880023    1    1    2    0    0 -0.81183270595E+02  0.65609107168E+02 -0.53181223917E+03  0.85295354056E+03  0.65864270000E+03 0. -1.
    8880022    1    1    2    0    0  0.81183270595E+02 -0.65609107168E+02  0.85631674997E+03  0.87610804565E+03  0.15294330000E+03 0.  0.
<mgrwt>
<rscale>  0 0.48408125E+03</rscale>
<asrwt>0</asrwt>
<pdfrwt beam="1">  1        2 0.10804285E+00 0.66686242E+03</pdfrwt>
<pdfrwt beam="2">  1       -2 0.15796662E+00 0.66686242E+03</pdfrwt>
<totfact> 0.10915139E+01</totfact>
</mgrwt>
</event>
<event>
 4    2  0.3747163E-007  0.8000078E+03  0.7818608E-02  0.9710779E-01
          2   -1    0    0  501    0  0.00000000000E+00  0.00000000000E+00  0.19546439482E+04  0.19546439482E+04  0.25500000000E-02 0. -1.
         -2   -1    0    0    0  501 -0.00000000000E+00 -0.00000000000E+00 -0.30135314041E+03  0.30135314042E+03  0.25500000000E-02 0.  1.
    8880023    1    1    2    0    0 -0.45408279906E+03  0.33379086564E+01  0.15803678402E+04  0.17713201423E+04  0.65864270000E+03 0. -1.
    8880022    1    1    2    0    0  0.45408279906E+03 -0.33379086564E+01  0.72922967574E+02  0.48467694628E+03  0.15294330000E+03 0.  0.
<mgrwt>
<rscale>  0 0.70378619E+03</rscale>
<asrwt>0</asrwt>
<pdfrwt beam="1">  1        2 0.30071444E+00 0.80000784E+03</pdfrwt>
<pdfrwt beam="2">  1       -2 0.46362023E-01 0.80000784E+03</pdfrwt>
<totfact> 0.32013778E+01</totfact>
</mgrwt>
</event>
<event>
 4    2  0.3747163E-007  0.7318605E+03  0.7818608E-02  0.9884324E-01
         -2   -1    0    0    0  501 -0.00000000000E+00  0.00000000000E+00  0.31644899111E+03  0.31644899112E+03  0.25500000000E-02 0.  1.
          2   -1    0    0  501    0  0.00000000000E+00 -0.00000000000E+00 -0.10764748148E+04  0.10764748148E+04  0.25500000000E-02 0. -1.
    8880023    1    1    2    0    0 -0.31479629639E+03  0.52084895472E+02 -0.25242937517E+03  0.77417074362E+03  0.65864270000E+03 0.  0.
    8880022    1    1    2    0    0  0.31479629639E+03 -0.52084895472E+02 -0.50759644857E+03  0.61875306236E+03  0.15294330000E+03 0.  0.
<mgrwt>
<rscale>  0 0.61027036E+03</rscale>
<asrwt>0</asrwt>
<pdfrwt beam="1">  1        2 0.16561151E+00 0.73186047E+03</pdfrwt>
<pdfrwt beam="2">  1       -2 0.48684461E-01 0.73186047E+03</pdfrwt>
<totfact> 0.91458298E+01</totfact>
</mgrwt>
</event>
<event>
 4    2  0.3747163E-007  0.6781693E+03  0.7818608E-02  0.1010379E+00
          2   -1    0    0  501    0  0.00000000000E+00  0.00000000000E+00  0.18551641233E+04  0.18551641233E+04  0.25500000000E-02 0. -1.
         -2   -1    0    0    0  501 -0.00000000000E+00 -0.00000000000E+00 -0.19990597534E+03  0.19990597535E+03  0.25500000000E-02 0.  1.
    8880023    1    1    2    0    0  0.11468794417E+03 -0.11379849651E+03  0.16980959240E+04  0.18285085167E+04  0.65864270000E+03 0. -1.
    8880022    1    1    2    0    0 -0.11468794417E+03  0.11379849651E+03 -0.42837776023E+02  0.22656158195E+03  0.15294330000E+03 0.  0.
<mgrwt>
<rscale>  0 0.51324397E+03</rscale>
<asrwt>0</asrwt>
<pdfrwt beam="1">  1        2 0.28540985E+00 0.67816932E+03</pdfrwt>
<pdfrwt beam="2">  1       -2 0.30754767E-01 0.67816932E+03</pdfrwt>
<totfact> 0.81280838E+01</totfact>
</mgrwt>
</event>
<event>
 4    2  0.3747163E-007  0.2286455E+04  0.7818608E-02  0.8492571E-01
         -2   -1    0    0    0  501 -0.00000000000E+00  0.00000000000E+00  0.27385897632E+04  0.27385897632E+04  0.25500000000E-02 0.  1.
          2   -1    0    0  501    0  0.00000000000E+00 -0.00000000000E+00 -0.22208919518E+04  0.22208919518E+04  0.25500000000E-02 0. -1.
    8880023    1    1    2    0    0  0.60064381784E+02 -0.21887118457E+04 -0.77257629517E+03  0.24134522186E+04  0.65864270000E+03 0.  0.
    8880022    1    1    2    0    0 -0.60064381784E+02  0.21887118457E+04  0.12902741066E+04  0.25460294964E+04  0.15294330000E+03 0.  0.
<mgrwt>
<rscale>  0 0.22632070E+04</rscale>
<asrwt>0</asrwt>
<pdfrwt beam="1">  1        2 0.34167569E+00 0.22864552E+04</pdfrwt>
<pdfrwt beam="2">  1       -2 0.42132150E+00 0.22864552E+04</pdfrwt>
<totfact> 0.23166582E-02</totfact>
</mgrwt>
</event>
<event>
 4    2  0.3747163E-007  0.7204674E+03  0.7818608E-02  0.9921008E-01
         -2   -1    0    0    0  501 -0.00000000000E+00  0.00000000000E+00  0.17947677726E+03  0.17947677727E+03  0.25500000000E-02 0.  1.
          2   -1    0    0  501    0  0.00000000000E+00 -0.00000000000E+00 -0.23722944672E+04  0.23722944672E+04  0.25500000000E-02 0. -1.
    8880023    1    1    2    0    0 -0.29197691096E+03 -0.35353216502E+01 -0.20834013304E+04  0.22044578301E+04  0.65864270000E+03 0. -1.
    8880022    1    1    2    0    0  0.29197691096E+03  0.35353216502E+01 -0.10941635954E+03  0.34731341435E+03  0.15294330000E+03 0.  0.
<mgrwt>
<rscale>  0 0.59253879E+03</rscale>
<asrwt>0</asrwt>
<pdfrwt beam="1">  1        2 0.36496836E+00 0.72046736E+03</pdfrwt>
<pdfrwt beam="2">  1       -2 0.27611814E-01 0.72046736E+03</pdfrwt>
<totfact> 0.51344379E+01</totfact>
</mgrwt>
</event>
<event>
 4    2  0.3747163E-007  0.1050968E+04  0.7818608E-02  0.9317719E-01
          2   -1    0    0  501    0  0.00000000000E+00  0.00000000000E+00  0.18036791834E+04  0.18036791834E+04  0.25500000000E-02 0. -1.
         -2   -1    0    0    0  501 -0.00000000000E+00 -0.00000000000E+00 -0.57982384665E+03  0.57982384666E+03  0.25500000000E-02 0.  1.
    8880023    1    1    2    0    0 -0.96268709226E+02  0.81329919730E+03  0.11330650131E+04  0.15454351423E+04  0.65864270000E+03 0. -1.
    8880022    1    1    2    0    0  0.96268709226E+02 -0.81329919730E+03  0.90790323651E+02  0.83806788782E+03  0.15294330000E+03 0.  0.
<mgrwt>
<rscale>  0 0.99167873E+03</rscale>
<asrwt>0</asrwt>
<pdfrwt beam="1">  1        2 0.27748910E+00 0.10509679E+04</pdfrwt>
<pdfrwt beam="2">  1       -2 0.89203669E-01 0.10509679E+04</pdfrwt>
<totfact> 0.92051945E+00</totfact>
</mgrwt>
</event>
<event>
 4    2  0.3747163E-007  0.7217194E+03  0.7818608E-02  0.9916810E-01
         -2   -1    0    0    0  501 -0.00000000000E+00  0.00000000000E+00  0.33155578762E+03  0.33155578763E+03  0.25500000000E-02 0.  1.
          2   -1    0    0  501    0  0.00000000000E+00 -0.00000000000E+00 -0.22943575927E+04  0.22943575927E+04  0.25500000000E-02 0. -1.
    8880023    1    1    2    0    0 -0.16826827978E+03  0.24239322289E+03 -0.21335136415E+04  0.22522787024E+04  0.65864270000E+03 0. -1.
    8880022    1    1    2    0    0  0.16826827978E+03 -0.24239322289E+03  0.17071183640E+03  0.37363467797E+03  0.15294330000E+03 0.  0.
<mgrwt>
<rscale>  0 0.59453453E+03</rscale>
<asrwt>0</asrwt>
<pdfrwt beam="1">  1        2 0.35297808E+00 0.72171940E+03</pdfrwt>
<pdfrwt beam="2">  1       -2 0.51008584E-01 0.72171940E+03</pdfrwt>
<totfact> 0.17350969E+01</totfact>
</mgrwt>
</event>
<event>
 4    2  0.3747163E-007  0.6781235E+03  0.7818608E-02  0.1010406E+00
          2   -1    0    0  501    0  0.00000000000E+00  0.00000000000E+00  0.24035244726E+04  0.24035244726E+04  0.25500000000E-02 0. -1.
         -2   -1    0    0    0  501 -0.00000000000E+00 -0.00000000000E+00 -0.35077685782E+03  0.35077685783E+03  0.25500000000E-02 0.  1.
    8880023    1    1    2    0    0 -0.31039021429E+02 -0.15835967737E+03  0.23139601133E+04  0.24112782544E+04  0.65864270000E+03 0. -1.
    8880022    1    1    2    0    0  0.31039021429E+02  0.15835967737E+03 -0.26121249850E+03  0.34302307599E+03  0.15294330000E+03 0.  0.
<mgrwt>
<rscale>  0 0.51313725E+03</rscale>
<asrwt>0</asrwt>
<pdfrwt beam="1">  1        2 0.36977299E+00 0.67812345E+03</pdfrwt>
<pdfrwt beam="2">  1       -2 0.53965671E-01 0.67812345E+03</pdfrwt>
<totfact> 0.13534697E+01</totfact>
</mgrwt>
</event>
<event>
 4    2  0.3747163E-007  0.1052376E+04  0.7818608E-02  0.9316031E-01
         -2   -1    0    0    0  501 -0.00000000000E+00  0.00000000000E+00  0.29949234962E+03  0.29949234963E+03  0.25500000000E-02 0.  1.
          2   -1    0    0  501    0  0.00000000000E+00 -0.00000000000E+00 -0.37550259784E+04  0.37550259784E+04  0.25500000000E-02 0. -1.
    8880023    1    1    2    0    0 -0.55449771496E+01  0.82076416469E+03 -0.28055374520E+04  0.29964203913E+04  0.65864270000E+03 0. -1.
    8880022    1    1    2    0    0  0.55449771496E+01 -0.82076416469E+03 -0.64999617681E+03  0.10580979367E+04  0.15294330000E+03 0.  0.
<mgrwt>
<rscale>  0 0.99320332E+03</rscale>
<asrwt>0</asrwt>
<pdfrwt beam="1">  1        2 0.57769627E+00 0.10523758E+04</pdfrwt>
<pdfrwt beam="2">  1       -2 0.46075749E-01 0.10523758E+04</pdfrwt>
<totfact> 0.24593304E+00</totfact>
</mgrwt>
</event>
<event>
 4    2  0.3747163E-007  0.7652481E+03  0.7818608E-02  0.9791705E-01
         -2   -1    0    0    0  501 -0.00000000000E+00  0.00000000000E+00  0.49974028960E+03  0.49974028961E+03  0.25500000000E-02 0.  1.
          2   -1    0    0  501    0  0.00000000000E+00 -0.00000000000E+00 -0.18535149883E+04  0.18535149883E+04  0.25500000000E-02 0. -1.
    8880023    1    1    2    0    0  0.10942886649E+03 -0.37392487888E+03 -0.16644920374E+04  0.18319766485E+04  0.65864270000E+03 0.  0.
    8880022    1    1    2    0    0 -0.10942886649E+03  0.37392487888E+03  0.31071733871E+03  0.52127862939E+03  0.15294330000E+03 0.  0.
<mgrwt>
<rscale>  0 0.65809589E+03</rscale>
<asrwt>0</asrwt>
<pdfrwt beam="1">  1        2 0.28515615E+00 0.76524813E+03</pdfrwt>
<pdfrwt beam="2">  1       -2 0.76883122E-01 0.76524813E+03</pdfrwt>
<totfact> 0.12535769E+01</totfact>
</mgrwt>
</event>
<event>
 4    2  0.3747163E-007  0.1328378E+04  0.7818608E-02  0.9041433E-01
          2   -1    0    0  501    0  0.00000000000E+00  0.00000000000E+00  0.24139989961E+04  0.24139989961E+04  0.25500000000E-02 0. -1.
         -2   -1    0    0    0  501 -0.00000000000E+00 -0.00000000000E+00 -0.71859071011E+03  0.71859071011E+03  0.25500000000E-02 0.  1.
    8880023    1    1    2    0    0 -0.11508906277E+04 -0.78923390783E+02  0.39138701994E+03  0.13848365045E+04  0.65864270000E+03 0.  0.
    8880022    1    1    2    0    0  0.11508906277E+04  0.78923390783E+02  0.13040212661E+04  0.17477532017E+04  0.15294330000E+03 0.  0.
<mgrwt>
<rscale>  0 0.12851399E+04</rscale>
<asrwt>0</asrwt>
<pdfrwt beam="1">  1        2 0.37138446E+00 0.13283781E+04</pdfrwt>
<pdfrwt beam="2">  1       -2 0.11055242E+00 0.13283781E+04</pdfrwt>
<totfact> 0.24503230E+00</totfact>
</mgrwt>
</event>
<event>
 4    2  0.3747163E-007  0.6975123E+03  0.7818608E-02  0.1000768E+00
          2   -1    0    0  501    0  0.00000000000E+00  0.00000000000E+00  0.77095268619E+03  0.77095268619E+03  0.25500000000E-02 0. -1.
         -2   -1    0    0    0  501 -0.00000000000E+00 -0.00000000000E+00 -0.13521432001E+04  0.13521432001E+04  0.25500000000E-02 0.  1.
    8880023    1    1    2    0    0  0.17778466999E+03  0.14527818287E+03  0.59387312683E+03  0.91608331299E+03  0.65864270000E+03 0. -1.
    8880022    1    1    2    0    0 -0.17778466999E+03 -0.14527818287E+03 -0.11750636407E+04  0.12070125733E+04  0.15294330000E+03 0.  0.
<mgrwt>
<rscale>  0 0.55314677E+03</rscale>
<asrwt>0</asrwt>
<pdfrwt beam="1">  1        2 0.11860811E+00 0.69751225E+03</pdfrwt>
<pdfrwt beam="2">  1       -2 0.20802203E+00 0.69751225E+03</pdfrwt>
<totfact> 0.43959379E+00</totfact>
</mgrwt>
</event>
<event>
 4    2  0.3747163E-007  0.7722247E+03  0.7818608E-02  0.9774429E-01
         -2   -1    0    0    0  501 -0.00000000000E+00  0.00000000000E+00  0.15303034256E+03  0.15303034258E+03  0.25500000000E-02 0.  1.
          2   -1    0    0  501    0  0.00000000000E+00 -0.00000000000E+00 -0.36913088548E+04  0.36913088548E+04  0.25500000000E-02 0. -1.
    8880023    1    1    2    0    0 -0.77995873805E+02 -0.39552178106E+03 -0.32122761809E+04  0.33037931691E+04  0.65864270000E+03 0. -1.
    8880022    1    1    2    0    0  0.77995873805E+02  0.39552178106E+03 -0.32600233133E+03  0.54054602826E+03  0.15294330000E+03 0.  0.
<mgrwt>
<rscale>  0 0.66753087E+03</rscale>
<asrwt>0</asrwt>
<pdfrwt beam="1">  1        2 0.56789360E+00 0.77222474E+03</pdfrwt>
<pdfrwt beam="2">  1       -2 0.23543132E-01 0.77222474E+03</pdfrwt>
<totfact> 0.10244889E+01</totfact>
</mgrwt>
</event>
<event>
 4    2  0.3747163E-007  0.8401369E+03  0.7818608E-02  0.9629922E-01
          2   -1    0    0  501    0  0.00000000000E+00  0.00000000000E+00  0.19026290970E+04  0.19026290970E+04  0.25500000000E-02 0. -1.
         -2   -1    0    0    0  501 -0.00000000000E+00 -0.00000000000E+00 -0.80270800057E+03  0.80270800058E+03  0.25500000000E-02 0.  1.
    8880023    1    1    2    0    0 -0.36791925598E+03  0.36966903685E+03  0.16996558242E+04  0.18959588347E+04  0.65864270000E+03 0. -1.
    8880022    1    1    2    0    0  0.36791925598E+03 -0.36966903685E+03 -0.59973472779E+03  0.80937826290E+03  0.15294330000E+03 0.  0.
<mgrwt>
<rscale>  0 0.75346997E+03</rscale>
<asrwt>0</asrwt>
<pdfrwt beam="1">  1        2 0.29271217E+00 0.84013688E+03</pdfrwt>
<pdfrwt beam="2">  1       -2 0.12349354E+00 0.84013688E+03</pdfrwt>
<totfact> 0.38136443E+00</totfact>
</mgrwt>
</event>
<event>
 4    2  0.3747163E-007  0.8524135E+03  0.7818608E-02  0.9607204E-01
          2   -1    0    0  501    0  0.00000000000E+00  0.00000000000E+00  0.75823783252E+03  0.75823783253E+03  0.25500000000E-02 0. -1.
         -2   -1    0    0    0  501 -0.00000000000E+00 -0.00000000000E+00 -0.99419153802E+03  0.99419153802E+03  0.25500000000E-02 0.  1.
    8880023    1    1    2    0    0 -0.15167441028E+03  0.51941637632E+03 -0.63498305363E+03  0.10629262361E+04  0.65864270000E+03 0.  1.
    8880022    1    1    2    0    0  0.15167441028E+03 -0.51941637632E+03  0.39902934814E+03  0.68950313445E+03  0.15294330000E+03 0.  0.
<mgrwt>
<rscale>  0 0.76821232E+03</rscale>
<asrwt>0</asrwt>
<pdfrwt beam="1">  1        2 0.11665197E+00 0.85241346E+03</pdfrwt>
<pdfrwt beam="2">  1       -2 0.15295254E+00 0.85241346E+03</pdfrwt>
<totfact> 0.10572504E+01</totfact>
</mgrwt>
</event>
<event>
 4    2  0.3747163E-007  0.1108243E+04  0.7818608E-02  0.9251934E-01
          2   -1    0    0  501    0  0.00000000000E+00  0.00000000000E+00  0.30261301314E+04  0.30261301314E+04  0.25500000000E-02 0. -1.
         -2   -1    0    0    0  501 -0.00000000000E+00 -0.00000000000E+00 -0.41667401106E+03  0.41667401107E+03  0.25500000000E-02 0.  1.
    8880023    1    1    2    0    0  0.88854483807E+03  0.69854822473E+02  0.21716501720E+04  0.24380866066E+04  0.65864270000E+03 0.  1.
    8880022    1    1    2    0    0 -0.88854483807E+03 -0.69854822473E+02  0.43780594833E+03  0.10047175359E+04  0.15294330000E+03 0.  0.
<mgrwt>
<rscale>  0 0.10533093E+04</rscale>
<asrwt>0</asrwt>
<pdfrwt beam="1">  1        2 0.46555847E+00 0.11082427E+04</pdfrwt>
<pdfrwt beam="2">  1       -2 0.64103696E-01 0.11082427E+04</pdfrwt>
<totfact> 0.38008719E+00</totfact>
</mgrwt>
</event>
<event>
 4    2  0.3747163E-007  0.6662358E+03  0.7818608E-02  0.1018518E+00
         -2   -1    0    0    0  501 -0.00000000000E+00  0.00000000000E+00  0.31146147066E+03  0.31146147067E+03  0.25500000000E-02 0.  1.
          2   -1    0    0  501    0  0.00000000000E+00 -0.00000000000E+00 -0.62533597287E+03  0.62533597288E+03  0.25500000000E-02 0. -1.
    8880023    1    1    2    0    0 -0.99960591279E+02  0.82331306056E+01 -0.34659159566E+03  0.75099656770E+03  0.65864270000E+03 0.  1.
    8880022    1    1    2    0    0  0.99960591279E+02 -0.82331306056E+01  0.32717093441E+02  0.18580087585E+03  0.15294330000E+03 0.  0.
<mgrwt>
<rscale>  0 0.48225085E+03</rscale>
<asrwt>0</asrwt>
<pdfrwt beam="1">  1        2 0.96205534E-01 0.66623578E+03</pdfrwt>
<pdfrwt beam="2">  1       -2 0.47917149E-01 0.66623578E+03</pdfrwt>
<totfact> 0.19724145E+02</totfact>
</mgrwt>
</event>
<event>
 4    2  0.3747163E-007  0.6745141E+03  0.7818608E-02  0.1012614E+00
          2   -1    0    0  501    0  0.00000000000E+00  0.00000000000E+00  0.12395028291E+04  0.12395028291E+04  0.25500000000E-02 0. -1.
         -2   -1    0    0    0  501 -0.00000000000E+00 -0.00000000000E+00 -0.31207655158E+03  0.31207655159E+03  0.25500000000E-02 0.  1.
    8880023    1    1    2    0    0 -0.99051931907E+02 -0.10652600877E+03  0.10922783057E+04  0.12837605614E+04  0.65864270000E+03 0. -1.
    8880022    1    1    2    0    0  0.99051931907E+02  0.10652600877E+03 -0.16485202815E+03  0.26781881927E+03  0.15294330000E+03 0.  0.
<mgrwt>
<rscale>  0 0.50448717E+03</rscale>
<asrwt>0</asrwt>
<pdfrwt beam="1">  1        2 0.19069274E+00 0.67451411E+03</pdfrwt>
<pdfrwt beam="2">  1       -2 0.48011778E-01 0.67451411E+03</pdfrwt>
<totfact> 0.75508499E+01</totfact>
</mgrwt>
</event>
<event>
 4    2  0.3747163E-007  0.6773762E+03  0.7818608E-02  0.1010848E+00
         -2   -1    0    0    0  501 -0.00000000000E+00  0.00000000000E+00  0.36120980776E+03  0.36120980777E+03  0.25500000000E-02 0.  1.
          2   -1    0    0  501    0  0.00000000000E+00 -0.00000000000E+00 -0.12994942587E+04  0.12994942587E+04  0.25500000000E-02 0. -1.
    8880023    1    1    2    0    0  0.11605020244E+03  0.10752081325E+03 -0.11631949235E+04  0.13460538663E+04  0.65864270000E+03 0. -1.
    8880022    1    1    2    0    0 -0.11605020244E+03 -0.10752081325E+03  0.22491047255E+03  0.31465020014E+03  0.15294330000E+03 0.  0.
<mgrwt>
<rscale>  0 0.51138808E+03</rscale>
<asrwt>0</asrwt>
<pdfrwt beam="1">  1        2 0.19992219E+00 0.67737625E+03</pdfrwt>
<pdfrwt beam="2">  1       -2 0.55570740E-01 0.67737625E+03</pdfrwt>
<totfact> 0.51669228E+01</totfact>
</mgrwt>
</event>
<event>
 4    2  0.3747163E-007  0.7893774E+03  0.7818608E-02  0.9734253E-01
          2   -1    0    0  501    0  0.00000000000E+00  0.00000000000E+00  0.33917583360E+04  0.33917583360E+04  0.25500000000E-02 0. -1.
         -2   -1    0    0    0  501 -0.00000000000E+00 -0.00000000000E+00 -0.20108405161E+03  0.20108405163E+03  0.25500000000E-02 0.  1.
    8880023    1    1    2    0    0 -0.11681935128E+03  0.41911786113E+03  0.29854573072E+04  0.30880531216E+04  0.65864270000E+03 0. -1.
    8880022    1    1    2    0    0  0.11681935128E+03 -0.41911786113E+03  0.20521697715E+03  0.50478926601E+03  0.15294330000E+03 0.  0.
<mgrwt>
<rscale>  0 0.69013493E+03</rscale>
<asrwt>0</asrwt>
<pdfrwt beam="1">  1        2 0.52180890E+00 0.78937744E+03</pdfrwt>
<pdfrwt beam="2">  1       -2 0.30936012E-01 0.78937744E+03</pdfrwt>
<totfact> 0.99854609E+00</totfact>
</mgrwt>
</event>
<event>
 4    2  0.3747163E-007  0.9345382E+03  0.7818608E-02  0.9472718E-01
         -2   -1    0    0    0  501 -0.00000000000E+00  0.00000000000E+00  0.61879643390E+03  0.61879643390E+03  0.25500000000E-02 0.  1.
          2   -1    0    0  501    0  0.00000000000E+00 -0.00000000000E+00 -0.20066275588E+04  0.20066275588E+04  0.25500000000E-02 0. -1.
    8880023    1    1    2    0    0 -0.44167012687E+03  0.49444810899E+03 -0.16499897310E+04  0.18962667935E+04  0.65864270000E+03 0.  0.
    8880022    1    1    2    0    0  0.44167012687E+03 -0.49444810899E+03  0.26215860605E+03  0.72915719924E+03  0.15294330000E+03 0.  0.
<mgrwt>
<rscale>  0 0.86325428E+03</rscale>
<asrwt>0</asrwt>
<pdfrwt beam="1">  1        2 0.30871193E+00 0.93453820E+03</pdfrwt>
<pdfrwt beam="2">  1       -2 0.95199452E-01 0.93453820E+03</pdfrwt>
<totfact> 0.61998956E+00</totfact>
</mgrwt>
</event>
<event>
 4    2  0.3747163E-007  0.8054882E+03  0.7818608E-02  0.9699053E-01
          2   -1    0    0  501    0  0.00000000000E+00  0.00000000000E+00  0.10605970570E+04  0.10605970570E+04  0.25500000000E-02 0. -1.
         -2   -1    0    0    0  501 -0.00000000000E+00 -0.00000000000E+00 -0.70375876441E+03  0.70375876442E+03  0.25500000000E-02 0.  1.
    8880023    1    1    2    0    0 -0.21692501651E+02  0.46317437158E+03  0.77776972669E+03  0.11197039864E+04  0.65864270000E+03 0.  0.
    8880022    1    1    2    0    0  0.21692501651E+02 -0.46317437158E+03 -0.42093143414E+03  0.64465183500E+03  0.15294330000E+03 0.  0.
<mgrwt>
<rscale>  0 0.71073224E+03</rscale>
<asrwt>0</asrwt>
<pdfrwt beam="1">  1        2 0.16316878E+00 0.80548822E+03</pdfrwt>
<pdfrwt beam="2">  1       -2 0.10827058E+00 0.80548822E+03</pdfrwt>
<totfact> 0.15917785E+01</totfact>
</mgrwt>
</event>
<event>
 4    2  0.3747163E-007  0.7393075E+03  0.7818608E-02  0.9861969E-01
         -2   -1    0    0    0  501 -0.00000000000E+00  0.00000000000E+00  0.12381954142E+03  0.12381954144E+03  0.25500000000E-02 0.  1.
          2   -1    0    0  501    0  0.00000000000E+00 -0.00000000000E+00 -0.25454111718E+04  0.25454111718E+04  0.25500000000E-02 0. -1.
    8880023    1    1    2    0    0 -0.32163375724E+03  0.96525175672E+02 -0.14031342726E+04  0.15859890847E+04  0.65864270000E+03 0. -1.
    8880022    1    1    2    0    0  0.32163375724E+03 -0.96525175672E+02 -0.10184573577E+04  0.10832416286E+04  0.15294330000E+03 0.  1.
<mgrwt>
<rscale>  0 0.62140372E+03</rscale>
<asrwt>0</asrwt>
<pdfrwt beam="1">  1        2 0.39160168E+00 0.73930751E+03</pdfrwt>
<pdfrwt beam="2">  1       -2 0.19049162E-01 0.73930751E+03</pdfrwt>
<totfact> 0.79287715E+01</totfact>
</mgrwt>
</event>
<event>
 4    2  0.3747163E-007  0.7223006E+03  0.7818608E-02  0.9914877E-01
          2   -1    0    0  501    0  0.00000000000E+00  0.00000000000E+00  0.12625390354E+04  0.12625390354E+04  0.25500000000E-02 0. -1.
         -2   -1    0    0    0  501 -0.00000000000E+00 -0.00000000000E+00 -0.27632305048E+03  0.27632305049E+03  0.25500000000E-02 0.  1.
    8880023    1    1    2    0    0 -0.85351766111E+02  0.28394184938E+03  0.96390031619E+03  0.12045006947E+04  0.65864270000E+03 0.  0.
    8880022    1    1    2    0    0  0.85351766111E+02 -0.28394184938E+03  0.22315668722E+02  0.33436139115E+03  0.15294330000E+03 0.  0.
<mgrwt>
<rscale>  0 0.59545664E+03</rscale>
<asrwt>0</asrwt>
<pdfrwt beam="1">  1        2 0.19423678E+00 0.72230056E+03</pdfrwt>
<pdfrwt beam="2">  1       -2 0.42511238E-01 0.72230056E+03</pdfrwt>
<totfact> 0.92897802E+01</totfact>
</mgrwt>
</event>
<event>
 4    2  0.3747163E-007  0.6834892E+03  0.7818608E-02  0.1007415E+00
          2   -1    0    0  501    0  0.00000000000E+00  0.00000000000E+00  0.68912427300E+03  0.68912427301E+03  0.25500000000E-02 0. -1.
         -2   -1    0    0    0  501 -0.00000000000E+00 -0.00000000000E+00 -0.79834343837E+03  0.79834343838E+03  0.25500000000E-02 0.  1.
    8880023    1    1    2    0    0 -0.17824772706E+03 -0.39686777297E+02  0.49109367575E+03  0.84162372657E+03  0.65864270000E+03 0. -1.
    8880022    1    1    2    0    0  0.17824772706E+03  0.39686777297E+02 -0.60031284112E+03  0.64584398482E+03  0.15294330000E+03 0.  0.
<mgrwt>
<rscale>  0 0.52515065E+03</rscale>
<asrwt>0</asrwt>
<pdfrwt beam="1">  1        2 0.10601912E+00 0.68348921E+03</pdfrwt>
<pdfrwt beam="2">  1       -2 0.12282207E+00 0.68348921E+03</pdfrwt>
<totfact> 0.21366288E+01</totfact>
</mgrwt>
</event>
<event>
 4    2  0.3747163E-007  0.9184837E+03  0.7818608E-02  0.9496988E-01
         -2   -1    0    0    0  501 -0.00000000000E+00  0.00000000000E+00  0.79079391940E+03  0.79079391941E+03  0.25500000000E-02 0.  1.
          2   -1    0    0  501    0  0.00000000000E+00 -0.00000000000E+00 -0.83573084731E+03  0.83573084731E+03  0.25500000000E-02 0. -1.
    8880023    1    1    2    0    0 -0.34644259995E+03 -0.53831179576E+03  0.17012181895E+03  0.93410583130E+03  0.65864270000E+03 0.  0.
    8880022    1    1    2    0    0  0.34644259995E+03  0.53831179576E+03 -0.21505874685E+03  0.69241893542E+03  0.15294330000E+03 0.  0.
<mgrwt>
<rscale>  0 0.84506254E+03</rscale>
<asrwt>0</asrwt>
<pdfrwt beam="1">  1        2 0.12857398E+00 0.91848368E+03</pdfrwt>
<pdfrwt beam="2">  1       -2 0.12166060E+00 0.91848368E+03</pdfrwt>
<totfact> 0.16657123E+01</totfact>
</mgrwt>
</event>
<event>
 4    2  0.3747163E-007  0.7874404E+03  0.7818608E-02  0.9738641E-01
          2   -1    0    0  501    0  0.00000000000E+00  0.00000000000E+00  0.14108582141E+04  0.14108582141E+04  0.25500000000E-02 0. -1.
         -2   -1    0    0    0  501 -0.00000000000E+00 -0.00000000000E+00 -0.38000548777E+03  0.38000548778E+03  0.25500000000E-02 0.  1.
    8880023    1    1    2    0    0 -0.20581818300E+03  0.37932983692E+03  0.10731367068E+04  0.13310465233E+04  0.65864270000E+03 0. -1.
    8880022    1    1    2    0    0  0.20581818300E+03 -0.37932983692E+03 -0.42283980469E+02  0.45981717851E+03  0.15294330000E+03 0.  0.
<mgrwt>
<rscale>  0 0.68762011E+03</rscale>
<asrwt>0</asrwt>
<pdfrwt beam="1">  1        2 0.21705511E+00 0.78744045E+03</pdfrwt>
<pdfrwt beam="2">  1       -2 0.58462382E-01 0.78744045E+03</pdfrwt>
<totfact> 0.39699227E+01</totfact>
</mgrwt>
</event>
<event>
 4    2  0.3747163E-007  0.7462818E+03  0.7818608E-02  0.9842012E-01
         -2   -1    0    0    0  501 -0.00000000000E+00  0.00000000000E+00  0.43961884528E+03  0.43961884529E+03  0.25500000000E-02 0.  1.
          2   -1    0    0  501    0  0.00000000000E+00 -0.00000000000E+00 -0.96069315007E+03  0.96069315007E+03  0.25500000000E-02 0. -1.
    8880023    1    1    2    0    0  0.25192925063E+03 -0.24424992646E+03 -0.65684050360E+03  0.99417102519E+03  0.65864270000E+03 0. -1.
    8880022    1    1    2    0    0 -0.25192925063E+03  0.24424992646E+03  0.13576619881E+03  0.40614097017E+03  0.15294330000E+03 0.  0.
<mgrwt>
<rscale>  0 0.63155843E+03</rscale>
<asrwt>0</asrwt>
<pdfrwt beam="1">  1        2 0.14779895E+00 0.74628184E+03</pdfrwt>
<pdfrwt beam="2">  1       -2 0.67633669E-01 0.74628184E+03</pdfrwt>
<totfact> 0.54338609E+01</totfact>
</mgrwt>
</event>
<event>
 4    2  0.3747163E-007  0.7631518E+03  0.7818608E-02  0.9797015E-01
          2   -1    0    0  501    0  0.00000000000E+00  0.00000000000E+00  0.88535830127E+03  0.88535830127E+03  0.25500000000E-02 0. -1.
         -2   -1    0    0    0  501 -0.00000000000E+00 -0.00000000000E+00 -0.53518316688E+03  0.53518316688E+03  0.25500000000E-02 0.  1.
    8880023    1    1    2    0    0  0.37105193726E+03  0.10445571584E+03  0.56873398292E+03  0.95176629816E+03  0.65864270000E+03 0. -1.
    8880022    1    1    2    0    0 -0.37105193726E+03 -0.10445571584E+03 -0.21855884853E+03  0.46877516999E+03  0.15294330000E+03 0.  0.
<mgrwt>
<rscale>  0 0.65522982E+03</rscale>
<asrwt>0</asrwt>
<pdfrwt beam="1">  1        2 0.13620897E+00 0.76315185E+03</pdfrwt>
<pdfrwt beam="2">  1       -2 0.82335873E-01 0.76315185E+03</pdfrwt>
<totfact> 0.39387423E+01</totfact>
</mgrwt>
</event>
<event>
 4    2  0.3747163E-007  0.7802296E+03  0.7818608E-02  0.9755298E-01
         -2   -1    0    0    0  501 -0.00000000000E+00  0.00000000000E+00  0.69925012291E+03  0.69925012291E+03  0.25500000000E-02 0.  1.
          2   -1    0    0  501    0  0.00000000000E+00 -0.00000000000E+00 -0.62959007012E+03  0.62959007012E+03  0.25500000000E-02 0. -1.
    8880023    1    1    2    0    0 -0.84903615285E+02  0.40955995681E+03 -0.20357321509E+03  0.80634995026E+03  0.65864270000E+03 0. -1.
    8880022    1    1    2    0    0  0.84903615285E+02 -0.40955995681E+03  0.27323326788E+03  0.52249024278E+03  0.15294330000E+03 0.  0.
<mgrwt>
<rscale>  0 0.67817690E+03</rscale>
<asrwt>0</asrwt>
<pdfrwt beam="1">  1        2 0.96860011E-01 0.78022957E+03</pdfrwt>
<pdfrwt beam="2">  1       -2 0.10757694E+00 0.78022957E+03</pdfrwt>
<totfact> 0.32767120E+01</totfact>
</mgrwt>
</event>
<event>
 4    2  0.3747163E-007  0.8920654E+03  0.7818608E-02  0.9538891E-01
         -2   -1    0    0    0  501 -0.00000000000E+00  0.00000000000E+00  0.91742428206E+03  0.91742428206E+03  0.25500000000E-02 0.  1.
          2   -1    0    0  501    0  0.00000000000E+00 -0.00000000000E+00 -0.11824096736E+04  0.11824096736E+04  0.25500000000E-02 0. -1.
    8880023    1    1    2    0    0  0.59924070201E+03 -0.53675039207E+02 -0.86060798960E+03  0.12395268238E+04  0.65864270000E+03 0. -1.
    8880022    1    1    2    0    0 -0.59924070201E+03  0.53675039207E+02  0.59562259810E+03  0.86030713188E+03  0.15294330000E+03 0.  0.
<mgrwt>
<rscale>  0 0.81476269E+03</rscale>
<asrwt>0</asrwt>
<pdfrwt beam="1">  1        2 0.18190918E+00 0.89206538E+03</pdfrwt>
<pdfrwt beam="2">  1       -2 0.14114220E+00 0.89206538E+03</pdfrwt>
<totfact> 0.68440852E+00</totfact>
</mgrwt>
</event>
<event>
 4    2  0.3747163E-007  0.9884003E+03  0.7818608E-02  0.9396893E-01
          2   -1    0    0  501    0  0.00000000000E+00  0.00000000000E+00  0.26415351833E+04  0.26415351833E+04  0.25500000000E-02 0. -1.
         -2   -1    0    0    0  501 -0.00000000000E+00 -0.00000000000E+00 -0.30914950007E+03  0.30914950008E+03  0.25500000000E-02 0.  1.
    8880023    1    1    2    0    0  0.52513857919E+03 -0.51706332556E+03  0.92023087594E+03  0.13504666161E+04  0.65864270000E+03 0.  0.
    8880022    1    1    2    0    0 -0.52513857919E+03  0.51706332556E+03  0.14121548072E+04  0.16002180672E+04  0.15294330000E+03 0.  0.
<mgrwt>
<rscale>  0 0.92331788E+03</rscale>
<asrwt>0</asrwt>
<pdfrwt beam="1">  1        2 0.40639002E+00 0.98840033E+03</pdfrwt>
<pdfrwt beam="2">  1       -2 0.47561463E-01 0.98840033E+03</pdfrwt>
<totfact> 0.12248602E+01</totfact>
</mgrwt>
</event>
<event>
 4    2  0.3747163E-007  0.8396482E+03  0.7818608E-02  0.9630844E-01
         -2   -1    0    0    0  501 -0.00000000000E+00  0.00000000000E+00  0.38730003264E+03  0.38730003265E+03  0.25500000000E-02 0.  1.
          2   -1    0    0  501    0  0.00000000000E+00 -0.00000000000E+00 -0.16154482186E+04  0.16154482186E+04  0.25500000000E-02 0. -1.
    8880023    1    1    2    0    0  0.15221737363E+03  0.49802487082E+03 -0.11929924894E+04  0.14588489253E+04  0.65864270000E+03 0.  0.
    8880022    1    1    2    0    0 -0.15221737363E+03 -0.49802487082E+03 -0.35155696583E+02  0.54389932598E+03  0.15294330000E+03 0.  0.
<mgrwt>
<rscale>  0 0.75287933E+03</rscale>
<asrwt>0</asrwt>
<pdfrwt beam="1">  1        2 0.24853049E+00 0.83964820E+03</pdfrwt>
<pdfrwt beam="2">  1       -2 0.59584622E-01 0.83964820E+03</pdfrwt>
<totfact> 0.29165339E+01</totfact>
</mgrwt>
</event>
<event>
 4    2  0.3747163E-007  0.7106009E+03  0.7818608E-02  0.9955776E-01
          2   -1    0    0  501    0  0.00000000000E+00  0.00000000000E+00  0.18174051309E+04  0.18174051309E+04  0.25500000000E-02 0. -1.
         -2   -1    0    0    0  501 -0.00000000000E+00 -0.00000000000E+00 -0.25106180719E+03  0.25106180720E+03  0.25500000000E-02 0.  1.
    8880023    1    1    2    0    0  0.10167194577E+03  0.24658916601E+03  0.16081687784E+04  0.17581696242E+04  0.65864270000E+03 0. -1.
    8880022    1    1    2    0    0 -0.10167194577E+03 -0.24658916601E+03 -0.41825454683E+02  0.31029731391E+03  0.15294330000E+03 0.  0.
<mgrwt>
<rscale>  0 0.57632627E+03</rscale>
<asrwt>0</asrwt>
<pdfrwt beam="1">  1        2 0.27960079E+00 0.71060088E+03</pdfrwt>
<pdfrwt beam="2">  1       -2 0.38624894E-01 0.71060088E+03</pdfrwt>
<totfact> 0.55090703E+01</totfact>
</mgrwt>
</event>
<event>
 4    2  0.3747163E-007  0.9014947E+03  0.7818608E-02  0.9523636E-01
          2   -1    0    0  501    0  0.00000000000E+00  0.00000000000E+00  0.19917507920E+04  0.19917507920E+04  0.25500000000E-02 0. -1.
         -2   -1    0    0    0  501 -0.00000000000E+00 -0.00000000000E+00 -0.46908341770E+03  0.46908341771E+03  0.25500000000E-02 0.  1.
    8880023    1    1    2    0    0  0.60966381194E+03 -0.84808745920E+02  0.15850952179E+04  0.18235184515E+04  0.65864270000E+03 0. -1.
    8880022    1    1    2    0    0 -0.60966381194E+03  0.84808745920E+02 -0.62427843590E+02  0.63731575820E+03  0.15294330000E+03 0.  0.
<mgrwt>
<rscale>  0 0.82563415E+03</rscale>
<asrwt>0</asrwt>
<pdfrwt beam="1">  1        2 0.30642320E+00 0.90149470E+03</pdfrwt>
<pdfrwt beam="2">  1       -2 0.72166680E-01 0.90149470E+03</pdfrwt>
<totfact> 0.11905872E+01</totfact>
</mgrwt>
</event>
<event>
 4    2  0.3747163E-007  0.7380417E+03  0.7818608E-02  0.9865689E-01
         -2   -1    0    0    0  501 -0.00000000000E+00  0.00000000000E+00  0.20071611591E+03  0.20071611593E+03  0.25500000000E-02 0.  1.
          2   -1    0    0  501    0  0.00000000000E+00 -0.00000000000E+00 -0.18263285499E+04  0.18263285499E+04  0.25500000000E-02 0. -1.
    8880023    1    1    2    0    0 -0.24225260589E+03  0.22849286497E+03 -0.14357302464E+04  0.16143193182E+04  0.65864270000E+03 0. -1.
    8880022    1    1    2    0    0  0.24225260589E+03 -0.22849286497E+03 -0.18988218756E+03  0.41272534762E+03  0.15294330000E+03 0.  0.
<mgrwt>
<rscale>  0 0.61953365E+03</rscale>
<asrwt>0</asrwt>
<pdfrwt beam="1">  1        2 0.28097361E+00 0.73804168E+03</pdfrwt>
<pdfrwt beam="2">  1       -2 0.30879404E-01 0.73804168E+03</pdfrwt>
<totfact> 0.83081598E+01</totfact>
</mgrwt>
</event>
<event>
 4    2  0.3747163E-007  0.7034904E+03  0.7818608E-02  0.9983019E-01
         -2   -1    0    0    0  501 -0.00000000000E+00  0.00000000000E+00  0.21752582816E+03  0.21752582818E+03  0.25500000000E-02 0.  1.
          2   -1    0    0  501    0  0.00000000000E+00 -0.00000000000E+00 -0.13930611789E+04  0.13930611789E+04  0.25500000000E-02 0. -1.
    8880023    1    1    2    0    0 -0.23337807570E+03 -0.81382752846E+02 -0.11075543970E+04  0.13120881934E+04  0.65864270000E+03 0. -1.
    8880022    1    1    2    0    0  0.23337807570E+03  0.81382752846E+02 -0.67980953717E+02  0.29849881367E+03  0.15294330000E+03 0.  0.
<mgrwt>
<rscale>  0 0.56401147E+03</rscale>
<asrwt>0</asrwt>
<pdfrwt beam="1">  1        2 0.21431710E+00 0.70349036E+03</pdfrwt>
<pdfrwt beam="2">  1       -2 0.33465513E-01 0.70349036E+03</pdfrwt>
<totfact> 0.12427917E+02</totfact>
</mgrwt>
</event>
<event>
 4    2  0.3747163E-007  0.9088959E+03  0.7818608E-02  0.9511899E-01
          2   -1    0    0  501    0  0.00000000000E+00  0.00000000000E+00  0.14114117998E+04  0.14114117998E+04  0.25500000000E-02 0. -1.
         -2   -1    0    0    0  501 -0.00000000000E+00 -0.00000000000E+00 -0.49015908064E+03  0.49015908065E+03  0.25500000000E-02 0.  1.
    8880023    1    1    2    0    0 -0.62129278520E+03  0.79226374566E+02  0.86446253880E+03  0.12543473325E+04  0.65864270000E+03 0. -1.
    8880022    1    1    2    0    0  0.62129278520E+03 -0.79226374566E+02  0.56790180342E+02  0.64722354791E+03  0.15294330000E+03 0.  0.
<mgrwt>
<rscale>  0 0.83412206E+03</rscale>
<asrwt>0</asrwt>
<pdfrwt beam="1">  1        2 0.21714027E+00 0.90889590E+03</pdfrwt>
<pdfrwt beam="2">  1       -2 0.75409091E-01 0.90889590E+03</pdfrwt>
<totfact> 0.22606880E+01</totfact>
</mgrwt>
</event>
<event>
 4    2  0.3747163E-007  0.8109543E+03  0.7818608E-02  0.9687593E-01
         -2   -1    0    0    0  501 -0.00000000000E+00  0.00000000000E+00  0.49002004447E+03  0.49002004448E+03  0.25500000000E-02 0.  1.
          2   -1    0    0  501    0  0.00000000000E+00 -0.00000000000E+00 -0.11436101047E+04  0.11436101047E+04  0.25500000000E-02 0. -1.
    8880023    1    1    2    0    0 -0.15525726001E+02  0.47285896717E+03 -0.77507995614E+03  0.11217824190E+04  0.65864270000E+03 0.  1.
    8880022    1    1    2    0    0  0.15525726001E+02 -0.47285896717E+03  0.12148989593E+03  0.51184773012E+03  0.15294330000E+03 0. -1.
<mgrwt>
<rscale>  0 0.71760351E+03</rscale>
<asrwt>0</asrwt>
<pdfrwt beam="1">  1        2 0.17594002E+00 0.81095429E+03</pdfrwt>
<pdfrwt beam="2">  1       -2 0.75387699E-01 0.81095429E+03</pdfrwt>
<totfact> 0.32720898E+01</totfact>
</mgrwt>
</event>
<event>
 4    2  0.3747163E-007  0.7673843E+03  0.7818608E-02  0.9786352E-01
          2   -1    0    0  501    0  0.00000000000E+00  0.00000000000E+00  0.29359021367E+04  0.29359021367E+04  0.25500000000E-02 0. -1.
         -2   -1    0    0    0  501 -0.00000000000E+00 -0.00000000000E+00 -0.12576607485E+03  0.12576607487E+03  0.25500000000E-02 0.  1.
    8880023    1    1    2    0    0  0.32019152928E+03  0.22922885784E+03  0.20944428576E+04  0.22305984791E+04  0.65864270000E+03 0. -1.
    8880022    1    1    2    0    0 -0.32019152928E+03 -0.22922885784E+03  0.71569320419E+03  0.83106973247E+03  0.15294330000E+03 0.  1.
<mgrwt>
<rscale>  0 0.66100134E+03</rscale>
<asrwt>0</asrwt>
<pdfrwt beam="1">  1        2 0.45167723E+00 0.76738432E+03</pdfrwt>
<pdfrwt beam="2">  1       -2 0.19348628E-01 0.76738432E+03</pdfrwt>
<totfact> 0.45377278E+01</totfact>
</mgrwt>
</event>
<event>
 4    2  0.3747163E-007  0.1312592E+04  0.7818608E-02  0.9054761E-01
         -2   -1    0    0    0  501 -0.00000000000E+00  0.00000000000E+00  0.64596124597E+03  0.64596124597E+03  0.25500000000E-02 0.  1.
          2   -1    0    0  501    0  0.00000000000E+00 -0.00000000000E+00 -0.23625517099E+04  0.23625517099E+04  0.25500000000E-02 0. -1.
    8880023    1    1    2    0    0 -0.90894443344E+03 -0.68037398869E+03 -0.10667430931E+04  0.16914017206E+04  0.65864270000E+03 0.  0.
    8880022    1    1    2    0    0  0.90894443344E+03  0.68037398869E+03 -0.64984737076E+03  0.13171112352E+04  0.15294330000E+03 0.  0.
<mgrwt>
<rscale>  0 0.12687003E+04</rscale>
<asrwt>0</asrwt>
<pdfrwt beam="1">  1        2 0.36346949E+00 0.13125925E+04</pdfrwt>
<pdfrwt beam="2">  1       -2 0.99378654E-01 0.13125925E+04</pdfrwt>
<totfact> 0.33973589E+00</totfact>
</mgrwt>
</event>
<event>
 4    2  0.3747163E-007  0.7373820E+03  0.7818608E-02  0.9867640E-01
          2   -1    0    0  501    0  0.00000000000E+00  0.00000000000E+00  0.14749200365E+04  0.14749200365E+04  0.25500000000E-02 0. -1.
         -2   -1    0    0    0  501 -0.00000000000E+00 -0.00000000000E+00 -0.46027359747E+03  0.46027359748E+03  0.25500000000E-02 0.  1.
    8880023    1    1    2    0    0  0.14480700437E+03 -0.29824985079E+03  0.12845464851E+04  0.14811454759E+04  0.65864270000E+03 0. -1.
    8880022    1    1    2    0    0 -0.14480700437E+03  0.29824985079E+03 -0.26990004608E+03  0.45404815813E+03  0.15294330000E+03 0.  0.
<mgrwt>
<rscale>  0 0.61855562E+03</rscale>
<asrwt>0</asrwt>
<pdfrwt beam="1">  1        2 0.22691078E+00 0.73738202E+03</pdfrwt>
<pdfrwt beam="2">  1       -2 0.70811322E-01 0.73738202E+03</pdfrwt>
<totfact> 0.24362442E+01</totfact>
</mgrwt>
</event>
<event>
 4    2  0.3747163E-007  0.8902502E+03  0.7818608E-02  0.9541868E-01
          2   -1    0    0  501    0  0.00000000000E+00  0.00000000000E+00  0.12640936989E+04  0.12640936989E+04  0.25500000000E-02 0. -1.
         -2   -1    0    0    0  501 -0.00000000000E+00 -0.00000000000E+00 -0.54535190984E+03  0.54535190984E+03  0.25500000000E-02 0.  1.
    8880023    1    1    2    0    0  0.42547369570E+03  0.42155339905E+03  0.78607199791E+03  0.11876255833E+04  0.65864270000E+03 0. -1.
    8880022    1    1    2    0    0 -0.42547369570E+03 -0.42155339905E+03 -0.67330208851E+02  0.62182002543E+03  0.15294330000E+03 0.  1.
<mgrwt>
<rscale>  0 0.81266205E+03</rscale>
<asrwt>0</asrwt>
<pdfrwt beam="1">  1        2 0.19447595E+00 0.89025016E+03</pdfrwt>
<pdfrwt beam="2">  1       -2 0.83900295E-01 0.89025016E+03</pdfrwt>
<totfact> 0.21652560E+01</totfact>
</mgrwt>
</event>
<event>
 4    2  0.3747163E-007  0.1029171E+04  0.7818608E-02  0.9344350E-01
          2   -1    0    0  501    0  0.00000000000E+00  0.00000000000E+00  0.73173125478E+03  0.73173125478E+03  0.25500000000E-02 0. -1.
         -2   -1    0    0    0  501 -0.00000000000E+00 -0.00000000000E+00 -0.13065037525E+04  0.13065037525E+04  0.25500000000E-02 0.  1.
    8880023    1    1    2    0    0 -0.32618850618E+03  0.72040534910E+03  0.32203092426E+02  0.10296747321E+04  0.65864270000E+03 0.  0.
    8880022    1    1    2    0    0  0.32618850618E+03 -0.72040534910E+03 -0.60697559018E+03  0.10085602752E+04  0.15294330000E+03 0.  0.
<mgrwt>
<rscale>  0 0.96800452E+03</rscale>
<asrwt>0</asrwt>
<pdfrwt beam="1">  1        2 0.11257404E+00 0.10291710E+04</pdfrwt>
<pdfrwt beam="2">  1       -2 0.20100058E+00 0.10291710E+04</pdfrwt>
<totfact> 0.50240984E+00</totfact>
</mgrwt>
</event>
<event>
 4    2  0.3747163E-007  0.7365495E+03  0.7818608E-02  0.9870115E-01
         -2   -1    0    0    0  501 -0.00000000000E+00  0.00000000000E+00  0.67356974368E+03  0.67356974369E+03  0.25500000000E-02 0.  1.
          2   -1    0    0  501    0  0.00000000000E+00 -0.00000000000E+00 -0.18404954040E+04  0.18404954040E+04  0.25500000000E-02 0. -1.
    8880023    1    1    2    0    0  0.22314116359E+03  0.24269933520E+03 -0.17092672018E+04  0.18612091552E+04  0.65864270000E+03 0. -1.
    8880022    1    1    2    0    0 -0.22314116359E+03 -0.24269933520E+03  0.54234154150E+03  0.65285599242E+03  0.15294330000E+03 0.  0.
<mgrwt>
<rscale>  0 0.61731779E+03</rscale>
<asrwt>0</asrwt>
<pdfrwt beam="1">  1        2 0.28315314E+00 0.73654949E+03</pdfrwt>
<pdfrwt beam="2">  1       -2 0.10362612E+00 0.73654949E+03</pdfrwt>
<totfact> 0.64292859E+00</totfact>
</mgrwt>
</event>
<event>
 4    2  0.3747163E-007  0.1387601E+04  0.7818608E-02  0.8993378E-01
          2   -1    0    0  501    0  0.00000000000E+00  0.00000000000E+00  0.27664186370E+04  0.27664186370E+04  0.25500000000E-02 0. -1.
         -2   -1    0    0    0  501 -0.00000000000E+00 -0.00000000000E+00 -0.10942848503E+04  0.10942848503E+04  0.25500000000E-02 0.  1.
    8880023    1    1    2    0    0 -0.12040505331E+04  0.20466649092E+03  0.21344838474E+04  0.25458706879E+04  0.65864270000E+03 0.  0.
    8880022    1    1    2    0    0  0.12040505331E+04 -0.20466649092E+03 -0.46235006063E+03  0.13148327994E+04  0.15294330000E+03 0.  0.
<mgrwt>
<rscale>  0 0.13466373E+04</rscale>
<asrwt>0</asrwt>
<pdfrwt beam="1">  1        2 0.42560286E+00 0.13876009E+04</pdfrwt>
<pdfrwt beam="2">  1       -2 0.16835152E+00 0.13876009E+04</pdfrwt>
<totfact> 0.50741099E-01</totfact>
</mgrwt>
</event>
<event>
 4    2  0.3747163E-007  0.7539143E+03  0.7818608E-02  0.9821125E-01
         -2   -1    0    0    0  501 -0.00000000000E+00  0.00000000000E+00  0.12961054675E+04  0.12961054675E+04  0.25500000000E-02 0.  1.
          2   -1    0    0  501    0  0.00000000000E+00 -0.00000000000E+00 -0.34941541703E+03  0.34941541704E+03  0.25500000000E-02 0. -1.
    8880023    1    1    2    0    0  0.48067506671E+02 -0.36368400497E+03  0.16970039288E+03  0.77277743903E+03  0.65864270000E+03 0. -1.
    8880022    1    1    2    0    0 -0.48067506671E+02  0.36368400497E+03  0.77698965754E+03  0.87274344547E+03  0.15294330000E+03 0.  0.
<mgrwt>
<rscale>  0 0.64241058E+03</rscale>
<asrwt>0</asrwt>
<pdfrwt beam="1">  1        2 0.53756219E-01 0.75391428E+03</pdfrwt>
<pdfrwt beam="2">  1       -2 0.19940084E+00 0.75391428E+03</pdfrwt>
<totfact> 0.12644448E+01</totfact>
</mgrwt>
</event>
<event>
 4    2  0.3747163E-007  0.1018196E+04  0.7818608E-02  0.9358129E-01
         -2   -1    0    0    0  501 -0.00000000000E+00  0.00000000000E+00  0.16234722986E+04  0.16234722986E+04  0.25500000000E-02 0.  1.
          2   -1    0    0  501    0  0.00000000000E+00 -0.00000000000E+00 -0.56658896066E+03  0.56658896067E+03  0.25500000000E-02 0. -1.
    8880023    1    1    2    0    0  0.57119657883E+03 -0.52597350364E+03  0.22674698701E+03  0.10431385625E+04  0.65864270000E+03 0. -1.
    8880022    1    1    2    0    0 -0.57119657883E+03  0.52597350364E+03  0.83013635094E+03  0.11469226968E+04  0.15294330000E+03 0.  0.
<mgrwt>
<rscale>  0 0.95603089E+03</rscale>
<asrwt>0</asrwt>
<pdfrwt beam="1">  1        2 0.87167532E-01 0.10181964E+04</pdfrwt>
<pdfrwt beam="2">  1       -2 0.24976497E+00 0.10181964E+04</pdfrwt>
<totfact> 0.34172683E+00</totfact>
</mgrwt>
</event>
<event>
 4    2  0.3747163E-007  0.8603912E+03  0.7818608E-02  0.9592868E-01
         -2   -1    0    0    0  501 -0.00000000000E+00  0.00000000000E+00  0.26412831771E+03  0.26412831772E+03  0.25500000000E-02 0.  1.
          2   -1    0    0  501    0  0.00000000000E+00 -0.00000000000E+00 -0.22430448625E+04  0.22430448625E+04  0.25500000000E-02 0. -1.
    8880023    1    1    2    0    0  0.42776132339E+03  0.35140152372E+03 -0.16073120469E+04  0.18231086098E+04  0.65864270000E+03 0. -1.
    8880022    1    1    2    0    0 -0.42776132339E+03 -0.35140152372E+03 -0.37160449788E+03  0.68406457043E+03  0.15294330000E+03 0.  1.
<mgrwt>
<rscale>  0 0.77770028E+03</rscale>
<asrwt>0</asrwt>
<pdfrwt beam="1">  1        2 0.34508381E+00 0.86039118E+03</pdfrwt>
<pdfrwt beam="2">  1       -2 0.40635127E-01 0.86039118E+03</pdfrwt>
<totfact> 0.28648838E+01</totfact>
</mgrwt>
</event>
<event>
 4    2  0.3747163E-007  0.7133628E+03  0.7818608E-02  0.9945719E-01
         -2   -1    0    0    0  501 -0.00000000000E+00  0.00000000000E+00  0.10905691264E+04  0.10905691264E+04  0.25500000000E-02 0.  1.
          2   -1    0    0  501    0  0.00000000000E+00 -0.00000000000E+00 -0.34794435742E+03  0.34794435743E+03  0.25500000000E-02 0. -1.
    8880023    1    1    2    0    0 -0.95656042943E+02  0.25676100020E+03  0.96029899085E+02  0.71979735868E+03  0.65864270000E+03 0. -1.
    8880022    1    1    2    0    0  0.95656042943E+02 -0.25676100020E+03  0.64659486985E+03  0.71871612512E+03  0.15294330000E+03 0.  1.
<mgrwt>
<rscale>  0 0.58095796E+03</rscale>
<asrwt>0</asrwt>
<pdfrwt beam="1">  1        2 0.53529901E-01 0.71336281E+03</pdfrwt>
<pdfrwt beam="2">  1       -2 0.16777986E+00 0.71336281E+03</pdfrwt>
<totfact> 0.20913521E+01</totfact>
</mgrwt>
</event>
<event>
 4    2  0.3747163E-007  0.1000827E+04  0.7818608E-02  0.9380476E-01
          2   -1    0    0  501    0  0.00000000000E+00  0.00000000000E+00  0.17510786872E+04  0.17510786872E+04  0.25500000000E-02 0. -1.
         -2   -1    0    0    0  501 -0.00000000000E+00 -0.00000000000E+00 -0.60285199966E+03  0.60285199966E+03  0.25500000000E-02 0.  1.
    8880023    1    1    2    0    0 -0.35008644969E+03  0.66729655412E+03  0.12242308058E+04  0.15812642049E+04  0.65864270000E+03 0.  0.
    8880022    1    1    2    0    0  0.35008644969E+03 -0.66729655412E+03 -0.76004118281E+02  0.77266648200E+03  0.15294330000E+03 0.  0.
<mgrwt>
<rscale>  0 0.93699995E+03</rscale>
<asrwt>0</asrwt>
<pdfrwt beam="1">  1        2 0.26939672E+00 0.10008274E+04</pdfrwt>
<pdfrwt beam="2">  1       -2 0.92746462E-01 0.10008274E+04</pdfrwt>
<totfact> 0.90372078E+00</totfact>
</mgrwt>
</event>
<event>
 4    2  0.3747163E-007  0.1021936E+04  0.7818608E-02  0.9353406E-01
         -2   -1    0    0    0  501 -0.00000000000E+00  0.00000000000E+00  0.10637678669E+04  0.10637678669E+04  0.25500000000E-02 0.  1.
          2   -1    0    0  501    0  0.00000000000E+00 -0.00000000000E+00 -0.12033172137E+04  0.12033172137E+04  0.25500000000E-02 0. -1.
    8880023    1    1    2    0    0 -0.47564368698E+03 -0.61992346204E+03 -0.74681371412E+03  0.12657341528E+04  0.65864270000E+03 0. -1.
    8880022    1    1    2    0    0  0.47564368698E+03  0.61992346204E+03  0.60726436728E+03  0.10013509278E+04  0.15294330000E+03 0.  0.
<mgrwt>
<rscale>  0 0.96011466E+03</rscale>
<asrwt>0</asrwt>
<pdfrwt beam="1">  1        2 0.18512573E+00 0.10219355E+04</pdfrwt>
<pdfrwt beam="2">  1       -2 0.16365659E+00 0.10219355E+04</pdfrwt>
<totfact> 0.44150212E+00</totfact>
</mgrwt>
</event>
<event>
 4    2  0.3747163E-007  0.8124285E+03  0.7818608E-02  0.9684540E-01
         -2   -1    0    0    0  501 -0.00000000000E+00  0.00000000000E+00  0.56025459665E+03  0.56025459666E+03  0.25500000000E-02 0.  1.
          2   -1    0    0  501    0  0.00000000000E+00 -0.00000000000E+00 -0.14546507865E+04  0.14546507865E+04  0.25500000000E-02 0. -1.
    8880023    1    1    2    0    0  0.46713416406E+03 -0.89529886302E+02 -0.11851209343E+04  0.14368548163E+04  0.65864270000E+03 0.  0.
    8880022    1    1    2    0    0 -0.46713416406E+03  0.89529886302E+02  0.29072474451E+03  0.57805056687E+03  0.15294330000E+03 0.  1.
<mgrwt>
<rscale>  0 0.71944756E+03</rscale>
<asrwt>0</asrwt>
<pdfrwt beam="1">  1        2 0.22379243E+00 0.81242854E+03</pdfrwt>
<pdfrwt beam="2">  1       -2 0.86193016E-01 0.81242854E+03</pdfrwt>
<totfact> 0.15967375E+01</totfact>
</mgrwt>
</event>
<event>
 4    2  0.3747163E-007  0.6645285E+03  0.7818608E-02  0.1019932E+00
          2   -1    0    0  501    0  0.00000000000E+00  0.00000000000E+00  0.50742675243E+03  0.50742675244E+03  0.25500000000E-02 0. -1.
         -2   -1    0    0    0  501 -0.00000000000E+00 -0.00000000000E+00 -0.37296027553E+03  0.37296027554E+03  0.25500000000E-02 0.  1.
    8880023    1    1    2    0    0  0.95945049864E+01 -0.87726004269E+02  0.19691859335E+03  0.69309093561E+03  0.65864270000E+03 0. -1.
    8880022    1    1    2    0    0 -0.95945049864E+01  0.87726004269E+02 -0.62452116454E+02  0.18729609237E+03  0.15294330000E+03 0.  0.
<mgrwt>
<rscale>  0 0.47711047E+03</rscale>
<asrwt>0</asrwt>
<pdfrwt beam="1">  1        2 0.78065654E-01 0.66452849E+03</pdfrwt>
<pdfrwt beam="2">  1       -2 0.57378504E-01 0.66452849E+03</pdfrwt>
<totfact> 0.17462607E+02</totfact>
</mgrwt>
</event>
<event>
 4    2  0.3747163E-007  0.8673963E+03  0.7818608E-02  0.9580540E-01
          2   -1    0    0  501    0  0.00000000000E+00  0.00000000000E+00  0.16250062522E+04  0.16250062522E+04  0.25500000000E-02 0. -1.
         -2   -1    0    0    0  501 -0.00000000000E+00 -0.00000000000E+00 -0.39923814971E+03  0.39923814972E+03  0.25500000000E-02 0.  1.
    8880023    1    1    2    0    0 -0.52279599781E+03  0.21272166232E+03  0.11411420367E+04  0.14333811479E+04  0.65864270000E+03 0.  0.
    8880022    1    1    2    0    0  0.52279599781E+03 -0.21272166232E+03  0.84626065811E+02  0.59086325404E+03  0.15294330000E+03 0.  0.
<mgrwt>
<rscale>  0 0.78597683E+03</rscale>
<asrwt>0</asrwt>
<pdfrwt beam="1">  1        2 0.25000096E+00 0.86739631E+03</pdfrwt>
<pdfrwt beam="2">  1       -2 0.61421254E-01 0.86739631E+03</pdfrwt>
<totfact> 0.26938326E+01</totfact>
</mgrwt>
</event>
<event>
 4    2  0.3747163E-007  0.6950359E+03  0.7818608E-02  0.1001845E+00
         -2   -1    0    0    0  501 -0.00000000000E+00  0.00000000000E+00  0.43682607075E+03  0.43682607076E+03  0.25500000000E-02 0.  1.
          2   -1    0    0  501    0  0.00000000000E+00 -0.00000000000E+00 -0.10406149685E+04  0.10406149685E+04  0.25500000000E-02 0. -1.
    8880023    1    1    2    0    0  0.11476150947E+02  0.22165959574E+03 -0.85986842820E+03  0.11056439746E+04  0.65864270000E+03 0. -1.
    8880022    1    1    2    0    0 -0.11476150947E+02 -0.22165959574E+03  0.25607953042E+03  0.37179706472E+03  0.15294330000E+03 0.  0.
<mgrwt>
<rscale>  0 0.54848481E+03</rscale>
<asrwt>0</asrwt>
<pdfrwt beam="1">  1        2 0.16009461E+00 0.69503589E+03</pdfrwt>
<pdfrwt beam="2">  1       -2 0.67204011E-01 0.69503589E+03</pdfrwt>
<totfact> 0.49222403E+01</totfact>
</mgrwt>
</event>
<event>
 4    2  0.3747163E-007  0.6591306E+03  0.7818608E-02  0.1025065E+00
          2   -1    0    0  501    0  0.00000000000E+00  0.00000000000E+00  0.16082808581E+04  0.16082808581E+04  0.25500000000E-02 0. -1.
         -2   -1    0    0    0  501 -0.00000000000E+00 -0.00000000000E+00 -0.11691577668E+03  0.11691577671E+03  0.25500000000E-02 0.  1.
    8880023    1    1    2    0    0  0.14101612989E+02  0.21074276382E+02  0.13944047691E+04  0.15423416764E+04  0.65864270000E+03 0. -1.
    8880022    1    1    2    0    0 -0.14101612989E+02 -0.21074276382E+02  0.96960312341E+02  0.18285495836E+03  0.15294330000E+03 0.  0.
<mgrwt>
<rscale>  0 0.45902180E+03</rscale>
<asrwt>0</asrwt>
<pdfrwt beam="1">  1        2 0.24742781E+00 0.65913063E+03</pdfrwt>
<pdfrwt beam="2">  1       -2 0.17987044E-01 0.65913063E+03</pdfrwt>
<totfact> 0.28954776E+02</totfact>
</mgrwt>
</event>
<event>
 4    2  0.3747163E-007  0.9575928E+03  0.7818608E-02  0.9439273E-01
         -2   -1    0    0    0  501 -0.00000000000E+00  0.00000000000E+00  0.23912026556E+03  0.23912026558E+03  0.25500000000E-02 0.  1.
          2   -1    0    0  501    0  0.00000000000E+00 -0.00000000000E+00 -0.32333593339E+04  0.32333593339E+04  0.25500000000E-02 0. -1.
    8880023    1    1    2    0    0 -0.69242251855E+03 -0.61031166972E+02 -0.22365724522E+04  0.24329488872E+04  0.65864270000E+03 0.  1.
    8880022    1    1    2    0    0  0.69242251855E+03  0.61031166972E+02 -0.75766661613E+03  0.10395307123E+04  0.15294330000E+03 0.  0.
<mgrwt>
<rscale>  0 0.88912965E+03</rscale>
<asrwt>0</asrwt>
<pdfrwt beam="1">  1        2 0.49743986E+00 0.95759279E+03</pdfrwt>
<pdfrwt beam="2">  1       -2 0.36787736E-01 0.95759279E+03</pdfrwt>
<totfact> 0.88853630E+00</totfact>
</mgrwt>
</event>
<event>
 4    2  0.3747163E-007  0.1001164E+04  0.7818608E-02  0.9380036E-01
         -2   -1    0    0    0  501 -0.00000000000E+00  0.00000000000E+00  0.62415580818E+03  0.62415580819E+03  0.25500000000E-02 0.  1.
          2   -1    0    0  501    0  0.00000000000E+00 -0.00000000000E+00 -0.12755422643E+04  0.12755422643E+04  0.25500000000E-02 0. -1.
    8880023    1    1    2    0    0  0.25350393996E+03 -0.71010925609E+03 -0.24989212458E+03  0.10318796845E+04  0.65864270000E+03 0.  0.
    8880022    1    1    2    0    0 -0.25350393996E+03  0.71010925609E+03 -0.40149433150E+03  0.86781838792E+03  0.15294330000E+03 0.  0.
<mgrwt>
<rscale>  0 0.93736993E+03</rscale>
<asrwt>0</asrwt>
<pdfrwt beam="1">  1        2 0.19623727E+00 0.10011641E+04</pdfrwt>
<pdfrwt beam="2">  1       -2 0.96023971E-01 0.10011641E+04</pdfrwt>
<totfact> 0.15444643E+01</totfact>
</mgrwt>
</event>
<event>
 4    2  0.3747163E-007  0.7712389E+03  0.7818608E-02  0.9776835E-01
          2   -1    0    0  501    0  0.00000000000E+00  0.00000000000E+00  0.13159771583E+04  0.13159771583E+04  0.25500000000E-02 0. -1.
         -2   -1    0    0    0  501 -0.00000000000E+00 -0.00000000000E+00 -0.31571937532E+03  0.31571937533E+03  0.25500000000E-02 0.  1.
    8880023    1    1    2    0    0  0.23492796343E+03 -0.32528153200E+03  0.91008628588E+03  0.11929235001E+04  0.65864270000E+03 0. -1.
    8880022    1    1    2    0    0 -0.23492796343E+03  0.32528153200E+03  0.90171497105E+02  0.43877303355E+03  0.15294330000E+03 0.  0.
<mgrwt>
<rscale>  0 0.66620689E+03</rscale>
<asrwt>0</asrwt>
<pdfrwt beam="1">  1        2 0.20245803E+00 0.77123889E+03</pdfrwt>
<pdfrwt beam="2">  1       -2 0.48572211E-01 0.77123889E+03</pdfrwt>
<totfact> 0.66007635E+01</totfact>
</mgrwt>
</event>
<event>
 4    2  0.3747163E-007  0.9735876E+03  0.7818608E-02  0.9416959E-01
         -2   -1    0    0    0  501 -0.00000000000E+00  0.00000000000E+00  0.12290264338E+04  0.12290264338E+04  0.25500000000E-02 0.  1.
          2   -1    0    0  501    0  0.00000000000E+00 -0.00000000000E+00 -0.11393379097E+04  0.11393379097E+04  0.25500000000E-02 0. -1.
    8880023    1    1    2    0    0 -0.62081413580E+03  0.35868161263E+03 -0.76801091341E+03  0.12400458297E+04  0.65864270000E+03 0.  0.
    8880022    1    1    2    0    0  0.62081413580E+03 -0.35868161263E+03  0.85769943748E+03  0.11283185138E+04  0.15294330000E+03 0.  0.
<mgrwt>
<rscale>  0 0.90693046E+03</rscale>
<asrwt>0</asrwt>
<pdfrwt beam="1">  1        2 0.17528276E+00 0.97358764E+03</pdfrwt>
<pdfrwt beam="2">  1       -2 0.18908099E+00 0.97358764E+03</pdfrwt>
<totfact> 0.32226927E+00</totfact>
</mgrwt>
</event>
<event>
 4    2  0.3747163E-007  0.7152966E+03  0.7818608E-02  0.9938834E-01
         -2   -1    0    0    0  501 -0.00000000000E+00  0.00000000000E+00  0.11292967907E+04  0.11292967907E+04  0.25500000000E-02 0.  1.
          2   -1    0    0  501    0  0.00000000000E+00 -0.00000000000E+00 -0.10358192605E+04  0.10358192605E+04  0.25500000000E-02 0. -1.
    8880023    1    1    2    0    0  0.21006105664E+03  0.18361203624E+03 -0.88400721024E+03  0.11371534555E+04  0.65864270000E+03 0.  0.
    8880022    1    1    2    0    0 -0.21006105664E+03 -0.18361203624E+03  0.97748474039E+03  0.10279625957E+04  0.15294330000E+03 0.  1.
<mgrwt>
<rscale>  0 0.58415573E+03</rscale>
<asrwt>0</asrwt>
<pdfrwt beam="1">  1        2 0.15935681E+00 0.71529661E+03</pdfrwt>
<pdfrwt beam="2">  1       -2 0.17373797E+00 0.71529661E+03</pdfrwt>
<totfact> 0.49173153E+00</totfact>
</mgrwt>
</event>
<event>
 4    2  0.3747163E-007  0.7464523E+03  0.7818608E-02  0.9841535E-01
          2   -1    0    0  501    0  0.00000000000E+00  0.00000000000E+00  0.83411944591E+03  0.83411944592E+03  0.25500000000E-02 0. -1.
         -2   -1    0    0    0  501 -0.00000000000E+00 -0.00000000000E+00 -0.10100283821E+04  0.10100283821E+04  0.25500000000E-02 0.  1.
    8880023    1    1    2    0    0  0.14665122209E+03 -0.31917743104E+03  0.61380639338E+03  0.96641052780E+03  0.65864270000E+03 0.  1.
    8880022    1    1    2    0    0 -0.14665122209E+03  0.31917743104E+03 -0.78971532959E+03  0.87773730024E+03  0.15294330000E+03 0.  0.
<mgrwt>
<rscale>  0 0.63180363E+03</rscale>
<asrwt>0</asrwt>
<pdfrwt beam="1">  1        2 0.12832607E+00 0.74645229E+03</pdfrwt>
<pdfrwt beam="2">  1       -2 0.15538898E+00 0.74645229E+03</pdfrwt>
<totfact> 0.90337394E+00</totfact>
</mgrwt>
</event>
<event>
 4    2  0.3747163E-007  0.6725983E+03  0.7818608E-02  0.1013865E+00
         -2   -1    0    0    0  501 -0.00000000000E+00  0.00000000000E+00  0.66351400981E+02  0.66351401030E+02  0.25500000000E-02 0.  1.
          2   -1    0    0  501    0  0.00000000000E+00 -0.00000000000E+00 -0.33351533522E+04  0.33351533522E+04  0.25500000000E-02 0. -1.
    8880023    1    1    2    0    0 -0.65515160902E+02 -0.11952395798E+03 -0.29246314970E+04  0.30009761433E+04  0.65864270000E+03 0. -1.
    8880022    1    1    2    0    0  0.65515160902E+02  0.11952395798E+03 -0.34417045418E+03  0.40052860995E+03  0.15294330000E+03 0.  0.
<mgrwt>
<rscale>  0 0.49967084E+03</rscale>
<asrwt>0</asrwt>
<pdfrwt beam="1">  1        2 0.51310039E+00 0.67259826E+03</pdfrwt>
<pdfrwt beam="2">  1       -2 0.10207910E-01 0.67259826E+03</pdfrwt>
<totfact> 0.75702971E+01</totfact>
</mgrwt>
</event>
<event>
 4    2  0.3747163E-007  0.7110453E+03  0.7818608E-02  0.9954140E-01
          2   -1    0    0  501    0  0.00000000000E+00  0.00000000000E+00  0.15396833667E+04  0.15396833667E+04  0.25500000000E-02 0. -1.
         -2   -1    0    0    0  501 -0.00000000000E+00 -0.00000000000E+00 -0.40686922807E+03  0.40686922807E+03  0.25500000000E-02 0.  1.
    8880023    1    1    2    0    0  0.25615296044E+03  0.78491510168E+02  0.13792287465E+04  0.15517272305E+04  0.65864270000E+03 0. -1.
    8880022    1    1    2    0    0 -0.25615296044E+03 -0.78491510168E+02 -0.24641460788E+03  0.39482536431E+03  0.15294330000E+03 0.  0.
<mgrwt>
<rscale>  0 0.57707693E+03</rscale>
<asrwt>0</asrwt>
<pdfrwt beam="1">  1        2 0.23687437E+00 0.71104533E+03</pdfrwt>
<pdfrwt beam="2">  1       -2 0.62595265E-01 0.71104533E+03</pdfrwt>
<totfact> 0.29356920E+01</totfact>
</mgrwt>
</event>
<event>
 4    2  0.3747163E-007  0.7338398E+03  0.7818608E-02  0.9878269E-01
         -2   -1    0    0    0  501 -0.00000000000E+00  0.00000000000E+00  0.25455052482E+03  0.25455052483E+03  0.25500000000E-02 0.  1.
          2   -1    0    0  501    0  0.00000000000E+00 -0.00000000000E+00 -0.18776047576E+04  0.18776047576E+04  0.25500000000E-02 0. -1.
    8880023    1    1    2    0    0 -0.32193683198E+03 -0.32670499768E+02 -0.16152745002E+04  0.17741568710E+04  0.65864270000E+03 0. -1.
    8880022    1    1    2    0    0  0.32193683198E+03  0.32670499768E+02 -0.77797324984E+01  0.35799841144E+03  0.15294330000E+03 0.  0.
<mgrwt>
<rscale>  0 0.61326134E+03</rscale>
<asrwt>0</asrwt>
<pdfrwt beam="1">  1        2 0.28886226E+00 0.73383983E+03</pdfrwt>
<pdfrwt beam="2">  1       -2 0.39161620E-01 0.73383983E+03</pdfrwt>
<totfact> 0.49600855E+01</totfact>
</mgrwt>
</event>
<event>
 4    2  0.3747163E-007  0.7217860E+03  0.7818608E-02  0.9916589E-01
          2   -1    0    0  501    0  0.00000000000E+00  0.00000000000E+00  0.22505432930E+04  0.22505432930E+04  0.25500000000E-02 0. -1.
         -2   -1    0    0    0  501 -0.00000000000E+00 -0.00000000000E+00 -0.12500299857E+03  0.12500299860E+03  0.25500000000E-02 0.  1.
    8880023    1    1    2    0    0  0.24547074863E+03 -0.16403926285E+03  0.15726484990E+04  0.17303751835E+04  0.65864270000E+03 0. -1.
    8880022    1    1    2    0    0 -0.24547074863E+03  0.16403926285E+03  0.55289179549E+03  0.64517110810E+03  0.15294330000E+03 0.  1.
<mgrwt>
<rscale>  0 0.59464027E+03</rscale>
<asrwt>0</asrwt>
<pdfrwt beam="1">  1        2 0.34623740E+00 0.72178596E+03</pdfrwt>
<pdfrwt beam="2">  1       -2 0.19231232E-01 0.72178596E+03</pdfrwt>
<totfact> 0.11434128E+02</totfact>
</mgrwt>
</event>
<event>
 4    2  0.3747163E-007  0.8196277E+03  0.7818608E-02  0.9669861E-01
         -2   -1    0    0    0  501 -0.00000000000E+00  0.00000000000E+00  0.10008824705E+04  0.10008824706E+04  0.25500000000E-02 0.  1.
          2   -1    0    0  501    0  0.00000000000E+00 -0.00000000000E+00 -0.44469631068E+03  0.44469631069E+03  0.25500000000E-02 0. -1.
    8880023    1    1    2    0    0 -0.29861094933E+03  0.38576013656E+03  0.29183159822E+03  0.87003176379E+03  0.65864270000E+03 0.  0.
    8880022    1    1    2    0    0  0.29861094933E+03 -0.38576013656E+03  0.26435456164E+03  0.57554701745E+03  0.15294330000E+03 0. -1.
<mgrwt>
<rscale>  0 0.72839953E+03</rscale>
<asrwt>0</asrwt>
<pdfrwt beam="1">  1        2 0.68414818E-01 0.81962771E+03</pdfrwt>
<pdfrwt beam="2">  1       -2 0.15398192E+00 0.81962771E+03</pdfrwt>
<totfact> 0.19851991E+01</totfact>
</mgrwt>
</event>
<event>
 4    2  0.3747163E-007  0.6696684E+03  0.7818608E-02  0.1015902E+00
         -2   -1    0    0    0  501 -0.00000000000E+00  0.00000000000E+00  0.16111383839E+03  0.16111383841E+03  0.25500000000E-02 0.  1.
          2   -1    0    0  501    0  0.00000000000E+00 -0.00000000000E+00 -0.25750380194E+04  0.25750380194E+04  0.25500000000E-02 0. -1.
    8880023    1    1    2    0    0 -0.53495517445E+02  0.10855344622E+03 -0.24481951313E+04  0.25381322322E+04  0.65864270000E+03 0. -1.
    8880022    1    1    2    0    0  0.53495517445E+02 -0.10855344622E+03  0.34270950284E+02  0.19801962560E+03  0.15294330000E+03 0.  0.
<mgrwt>
<rscale>  0 0.49195010E+03</rscale>
<asrwt>0</asrwt>
<pdfrwt beam="1">  1        2 0.39615967E+00 0.66966845E+03</pdfrwt>
<pdfrwt beam="2">  1       -2 0.24786746E-01 0.66966845E+03</pdfrwt>
<totfact> 0.48346954E+01</totfact>
</mgrwt>
</event>
<event>
 4    2  0.3747163E-007  0.7452001E+03  0.7818608E-02  0.9845050E-01
          2   -1    0    0  501    0  0.00000000000E+00  0.00000000000E+00  0.68340363301E+03  0.68340363302E+03  0.25500000000E-02 0. -1.
         -2   -1    0    0    0  501 -0.00000000000E+00 -0.00000000000E+00 -0.65240049900E+03  0.65240049901E+03  0.25500000000E-02 0.  1.
    8880023    1    1    2    0    0 -0.49198517764E+02  0.34509776706E+03 -0.32649699423E+03  0.81358678485E+03  0.65864270000E+03 0.  1.
    8880022    1    1    2    0    0  0.49198517764E+02 -0.34509776706E+03  0.35750012824E+03  0.52221734717E+03  0.15294330000E+03 0.  0.
<mgrwt>
<rscale>  0 0.62999913E+03</rscale>
<asrwt>0</asrwt>
<pdfrwt beam="1">  1        2 0.10513902E+00 0.74520009E+03</pdfrwt>
<pdfrwt beam="2">  1       -2 0.10036931E+00 0.74520009E+03</pdfrwt>
<totfact> 0.35049893E+01</totfact>
</mgrwt>
</event>
<event>
 4    2  0.3747163E-007  0.1025315E+04  0.7818608E-02  0.9349163E-01
         -2   -1    0    0    0  501 -0.00000000000E+00  0.00000000000E+00  0.29741979920E+04  0.29741979920E+04  0.25500000000E-02 0.  1.
          2   -1    0    0  501    0  0.00000000000E+00 -0.00000000000E+00 -0.72582331361E+03  0.72582331361E+03  0.25500000000E-02 0. -1.
    8880023    1    1    2    0    0  0.66369159958E+03  0.42068221330E+03 -0.26768258914E+03  0.10596811967E+04  0.65864270000E+03 0. -1.
    8880022    1    1    2    0    0 -0.66369159958E+03 -0.42068221330E+03  0.25160572675E+04  0.26403401088E+04  0.15294330000E+03 0.  0.
<mgrwt>
<rscale>  0 0.96380148E+03</rscale>
<asrwt>0</asrwt>
<pdfrwt beam="1">  1        2 0.11166513E+00 0.10253147E+04</pdfrwt>
<pdfrwt beam="2">  1       -2 0.45756892E+00 0.10253147E+04</pdfrwt>
<totfact> 0.12270675E-01</totfact>
</mgrwt>
</event>
<event>
 4    2  0.3747163E-007  0.7796669E+03  0.7818608E-02  0.9756620E-01
          2   -1    0    0  501    0  0.00000000000E+00  0.00000000000E+00  0.82018905332E+03  0.82018905333E+03  0.25500000000E-02 0. -1.
         -2   -1    0    0    0  501 -0.00000000000E+00 -0.00000000000E+00 -0.69664883934E+03  0.69664883935E+03  0.25500000000E-02 0.  1.
    8880023    1    1    2    0    0 -0.23432871544E+03  0.34519604293E+03  0.50689820044E+03  0.92996034690E+03  0.65864270000E+03 0.  0.
    8880022    1    1    2    0    0  0.23432871544E+03 -0.34519604293E+03 -0.38335798646E+03  0.58687754577E+03  0.15294330000E+03 0.  0.
<mgrwt>
<rscale>  0 0.67743438E+03</rscale>
<asrwt>0</asrwt>
<pdfrwt beam="1">  1        2 0.12618293E+00 0.77966689E+03</pdfrwt>
<pdfrwt beam="2">  1       -2 0.10717674E+00 0.77966689E+03</pdfrwt>
<totfact> 0.23583574E+01</totfact>
</mgrwt>
</event>
<event>
 4    2  0.3747163E-007  0.1440977E+04  0.7818608E-02  0.8952479E-01
         -2   -1    0    0    0  501 -0.00000000000E+00  0.00000000000E+00  0.45593811298E+03  0.45593811299E+03  0.25500000000E-02 0.  1.
          2   -1    0    0  501    0  0.00000000000E+00 -0.00000000000E+00 -0.46799629122E+04  0.46799629122E+04  0.25500000000E-02 0. -1.
    8880023    1    1    2    0    0 -0.10208182829E+04 -0.77494158653E+03 -0.13043360030E+04  0.19436324354E+04  0.65864270000E+03 0.  0.
    8880022    1    1    2    0    0  0.10208182829E+04  0.77494158653E+03 -0.29196887962E+04  0.31922685897E+04  0.15294330000E+03 0.  0.
<mgrwt>
<rscale>  0 0.14018516E+04</rscale>
<asrwt>0</asrwt>
<pdfrwt beam="1">  1        2 0.71999426E+00 0.14409770E+04</pdfrwt>
<pdfrwt beam="2">  1       -2 0.70144328E-01 0.14409770E+04</pdfrwt>
<totfact> 0.14931538E-01</totfact>
</mgrwt>
</event>
<event>
 4    2  0.3747163E-007  0.7323699E+03  0.7818608E-02  0.9882758E-01
          2   -1    0    0  501    0  0.00000000000E+00  0.00000000000E+00  0.18254802420E+04  0.18254802420E+04  0.25500000000E-02 0. -1.
         -2   -1    0    0    0  501 -0.00000000000E+00 -0.00000000000E+00 -0.34786514973E+03  0.34786514974E+03  0.25500000000E-02 0.  1.
    8880023    1    1    2    0    0 -0.25337504067E+03  0.19584818755E+03  0.16301157557E+04  0.17870766651E+04  0.65864270000E+03 0. -1.
    8880022    1    1    2    0    0  0.25337504067E+03 -0.19584818755E+03 -0.15250066343E+03  0.38626872662E+03  0.15294330000E+03 0.  0.
<mgrwt>
<rscale>  0 0.61104242E+03</rscale>
<asrwt>0</asrwt>
<pdfrwt beam="1">  1        2 0.28084312E+00 0.73236987E+03</pdfrwt>
<pdfrwt beam="2">  1       -2 0.53517715E-01 0.73236987E+03</pdfrwt>
<totfact> 0.28351378E+01</totfact>
</mgrwt>
</event>
<event>
 4    2  0.3747163E-007  0.8982670E+03  0.7818608E-02  0.9528819E-01
          2   -1    0    0  501    0  0.00000000000E+00  0.00000000000E+00  0.21314644004E+04  0.21314644004E+04  0.25500000000E-02 0. -1.
         -2   -1    0    0    0  501 -0.00000000000E+00 -0.00000000000E+00 -0.65608300850E+03  0.65608300851E+03  0.25500000000E-02 0.  1.
    8880023    1    1    2    0    0 -0.23737143117E+03 -0.56278607543E+03  0.18488170086E+04  0.20554824010E+04  0.65864270000E+03 0. -1.
    8880022    1    1    2    0    0  0.23737143117E+03  0.56278607543E+03 -0.37343561671E+03  0.73206500796E+03  0.15294330000E+03 0.  0.
<mgrwt>
<rscale>  0 0.82192026E+03</rscale>
<asrwt>0</asrwt>
<pdfrwt beam="1">  1        2 0.32791760E+00 0.89826698E+03</pdfrwt>
<pdfrwt beam="2">  1       -2 0.10093585E+00 0.89826698E+03</pdfrwt>
<totfact> 0.46310057E+00</totfact>
</mgrwt>
</event>
<event>
 4    2  0.3747163E-007  0.7370095E+03  0.7818608E-02  0.9868745E-01
          2   -1    0    0  501    0  0.00000000000E+00  0.00000000000E+00  0.19806008479E+04  0.19806008479E+04  0.25500000000E-02 0. -1.
         -2   -1    0    0    0  501 -0.00000000000E+00 -0.00000000000E+00 -0.34312288933E+03  0.34312288934E+03  0.25500000000E-02 0.  1.
    8880023    1    1    2    0    0  0.33023807853E+03 -0.17766926093E+02  0.17845817526E+04  0.19307809534E+04  0.65864270000E+03 0. -1.
    8880022    1    1    2    0    0 -0.33023807853E+03  0.17766926093E+02 -0.14710379397E+03  0.39294278386E+03  0.15294330000E+03 0.  0.
<mgrwt>
<rscale>  0 0.61800228E+03</rscale>
<asrwt>0</asrwt>
<pdfrwt beam="1">  1        2 0.30470782E+00 0.73700954E+03</pdfrwt>
<pdfrwt beam="2">  1       -2 0.52788138E-01 0.73700954E+03</pdfrwt>
<totfact> 0.23993511E+01</totfact>
</mgrwt>
</event>
<event>
 4    2  0.3747163E-007  0.6822564E+03  0.7818608E-02  0.1008075E+00
          2   -1    0    0  501    0  0.00000000000E+00  0.00000000000E+00  0.41995849460E+03  0.41995849461E+03  0.25500000000E-02 0. -1.
         -2   -1    0    0    0  501 -0.00000000000E+00 -0.00000000000E+00 -0.50048854628E+03  0.50048854628E+03  0.25500000000E-02 0.  1.
    8880023    1    1    2    0    0 -0.49962474293E+02  0.17078436294E+03 -0.57096912892E+02  0.68464137414E+03  0.65864270000E+03 0.  0.
    8880022    1    1    2    0    0  0.49962474293E+02 -0.17078436294E+03 -0.23433138787E+02  0.23580566675E+03  0.15294330000E+03 0. -1.
<mgrwt>
<rscale>  0 0.52246896E+03</rscale>
<asrwt>0</asrwt>
<pdfrwt beam="1">  1        2 0.64608999E-01 0.68225637E+03</pdfrwt>
<pdfrwt beam="2">  1       -2 0.76998238E-01 0.68225637E+03</pdfrwt>
<totfact> 0.11489846E+02</totfact>
</mgrwt>
</event>
<event>
 4    2  0.3747163E-007  0.8013188E+03  0.7818608E-02  0.9707952E-01
          2   -1    0    0  501    0  0.00000000000E+00  0.00000000000E+00  0.16001537131E+04  0.16001537131E+04  0.25500000000E-02 0. -1.
         -2   -1    0    0    0  501 -0.00000000000E+00 -0.00000000000E+00 -0.39923990613E+03  0.39923990613E+03  0.25500000000E-02 0.  1.
    8880023    1    1    2    0    0 -0.33441173426E+03  0.31059682164E+03  0.12814419553E+04  0.15113587544E+04  0.65864270000E+03 0.  0.
    8880022    1    1    2    0    0  0.33441173426E+03 -0.31059682164E+03 -0.80528148257E+02  0.48803486484E+03  0.15294330000E+03 0.  0.
<mgrwt>
<rscale>  0 0.70545313E+03</rscale>
<asrwt>0</asrwt>
<pdfrwt beam="1">  1        2 0.24617750E+00 0.80131879E+03</pdfrwt>
<pdfrwt beam="2">  1       -2 0.61421524E-01 0.80131879E+03</pdfrwt>
<totfact> 0.28002361E+01</totfact>
</mgrwt>
</event>
<event>
 4    2  0.3747163E-007  0.8326787E+03  0.7818608E-02  0.9644143E-01
         -2   -1    0    0    0  501 -0.00000000000E+00  0.00000000000E+00  0.26047974434E+03  0.26047974436E+03  0.25500000000E-02 0.  1.
          2   -1    0    0  501    0  0.00000000000E+00 -0.00000000000E+00 -0.31924410481E+04  0.31924410481E+04  0.25500000000E-02 0. -1.
    8880023    1    1    2    0    0 -0.37938855437E+03  0.34001167019E+03 -0.27766158149E+04  0.28987840900E+04  0.65864270000E+03 0. -1.
    8880022    1    1    2    0    0  0.37938855437E+03 -0.34001167019E+03 -0.15534548891E+03  0.55413670244E+03  0.15294330000E+03 0.  0.
<mgrwt>
<rscale>  0 0.74442162E+03</rscale>
<asrwt>0</asrwt>
<pdfrwt beam="1">  1        2 0.49114475E+00 0.83267870E+03</pdfrwt>
<pdfrwt beam="2">  1       -2 0.40073809E-01 0.83267870E+03</pdfrwt>
<totfact> 0.81515966E+00</totfact>
</mgrwt>
</event>
<event>
 4    2  0.3747163E-007  0.1249719E+04  0.7818608E-02  0.9110244E-01
          2   -1    0    0  501    0  0.00000000000E+00  0.00000000000E+00  0.17890599531E+04  0.17890599531E+04  0.25500000000E-02 0. -1.
         -2   -1    0    0    0  501 -0.00000000000E+00 -0.00000000000E+00 -0.79162321183E+03  0.79162321183E+03  0.25500000000E-02 0.  1.
    8880023    1    1    2    0    0 -0.91532644190E+03  0.53867008778E+03  0.25397401526E+03  0.12752650569E+04  0.65864270000E+03 0.  0.
    8880022    1    1    2    0    0  0.91532644190E+03 -0.53867008778E+03  0.74346272597E+03  0.13054181080E+04  0.15294330000E+03 0.  0.
<mgrwt>
<rscale>  0 0.12029890E+04</rscale>
<asrwt>0</asrwt>
<pdfrwt beam="1">  1        2 0.27523999E+00 0.12497192E+04</pdfrwt>
<pdfrwt beam="2">  1       -2 0.12178819E+00 0.12497192E+04</pdfrwt>
<totfact> 0.43459915E+00</totfact>
</mgrwt>
</event>
<event>
 4    2  0.3747163E-007  0.7275165E+03  0.7818608E-02  0.9897928E-01
         -2   -1    0    0    0  501 -0.00000000000E+00  0.00000000000E+00  0.71165880264E+03  0.71165880265E+03  0.25500000000E-02 0.  1.
          2   -1    0    0  501    0  0.00000000000E+00 -0.00000000000E+00 -0.52484525219E+03  0.52484525220E+03  0.25500000000E-02 0. -1.
    8880023    1    1    2    0    0  0.29290838311E+03 -0.98360343979E+02 -0.16278301100E+03  0.74550559562E+03  0.65864270000E+03 0.  0.
    8880022    1    1    2    0    0 -0.29290838311E+03  0.98360343979E+02  0.34959656146E+03  0.49099845922E+03  0.15294330000E+03 0.  0.
<mgrwt>
<rscale>  0 0.60361830E+03</rscale>
<asrwt>0</asrwt>
<pdfrwt beam="1">  1        2 0.80745425E-01 0.72751652E+03</pdfrwt>
<pdfrwt beam="2">  1       -2 0.10948597E+00 0.72751652E+03</pdfrwt>
<totfact> 0.39196134E+01</totfact>
</mgrwt>
</event>
<event>
 4    2  0.3747163E-007  0.7618531E+03  0.7818608E-02  0.9800333E-01
         -2   -1    0    0    0  501 -0.00000000000E+00  0.00000000000E+00  0.84857454529E+03  0.84857454529E+03  0.25500000000E-02 0.  1.
          2   -1    0    0  501    0  0.00000000000E+00 -0.00000000000E+00 -0.54306545695E+03  0.54306545695E+03  0.25500000000E-02 0. -1.
    8880023    1    1    2    0    0 -0.23155126062E+03  0.30494919563E+03 -0.15081074427E+03  0.77663639180E+03  0.65864270000E+03 0.  0.
    8880022    1    1    2    0    0  0.23155126062E+03 -0.30494919563E+03  0.45631983261E+03  0.61500361045E+03  0.15294330000E+03 0.  0.
<mgrwt>
<rscale>  0 0.65344658E+03</rscale>
<asrwt>0</asrwt>
<pdfrwt beam="1">  1        2 0.83548532E-01 0.76185314E+03</pdfrwt>
<pdfrwt beam="2">  1       -2 0.13054993E+00 0.76185314E+03</pdfrwt>
<totfact> 0.24298473E+01</totfact>
</mgrwt>
</event>
<event>
 4    2  0.3747163E-007  0.8276141E+03  0.7818608E-02  0.9653992E-01
          2   -1    0    0  501    0  0.00000000000E+00  0.00000000000E+00  0.19274704210E+04  0.19274704210E+04  0.25500000000E-02 0. -1.
         -2   -1    0    0    0  501 -0.00000000000E+00 -0.00000000000E+00 -0.50076720703E+03  0.50076720704E+03  0.25500000000E-02 0.  1.
    8880023    1    1    2    0    0 -0.36871592109E+03  0.33938699106E+03  0.16598631287E+04  0.18547481696E+04  0.65864270000E+03 0. -1.
    8880022    1    1    2    0    0  0.36871592109E+03 -0.33938699106E+03 -0.23315991472E+03  0.57348945850E+03  0.15294330000E+03 0.  0.
<mgrwt>
<rscale>  0 0.73823390E+03</rscale>
<asrwt>0</asrwt>
<pdfrwt beam="1">  1        2 0.29653392E+00 0.82761414E+03</pdfrwt>
<pdfrwt beam="2">  1       -2 0.77041107E-01 0.82761414E+03</pdfrwt>
<totfact> 0.11274391E+01</totfact>
</mgrwt>
</event>
<event>
 4    2  0.3747163E-007  0.1056827E+04  0.7818608E-02  0.9310720E-01
          2   -1    0    0  501    0  0.00000000000E+00  0.00000000000E+00  0.24739938270E+04  0.24739938270E+04  0.25500000000E-02 0. -1.
         -2   -1    0    0    0  501 -0.00000000000E+00 -0.00000000000E+00 -0.48140560054E+03  0.48140560054E+03  0.25500000000E-02 0.  1.
    8880023    1    1    2    0    0  0.73010688772E+03  0.38731925038E+03  0.18089817755E+04  0.20950650442E+04  0.65864270000E+03 0. -1.
    8880022    1    1    2    0    0 -0.73010688772E+03 -0.38731925038E+03  0.18360645093E+03  0.86033438328E+03  0.15294330000E+03 0.  0.
<mgrwt>
<rscale>  0 0.99801956E+03</rscale>
<asrwt>0</asrwt>
<pdfrwt beam="1">  1        2 0.38061444E+00 0.10568266E+04</pdfrwt>
<pdfrwt beam="2">  1       -2 0.74062399E-01 0.10568266E+04</pdfrwt>
<totfact> 0.59356467E+00</totfact>
</mgrwt>
</event>
<event>
 4    2  0.3747163E-007  0.8786711E+03  0.7818608E-02  0.9561177E-01
         -2   -1    0    0    0  501 -0.00000000000E+00  0.00000000000E+00  0.79133980567E+03  0.79133980568E+03  0.25500000000E-02 0.  1.
          2   -1    0    0  501    0  0.00000000000E+00 -0.00000000000E+00 -0.24038098098E+04  0.24038098098E+04  0.25500000000E-02 0. -1.
    8880023    1    1    2    0    0  0.68574143374E+02  0.57753808528E+03 -0.21910341368E+04  0.23606553005E+04  0.65864270000E+03 0.  0.
    8880022    1    1    2    0    0 -0.68574143374E+02 -0.57753808528E+03  0.57856413265E+03  0.83449431496E+03  0.15294330000E+03 0.  0.
<mgrwt>
<rscale>  0 0.79919904E+03</rscale>
<asrwt>0</asrwt>
<pdfrwt beam="1">  1        2 0.36981689E+00 0.87867108E+03</pdfrwt>
<pdfrwt beam="2">  1       -2 0.12174459E+00 0.87867108E+03</pdfrwt>
<totfact> 0.20749343E+00</totfact>
</mgrwt>
</event>
<event>
 4    2  0.3747163E-007  0.6991412E+03  0.7818608E-02  0.1000078E+00
          2   -1    0    0  501    0  0.00000000000E+00  0.00000000000E+00  0.21906774600E+04  0.21906774600E+04  0.25500000000E-02 0. -1.
         -2   -1    0    0    0  501 -0.00000000000E+00 -0.00000000000E+00 -0.23470433205E+03  0.23470433206E+03  0.25500000000E-02 0.  1.
    8880023    1    1    2    0    0 -0.88511312417E+02 -0.21714973003E+03  0.20205315170E+04  0.21380706431E+04  0.65864270000E+03 0. -1.
    8880022    1    1    2    0    0  0.88511312417E+02  0.21714973003E+03 -0.64558389042E+02  0.28731114891E+03  0.15294330000E+03 0.  0.
<mgrwt>
<rscale>  0 0.55615940E+03</rscale>
<asrwt>0</asrwt>
<pdfrwt beam="1">  1        2 0.33702730E+00 0.69914123E+03</pdfrwt>
<pdfrwt beam="2">  1       -2 0.36108359E-01 0.69914123E+03</pdfrwt>
<totfact> 0.39301526E+01</totfact>
</mgrwt>
</event>
<event>
 4    2  0.3747163E-007  0.8176795E+03  0.7818608E-02  0.9673797E-01
         -2   -1    0    0    0  501 -0.00000000000E+00  0.00000000000E+00  0.97690512979E+03  0.97690512980E+03  0.25500000000E-02 0.  1.
          2   -1    0    0  501    0  0.00000000000E+00 -0.00000000000E+00 -0.47796609172E+03  0.47796609172E+03  0.25500000000E-02 0. -1.
    8880023    1    1    2    0    0  0.46452596867E+03 -0.13785952322E+03  0.13235774732E+03  0.82832264442E+03  0.65864270000E+03 0.  0.
    8880022    1    1    2    0    0 -0.46452596867E+03  0.13785952322E+03  0.36658129076E+03  0.62654857710E+03  0.15294330000E+03 0. -1.
<mgrwt>
<rscale>  0 0.72598549E+03</rscale>
<asrwt>0</asrwt>
<pdfrwt beam="1">  1        2 0.73533246E-01 0.81767954E+03</pdfrwt>
<pdfrwt beam="2">  1       -2 0.15029309E+00 0.81767954E+03</pdfrwt>
<totfact> 0.19492452E+01</totfact>
</mgrwt>
</event>
<event>
 4    2  0.3747163E-007  0.7239348E+03  0.7818608E-02  0.9909490E-01
         -2   -1    0    0    0  501 -0.00000000000E+00  0.00000000000E+00  0.43670225683E+03  0.43670225684E+03  0.25500000000E-02 0.  1.
          2   -1    0    0  501    0  0.00000000000E+00 -0.00000000000E+00 -0.19316027401E+04  0.19316027401E+04  0.25500000000E-02 0. -1.
    8880023    1    1    2    0    0 -0.17474703566E+03 -0.24440713135E+03 -0.17833007250E+04  0.19246410196E+04  0.65864270000E+03 0. -1.
    8880022    1    1    2    0    0  0.17474703566E+03  0.24440713135E+03  0.28840024173E+03  0.44366397732E+03  0.15294330000E+03 0.  0.
<mgrwt>
<rscale>  0 0.59803553E+03</rscale>
<asrwt>0</asrwt>
<pdfrwt beam="1">  1        2 0.29716965E+00 0.72393479E+03</pdfrwt>
<pdfrwt beam="2">  1       -2 0.67184964E-01 0.72393479E+03</pdfrwt>
<totfact> 0.15372129E+01</totfact>
</mgrwt>
</event>
<event>
 4    2  0.3747163E-007  0.7403091E+03  0.7818608E-02  0.9859048E-01
         -2   -1    0    0    0  501 -0.00000000000E+00  0.00000000000E+00  0.11039666890E+04  0.11039666890E+04  0.25500000000E-02 0.  1.
          2   -1    0    0  501    0  0.00000000000E+00 -0.00000000000E+00 -0.43276927156E+03  0.43276927157E+03  0.25500000000E-02 0. -1.
    8880023    1    1    2    0    0  0.18329524948E+03  0.28398986704E+03 -0.32724235321E+02  0.74103203365E+03  0.65864270000E+03 0.  0.
    8880022    1    1    2    0    0 -0.18329524948E+03 -0.28398986704E+03  0.70392165275E+03  0.79570392690E+03  0.15294330000E+03 0.  0.
<mgrwt>
<rscale>  0 0.62287734E+03</rscale>
<asrwt>0</asrwt>
<pdfrwt beam="1">  1        2 0.66579888E-01 0.74030912E+03</pdfrwt>
<pdfrwt beam="2">  1       -2 0.16984103E+00 0.74030912E+03</pdfrwt>
<totfact> 0.15785324E+01</totfact>
</mgrwt>
</event>
<event>
 4    2  0.3747163E-007  0.6863117E+03  0.7818608E-02  0.1005957E+00
         -2   -1    0    0    0  501 -0.00000000000E+00  0.00000000000E+00  0.85936740145E+03  0.85936740145E+03  0.25500000000E-02 0.  1.
          2   -1    0    0  501    0  0.00000000000E+00 -0.00000000000E+00 -0.73902143720E+03  0.73902143721E+03  0.25500000000E-02 0. -1.
    8880023    1    1    2    0    0 -0.53589550341E+02  0.18531532416E+03 -0.55304447294E+03  0.88140910172E+03  0.65864270000E+03 0. -1.
    8880022    1    1    2    0    0  0.53589550341E+02 -0.18531532416E+03  0.67339043719E+03  0.71697973694E+03  0.15294330000E+03 0.  0.
<mgrwt>
<rscale>  0 0.53113493E+03</rscale>
<asrwt>0</asrwt>
<pdfrwt beam="1">  1        2 0.11369561E+00 0.68631175E+03</pdfrwt>
<pdfrwt beam="2">  1       -2 0.13221037E+00 0.68631175E+03</pdfrwt>
<totfact> 0.16244152E+01</totfact>
</mgrwt>
</event>
<event>
 4    2  0.3747163E-007  0.8964589E+03  0.7818608E-02  0.9531740E-01
          2   -1    0    0  501    0  0.00000000000E+00  0.00000000000E+00  0.20247447041E+04  0.20247447041E+04  0.25500000000E-02 0. -1.
         -2   -1    0    0    0  501 -0.00000000000E+00 -0.00000000000E+00 -0.60572726366E+03  0.60572726366E+03  0.25500000000E-02 0.  1.
    8880023    1    1    2    0    0  0.60812467467E+03 -0.35664768499E+01  0.17164391387E+04  0.19364405136E+04  0.65864270000E+03 0. -1.
    8880022    1    1    2    0    0 -0.60812467467E+03  0.35664768499E+01 -0.29742169826E+03  0.69403145412E+03  0.15294330000E+03 0.  0.
<mgrwt>
<rscale>  0 0.81983647E+03</rscale>
<asrwt>0</asrwt>
<pdfrwt beam="1">  1        2 0.31149918E+00 0.89645889E+03</pdfrwt>
<pdfrwt beam="2">  1       -2 0.93188811E-01 0.89645889E+03</pdfrwt>
<totfact> 0.64011326E+00</totfact>
</mgrwt>
</event>
<event>
 4    2  0.3747163E-007  0.1094504E+04  0.7818608E-02  0.9267200E-01
          2   -1    0    0  501    0  0.00000000000E+00  0.00000000000E+00  0.38317848482E+04  0.38317848482E+04  0.25500000000E-02 0. -1.
         -2   -1    0    0    0  501 -0.00000000000E+00 -0.00000000000E+00 -0.46257580926E+03  0.46257580926E+03  0.25500000000E-02 0.  1.
    8880023    1    1    2    0    0 -0.75593717857E+03  0.43896323922E+03  0.32116896773E+04  0.33930650646E+04  0.65864270000E+03 0.  0.
    8880022    1    1    2    0    0  0.75593717857E+03 -0.43896323922E+03  0.15751936164E+03  0.90129559282E+03  0.15294330000E+03 0.  0.
<mgrwt>
<rscale>  0 0.10385943E+04</rscale>
<asrwt>0</asrwt>
<pdfrwt beam="1">  1        2 0.58950537E+00 0.10945044E+04</pdfrwt>
<pdfrwt beam="2">  1       -2 0.71165508E-01 0.10945044E+04</pdfrwt>
<totfact> 0.85770378E-01</totfact>
</mgrwt>
</event>
<event>
 4    2  0.3747163E-007  0.8552019E+03  0.7818608E-02  0.9602156E-01
          2   -1    0    0  501    0  0.00000000000E+00  0.00000000000E+00  0.30846091233E+04  0.30846091233E+04  0.25500000000E-02 0. -1.
         -2   -1    0    0    0  501 -0.00000000000E+00 -0.00000000000E+00 -0.26172603622E+03  0.26172603623E+03  0.25500000000E-02 0.  1.
    8880023    1    1    2    0    0 -0.49148759779E+03 -0.23664315246E+03  0.26008652231E+04  0.27378586806E+04  0.65864270000E+03 0. -1.
    8880022    1    1    2    0    0  0.49148759779E+03  0.23664315246E+03  0.22201786401E+03  0.60847647887E+03  0.15294330000E+03 0.  0.
<mgrwt>
<rscale>  0 0.77153644E+03</rscale>
<asrwt>0</asrwt>
<pdfrwt beam="1">  1        2 0.47455523E+00 0.85520187E+03</pdfrwt>
<pdfrwt beam="2">  1       -2 0.40265545E-01 0.85520187E+03</pdfrwt>
<totfact> 0.94095572E+00</totfact>
</mgrwt>
</event>
<event>
 4    2  0.3747163E-007  0.8859071E+03  0.7818608E-02  0.9549045E-01
          2   -1    0    0  501    0  0.00000000000E+00  0.00000000000E+00  0.26643219611E+04  0.26643219611E+04  0.25500000000E-02 0. -1.
         -2   -1    0    0    0  501 -0.00000000000E+00 -0.00000000000E+00 -0.27080424995E+03  0.27080424996E+03  0.25500000000E-02 0.  1.
    8880023    1    1    2    0    0 -0.47857058560E+03  0.34927260449E+03  0.20503927629E+04  0.22335939304E+04  0.65864270000E+03 0.  0.
    8880022    1    1    2    0    0  0.47857058560E+03 -0.34927260449E+03  0.34312494826E+03  0.70153228064E+03  0.15294330000E+03 0.  0.
<mgrwt>
<rscale>  0 0.80762540E+03</rscale>
<asrwt>0</asrwt>
<pdfrwt beam="1">  1        2 0.40989570E+00 0.88590709E+03</pdfrwt>
<pdfrwt beam="2">  1       -2 0.41662191E-01 0.88590709E+03</pdfrwt>
<totfact> 0.15681909E+01</totfact>
</mgrwt>
</event>
<event>
 4    2  0.3747163E-007  0.1185208E+04  0.7818608E-02  0.9171637E-01
         -2   -1    0    0    0  501 -0.00000000000E+00  0.00000000000E+00  0.12605735583E+04  0.12605735583E+04  0.25500000000E-02 0.  1.
          2   -1    0    0  501    0  0.00000000000E+00 -0.00000000000E+00 -0.12815393142E+04  0.12815393142E+04  0.25500000000E-02 0. -1.
    8880023    1    1    2    0    0  0.93058143318E+03  0.32392327756E+03 -0.66115720731E+03  0.13571466953E+04  0.65864270000E+03 0. -1.
    8880022    1    1    2    0    0 -0.93058143318E+03 -0.32392327756E+03  0.64019145138E+03  0.11849661771E+04  0.15294330000E+03 0.  0.
<mgrwt>
<rscale>  0 0.11351039E+04</rscale>
<asrwt>0</asrwt>
<pdfrwt beam="1">  1        2 0.19715989E+00 0.11852081E+04</pdfrwt>
<pdfrwt beam="2">  1       -2 0.19393439E+00 0.11852081E+04</pdfrwt>
<totfact> 0.24034980E+00</totfact>
</mgrwt>
</event>
<event>
 4    2  0.3747163E-007  0.1317015E+04  0.7818608E-02  0.9051004E-01
         -2   -1    0    0    0  501 -0.00000000000E+00  0.00000000000E+00  0.82007100522E+03  0.82007100522E+03  0.25500000000E-02 0.  1.
          2   -1    0    0  501    0  0.00000000000E+00 -0.00000000000E+00 -0.27539771593E+04  0.27539771593E+04  0.25500000000E-02 0. -1.
    8880023    1    1    2    0    0  0.83216480550E+03  0.77988525016E+03 -0.20295044168E+04  0.24193837337E+04  0.65864270000E+03 0.  0.
    8880022    1    1    2    0    0 -0.83216480550E+03 -0.77988525016E+03  0.95598262709E+02  0.11546644308E+04  0.15294330000E+03 0.  0.
<mgrwt>
<rscale>  0 0.12733086E+04</rscale>
<asrwt>0</asrwt>
<pdfrwt beam="1">  1        2 0.42368879E+00 0.13170154E+04</pdfrwt>
<pdfrwt beam="2">  1       -2 0.12616477E+00 0.13170154E+04</pdfrwt>
<totfact> 0.11191165E+00</totfact>
</mgrwt>
</event>
<event>
 4    2  0.3747163E-007  0.7646110E+03  0.7818608E-02  0.9793313E-01
         -2   -1    0    0    0  501 -0.00000000000E+00  0.00000000000E+00  0.30585473666E+03  0.30585473667E+03  0.25500000000E-02 0.  1.
          2   -1    0    0  501    0  0.00000000000E+00 -0.00000000000E+00 -0.20646252305E+04  0.20646252305E+04  0.25500000000E-02 0. -1.
    8880023    1    1    2    0    0 -0.32237014773E+03 -0.21655760307E+03 -0.17954559135E+04  0.19514845249E+04  0.65864270000E+03 0. -1.
    8880022    1    1    2    0    0  0.32237014773E+03  0.21655760307E+03  0.36685419610E+02  0.41899544225E+03  0.15294330000E+03 0.  0.
<mgrwt>
<rscale>  0 0.65722632E+03</rscale>
<asrwt>0</asrwt>
<pdfrwt beam="1">  1        2 0.31763464E+00 0.76461096E+03</pdfrwt>
<pdfrwt beam="2">  1       -2 0.47054576E-01 0.76461096E+03</pdfrwt>
<totfact> 0.27175780E+01</totfact>
</mgrwt>
</event>
<event>
 4    2  0.3747163E-007  0.7554394E+03  0.7818608E-02  0.9817061E-01
         -2   -1    0    0    0  501 -0.00000000000E+00  0.00000000000E+00  0.65191944651E+03  0.65191944651E+03  0.25500000000E-02 0.  1.
          2   -1    0    0  501    0  0.00000000000E+00 -0.00000000000E+00 -0.65687030806E+03  0.65687030806E+03  0.25500000000E-02 0. -1.
    8880023    1    1    2    0    0 -0.19012849695E+03  0.31737925761E+03 -0.29858988028E+03  0.81230816897E+03  0.65864270000E+03 0.  0.
    8880022    1    1    2    0    0  0.19012849695E+03 -0.31737925761E+03  0.29363901873E+03  0.49648158561E+03  0.15294330000E+03 0.  0.
<mgrwt>
<rscale>  0 0.64454949E+03</rscale>
<asrwt>0</asrwt>
<pdfrwt beam="1">  1        2 0.10105697E+00 0.75543937E+03</pdfrwt>
<pdfrwt beam="2">  1       -2 0.10029530E+00 0.75543937E+03</pdfrwt>
<totfact> 0.36856219E+01</totfact>
</mgrwt>
</event>
<event>
 4    2  0.3747163E-007  0.7967118E+03  0.7818608E-02  0.9717951E-01
         -2   -1    0    0    0  501 -0.00000000000E+00  0.00000000000E+00  0.71360383422E+03  0.71360383422E+03  0.25500000000E-02 0.  1.
          2   -1    0    0  501    0  0.00000000000E+00 -0.00000000000E+00 -0.10193636291E+04  0.10193636291E+04  0.25500000000E-02 0. -1.
    8880023    1    1    2    0    0 -0.44433187666E+03 -0.59234578502E+02 -0.74223793308E+03  0.10888833305E+04  0.65864270000E+03 0. -1.
    8880022    1    1    2    0    0  0.44433187666E+03  0.59234578502E+02  0.43647813824E+03  0.64408413277E+03  0.15294330000E+03 0.  0.
<mgrwt>
<rscale>  0 0.69957965E+03</rscale>
<asrwt>0</asrwt>
<pdfrwt beam="1">  1        2 0.15682517E+00 0.79671184E+03</pdfrwt>
<pdfrwt beam="2">  1       -2 0.10978521E+00 0.79671184E+03</pdfrwt>
<totfact> 0.16352326E+01</totfact>
</mgrwt>
</event>
<event>
 4    2  0.3747163E-007  0.7352788E+03  0.7818608E-02  0.9873919E-01
          2   -1    0    0  501    0  0.00000000000E+00  0.00000000000E+00  0.13498370453E+04  0.13498370453E+04  0.25500000000E-02 0. -1.
         -2   -1    0    0    0  501 -0.00000000000E+00 -0.00000000000E+00 -0.24149340382E+03  0.24149340383E+03  0.25500000000E-02 0.  1.
    8880023    1    1    2    0    0  0.27928585922E+01  0.32682851040E+03  0.93924869343E+03  0.11928214408E+04  0.65864270000E+03 0.  1.
    8880022    1    1    2    0    0 -0.27928585922E+01 -0.32682851040E+03  0.16909494809E+03  0.39850900837E+03  0.15294330000E+03 0. -1.
<mgrwt>
<rscale>  0 0.61542085E+03</rscale>
<asrwt>0</asrwt>
<pdfrwt beam="1">  1        2 0.20766724E+00 0.73527878E+03</pdfrwt>
<pdfrwt beam="2">  1       -2 0.37152832E-01 0.73527878E+03</pdfrwt>
<totfact> 0.10745349E+02</totfact>
</mgrwt>
</event>
<event>
 4    2  0.3747163E-007  0.9073640E+03  0.7818608E-02  0.9514312E-01
          2   -1    0    0  501    0  0.00000000000E+00  0.00000000000E+00  0.15097924318E+04  0.15097924318E+04  0.25500000000E-02 0. -1.
         -2   -1    0    0    0  501 -0.00000000000E+00 -0.00000000000E+00 -0.55192989460E+03  0.55192989461E+03  0.25500000000E-02 0.  1.
    8880023    1    1    2    0    0  0.59216429478E+03  0.19708040532E+03  0.10769263120E+04  0.14082186357E+04  0.65864270000E+03 0. -1.
    8880022    1    1    2    0    0 -0.59216429478E+03 -0.19708040532E+03 -0.11906377489E+03  0.65350369064E+03  0.15294330000E+03 0. -1.
<mgrwt>
<rscale>  0 0.83236838E+03</rscale>
<asrwt>0</asrwt>
<pdfrwt beam="1">  1        2 0.23227576E+00 0.90736401E+03</pdfrwt>
<pdfrwt beam="2">  1       -2 0.84912290E-01 0.90736401E+03</pdfrwt>
<totfact> 0.15227804E+01</totfact>
</mgrwt>
</event>
<event>
 4    2  0.3747163E-007  0.9321523E+03  0.7818608E-02  0.9476272E-01
         -2   -1    0    0    0  501 -0.00000000000E+00  0.00000000000E+00  0.60702054687E+03  0.60702054687E+03  0.25500000000E-02 0.  1.
          2   -1    0    0  501    0  0.00000000000E+00 -0.00000000000E+00 -0.16258113408E+04  0.16258113408E+04  0.25500000000E-02 0. -1.
    8880023    1    1    2    0    0 -0.31323764206E+03 -0.58049973314E+03 -0.12117037866E+04  0.15287687965E+04  0.65864270000E+03 0.  0.
    8880022    1    1    2    0    0  0.31323764206E+03  0.58049973314E+03  0.19291299263E+03  0.70406309115E+03  0.15294330000E+03 0.  0.
<mgrwt>
<rscale>  0 0.86056035E+03</rscale>
<asrwt>0</asrwt>
<pdfrwt beam="1">  1        2 0.25012482E+00 0.93215233E+03</pdfrwt>
<pdfrwt beam="2">  1       -2 0.93387777E-01 0.93215233E+03</pdfrwt>
<totfact> 0.10507602E+01</totfact>
</mgrwt>
</event>
<event>
 4    2  0.3747163E-007  0.6919155E+03  0.7818608E-02  0.1003255E+00
         -2   -1    0    0    0  501 -0.00000000000E+00  0.00000000000E+00  0.93224408710E+03  0.93224408711E+03  0.25500000000E-02 0.  1.
          2   -1    0    0  501    0  0.00000000000E+00 -0.00000000000E+00 -0.73809824194E+03  0.73809824195E+03  0.25500000000E-02 0. -1.
    8880023    1    1    2    0    0 -0.19911936179E+03  0.72721395920E+02 -0.54855537959E+03  0.88298365353E+03  0.65864270000E+03 0. -1.
    8880022    1    1    2    0    0  0.19911936179E+03 -0.72721395920E+02  0.74270122475E+03  0.78735867552E+03  0.15294330000E+03 0.  0.
<mgrwt>
<rscale>  0 0.54245674E+03</rscale>
<asrwt>0</asrwt>
<pdfrwt beam="1">  1        2 0.11355358E+00 0.69191555E+03</pdfrwt>
<pdfrwt beam="2">  1       -2 0.14342217E+00 0.69191555E+03</pdfrwt>
<totfact> 0.13189469E+01</totfact>
</mgrwt>
</event>
<event>
 4    2  0.4710618E-007  0.7522480E+03  0.7818608E-02  0.9825606E-01
         -2   -1    0    0    0  501 -0.00000000000E+00  0.00000000000E+00  0.22769782320E+04  0.22769782320E+04  0.25500000000E-02 0.  1.
          2   -1    0    0  501    0  0.00000000000E+00 -0.00000000000E+00 -0.10523838141E+04  0.10523838141E+04  0.25500000000E-02 0. -1.
    8880023    1    1    2    0    0 -0.24285801765E+03  0.27034585200E+03 -0.89743658708E+03  0.11710121821E+04  0.65864270000E+03 0. -1.
    8880022    1    1    2    0    0  0.24285801765E+03 -0.27034585200E+03  0.21220310050E+04  0.21583498640E+04  0.15294330000E+03 0.  0.
<mgrwt>
<rscale>  0 0.64006285E+03</rscale>
<asrwt>0</asrwt>
<pdfrwt beam="1">  1        2 0.16190520E+00 0.75224803E+03</pdfrwt>
<pdfrwt beam="2">  1       -2 0.35030434E+00 0.75224803E+03</pdfrwt>
<totfact> 0.38276369E-01</totfact>
</mgrwt>
</event>
<event>
 4    2  0.3747163E-007  0.7687528E+03  0.7818608E-02  0.9782953E-01
         -2   -1    0    0    0  501 -0.00000000000E+00  0.00000000000E+00  0.16275819504E+03  0.16275819506E+03  0.25500000000E-02 0.  1.
          2   -1    0    0  501    0  0.00000000000E+00 -0.00000000000E+00 -0.22178134883E+04  0.22178134883E+04  0.25500000000E-02 0. -1.
    8880023    1    1    2    0    0 -0.36089784802E+03 -0.16408365346E+03 -0.11887710692E+04  0.14156827199E+04  0.65864270000E+03 0.  0.
    8880022    1    1    2    0    0  0.36089784802E+03  0.16408365346E+03 -0.86628422408E+03  0.96488896353E+03  0.15294330000E+03 0.  1.
<mgrwt>
<rscale>  0 0.66285486E+03</rscale>
<asrwt>0</asrwt>
<pdfrwt beam="1">  1        2 0.34120205E+00 0.76875283E+03</pdfrwt>
<pdfrwt beam="2">  1       -2 0.25039724E-01 0.76875283E+03</pdfrwt>
<totfact> 0.74280479E+01</totfact>
</mgrwt>
</event>
<event>
 4    2  0.3747163E-007  0.1364286E+04  0.7818608E-02  0.9011943E-01
         -2   -1    0    0    0  501 -0.00000000000E+00  0.00000000000E+00  0.15002899653E+04  0.15002899653E+04  0.25500000000E-02 0.  1.
          2   -1    0    0  501    0  0.00000000000E+00 -0.00000000000E+00 -0.11626119954E+04  0.11626119954E+04  0.25500000000E-02 0. -1.
    8880023    1    1    2    0    0  0.11935571030E+04 -0.53726992157E+02  0.48822939910E+03  0.14490145963E+04  0.65864270000E+03 0.  0.
    8880022    1    1    2    0    0 -0.11935571030E+04  0.53726992157E+02 -0.15055142922E+03  0.12138873645E+04  0.15294330000E+03 0.  0.
<mgrwt>
<rscale>  0 0.13224585E+04</rscale>
<asrwt>0</asrwt>
<pdfrwt beam="1">  1        2 0.17886338E+00 0.13642857E+04</pdfrwt>
<pdfrwt beam="2">  1       -2 0.23081384E+00 0.13642857E+04</pdfrwt>
<totfact> 0.16120952E+00</totfact>
</mgrwt>
</event>
<event>
 4    2  0.3747163E-007  0.6759288E+03  0.7818608E-02  0.1011727E+00
         -2   -1    0    0    0  501 -0.00000000000E+00  0.00000000000E+00  0.31686473891E+03  0.31686473892E+03  0.25500000000E-02 0.  1.
          2   -1    0    0  501    0  0.00000000000E+00 -0.00000000000E+00 -0.80803824824E+03  0.80803824824E+03  0.25500000000E-02 0. -1.
    8880023    1    1    2    0    0  0.36111267680E+02 -0.14753144877E+03 -0.58106976447E+03  0.89135953996E+03  0.65864270000E+03 0. -1.
    8880022    1    1    2    0    0 -0.36111267680E+02  0.14753144877E+03  0.89896255138E+02  0.23354344720E+03  0.15294330000E+03 0.  0.
<mgrwt>
<rscale>  0 0.50793955E+03</rscale>
<asrwt>0</asrwt>
<pdfrwt beam="1">  1        2 0.12431358E+00 0.67592881E+03</pdfrwt>
<pdfrwt beam="2">  1       -2 0.48748422E-01 0.67592881E+03</pdfrwt>
<totfact> 0.13761201E+02</totfact>
</mgrwt>
</event>
<event>
 4    2  0.3747163E-007  0.7673562E+03  0.7818608E-02  0.9786422E-01
         -2   -1    0    0    0  501 -0.00000000000E+00  0.00000000000E+00  0.31298474860E+03  0.31298474861E+03  0.25500000000E-02 0.  1.
          2   -1    0    0  501    0  0.00000000000E+00 -0.00000000000E+00 -0.26239334685E+04  0.26239334685E+04  0.25500000000E-02 0. -1.
    8880023    1    1    2    0    0  0.37989001378E+03  0.10348405211E+03 -0.23873733545E+04  0.25076656698E+04  0.65864270000E+03 0. -1.
    8880022    1    1    2    0    0 -0.37989001378E+03 -0.10348405211E+03  0.76424634551E+02  0.42925254733E+03  0.15294330000E+03 0.  0.
<mgrwt>
<rscale>  0 0.66096323E+03</rscale>
<asrwt>0</asrwt>
<pdfrwt beam="1">  1        2 0.40368206E+00 0.76735623E+03</pdfrwt>
<pdfrwt beam="2">  1       -2 0.48151502E-01 0.76735623E+03</pdfrwt>
<totfact> 0.12617752E+01</totfact>
</mgrwt>
</event>
<event>
 4    2  0.4493782E-007  0.1616190E+04  0.7818608E-02  0.8831669E-01
          2   -1    0    0  501    0  0.00000000000E+00  0.00000000000E+00  0.24872883672E+04  0.24872883672E+04  0.25500000000E-02 0. -1.
         -2   -1    0    0    0  501 -0.00000000000E+00 -0.00000000000E+00 -0.24131400842E+04  0.24131400842E+04  0.25500000000E-02 0.  1.
    8880023    1    1    2    0    0  0.42160283932E+03 -0.14143936912E+04  0.19345193302E+04  0.25208002128E+04  0.65864270000E+03 0.  0.
    8880022    1    1    2    0    0 -0.42160283932E+03  0.14143936912E+04 -0.18603710472E+04  0.23796282386E+04  0.15294330000E+03 0.  0.
<mgrwt>
<rscale>  0 0.15820229E+04</rscale>
<asrwt>0</asrwt>
<pdfrwt beam="1">  1        2 0.38265975E+00 0.16161896E+04</pdfrwt>
<pdfrwt beam="2">  1       -2 0.37125232E+00 0.16161896E+04</pdfrwt>
<totfact> 0.37320919E-02</totfact>
</mgrwt>
</event>
<event>
 4    2  0.3747163E-007  0.1009713E+04  0.7818608E-02  0.9368958E-01
          2   -1    0    0  501    0  0.00000000000E+00  0.00000000000E+00  0.24044812680E+04  0.24044812680E+04  0.25500000000E-02 0. -1.
         -2   -1    0    0    0  501 -0.00000000000E+00 -0.00000000000E+00 -0.47704947182E+03  0.47704947183E+03  0.25500000000E-02 0.  1.
    8880023    1    1    2    0    0 -0.51466586859E+03 -0.56641867780E+03  0.18365401643E+04  0.20958055865E+04  0.65864270000E+03 0.  0.
    8880022    1    1    2    0    0  0.51466586859E+03  0.56641867780E+03  0.90891631837E+02  0.78572515335E+03  0.15294330000E+03 0.  0.
<mgrwt>
<rscale>  0 0.94674916E+03</rscale>
<asrwt>0</asrwt>
<pdfrwt beam="1">  1        2 0.36992019E+00 0.10097135E+04</pdfrwt>
<pdfrwt beam="2">  1       -2 0.73392227E-01 0.10097135E+04</pdfrwt>
<totfact> 0.66724890E+00</totfact>
</mgrwt>
</event>
<event>
 4    2  0.3747163E-007  0.1038418E+04  0.7818608E-02  0.9332936E-01
         -2   -1    0    0    0  501 -0.00000000000E+00  0.00000000000E+00  0.12291644995E+04  0.12291644995E+04  0.25500000000E-02 0.  1.
          2   -1    0    0  501    0  0.00000000000E+00 -0.00000000000E+00 -0.16101581461E+04  0.16101581461E+04  0.25500000000E-02 0. -1.
    8880023    1    1    2    0    0 -0.36691243738E+03  0.71405666687E+03 -0.12642070978E+04  0.16360108351E+04  0.65864270000E+03 0.  0.
    8880022    1    1    2    0    0  0.36691243738E+03 -0.71405666687E+03  0.88321345117E+03  0.12033118106E+04  0.15294330000E+03 0.  0.
<mgrwt>
<rscale>  0 0.97806458E+03</rscale>
<asrwt>0</asrwt>
<pdfrwt beam="1">  1        2 0.24771664E+00 0.10384180E+04</pdfrwt>
<pdfrwt beam="2">  1       -2 0.18910223E+00 0.10384180E+04</pdfrwt>
<totfact> 0.17107176E+00</totfact>
</mgrwt>
</event>
<event>
 4    2  0.3747163E-007  0.1254795E+04  0.7818608E-02  0.9105615E-01
          2   -1    0    0  501    0  0.00000000000E+00  0.00000000000E+00  0.19335027348E+04  0.19335027348E+04  0.25500000000E-02 0. -1.
         -2   -1    0    0    0  501 -0.00000000000E+00 -0.00000000000E+00 -0.11219304013E+04  0.11219304013E+04  0.25500000000E-02 0.  1.
    8880023    1    1    2    0    0 -0.70972070506E+03  0.79812079809E+03  0.13555161592E+04  0.18471422662E+04  0.65864270000E+03 0.  0.
    8880022    1    1    2    0    0  0.70972070506E+03 -0.79812079809E+03 -0.54394382576E+03  0.12082908698E+04  0.15294330000E+03 0.  0.
<mgrwt>
<rscale>  0 0.12083090E+04</rscale>
<asrwt>0</asrwt>
<pdfrwt beam="1">  1        2 0.29746196E+00 0.12547950E+04</pdfrwt>
<pdfrwt beam="2">  1       -2 0.17260468E+00 0.12547950E+04</pdfrwt>
<totfact> 0.14348092E+00</totfact>
</mgrwt>
</event>
<event>
 4    2  0.3747163E-007  0.8484725E+03  0.7818608E-02  0.9614407E-01
         -2   -1    0    0    0  501 -0.00000000000E+00  0.00000000000E+00  0.36245802748E+03  0.36245802749E+03  0.25500000000E-02 0.  1.
          2   -1    0    0  501    0  0.00000000000E+00 -0.00000000000E+00 -0.14807904060E+04  0.14807904060E+04  0.25500000000E-02 0. -1.
    8880023    1    1    2    0    0  0.17071006701E+03  0.50690577923E+03 -0.92277414642E+03  0.12535620158E+04  0.65864270000E+03 0.  1.
    8880022    1    1    2    0    0 -0.17071006701E+03 -0.50690577923E+03 -0.19555823209E+03  0.58968641764E+03  0.15294330000E+03 0.  0.
<mgrwt>
<rscale>  0 0.76349930E+03</rscale>
<asrwt>0</asrwt>
<pdfrwt beam="1">  1        2 0.22781390E+00 0.84847251E+03</pdfrwt>
<pdfrwt beam="2">  1       -2 0.55762774E-01 0.84847251E+03</pdfrwt>
<totfact> 0.39792046E+01</totfact>
</mgrwt>
</event>
<event>
 4    2  0.3747163E-007  0.7835081E+03  0.7818608E-02  0.9747660E-01
          2   -1    0    0  501    0  0.00000000000E+00  0.00000000000E+00  0.16080154439E+04  0.16080154439E+04  0.25500000000E-02 0. -1.
         -2   -1    0    0    0  501 -0.00000000000E+00 -0.00000000000E+00 -0.57451246263E+03  0.57451246263E+03  0.25500000000E-02 0.  1.
    8880023    1    1    2    0    0 -0.20978043196E+02  0.42383332029E+03 -0.24971417750E+03  0.82233943016E+03  0.65864270000E+03 0.  1.
    8880022    1    1    2    0    0  0.20978043196E+02 -0.42383332029E+03  0.12832171588E+04  0.13601884764E+04  0.15294330000E+03 0.  0.
<mgrwt>
<rscale>  0 0.68248674E+03</rscale>
<asrwt>0</asrwt>
<pdfrwt beam="1">  1        2 0.24738699E+00 0.78350812E+03</pdfrwt>
<pdfrwt beam="2">  1       -2 0.88386533E-01 0.78350812E+03</pdfrwt>
<totfact> 0.12428629E+01</totfact>
</mgrwt>
</event>
<event>
 4    2  0.3747163E-007  0.6863576E+03  0.7818608E-02  0.1005934E+00
          2   -1    0    0  501    0  0.00000000000E+00  0.00000000000E+00  0.24481692595E+04  0.24481692595E+04  0.25500000000E-02 0. -1.
         -2   -1    0    0    0  501 -0.00000000000E+00 -0.00000000000E+00 -0.13576427043E+03  0.13576427045E+03  0.25500000000E-02 0.  1.
    8880023    1    1    2    0    0 -0.65108342420E+02 -0.18176217521E+03  0.22152732862E+04  0.23191641864E+04  0.65864270000E+03 0.  0.
    8880022    1    1    2    0    0  0.65108342420E+02  0.18176217521E+03  0.97131702916E+02  0.26476934361E+03  0.15294330000E+03 0.  0.
<mgrwt>
<rscale>  0 0.53123052E+03</rscale>
<asrwt>0</asrwt>
<pdfrwt beam="1">  1        2 0.37664145E+00 0.68635763E+03</pdfrwt>
<pdfrwt beam="2">  1       -2 0.20886809E-01 0.68635763E+03</pdfrwt>
<totfact> 0.77143936E+01</totfact>
</mgrwt>
</event>
<event>
 4    2  0.3747163E-007  0.1293509E+04  0.7818608E-02  0.9071186E-01
          2   -1    0    0  501    0  0.00000000000E+00  0.00000000000E+00  0.33882644910E+04  0.33882644910E+04  0.25500000000E-02 0. -1.
         -2   -1    0    0    0  501 -0.00000000000E+00 -0.00000000000E+00 -0.13828002035E+04  0.13828002035E+04  0.25500000000E-02 0.  1.
    8880023    1    1    2    0    0  0.42794491281E+03 -0.10277243955E+04  0.30021929520E+04  0.32689948010E+04  0.65864270000E+03 0. -1.
    8880022    1    1    2    0    0 -0.42794491281E+03  0.10277243955E+04 -0.99672866448E+03  0.15020698935E+04  0.15294330000E+03 0.  0.
<mgrwt>
<rscale>  0 0.12487960E+04</rscale>
<asrwt>0</asrwt>
<pdfrwt beam="1">  1        2 0.52127146E+00 0.12935086E+04</pdfrwt>
<pdfrwt beam="2">  1       -2 0.21273849E+00 0.12935086E+04</pdfrwt>
<totfact> 0.10411944E-01</totfact>
</mgrwt>
</event>
<event>
 4    2  0.3747163E-007  0.1117275E+04  0.7818608E-02  0.9242062E-01
         -2   -1    0    0    0  501 -0.00000000000E+00  0.00000000000E+00  0.16465612218E+04  0.16465612218E+04  0.25500000000E-02 0.  1.
          2   -1    0    0  501    0  0.00000000000E+00 -0.00000000000E+00 -0.13872396764E+04  0.13872396764E+04  0.25500000000E-02 0. -1.
    8880023    1    1    2    0    0 -0.42126517877E+03 -0.79814119788E+03 -0.98471928034E+03  0.14892870744E+04  0.65864270000E+03 0. -1.
    8880022    1    1    2    0    0  0.42126517877E+03  0.79814119788E+03  0.12440408258E+04  0.15445138238E+04  0.15294330000E+03 0.  0.
<mgrwt>
<rscale>  0 0.10629631E+04</rscale>
<asrwt>0</asrwt>
<pdfrwt beam="1">  1        2 0.21342149E+00 0.11172752E+04</pdfrwt>
<pdfrwt beam="2">  1       -2 0.25331711E+00 0.11172752E+04</pdfrwt>
<totfact> 0.88621025E-01</totfact>
</mgrwt>
</event>
<event>
 4    2  0.3747163E-007  0.1031213E+04  0.7818608E-02  0.9341814E-01
         -2   -1    0    0    0  501 -0.00000000000E+00  0.00000000000E+00  0.77584286357E+03  0.77584286357E+03  0.25500000000E-02 0.  1.
          2   -1    0    0  501    0  0.00000000000E+00 -0.00000000000E+00 -0.33288379969E+04  0.33288379969E+04  0.25500000000E-02 0. -1.
    8880023    1    1    2    0    0  0.33472085768E+02  0.79276091644E+03 -0.30062310054E+04  0.31781795600E+04  0.65864270000E+03 0.  0.
    8880022    1    1    2    0    0 -0.33472085768E+02 -0.79276091644E+03  0.45323587205E+03  0.92650130054E+03  0.15294330000E+03 0.  0.
<mgrwt>
<rscale>  0 0.97022835E+03</rscale>
<asrwt>0</asrwt>
<pdfrwt beam="1">  1        2 0.51212891E+00 0.10312131E+04</pdfrwt>
<pdfrwt beam="2">  1       -2 0.11936044E+00 0.10312131E+04</pdfrwt>
<totfact> 0.58545049E-01</totfact>
</mgrwt>
</event>
<event>
 4    2  0.3747163E-007  0.8056210E+03  0.7818608E-02  0.9698772E-01
          2   -1    0    0  501    0  0.00000000000E+00  0.00000000000E+00  0.47197247498E+04  0.47197247498E+04  0.25500000000E-02 0. -1.
         -2   -1    0    0    0  501 -0.00000000000E+00 -0.00000000000E+00 -0.27489584448E+03  0.27489584449E+03  0.25500000000E-02 0.  1.
    8880023    1    1    2    0    0  0.45365884803E+03 -0.96997975135E+02  0.44334108389E+04  0.45060134077E+04  0.65864270000E+03 0. -1.
    8880022    1    1    2    0    0 -0.45365884803E+03  0.96997975135E+02  0.11418066460E+02  0.48860718664E+03  0.15294330000E+03 0.  0.
<mgrwt>
<rscale>  0 0.71089979E+03</rscale>
<asrwt>0</asrwt>
<pdfrwt beam="1">  1        2 0.72611152E+00 0.80562098E+03</pdfrwt>
<pdfrwt beam="2">  1       -2 0.42291667E-01 0.80562098E+03</pdfrwt>
<totfact> 0.44105125E-01</totfact>
</mgrwt>
</event>
<event>
 4    2  0.3747163E-007  0.7316375E+03  0.7818608E-02  0.9885012E-01
          2   -1    0    0  501    0  0.00000000000E+00  0.00000000000E+00  0.49943522603E+03  0.49943522604E+03  0.25500000000E-02 0. -1.
         -2   -1    0    0    0  501 -0.00000000000E+00 -0.00000000000E+00 -0.79952116760E+03  0.79952116761E+03  0.25500000000E-02 0.  1.
    8880023    1    1    2    0    0  0.29357529804E+03 -0.12367988722E+03  0.12917471260E+03  0.74295321707E+03  0.65864270000E+03 0. -1.
    8880022    1    1    2    0    0 -0.29357529804E+03  0.12367988722E+03 -0.42926065417E+03  0.55600317657E+03  0.15294330000E+03 0.  0.
<mgrwt>
<rscale>  0 0.60993185E+03</rscale>
<asrwt>0</asrwt>
<pdfrwt beam="1">  1        2 0.76836189E-01 0.73163746E+03</pdfrwt>
<pdfrwt beam="2">  1       -2 0.12300326E+00 0.73163746E+03</pdfrwt>
<totfact> 0.31205416E+01</totfact>
</mgrwt>
</event>
<event>
 4    2  0.3747163E-007  0.1004656E+04  0.7818608E-02  0.9375491E-01
          2   -1    0    0  501    0  0.00000000000E+00  0.00000000000E+00  0.24227567594E+04  0.24227567594E+04  0.25500000000E-02 0. -1.
         -2   -1    0    0    0  501 -0.00000000000E+00 -0.00000000000E+00 -0.40822605576E+03  0.40822605577E+03  0.25500000000E-02 0.  1.
    8880023    1    1    2    0    0 -0.73363087084E+03 -0.19315673969E+03  0.17411710297E+04  0.20102264902E+04  0.65864270000E+03 0.  0.
    8880022    1    1    2    0    0  0.73363087084E+03  0.19315673969E+03  0.27335967394E+03  0.82075632504E+03  0.15294330000E+03 0.  0.
<mgrwt>
<rscale>  0 0.94120402E+03</rscale>
<asrwt>0</asrwt>
<pdfrwt beam="1">  1        2 0.37273182E+00 0.10046562E+04</pdfrwt>
<pdfrwt beam="2">  1       -2 0.62804007E-01 0.10046562E+04</pdfrwt>
<totfact> 0.91528735E+00</totfact>
</mgrwt>
</event>
<event>
 4    2  0.3747163E-007  0.6740878E+03  0.7818608E-02  0.1012887E+00
         -2   -1    0    0    0  501 -0.00000000000E+00  0.00000000000E+00  0.31719633870E+03  0.31719633871E+03  0.25500000000E-02 0.  1.
          2   -1    0    0  501    0  0.00000000000E+00 -0.00000000000E+00 -0.11482777798E+04  0.11482777798E+04  0.25500000000E-02 0. -1.
    8880023    1    1    2    0    0 -0.13118522927E+03  0.58091779154E+02 -0.99324243667E+03  0.12003853396E+04  0.65864270000E+03 0. -1.
    8880022    1    1    2    0    0  0.13118522927E+03 -0.58091779154E+02  0.16216099561E+03  0.26508877890E+03  0.15294330000E+03 0.  0.
<mgrwt>
<rscale>  0 0.50343010E+03</rscale>
<asrwt>0</asrwt>
<pdfrwt beam="1">  1        2 0.17665812E+00 0.67408785E+03</pdfrwt>
<pdfrwt beam="2">  1       -2 0.48799437E-01 0.67408785E+03</pdfrwt>
<totfact> 0.82728302E+01</totfact>
</mgrwt>
</event>
<event>
 4    2  0.3747163E-007  0.6655274E+03  0.7818608E-02  0.1019095E+00
          2   -1    0    0  501    0  0.00000000000E+00  0.00000000000E+00  0.17643763894E+04  0.17643763894E+04  0.25500000000E-02 0. -1.
         -2   -1    0    0    0  501 -0.00000000000E+00 -0.00000000000E+00 -0.34862788087E+03  0.34862788088E+03  0.25500000000E-02 0.  1.
    8880023    1    1    2    0    0  0.93376674745E+02  0.19931649525E+02  0.16720528811E+04  0.17996353846E+04  0.65864270000E+03 0. -1.
    8880022    1    1    2    0    0 -0.93376674745E+02 -0.19931649525E+02 -0.25630437263E+03  0.31336888563E+03  0.15294330000E+03 0.  0.
<mgrwt>
<rscale>  0 0.48014613E+03</rscale>
<asrwt>0</asrwt>
<pdfrwt beam="1">  1        2 0.27144252E+00 0.66552737E+03</pdfrwt>
<pdfrwt beam="2">  1       -2 0.53635059E-01 0.66552737E+03</pdfrwt>
<totfact> 0.30744441E+01</totfact>
</mgrwt>
</event>
<event>
 4    2  0.3747163E-007  0.1442084E+04  0.7818608E-02  0.8951654E-01
          2   -1    0    0  501    0  0.00000000000E+00  0.00000000000E+00  0.17616951006E+04  0.17616951006E+04  0.25500000000E-02 0. -1.
         -2   -1    0    0    0  501 -0.00000000000E+00 -0.00000000000E+00 -0.11294907506E+04  0.11294907506E+04  0.25500000000E-02 0.  1.
    8880023    1    1    2    0    0  0.97388134271E+03  0.83507473192E+03  0.68845704581E+03  0.15979918610E+04  0.65864270000E+03 0.  0.
    8880022    1    1    2    0    0 -0.97388134271E+03 -0.83507473192E+03 -0.56252695832E+02  0.12931939902E+04  0.15294330000E+03 0.  0.
<mgrwt>
<rscale>  0 0.14029943E+04</rscale>
<asrwt>0</asrwt>
<pdfrwt beam="1">  1        2 0.27103002E+00 0.14420835E+04</pdfrwt>
<pdfrwt beam="2">  1       -2 0.17376781E+00 0.14420835E+04</pdfrwt>
<totfact> 0.17211574E+00</totfact>
</mgrwt>
</event>
<event>
 4    2  0.3747163E-007  0.7745303E+03  0.7818608E-02  0.9768846E-01
         -2   -1    0    0    0  501 -0.00000000000E+00  0.00000000000E+00  0.11742789031E+04  0.11742789031E+04  0.25500000000E-02 0.  1.
          2   -1    0    0  501    0  0.00000000000E+00 -0.00000000000E+00 -0.93203065290E+03  0.93203065291E+03  0.25500000000E-02 0. -1.
    8880023    1    1    2    0    0 -0.40311914831E+03  0.59849738413E+02 -0.71540288807E+03  0.10543711573E+04  0.65864270000E+03 0. -1.
    8880022    1    1    2    0    0  0.40311914831E+03 -0.59849738413E+02  0.95765113826E+03  0.10519383986E+04  0.15294330000E+03 0.  0.
<mgrwt>
<rscale>  0 0.67061594E+03</rscale>
<asrwt>0</asrwt>
<pdfrwt beam="1">  1        2 0.14338933E+00 0.77453034E+03</pdfrwt>
<pdfrwt beam="2">  1       -2 0.18065829E+00 0.77453034E+03</pdfrwt>
<totfact> 0.50938324E+00</totfact>
</mgrwt>
</event>
<event>
 4    2  0.3747163E-007  0.7783584E+03  0.7818608E-02  0.9759707E-01
         -2   -1    0    0    0  501 -0.00000000000E+00  0.00000000000E+00  0.22876304005E+03  0.22876304006E+03  0.25500000000E-02 0.  1.
          2   -1    0    0  501    0  0.00000000000E+00 -0.00000000000E+00 -0.29667130886E+04  0.29667130886E+04  0.25500000000E-02 0. -1.
    8880023    1    1    2    0    0 -0.36774757024E+03  0.19181587146E+03 -0.26267390589E+04  0.27396349928E+04  0.65864270000E+03 0. -1.
    8880022    1    1    2    0    0  0.36774757024E+03 -0.19181587146E+03 -0.11121098973E+03  0.45584113594E+03  0.15294330000E+03 0.  0.
<mgrwt>
<rscale>  0 0.67570440E+03</rscale>
<asrwt>0</asrwt>
<pdfrwt beam="1">  1        2 0.45641737E+00 0.77835841E+03</pdfrwt>
<pdfrwt beam="2">  1       -2 0.35194316E-01 0.77835841E+03</pdfrwt>
<totfact> 0.14607486E+01</totfact>
</mgrwt>
</event>
<event>
 4    2  0.3747163E-007  0.7436795E+03  0.7818608E-02  0.9849356E-01
         -2   -1    0    0    0  501 -0.00000000000E+00  0.00000000000E+00  0.39883096697E+03  0.39883096698E+03  0.25500000000E-02 0.  1.
          2   -1    0    0  501    0  0.00000000000E+00 -0.00000000000E+00 -0.10870378464E+04  0.10870378464E+04  0.25500000000E-02 0. -1.
    8880023    1    1    2    0    0  0.33718349754E+03  0.74540247583E+02 -0.79972468982E+03  0.10920708518E+04  0.65864270000E+03 0. -1.
    8880022    1    1    2    0    0 -0.33718349754E+03 -0.74540247583E+02  0.11151781039E+03  0.39379796162E+03  0.15294330000E+03 0.  1.
<mgrwt>
<rscale>  0 0.62779774E+03</rscale>
<asrwt>0</asrwt>
<pdfrwt beam="1">  1        2 0.16723659E+00 0.74367948E+03</pdfrwt>
<pdfrwt beam="2">  1       -2 0.61358611E-01 0.74367948E+03</pdfrwt>
<totfact> 0.55727160E+01</totfact>
</mgrwt>
</event>
<event>
 4    2  0.3747163E-007  0.8984297E+03  0.7818608E-02  0.9528557E-01
          2   -1    0    0  501    0  0.00000000000E+00  0.00000000000E+00  0.19863718644E+04  0.19863718644E+04  0.25500000000E-02 0. -1.
         -2   -1    0    0    0  501 -0.00000000000E+00 -0.00000000000E+00 -0.29482347662E+03  0.29482347663E+03  0.25500000000E-02 0.  1.
    8880023    1    1    2    0    0 -0.44090410930E+03  0.42304752454E+03  0.93361207600E+03  0.12956879857E+04  0.65864270000E+03 0.  1.
    8880022    1    1    2    0    0  0.44090410930E+03 -0.42304752454E+03  0.75793631177E+03  0.98550735529E+03  0.15294330000E+03 0. -1.
<mgrwt>
<rscale>  0 0.82210762E+03</rscale>
<asrwt>0</asrwt>
<pdfrwt beam="1">  1        2 0.30559566E+00 0.89842966E+03</pdfrwt>
<pdfrwt beam="2">  1       -2 0.45357459E-01 0.89842966E+03</pdfrwt>
<totfact> 0.31784292E+01</totfact>
</mgrwt>
</event>
<event>
 4    2  0.3747163E-007  0.7756141E+03  0.7818608E-02  0.9766242E-01
          2   -1    0    0  501    0  0.00000000000E+00  0.00000000000E+00  0.96064006273E+03  0.96064006273E+03  0.25500000000E-02 0. -1.
         -2   -1    0    0    0  501 -0.00000000000E+00 -0.00000000000E+00 -0.49016978373E+03  0.49016978374E+03  0.25500000000E-02 0.  1.
    8880023    1    1    2    0    0  0.21551164224E+03 -0.34831278410E+03  0.61550651585E+03  0.99016440090E+03  0.65864270000E+03 0. -1.
    8880022    1    1    2    0    0 -0.21551164224E+03  0.34831278410E+03 -0.14503623685E+03  0.46064544557E+03  0.15294330000E+03 0.  0.
<mgrwt>
<rscale>  0 0.67206077E+03</rscale>
<asrwt>0</asrwt>
<pdfrwt beam="1">  1        2 0.14779078E+00 0.77561412E+03</pdfrwt>
<pdfrwt beam="2">  1       -2 0.75410737E-01 0.77561412E+03</pdfrwt>
<totfact> 0.42696268E+01</totfact>
</mgrwt>
</event>
<event>
 4    2  0.3747163E-007  0.7012121E+03  0.7818608E-02  0.9992210E-01
          2   -1    0    0  501    0  0.00000000000E+00  0.00000000000E+00  0.38178620581E+04  0.38178620581E+04  0.25500000000E-02 0. -1.
         -2   -1    0    0    0  501 -0.00000000000E+00 -0.00000000000E+00 -0.11716832787E+03  0.11716832790E+03  0.25500000000E-02 0.  1.
    8880023    1    1    2    0    0 -0.17533242259E+03 -0.16476272509E+03  0.35379173551E+04  0.36067378102E+04  0.65864270000E+03 0.  0.
    8880022    1    1    2    0    0  0.17533242259E+03  0.16476272509E+03  0.16277637515E+03  0.32829257578E+03  0.15294330000E+03 0.  0.
<mgrwt>
<rscale>  0 0.55993154E+03</rscale>
<asrwt>0</asrwt>
<pdfrwt beam="1">  1        2 0.58736335E+00 0.70121211E+03</pdfrwt>
<pdfrwt beam="2">  1       -2 0.18025898E-01 0.70121211E+03</pdfrwt>
<totfact> 0.13422832E+01</totfact>
</mgrwt>
</event>
<event>
 4    2  0.3747163E-007  0.6691137E+03  0.7818608E-02  0.1016306E+00
          2   -1    0    0  501    0  0.00000000000E+00  0.00000000000E+00  0.59549875809E+03  0.59549875809E+03  0.25500000000E-02 0. -1.
         -2   -1    0    0    0  501 -0.00000000000E+00 -0.00000000000E+00 -0.52384237221E+03  0.52384237222E+03  0.25500000000E-02 0.  1.
    8880023    1    1    2    0    0 -0.99841790708E+02 -0.62726174010E+02  0.36950796079E+03  0.76436201857E+03  0.65864270000E+03 0. -1.
    8880022    1    1    2    0    0  0.99841790708E+02  0.62726174010E+02 -0.29785157492E+03  0.35497911174E+03  0.15294330000E+03 0.  0.
<mgrwt>
<rscale>  0 0.49043415E+03</rscale>
<asrwt>0</asrwt>
<pdfrwt beam="1">  1        2 0.91615193E-01 0.66911371E+03</pdfrwt>
<pdfrwt beam="2">  1       -2 0.80591134E-01 0.66911371E+03</pdfrwt>
<totfact> 0.69239742E+01</totfact>
</mgrwt>
</event>
<event>
 4    2  0.3747163E-007  0.6670586E+03  0.7818608E-02  0.1017865E+00
         -2   -1    0    0    0  501 -0.00000000000E+00  0.00000000000E+00  0.24269543424E+03  0.24269543425E+03  0.25500000000E-02 0.  1.
          2   -1    0    0  501    0  0.00000000000E+00 -0.00000000000E+00 -0.29912736605E+04  0.29912736605E+04  0.25500000000E-02 0. -1.
    8880023    1    1    2    0    0 -0.96996775922E+02 -0.41816338857E+02 -0.29114159744E+04  0.29868562340E+04  0.65864270000E+03 0. -1.
    8880022    1    1    2    0    0  0.96996775922E+02  0.41816338857E+02  0.16283774807E+03  0.24711286075E+03  0.15294330000E+03 0.  0.
<mgrwt>
<rscale>  0 0.48464848E+03</rscale>
<asrwt>0</asrwt>
<pdfrwt beam="1">  1        2 0.46019592E+00 0.66705861E+03</pdfrwt>
<pdfrwt beam="2">  1       -2 0.37337761E-01 0.66705861E+03</pdfrwt>
<totfact> 0.12857656E+01</totfact>
</mgrwt>
</event>
<event>
 4    2  0.3747163E-007  0.9053832E+03  0.7818608E-02  0.9517445E-01
         -2   -1    0    0    0  501 -0.00000000000E+00  0.00000000000E+00  0.48628472346E+03  0.48628472347E+03  0.25500000000E-02 0.  1.
          2   -1    0    0  501    0  0.00000000000E+00 -0.00000000000E+00 -0.21379351451E+04  0.21379351451E+04  0.25500000000E-02 0. -1.
    8880023    1    1    2    0    0 -0.50159502467E+03 -0.36648452558E+03 -0.17563184576E+04  0.19759486854E+04  0.65864270000E+03 0. -1.
    8880022    1    1    2    0    0  0.50159502467E+03  0.36648452558E+03  0.10466803596E+03  0.64827118325E+03  0.15294330000E+03 0.  0.
<mgrwt>
<rscale>  0 0.83009834E+03</rscale>
<asrwt>0</asrwt>
<pdfrwt beam="1">  1        2 0.32891309E+00 0.90538317E+03</pdfrwt>
<pdfrwt beam="2">  1       -2 0.74813036E-01 0.90538317E+03</pdfrwt>
<totfact> 0.91301810E+00</totfact>
</mgrwt>
</event>
<event>
 4    2  0.3747163E-007  0.1597140E+04  0.7818608E-02  0.8843923E-01
          2   -1    0    0  501    0  0.00000000000E+00  0.00000000000E+00  0.27218267048E+04  0.27218267048E+04  0.25500000000E-02 0. -1.
         -2   -1    0    0    0  501 -0.00000000000E+00 -0.00000000000E+00 -0.14078226712E+04  0.14078226712E+04  0.25500000000E-02 0.  1.
    8880023    1    1    2    0    0 -0.14533488273E+04 -0.69451693607E+02 -0.61252532276E+03  0.17105682766E+04  0.65864270000E+03 0.  0.
    8880022    1    1    2    0    0  0.14533488273E+04  0.69451693607E+02  0.19265293564E+04  0.24190810994E+04  0.15294330000E+03 0.  0.
<mgrwt>
<rscale>  0 0.15625003E+04</rscale>
<asrwt>0</asrwt>
<pdfrwt beam="1">  1        2 0.41874257E+00 0.15971401E+04</pdfrwt>
<pdfrwt beam="2">  1       -2 0.21658810E+00 0.15971401E+04</pdfrwt>
<totfact> 0.24877078E-01</totfact>
</mgrwt>
</event>
<event>
 4    2  0.3747163E-007  0.6838104E+03  0.7818608E-02  0.1007245E+00
          2   -1    0    0  501    0  0.00000000000E+00  0.00000000000E+00  0.21023272742E+03  0.21023272743E+03  0.25500000000E-02 0. -1.
         -2   -1    0    0    0  501 -0.00000000000E+00 -0.00000000000E+00 -0.10525346721E+04  0.10525346721E+04  0.25500000000E-02 0.  1.
    8880023    1    1    2    0    0  0.12738402363E+03  0.13251341762E+03 -0.72437271019E+03  0.99614884674E+03  0.65864270000E+03 0.  1.
    8880022    1    1    2    0    0 -0.12738402363E+03 -0.13251341762E+03 -0.11792923447E+03  0.26661855278E+03  0.15294330000E+03 0.  1.
<mgrwt>
<rscale>  0 0.52584234E+03</rscale>
<asrwt>0</asrwt>
<pdfrwt beam="1">  1        2 0.32343497E-01 0.68381043E+03</pdfrwt>
<pdfrwt beam="2">  1       -2 0.16192841E+00 0.68381043E+03</pdfrwt>
<totfact> 0.40491335E+01</totfact>
</mgrwt>
</event>
<event>
 4    2  0.3747163E-007  0.6608006E+03  0.7818608E-02  0.1023351E+00
         -2   -1    0    0    0  501 -0.00000000000E+00  0.00000000000E+00  0.11345053018E+04  0.11345053018E+04  0.25500000000E-02 0.  1.
          2   -1    0    0  501    0  0.00000000000E+00 -0.00000000000E+00 -0.66377262665E+03  0.66377262666E+03  0.25500000000E-02 0. -1.
    8880023    1    1    2    0    0 -0.12248128587E+02 -0.51934368422E+02 -0.49084234609E+03  0.82315466970E+03  0.65864270000E+03 0. -1.
    8880022    1    1    2    0    0  0.12248128587E+02  0.51934368422E+02  0.96157502127E+03  0.97512325878E+03  0.15294330000E+03 0.  0.
<mgrwt>
<rscale>  0 0.46496569E+03</rscale>
<asrwt>0</asrwt>
<pdfrwt beam="1">  1        2 0.10211887E+00 0.66080058E+03</pdfrwt>
<pdfrwt beam="2">  1       -2 0.17453928E+00 0.66080058E+03</pdfrwt>
<totfact> 0.89155899E+00</totfact>
</mgrwt>
</event>
<event>
 4    2  0.3747163E-007  0.7358561E+03  0.7818608E-02  0.9872187E-01
          2   -1    0    0  501    0  0.00000000000E+00  0.00000000000E+00  0.16145440309E+04  0.16145440309E+04  0.25500000000E-02 0. -1.
         -2   -1    0    0    0  501 -0.00000000000E+00 -0.00000000000E+00 -0.19641468506E+03  0.19641468508E+03  0.25500000000E-02 0.  1.
    8880023    1    1    2    0    0  0.32370114612E+03 -0.53773283530E+02  0.11290286726E+04  0.13476609173E+04  0.65864270000E+03 0. -1.
    8880022    1    1    2    0    0 -0.32370114612E+03  0.53773283530E+02  0.28910067317E+03  0.46329779868E+03  0.15294330000E+03 0.  0.
<mgrwt>
<rscale>  0 0.61628384E+03</rscale>
<asrwt>0</asrwt>
<pdfrwt beam="1">  1        2 0.24839138E+00 0.73585610E+03</pdfrwt>
<pdfrwt beam="2">  1       -2 0.30217645E-01 0.73585610E+03</pdfrwt>
<totfact> 0.11295822E+02</totfact>
</mgrwt>
</event>
<event>
 4    2  0.3747163E-007  0.6684788E+03  0.7818608E-02  0.1016778E+00
         -2   -1    0    0    0  501 -0.00000000000E+00  0.00000000000E+00  0.67940978138E+03  0.67940978138E+03  0.25500000000E-02 0.  1.
          2   -1    0    0  501    0  0.00000000000E+00 -0.00000000000E+00 -0.30566594792E+03  0.30566594793E+03  0.25500000000E-02 0. -1.
    8880023    1    1    2    0    0 -0.10981898933E+03  0.31520333896E+02  0.13947946076E+03  0.68287514825E+03  0.65864270000E+03 0.  0.
    8880022    1    1    2    0    0  0.10981898933E+03 -0.31520333896E+02  0.23426437269E+03  0.30220058106E+03  0.15294330000E+03 0.  0.
<mgrwt>
<rscale>  0 0.48867607E+03</rscale>
<asrwt>0</asrwt>
<pdfrwt beam="1">  1        2 0.47025531E-01 0.66847883E+03</pdfrwt>
<pdfrwt beam="2">  1       -2 0.10452458E+00 0.66847883E+03</pdfrwt>
<totfact> 0.81039822E+01</totfact>
</mgrwt>
</event>
<event>
 4    2  0.3747163E-007  0.9119450E+03  0.7818608E-02  0.9507122E-01
          2   -1    0    0  501    0  0.00000000000E+00  0.00000000000E+00  0.33025959756E+04  0.33025959756E+04  0.25500000000E-02 0. -1.
         -2   -1    0    0    0  501 -0.00000000000E+00 -0.00000000000E+00 -0.33021098842E+03  0.33021098843E+03  0.25500000000E-02 0.  1.
    8880023    1    1    2    0    0 -0.49967454582E+03  0.38491400864E+03  0.28232404490E+04  0.29668721383E+04  0.65864270000E+03 0. -1.
    8880022    1    1    2    0    0  0.49967454582E+03 -0.38491400864E+03  0.14914453810E+03  0.66593482568E+03  0.15294330000E+03 0.  0.
<mgrwt>
<rscale>  0 0.83760789E+03</rscale>
<asrwt>0</asrwt>
<pdfrwt beam="1">  1        2 0.50809171E+00 0.91194498E+03</pdfrwt>
<pdfrwt beam="2">  1       -2 0.50801689E-01 0.91194498E+03</pdfrwt>
<totfact> 0.42493040E+00</totfact>
</mgrwt>
</event>
<event>
 4    2  0.3747163E-007  0.6697739E+03  0.7818608E-02  0.1015825E+00
         -2   -1    0    0    0  501 -0.00000000000E+00  0.00000000000E+00  0.69802904206E+03  0.69802904207E+03  0.25500000000E-02 0.  1.
          2   -1    0    0  501    0  0.00000000000E+00 -0.00000000000E+00 -0.71523836775E+03  0.71523836776E+03  0.25500000000E-02 0. -1.
    8880023    1    1    2    0    0  0.12018755863E+03  0.18489671224E+02 -0.53667821560E+03  0.85826606047E+03  0.65864270000E+03 0. -1.
    8880022    1    1    2    0    0 -0.12018755863E+03 -0.18489671224E+02  0.51946888991E+03  0.55500134936E+03  0.15294330000E+03 0.  0.
<mgrwt>
<rscale>  0 0.49223630E+03</rscale>
<asrwt>0</asrwt>
<pdfrwt beam="1">  1        2 0.11003667E+00 0.66977393E+03</pdfrwt>
<pdfrwt beam="2">  1       -2 0.10738908E+00 0.66977393E+03</pdfrwt>
<totfact> 0.28344648E+01</totfact>
</mgrwt>
</event>
<event>
 4    2  0.3747163E-007  0.7706268E+03  0.7818608E-02  0.9778334E-01
         -2   -1    0    0    0  501 -0.00000000000E+00  0.00000000000E+00  0.34092636293E+03  0.34092636294E+03  0.25500000000E-02 0.  1.
          2   -1    0    0  501    0  0.00000000000E+00 -0.00000000000E+00 -0.20058580196E+04  0.20058580196E+04  0.25500000000E-02 0. -1.
    8880023    1    1    2    0    0 -0.17999221098E+03 -0.35729302250E+03 -0.17481480678E+04  0.19104678414E+04  0.65864270000E+03 0. -1.
    8880022    1    1    2    0    0  0.17999221098E+03  0.35729302250E+03  0.83216411137E+02  0.43631654110E+03  0.15294330000E+03 0.  0.
<mgrwt>
<rscale>  0 0.66538340E+03</rscale>
<asrwt>0</asrwt>
<pdfrwt beam="1">  1        2 0.30859353E+00 0.77062683E+03</pdfrwt>
<pdfrwt beam="2">  1       -2 0.52450211E-01 0.77062683E+03</pdfrwt>
<totfact> 0.23447570E+01</totfact>
</mgrwt>
</event>
<event>
 4    2  0.3747163E-007  0.6971482E+03  0.7818608E-02  0.1000924E+00
         -2   -1    0    0    0  501 -0.00000000000E+00  0.00000000000E+00  0.41421998452E+03  0.41421998452E+03  0.25500000000E-02 0.  1.
          2   -1    0    0  501    0  0.00000000000E+00 -0.00000000000E+00 -0.16598249038E+04  0.16598249038E+04  0.25500000000E-02 0. -1.
    8880023    1    1    2    0    0 -0.25603188895E+02  0.22704598071E+03 -0.15282362147E+04  0.16797385317E+04  0.65864270000E+03 0. -1.
    8880022    1    1    2    0    0  0.25603188895E+02 -0.22704598071E+03  0.28263129548E+03  0.39430635658E+03  0.15294330000E+03 0.  0.
<mgrwt>
<rscale>  0 0.55246776E+03</rscale>
<asrwt>0</asrwt>
<pdfrwt beam="1">  1        2 0.25535767E+00 0.69714820E+03</pdfrwt>
<pdfrwt beam="2">  1       -2 0.63726152E-01 0.69714820E+03</pdfrwt>
<totfact> 0.24311726E+01</totfact>
</mgrwt>
</event>
<event>
 4    2  0.3747163E-007  0.7990772E+03  0.7818608E-02  0.9712795E-01
         -2   -1    0    0    0  501 -0.00000000000E+00  0.00000000000E+00  0.22291694434E+03  0.22291694435E+03  0.25500000000E-02 0.  1.
          2   -1    0    0  501    0  0.00000000000E+00 -0.00000000000E+00 -0.22336075885E+04  0.22336075885E+04  0.25500000000E-02 0. -1.
    8880023    1    1    2    0    0  0.33429433033E+03  0.30489571599E+03 -0.17222034370E+04  0.18985544453E+04  0.65864270000E+03 0. -1.
    8880022    1    1    2    0    0 -0.33429433033E+03 -0.30489571599E+03 -0.28848720712E+03  0.55797008755E+03  0.15294330000E+03 0.  0.
<mgrwt>
<rscale>  0 0.70260068E+03</rscale>
<asrwt>0</asrwt>
<pdfrwt beam="1">  1        2 0.34363192E+00 0.79907716E+03</pdfrwt>
<pdfrwt beam="2">  1       -2 0.34294916E-01 0.79907716E+03</pdfrwt>
<totfact> 0.40524334E+01</totfact>
</mgrwt>
</event>
<event>
 4    2  0.3747163E-007  0.7876848E+03  0.7818608E-02  0.9738085E-01
         -2   -1    0    0    0  501 -0.00000000000E+00  0.00000000000E+00  0.29187212068E+03  0.29187212069E+03  0.25500000000E-02 0.  1.
          2   -1    0    0  501    0  0.00000000000E+00 -0.00000000000E+00 -0.13297541500E+04  0.13297541500E+04  0.25500000000E-02 0. -1.
    8880023    1    1    2    0    0  0.24087074752E+03 -0.35863419218E+03 -0.65320574595E+03  0.10232913337E+04  0.65864270000E+03 0.  1.
    8880022    1    1    2    0    0 -0.24087074752E+03  0.35863419218E+03 -0.38467628333E+03  0.59833493696E+03  0.15294330000E+03 0. -1.
<mgrwt>
<rscale>  0 0.68793790E+03</rscale>
<asrwt>0</asrwt>
<pdfrwt beam="1">  1        2 0.20457756E+00 0.78768484E+03</pdfrwt>
<pdfrwt beam="2">  1       -2 0.44903404E-01 0.78768484E+03</pdfrwt>
<totfact> 0.75786534E+01</totfact>
</mgrwt>
</event>
<event>
 4    2  0.3747163E-007  0.7757203E+03  0.7818608E-02  0.9765988E-01
         -2   -1    0    0    0  501 -0.00000000000E+00  0.00000000000E+00  0.67399178296E+03  0.67399178296E+03  0.25500000000E-02 0.  1.
          2   -1    0    0  501    0  0.00000000000E+00 -0.00000000000E+00 -0.76353967681E+03  0.76353967682E+03  0.25500000000E-02 0. -1.
    8880023    1    1    2    0    0 -0.23237376601E+03  0.33754144442E+03 -0.42664025680E+03  0.88530441590E+03  0.65864270000E+03 0.  0.
    8880022    1    1    2    0    0  0.23237376601E+03 -0.33754144442E+03  0.33709236294E+03  0.55222704388E+03  0.15294330000E+03 0.  0.
<mgrwt>
<rscale>  0 0.67220215E+03</rscale>
<asrwt>0</asrwt>
<pdfrwt beam="1">  1        2 0.11746764E+00 0.77572031E+03</pdfrwt>
<pdfrwt beam="2">  1       -2 0.10369104E+00 0.77572031E+03</pdfrwt>
<totfact> 0.28076515E+01</totfact>
</mgrwt>
</event>
<event>
 4    2  0.3747163E-007  0.7787544E+03  0.7818608E-02  0.9758771E-01
          2   -1    0    0  501    0  0.00000000000E+00  0.00000000000E+00  0.10935386844E+04  0.10935386844E+04  0.25500000000E-02 0. -1.
         -2   -1    0    0    0  501 -0.00000000000E+00 -0.00000000000E+00 -0.52727497641E+03  0.52727497642E+03  0.25500000000E-02 0.  1.
    8880023    1    1    2    0    0 -0.40037756395E+03  0.11111257009E+03  0.80311216508E+03  0.11186811668E+04  0.65864270000E+03 0.  0.
    8880022    1    1    2    0    0  0.40037756395E+03 -0.11111257009E+03 -0.23684845708E+03  0.50213249405E+03  0.15294330000E+03 0.  0.
<mgrwt>
<rscale>  0 0.67622843E+03</rscale>
<asrwt>0</asrwt>
<pdfrwt beam="1">  1        2 0.16823672E+00 0.77875439E+03</pdfrwt>
<pdfrwt beam="2">  1       -2 0.81119227E-01 0.77875439E+03</pdfrwt>
<totfact> 0.29880195E+01</totfact>
</mgrwt>
</event>
<event>
 4    2  0.3747163E-007  0.6764052E+03  0.7818608E-02  0.1011435E+00
          2   -1    0    0  501    0  0.00000000000E+00  0.00000000000E+00  0.13022069725E+04  0.13022069725E+04  0.25500000000E-02 0. -1.
         -2   -1    0    0    0  501 -0.00000000000E+00 -0.00000000000E+00 -0.37910812604E+03  0.37910812605E+03  0.25500000000E-02 0.  1.
    8880023    1    1    2    0    0 -0.45940347890E+02  0.14698074001E+03  0.11706981056E+04  0.13520569937E+04  0.65864270000E+03 0. -1.
    8880022    1    1    2    0    0  0.45940347890E+02 -0.14698074001E+03 -0.24759925911E+03  0.32925810487E+03  0.15294330000E+03 0.  0.
<mgrwt>
<rscale>  0 0.50908369E+03</rscale>
<asrwt>0</asrwt>
<pdfrwt beam="1">  1        2 0.20033953E+00 0.67640525E+03</pdfrwt>
<pdfrwt beam="2">  1       -2 0.58324328E-01 0.67640525E+03</pdfrwt>
<totfact> 0.46547526E+01</totfact>
</mgrwt>
</event>
<event>
 4    2  0.3747163E-007  0.6631672E+03  0.7818608E-02  0.1021123E+00
          2   -1    0    0  501    0  0.00000000000E+00  0.00000000000E+00  0.12694465844E+04  0.12694465844E+04  0.25500000000E-02 0. -1.
         -2   -1    0    0    0  501 -0.00000000000E+00 -0.00000000000E+00 -0.84699467508E+03  0.84699467508E+03  0.25500000000E-02 0.  1.
    8880023    1    1    2    0    0 -0.46517875607E+02 -0.61778749846E+02  0.11725058878E+04  0.13470563425E+04  0.65864270000E+03 0. -1.
    8880022    1    1    2    0    0  0.46517875607E+02  0.61778749846E+02 -0.75005397853E+03  0.76938491693E+03  0.15294330000E+03 0.  0.
<mgrwt>
<rscale>  0 0.47283466E+03</rscale>
<asrwt>0</asrwt>
<pdfrwt beam="1">  1        2 0.19529948E+00 0.66316720E+03</pdfrwt>
<pdfrwt beam="2">  1       -2 0.13030687E+00 0.66316720E+03</pdfrwt>
<totfact> 0.76906108E+00</totfact>
</mgrwt>
</event>
<event>
 4    2  0.3747163E-007  0.6623445E+03  0.7818608E-02  0.1021873E+00
          2   -1    0    0  501    0  0.00000000000E+00  0.00000000000E+00  0.28099555053E+04  0.28099555053E+04  0.25500000000E-02 0. -1.
         -2   -1    0    0    0  501 -0.00000000000E+00 -0.00000000000E+00 -0.10241943125E+03  0.10241943128E+03  0.25500000000E-02 0.  1.
    8880023    1    1    2    0    0  0.61815580370E+01 -0.69654592556E+02  0.26547284369E+04  0.27361073177E+04  0.65864270000E+03 0. -1.
    8880022    1    1    2    0    0 -0.61815580370E+01  0.69654592556E+02  0.52807637176E+02  0.17626761893E+03  0.15294330000E+03 0.  0.
<mgrwt>
<rscale>  0 0.47016574E+03</rscale>
<asrwt>0</asrwt>
<pdfrwt beam="1">  1        2 0.43230084E+00 0.66234446E+03</pdfrwt>
<pdfrwt beam="2">  1       -2 0.15756836E-01 0.66234446E+03</pdfrwt>
<totfact> 0.77989870E+01</totfact>
</mgrwt>
</event>
<event>
 4    2  0.3747163E-007  0.8058812E+03  0.7818608E-02  0.9698221E-01
          2   -1    0    0  501    0  0.00000000000E+00  0.00000000000E+00  0.21677351406E+04  0.21677351406E+04  0.25500000000E-02 0. -1.
         -2   -1    0    0    0  501 -0.00000000000E+00 -0.00000000000E+00 -0.48447631745E+03  0.48447631746E+03  0.25500000000E-02 0.  1.
    8880023    1    1    2    0    0  0.46318722165E+03  0.33044415695E+02  0.19394748927E+04  0.21002398438E+04  0.65864270000E+03 0. -1.
    8880022    1    1    2    0    0 -0.46318722165E+03 -0.33044415695E+02 -0.25621606952E+03  0.55197161431E+03  0.15294330000E+03 0.  0.
<mgrwt>
<rscale>  0 0.71122812E+03</rscale>
<asrwt>0</asrwt>
<pdfrwt beam="1">  1        2 0.33349772E+00 0.80588122E+03</pdfrwt>
<pdfrwt beam="2">  1       -2 0.74534816E-01 0.80588122E+03</pdfrwt>
<totfact> 0.89863251E+00</totfact>
</mgrwt>
</event>
<event>
 4    2  0.3747163E-007  0.9252160E+03  0.7818608E-02  0.9486707E-01
          2   -1    0    0  501    0  0.00000000000E+00  0.00000000000E+00  0.83471904263E+03  0.83471904263E+03  0.25500000000E-02 0. -1.
         -2   -1    0    0    0  501 -0.00000000000E+00 -0.00000000000E+00 -0.95145946106E+03  0.95145946106E+03  0.25500000000E-02 0.  1.
    8880023    1    1    2    0    0  0.11544909023E+03 -0.63944189332E+03  0.33071669910E+03  0.98254677684E+03  0.65864270000E+03 0. -1.
    8880022    1    1    2    0    0 -0.11544909023E+03  0.63944189332E+03 -0.44745711753E+03  0.80363172685E+03  0.15294330000E+03 0.  0.
<mgrwt>
<rscale>  0 0.85270977E+03</rscale>
<asrwt>0</asrwt>
<pdfrwt beam="1">  1        2 0.12841831E+00 0.92521599E+03</pdfrwt>
<pdfrwt beam="2">  1       -2 0.14637838E+00 0.92521599E+03</pdfrwt>
<totfact> 0.10381689E+01</totfact>
</mgrwt>
</event>
<event>
 4    2  0.3747163E-007  0.6990582E+03  0.7818608E-02  0.1000113E+00
         -2   -1    0    0    0  501 -0.00000000000E+00  0.00000000000E+00  0.71216018221E+03  0.71216018221E+03  0.25500000000E-02 0.  1.
          2   -1    0    0  501    0  0.00000000000E+00 -0.00000000000E+00 -0.72734259982E+03  0.72734259983E+03  0.25500000000E-02 0. -1.
    8880023    1    1    2    0    0 -0.37254633501E+02 -0.23126662991E+03 -0.51393555334E+03  0.86764746359E+03  0.65864270000E+03 0. -1.
    8880022    1    1    2    0    0  0.37254633501E+02  0.23126662991E+03  0.49875313573E+03  0.57185531845E+03  0.15294330000E+03 0.  0.
<mgrwt>
<rscale>  0 0.55600683E+03</rscale>
<asrwt>0</asrwt>
<pdfrwt beam="1">  1        2 0.11189886E+00 0.69905820E+03</pdfrwt>
<pdfrwt beam="2">  1       -2 0.10956310E+00 0.69905820E+03</pdfrwt>
<totfact> 0.26362248E+01</totfact>
</mgrwt>
</event>
<event>
 4    2  0.3747163E-007  0.7201253E+03  0.7818608E-02  0.9922162E-01
          2   -1    0    0  501    0  0.00000000000E+00  0.00000000000E+00  0.15260066514E+04  0.15260066514E+04  0.25500000000E-02 0. -1.
         -2   -1    0    0    0  501 -0.00000000000E+00 -0.00000000000E+00 -0.26512866468E+03  0.26512866469E+03  0.25500000000E-02 0.  1.
    8880023    1    1    2    0    0 -0.11330637438E+03  0.26820122686E+03  0.12724072240E+04  0.14620535498E+04  0.65864270000E+03 0.  0.
    8880022    1    1    2    0    0  0.11330637438E+03 -0.26820122686E+03 -0.11529237303E+02  0.32908176627E+03  0.15294330000E+03 0.  0.
<mgrwt>
<rscale>  0 0.59199131E+03</rscale>
<asrwt>0</asrwt>
<pdfrwt beam="1">  1        2 0.23477026E+00 0.72012529E+03</pdfrwt>
<pdfrwt beam="2">  1       -2 0.40789025E-01 0.72012529E+03</pdfrwt>
<totfact> 0.71488391E+01</totfact>
</mgrwt>
</event>
<event>
 4    2  0.3747163E-007  0.1667274E+04  0.7818608E-02  0.8799743E-01
         -2   -1    0    0    0  501 -0.00000000000E+00  0.00000000000E+00  0.99770273255E+03  0.99770273255E+03  0.25500000000E-02 0.  1.
          2   -1    0    0  501    0  0.00000000000E+00 -0.00000000000E+00 -0.30057510587E+04  0.30057510587E+04  0.25500000000E-02 0. -1.
    8880023    1    1    2    0    0 -0.66523862257E+03  0.13796553943E+04 -0.17943908250E+04  0.24494162715E+04  0.65864270000E+03 0.  0.
    8880022    1    1    2    0    0  0.66523862257E+03 -0.13796553943E+04 -0.21365750110E+03  0.15540375197E+04  0.15294330000E+03 0.  0.
<mgrwt>
<rscale>  0 0.16343106E+04</rscale>
<asrwt>0</asrwt>
<pdfrwt beam="1">  1        2 0.46242324E+00 0.16672737E+04</pdfrwt>
<pdfrwt beam="2">  1       -2 0.15349273E+00 0.16672737E+04</pdfrwt>
<totfact> 0.45272509E-01</totfact>
</mgrwt>
</event>
<event>
 4    2  0.3747163E-007  0.7556952E+03  0.7818608E-02  0.9816382E-01
          2   -1    0    0  501    0  0.00000000000E+00  0.00000000000E+00  0.74343289877E+03  0.74343289877E+03  0.25500000000E-02 0. -1.
         -2   -1    0    0    0  501 -0.00000000000E+00 -0.00000000000E+00 -0.92965446293E+03  0.92965446294E+03  0.25500000000E-02 0.  1.
    8880023    1    1    2    0    0 -0.35942414503E+03 -0.89885412973E+02  0.48024027689E+03  0.89538038470E+03  0.65864270000E+03 0. -1.
    8880022    1    1    2    0    0  0.35942414503E+03  0.89885412973E+02 -0.66646184105E+03  0.77770697701E+03  0.15294330000E+03 0.  0.
<mgrwt>
<rscale>  0 0.64490745E+03</rscale>
<asrwt>0</asrwt>
<pdfrwt beam="1">  1        2 0.11437429E+00 0.75569525E+03</pdfrwt>
<pdfrwt beam="2">  1       -2 0.14302376E+00 0.75569525E+03</pdfrwt>
<totfact> 0.13072105E+01</totfact>
</mgrwt>
</event>
<event>
 4    2  0.3747163E-007  0.9489521E+03  0.7818608E-02  0.9451623E-01
         -2   -1    0    0    0  501 -0.00000000000E+00  0.00000000000E+00  0.21834350333E+03  0.21834350334E+03  0.25500000000E-02 0.  1.
          2   -1    0    0  501    0  0.00000000000E+00 -0.00000000000E+00 -0.32579129416E+04  0.32579129416E+04  0.25500000000E-02 0. -1.
    8880023    1    1    2    0    0 -0.22421155875E+03 -0.64531316930E+03 -0.13770726725E+04  0.16723753350E+04  0.65864270000E+03 0. -1.
    8880022    1    1    2    0    0  0.22421155875E+03  0.64531316930E+03 -0.16624967658E+04  0.18038811100E+04  0.15294330000E+03 0.  1.
<mgrwt>
<rscale>  0 0.87946362E+03</rscale>
<asrwt>0</asrwt>
<pdfrwt beam="1">  1        2 0.50121734E+00 0.94895211E+03</pdfrwt>
<pdfrwt beam="2">  1       -2 0.33591311E-01 0.94895211E+03</pdfrwt>
<totfact> 0.10205820E+01</totfact>
</mgrwt>
</event>
<event>
 4    2  0.3747163E-007  0.7513636E+03  0.7818608E-02  0.9828002E-01
          2   -1    0    0  501    0  0.00000000000E+00  0.00000000000E+00  0.41033438757E+04  0.41033438757E+04  0.25500000000E-02 0. -1.
         -2   -1    0    0    0  501 -0.00000000000E+00 -0.00000000000E+00 -0.14460247191E+03  0.14460247194E+03  0.25500000000E-02 0.  1.
    8880023    1    1    2    0    0 -0.22549736054E+03  0.28264475052E+03  0.37051657913E+04  0.37805820798E+04  0.65864270000E+03 0. -1.
    8880022    1    1    2    0    0  0.22549736054E+03 -0.28264475052E+03  0.25357561247E+03  0.46736426785E+03  0.15294330000E+03 0.  0.
<mgrwt>
<rscale>  0 0.63881204E+03</rscale>
<asrwt>0</asrwt>
<pdfrwt beam="1">  1        2 0.63128362E+00 0.75136364E+03</pdfrwt>
<pdfrwt beam="2">  1       -2 0.22246536E-01 0.75136364E+03</pdfrwt>
<totfact> 0.55099828E+00</totfact>
</mgrwt>
</event>
<event>
 4    2  0.3747163E-007  0.8294672E+03  0.7818608E-02  0.9650370E-01
          2   -1    0    0  501    0  0.00000000000E+00  0.00000000000E+00  0.22884123895E+04  0.22884123895E+04  0.25500000000E-02 0. -1.
         -2   -1    0    0    0  501 -0.00000000000E+00 -0.00000000000E+00 -0.28624587333E+03  0.28624587334E+03  0.25500000000E-02 0.  1.
    8880023    1    1    2    0    0  0.46171068326E+03  0.20255569939E+03  0.18481196589E+04  0.20257250668E+04  0.65864270000E+03 0. -1.
    8880022    1    1    2    0    0 -0.46171068326E+03 -0.20255569939E+03  0.15404685718E+03  0.54893319594E+03  0.15294330000E+03 0.  0.
<mgrwt>
<rscale>  0 0.74050209E+03</rscale>
<asrwt>0</asrwt>
<pdfrwt beam="1">  1        2 0.35206343E+00 0.82946716E+03</pdfrwt>
<pdfrwt beam="2">  1       -2 0.44037829E-01 0.82946716E+03</pdfrwt>
<totfact> 0.23153394E+01</totfact>
</mgrwt>
</event>
<event>
 4    2  0.3747163E-007  0.1120536E+04  0.7818608E-02  0.9238529E-01
         -2   -1    0    0    0  501 -0.00000000000E+00  0.00000000000E+00  0.11523910689E+04  0.11523910689E+04  0.25500000000E-02 0.  1.
          2   -1    0    0  501    0  0.00000000000E+00 -0.00000000000E+00 -0.17200454189E+04  0.17200454189E+04  0.25500000000E-02 0. -1.
    8880023    1    1    2    0    0  0.28978166467E+03  0.85896313371E+03 -0.12860254156E+04  0.17057147048E+04  0.65864270000E+03 0.  0.
    8880022    1    1    2    0    0 -0.28978166467E+03 -0.85896313371E+03  0.71837106554E+03  0.11667217831E+04  0.15294330000E+03 0.  0.
<mgrwt>
<rscale>  0 0.10664444E+04</rscale>
<asrwt>0</asrwt>
<pdfrwt beam="1">  1        2 0.26462237E+00 0.11205362E+04</pdfrwt>
<pdfrwt beam="2">  1       -2 0.17729093E+00 0.11205362E+04</pdfrwt>
<totfact> 0.17728603E+00</totfact>
</mgrwt>
</event>
<event>
 4    2  0.3747163E-007  0.9243251E+03  0.7818608E-02  0.9488059E-01
          2   -1    0    0  501    0  0.00000000000E+00  0.00000000000E+00  0.41724830752E+04  0.41724830752E+04  0.25500000000E-02 0. -1.
         -2   -1    0    0    0  501 -0.00000000000E+00 -0.00000000000E+00 -0.29809417560E+03  0.29809417561E+03  0.25500000000E-02 0.  1.
    8880023    1    1    2    0    0 -0.64630656103E+03  0.53427645324E+02  0.36535048528E+04  0.37686170673E+04  0.65864270000E+03 0. -1.
    8880022    1    1    2    0    0  0.64630656103E+03 -0.53427645324E+02  0.22088404681E+03  0.70196018354E+03  0.15294330000E+03 0.  0.
<mgrwt>
<rscale>  0 0.85169939E+03</rscale>
<asrwt>0</asrwt>
<pdfrwt beam="1">  1        2 0.64192046E+00 0.92432510E+03</pdfrwt>
<pdfrwt beam="2">  1       -2 0.45860644E-01 0.92432510E+03</pdfrwt>
<totfact> 0.11931160E+00</totfact>
</mgrwt>
</event>
<event>
 4    2  0.3747163E-007  0.6619169E+03  0.7818608E-02  0.1022273E+00
         -2   -1    0    0    0  501 -0.00000000000E+00  0.00000000000E+00  0.80465293739E+03  0.80465293739E+03  0.25500000000E-02 0.  1.
          2   -1    0    0  501    0  0.00000000000E+00 -0.00000000000E+00 -0.69098182893E+03  0.69098182894E+03  0.25500000000E-02 0. -1.
    8880023    1    1    2    0    0  0.38474711290E+02  0.53324487226E+02 -0.51918904191E+03  0.84124388369E+03  0.65864270000E+03 0. -1.
    8880022    1    1    2    0    0 -0.38474711290E+02 -0.53324487226E+02  0.63286015036E+03  0.65439088264E+03  0.15294330000E+03 0.  0.
<mgrwt>
<rscale>  0 0.46875171E+03</rscale>
<asrwt>0</asrwt>
<pdfrwt beam="1">  1        2 0.10630490E+00 0.66191692E+03</pdfrwt>
<pdfrwt beam="2">  1       -2 0.12379276E+00 0.66191692E+03</pdfrwt>
<totfact> 0.20926641E+01</totfact>
</mgrwt>
</event>
<event>
 4    2  0.3747163E-007  0.7789350E+03  0.7818608E-02  0.9758345E-01
         -2   -1    0    0    0  501 -0.00000000000E+00  0.00000000000E+00  0.99728663011E+03  0.99728663011E+03  0.25500000000E-02 0.  1.
          2   -1    0    0  501    0  0.00000000000E+00 -0.00000000000E+00 -0.11260692554E+04  0.11260692554E+04  0.25500000000E-02 0. -1.
    8880023    1    1    2    0    0  0.16439048927E+03 -0.38197542910E+03 -0.92675347416E+03  0.12106244957E+04  0.65864270000E+03 0. -1.
    8880022    1    1    2    0    0 -0.16439048927E+03  0.38197542910E+03  0.79797084885E+03  0.91273138985E+03  0.15294330000E+03 0.  0.
<mgrwt>
<rscale>  0 0.67646724E+03</rscale>
<asrwt>0</asrwt>
<pdfrwt beam="1">  1        2 0.17324142E+00 0.77893496E+03</pdfrwt>
<pdfrwt beam="2">  1       -2 0.15342871E+00 0.77893496E+03</pdfrwt>
<totfact> 0.60213512E+00</totfact>
</mgrwt>
</event>
<event>
 4    2  0.3747163E-007  0.6954302E+03  0.7818608E-02  0.1001671E+00
          2   -1    0    0  501    0  0.00000000000E+00  0.00000000000E+00  0.23340698029E+04  0.23340698029E+04  0.25500000000E-02 0. -1.
         -2   -1    0    0    0  501 -0.00000000000E+00 -0.00000000000E+00 -0.15627339856E+03  0.15627339858E+03  0.25500000000E-02 0.  1.
    8880023    1    1    2    0    0 -0.29444997749E+01  0.22316864012E+03  0.20949805359E+04  0.22073890831E+04  0.65864270000E+03 0. -1.
    8880022    1    1    2    0    0  0.29444997749E+01 -0.22316864012E+03  0.82815868357E+02  0.28295411832E+03  0.15294330000E+03 0.  0.
<mgrwt>
<rscale>  0 0.54923400E+03</rscale>
<asrwt>0</asrwt>
<pdfrwt beam="1">  1        2 0.35908765E+00 0.69543017E+03</pdfrwt>
<pdfrwt beam="2">  1       -2 0.24042062E-01 0.69543017E+03</pdfrwt>
<totfact> 0.69522424E+01</totfact>
</mgrwt>
</event>
<event>
 4    2  0.3747163E-007  0.7465262E+03  0.7818608E-02  0.9841329E-01
         -2   -1    0    0    0  501 -0.00000000000E+00  0.00000000000E+00  0.15502952180E+04  0.15502952180E+04  0.25500000000E-02 0.  1.
          2   -1    0    0  501    0  0.00000000000E+00 -0.00000000000E+00 -0.63377931148E+03  0.63377931149E+03  0.25500000000E-02 0. -1.
    8880023    1    1    2    0    0 -0.33622571489E+03  0.10219292772E+03  0.13882720128E+04  0.15762615626E+04  0.65864270000E+03 0.  1.
    8880022    1    1    2    0    0  0.33622571489E+03 -0.10219292772E+03 -0.47175610634E+03  0.60781296688E+03  0.15294330000E+03 0.  0.
<mgrwt>
<rscale>  0 0.63190987E+03</rscale>
<asrwt>0</asrwt>
<pdfrwt beam="1">  1        2 0.97504510E-01 0.74652618E+03</pdfrwt>
<pdfrwt beam="2">  1       -2 0.23850696E+00 0.74652618E+03</pdfrwt>
<totfact> 0.36091032E+00</totfact>
</mgrwt>
</event>
<event>
 4    2  0.3747163E-007  0.7462042E+03  0.7818608E-02  0.9842230E-01
          2   -1    0    0  501    0  0.00000000000E+00  0.00000000000E+00  0.35001906604E+04  0.35001906604E+04  0.25500000000E-02 0. -1.
         -2   -1    0    0    0  501 -0.00000000000E+00 -0.00000000000E+00 -0.31191823921E+03  0.31191823922E+03  0.25500000000E-02 0.  1.
    8880023    1    1    2    0    0  0.10847825569E+03 -0.33353104266E+03  0.33235382926E+04  0.34062776571E+04  0.65864270000E+03 0. -1.
    8880022    1    1    2    0    0 -0.10847825569E+03  0.33353104266E+03 -0.13526587149E+03  0.40583124249E+03  0.15294330000E+03 0.  0.
<mgrwt>
<rscale>  0 0.63144669E+03</rscale>
<asrwt>0</asrwt>
<pdfrwt beam="1">  1        2 0.53849090E+00 0.74620419E+03</pdfrwt>
<pdfrwt beam="2">  1       -2 0.47987419E-01 0.74620419E+03</pdfrwt>
<totfact> 0.36323646E+00</totfact>
</mgrwt>
</event>
<event>
 4    2  0.3908331E-007  0.7303917E+03  0.7818608E-02  0.9888875E-01
          2   -1    0    0  501    0  0.00000000000E+00  0.00000000000E+00  0.24343780957E+04  0.24343780957E+04  0.25500000000E-02 0. -1.
         -2   -1    0    0    0  501 -0.00000000000E+00 -0.00000000000E+00 -0.77574216259E+03  0.77574216260E+03  0.25500000000E-02 0.  1.
    8880023    1    1    2    0    0 -0.19593938653E+03 -0.24752708678E+03  0.23358858427E+04  0.24474138960E+04  0.65864270000E+03 0. -1.
    8880022    1    1    2    0    0  0.19593938653E+03  0.24752708678E+03 -0.67724990965E+03  0.76270636225E+03  0.15294330000E+03 0.  0.
<mgrwt>
<rscale>  0 0.60803512E+03</rscale>
<asrwt>0</asrwt>
<pdfrwt beam="1">  1        2 0.37451971E+00 0.73039175E+03</pdfrwt>
<pdfrwt beam="2">  1       -2 0.11934495E+00 0.73039175E+03</pdfrwt>
<totfact> 0.21526985E+00</totfact>
</mgrwt>
</event>
<event>
 4    2  0.3747163E-007  0.7069895E+03  0.7818608E-02  0.9969355E-01
         -2   -1    0    0    0  501 -0.00000000000E+00  0.00000000000E+00  0.10387966492E+04  0.10387966492E+04  0.25500000000E-02 0.  1.
          2   -1    0    0  501    0  0.00000000000E+00 -0.00000000000E+00 -0.77806621150E+03  0.77806621150E+03  0.25500000000E-02 0. -1.
    8880023    1    1    2    0    0  0.11186164204E+03  0.23132414583E+03 -0.58638407539E+03  0.91852075509E+03  0.65864270000E+03 0. -1.
    8880022    1    1    2    0    0 -0.11186164204E+03 -0.23132414583E+03  0.84711451314E+03  0.89834210565E+03  0.15294330000E+03 0.  0.
<mgrwt>
<rscale>  0 0.57014632E+03</rscale>
<asrwt>0</asrwt>
<pdfrwt beam="1">  1        2 0.11970249E+00 0.70698946E+03</pdfrwt>
<pdfrwt beam="2">  1       -2 0.15981487E+00 0.70698946E+03</pdfrwt>
<totfact> 0.92289260E+00</totfact>
</mgrwt>
</event>
<event>
 4    2  0.3747163E-007  0.7382107E+03  0.7818608E-02  0.9865190E-01
         -2   -1    0    0    0  501 -0.00000000000E+00  0.00000000000E+00  0.20928826881E+03  0.20928826883E+03  0.25500000000E-02 0.  1.
          2   -1    0    0  501    0  0.00000000000E+00 -0.00000000000E+00 -0.22161995089E+04  0.22161995089E+04  0.25500000000E-02 0. -1.
    8880023    1    1    2    0    0  0.30287535507E+03 -0.13932465265E+03 -0.19076479437E+04  0.20455013378E+04  0.65864270000E+03 0.  0.
    8880022    1    1    2    0    0 -0.30287535507E+03  0.13932465265E+03 -0.99263296458E+02  0.37998644000E+03  0.15294330000E+03 0.  0.
<mgrwt>
<rscale>  0 0.61978387E+03</rscale>
<asrwt>0</asrwt>
<pdfrwt beam="1">  1        2 0.34095375E+00 0.73821071E+03</pdfrwt>
<pdfrwt beam="2">  1       -2 0.32198197E-01 0.73821071E+03</pdfrwt>
<totfact> 0.47030941E+01</totfact>
</mgrwt>
</event>
<event>
 4    2  0.3747163E-007  0.8792025E+03  0.7818608E-02  0.9560279E-01
          2   -1    0    0  501    0  0.00000000000E+00  0.00000000000E+00  0.12897797452E+04  0.12897797452E+04  0.25500000000E-02 0. -1.
         -2   -1    0    0    0  501 -0.00000000000E+00 -0.00000000000E+00 -0.50045281523E+03  0.50045281524E+03  0.25500000000E-02 0.  1.
    8880023    1    1    2    0    0  0.47079676446E+03  0.34283697945E+03  0.79898152447E+03  0.11880102990E+04  0.65864270000E+03 0.  0.
    8880022    1    1    2    0    0 -0.47079676446E+03 -0.34283697945E+03 -0.96545945315E+01  0.60222226138E+03  0.15294330000E+03 0.  0.
<mgrwt>
<rscale>  0 0.79981938E+03</rscale>
<asrwt>0</asrwt>
<pdfrwt beam="1">  1        2 0.19842765E+00 0.87920248E+03</pdfrwt>
<pdfrwt beam="2">  1       -2 0.76992742E-01 0.87920248E+03</pdfrwt>
<totfact> 0.25419189E+01</totfact>
</mgrwt>
</event>
<event>
 4    2  0.3747163E-007  0.6974555E+03  0.7818608E-02  0.1000792E+00
         -2   -1    0    0    0  501 -0.00000000000E+00  0.00000000000E+00  0.42984539561E+03  0.42984539562E+03  0.25500000000E-02 0.  1.
          2   -1    0    0  501    0  0.00000000000E+00 -0.00000000000E+00 -0.72815163312E+03  0.72815163313E+03  0.25500000000E-02 0. -1.
    8880023    1    1    2    0    0  0.50597522627E+02 -0.22377187209E+03 -0.46270151398E+03  0.83698079867E+03  0.65864270000E+03 0.  0.
    8880022    1    1    2    0    0 -0.50597522627E+02  0.22377187209E+03  0.16439527646E+03  0.32101623008E+03  0.15294330000E+03 0.  0.
<mgrwt>
<rscale>  0 0.55304105E+03</rscale>
<asrwt>0</asrwt>
<pdfrwt beam="1">  1        2 0.11202333E+00 0.69745549E+03</pdfrwt>
<pdfrwt beam="2">  1       -2 0.66130061E-01 0.69745549E+03</pdfrwt>
<totfact> 0.83270754E+01</totfact>
</mgrwt>
</event>
<event>
 4    2  0.3747163E-007  0.7428016E+03  0.7818608E-02  0.9851860E-01
          2   -1    0    0  501    0  0.00000000000E+00  0.00000000000E+00  0.17884229119E+04  0.17884229119E+04  0.25500000000E-02 0. -1.
         -2   -1    0    0    0  501 -0.00000000000E+00 -0.00000000000E+00 -0.62734022039E+03  0.62734022039E+03  0.25500000000E-02 0.  1.
    8880023    1    1    2    0    0 -0.29992438244E+03 -0.16730005089E+03  0.16438482591E+04  0.18038822709E+04  0.65864270000E+03 0. -1.
    8880022    1    1    2    0    0  0.29992438244E+03  0.16730005089E+03 -0.48276556759E+03  0.61188086134E+03  0.15294330000E+03 0.  0.
<mgrwt>
<rscale>  0 0.62652160E+03</rscale>
<asrwt>0</asrwt>
<pdfrwt beam="1">  1        2 0.27514198E+00 0.74280155E+03</pdfrwt>
<pdfrwt beam="2">  1       -2 0.96513882E-01 0.74280155E+03</pdfrwt>
<totfact> 0.81153255E+00</totfact>
</mgrwt>
</event>
<event>
 4    2  0.3747163E-007  0.7360219E+03  0.7818608E-02  0.9871690E-01
          2   -1    0    0  501    0  0.00000000000E+00  0.00000000000E+00  0.11478758787E+04  0.11478758787E+04  0.25500000000E-02 0. -1.
         -2   -1    0    0    0  501 -0.00000000000E+00 -0.00000000000E+00 -0.68731298620E+03  0.68731298620E+03  0.25500000000E-02 0.  1.
    8880023    1    1    2    0    0  0.16289116629E+03  0.28527962772E+03  0.96527064449E+03  0.12138680412E+04  0.65864270000E+03 0. -1.
    8880022    1    1    2    0    0 -0.16289116629E+03 -0.28527962772E+03 -0.50470775199E+03  0.62132082371E+03  0.15294330000E+03 0.  0.
<mgrwt>
<rscale>  0 0.61653129E+03</rscale>
<asrwt>0</asrwt>
<pdfrwt beam="1">  1        2 0.17659629E+00 0.73602188E+03</pdfrwt>
<pdfrwt beam="2">  1       -2 0.10574046E+00 0.73602188E+03</pdfrwt>
<totfact> 0.15016679E+01</totfact>
</mgrwt>
</event>
<event>
 4    2  0.3747163E-007  0.7343489E+03  0.7818608E-02  0.9876725E-01
          2   -1    0    0  501    0  0.00000000000E+00  0.00000000000E+00  0.16017519421E+04  0.16017519421E+04  0.25500000000E-02 0. -1.
         -2   -1    0    0    0  501 -0.00000000000E+00 -0.00000000000E+00 -0.51904600860E+03  0.51904600861E+03  0.25500000000E-02 0.  1.
    8880023    1    1    2    0    0  0.31838732284E+03  0.63934802367E+02  0.14386800924E+04  0.16152612052E+04  0.65864270000E+03 0. -1.
    8880022    1    1    2    0    0 -0.31838732284E+03 -0.63934802367E+02 -0.35597415891E+03  0.50553674557E+03  0.15294330000E+03 0.  0.
<mgrwt>
<rscale>  0 0.61402679E+03</rscale>
<asrwt>0</asrwt>
<pdfrwt beam="1">  1        2 0.24642338E+00 0.73434893E+03</pdfrwt>
<pdfrwt beam="2">  1       -2 0.79853232E-01 0.73434893E+03</pdfrwt>
<totfact> 0.15880536E+01</totfact>
</mgrwt>
</event>
<event>
 4    2  0.3747163E-007  0.6874768E+03  0.7818608E-02  0.1005376E+00
          2   -1    0    0  501    0  0.00000000000E+00  0.00000000000E+00  0.13720163214E+04  0.13720163214E+04  0.25500000000E-02 0. -1.
         -2   -1    0    0    0  501 -0.00000000000E+00 -0.00000000000E+00 -0.26854056233E+03  0.26854056234E+03  0.25500000000E-02 0.  1.
    8880023    1    1    2    0    0 -0.19386899607E+03 -0.35055604606E+02  0.11918842735E+04  0.13759405549E+04  0.65864270000E+03 0. -1.
    8880022    1    1    2    0    0  0.19386899607E+03  0.35055604606E+02 -0.88408514391E+02  0.26461632883E+03  0.15294330000E+03 0.  0.
<mgrwt>
<rscale>  0 0.53354655E+03</rscale>
<asrwt>0</asrwt>
<pdfrwt beam="1">  1        2 0.21107944E+00 0.68747676E+03</pdfrwt>
<pdfrwt beam="2">  1       -2 0.41313932E-01 0.68747676E+03</pdfrwt>
<totfact> 0.85312609E+01</totfact>
</mgrwt>
</event>
<event>
 4    2  0.3747163E-007  0.8506351E+03  0.7818608E-02  0.9610444E-01
         -2   -1    0    0    0  501 -0.00000000000E+00  0.00000000000E+00  0.22390070158E+03  0.22390070160E+03  0.25500000000E-02 0.  1.
          2   -1    0    0  501    0  0.00000000000E+00 -0.00000000000E+00 -0.44298314949E+04  0.44298314949E+04  0.25500000000E-02 0. -1.
    8880023    1    1    2    0    0 -0.53816862890E+03 -0.12016213527E+02 -0.39461050279E+04  0.40367468288E+04  0.65864270000E+03 0. -1.
    8880022    1    1    2    0    0  0.53816862890E+03  0.12016213527E+02 -0.25982576539E+03  0.61698536766E+03  0.15294330000E+03 0.  0.
<mgrwt>
<rscale>  0 0.76608776E+03</rscale>
<asrwt>0</asrwt>
<pdfrwt beam="1">  1        2 0.68151247E+00 0.85063510E+03</pdfrwt>
<pdfrwt beam="2">  1       -2 0.34446265E-01 0.85063510E+03</pdfrwt>
<totfact> 0.12564775E+00</totfact>
</mgrwt>
</event>
<event>
 4    2  0.3747163E-007  0.7811354E+03  0.7818608E-02  0.9753177E-01
         -2   -1    0    0    0  501 -0.00000000000E+00  0.00000000000E+00  0.51806761374E+03  0.51806761374E+03  0.25500000000E-02 0.  1.
          2   -1    0    0  501    0  0.00000000000E+00 -0.00000000000E+00 -0.11597246076E+04  0.11597246076E+04  0.25500000000E-02 0. -1.
    8880023    1    1    2    0    0 -0.10683228004E+02  0.41981927138E+03 -0.87554807706E+03  0.11733528853E+04  0.65864270000E+03 0. -1.
    8880022    1    1    2    0    0  0.10683228004E+02 -0.41981927138E+03  0.23389108315E+03  0.50443933607E+03  0.15294330000E+03 0.  0.
<mgrwt>
<rscale>  0 0.67937051E+03</rscale>
<asrwt>0</asrwt>
<pdfrwt beam="1">  1        2 0.17841917E+00 0.78113543E+03</pdfrwt>
<pdfrwt beam="2">  1       -2 0.79702710E-01 0.78113543E+03</pdfrwt>
<totfact> 0.28336435E+01</totfact>
</mgrwt>
</event>
<event>
 4    2  0.3747163E-007  0.7103444E+03  0.7818608E-02  0.9956724E-01
          2   -1    0    0  501    0  0.00000000000E+00  0.00000000000E+00  0.12816982349E+04  0.12816982349E+04  0.25500000000E-02 0. -1.
         -2   -1    0    0    0  501 -0.00000000000E+00 -0.00000000000E+00 -0.30542310813E+03  0.30542310814E+03  0.25500000000E-02 0.  1.
    8880023    1    1    2    0    0  0.25769383523E+03  0.66127948808E+02  0.10535657319E+04  0.12706651707E+04  0.65864270000E+03 0. -1.
    8880022    1    1    2    0    0 -0.25769383523E+03 -0.66127948808E+02 -0.77290605166E+02  0.31645617231E+03  0.15294330000E+03 0.  0.
<mgrwt>
<rscale>  0 0.57589220E+03</rscale>
<asrwt>0</asrwt>
<pdfrwt beam="1">  1        2 0.19718435E+00 0.71034444E+03</pdfrwt>
<pdfrwt beam="2">  1       -2 0.46988170E-01 0.71034444E+03</pdfrwt>
<totfact> 0.74273937E+01</totfact>
</mgrwt>
</event>
<event>
 4    2  0.3747163E-007  0.7784406E+03  0.7818608E-02  0.9759513E-01
          2   -1    0    0  501    0  0.00000000000E+00  0.00000000000E+00  0.15980616370E+04  0.15980616370E+04  0.25500000000E-02 0. -1.
         -2   -1    0    0    0  501 -0.00000000000E+00 -0.00000000000E+00 -0.72514775850E+03  0.72514775850E+03  0.25500000000E-02 0.  1.
    8880023    1    1    2    0    0 -0.15608892021E+03 -0.38444223600E+03  0.14202279597E+04  0.16195731683E+04  0.65864270000E+03 0.  1.
    8880022    1    1    2    0    0  0.15608892021E+03  0.38444223600E+03 -0.54731408113E+03  0.70363622722E+03  0.15294330000E+03 0.  0.
<mgrwt>
<rscale>  0 0.67581322E+03</rscale>
<asrwt>0</asrwt>
<pdfrwt beam="1">  1        2 0.24585564E+00 0.77844061E+03</pdfrwt>
<pdfrwt beam="2">  1       -2 0.11156119E+00 0.77844061E+03</pdfrwt>
<totfact> 0.72596483E+00</totfact>
</mgrwt>
</event>
<event>
 4    2  0.3747163E-007  0.8499562E+03  0.7818608E-02  0.9611685E-01
         -2   -1    0    0    0  501 -0.00000000000E+00  0.00000000000E+00  0.26734120253E+03  0.26734120254E+03  0.25500000000E-02 0.  1.
          2   -1    0    0  501    0  0.00000000000E+00 -0.00000000000E+00 -0.26422701172E+04  0.26422701172E+04  0.25500000000E-02 0. -1.
    8880023    1    1    2    0    0 -0.41895869127E+03 -0.33628702386E+03 -0.21418955333E+04  0.23043745419E+04  0.65864270000E+03 0. -1.
    8880022    1    1    2    0    0  0.41895869127E+03  0.33628702386E+03 -0.23303338133E+03  0.60523677783E+03  0.15294330000E+03 0.  0.
<mgrwt>
<rscale>  0 0.76527576E+03</rscale>
<asrwt>0</asrwt>
<pdfrwt beam="1">  1        2 0.40650308E+00 0.84995621E+03</pdfrwt>
<pdfrwt beam="2">  1       -2 0.41129418E-01 0.84995621E+03</pdfrwt>
<totfact> 0.16647727E+01</totfact>
</mgrwt>
</event>
<event>
 4    2  0.3747163E-007  0.6825457E+03  0.7818608E-02  0.1007919E+00
         -2   -1    0    0    0  501 -0.00000000000E+00  0.00000000000E+00  0.92505435596E+02  0.92505435631E+02  0.25500000000E-02 0.  1.
          2   -1    0    0  501    0  0.00000000000E+00 -0.00000000000E+00 -0.22893398433E+04  0.22893398433E+04  0.25500000000E-02 0. -1.
    8880023    1    1    2    0    0  0.60813169084E+02  0.16840499639E+03 -0.15561098567E+04  0.16992194022E+04  0.65864270000E+03 0.  1.
    8880022    1    1    2    0    0 -0.60813169084E+02 -0.16840499639E+03 -0.64072455098E+03  0.68262587674E+03  0.15294330000E+03 0. -1.
<mgrwt>
<rscale>  0 0.52310232E+03</rscale>
<asrwt>0</asrwt>
<pdfrwt beam="1">  1        2 0.35220609E+00 0.68254574E+03</pdfrwt>
<pdfrwt beam="2">  1       -2 0.14231607E-01 0.68254574E+03</pdfrwt>
<totfact> 0.18283220E+02</totfact>
</mgrwt>
</event>
<event>
 4    2  0.3747163E-007  0.1279945E+04  0.7818608E-02  0.9083075E-01
         -2   -1    0    0    0  501 -0.00000000000E+00  0.00000000000E+00  0.14534333375E+04  0.14534333375E+04  0.25500000000E-02 0.  1.
          2   -1    0    0  501    0  0.00000000000E+00 -0.00000000000E+00 -0.12273880598E+04  0.12273880598E+04  0.25500000000E-02 0. -1.
    8880023    1    1    2    0    0  0.36583437698E+03  0.10347046698E+04 -0.47992101683E+03  0.13669612042E+04  0.65864270000E+03 0.  0.
    8880022    1    1    2    0    0 -0.36583437698E+03 -0.10347046698E+04  0.70596629451E+03  0.13138601931E+04  0.15294330000E+03 0.  0.
<mgrwt>
<rscale>  0 0.12346281E+04</rscale>
<asrwt>0</asrwt>
<pdfrwt beam="1">  1        2 0.18882893E+00 0.12799448E+04</pdfrwt>
<pdfrwt beam="2">  1       -2 0.22360513E+00 0.12799448E+04</pdfrwt>
<totfact> 0.16480642E+00</totfact>
</mgrwt>
</event>
<event>
 4    2  0.3747163E-007  0.6656759E+03  0.7818608E-02  0.1018973E+00
          2   -1    0    0  501    0  0.00000000000E+00  0.00000000000E+00  0.71009399389E+03  0.71009399390E+03  0.25500000000E-02 0. -1.
         -2   -1    0    0    0  501 -0.00000000000E+00 -0.00000000000E+00 -0.35055724972E+03  0.35055724973E+03  0.25500000000E-02 0.  1.
    8880023    1    1    2    0    0 -0.96418339817E+02 -0.42024504208E+01  0.49927586232E+03  0.83210621305E+03  0.65864270000E+03 0. -1.
    8880022    1    1    2    0    0  0.96418339817E+02  0.42024504208E+01 -0.13973911815E+03  0.22854503057E+03  0.15294330000E+03 0.  0.
<mgrwt>
<rscale>  0 0.48059055E+03</rscale>
<asrwt>0</asrwt>
<pdfrwt beam="1">  1        2 0.10924523E+00 0.66567587E+03</pdfrwt>
<pdfrwt beam="2">  1       -2 0.53931885E-01 0.66567587E+03</pdfrwt>
<totfact> 0.13240546E+02</totfact>
</mgrwt>
</event>
<event>
 4    2  0.3747163E-007  0.8018781E+03  0.7818608E-02  0.9706750E-01
          2   -1    0    0  501    0  0.00000000000E+00  0.00000000000E+00  0.16865019063E+04  0.16865019063E+04  0.25500000000E-02 0. -1.
         -2   -1    0    0    0  501 -0.00000000000E+00 -0.00000000000E+00 -0.35759585443E+03  0.35759585444E+03  0.25500000000E-02 0.  1.
    8880023    1    1    2    0    0  0.23071541761E+02 -0.45679970132E+03  0.13401020847E+04  0.15616920525E+04  0.65864270000E+03 0.  0.
    8880022    1    1    2    0    0 -0.23071541761E+02  0.45679970132E+03 -0.11196032844E+02  0.48240570823E+03  0.15294330000E+03 0.  0.
<mgrwt>
<rscale>  0 0.70616326E+03</rscale>
<asrwt>0</asrwt>
<pdfrwt beam="1">  1        2 0.25946182E+00 0.80187809E+03</pdfrwt>
<pdfrwt beam="2">  1       -2 0.55014748E-01 0.80187809E+03</pdfrwt>
<totfact> 0.31631442E+01</totfact>
</mgrwt>
</event>
<event>
 4    2  0.3747163E-007  0.1120610E+04  0.7818608E-02  0.9238450E-01
         -2   -1    0    0    0  501 -0.00000000000E+00  0.00000000000E+00  0.83488174745E+03  0.83488174745E+03  0.25500000000E-02 0.  1.
          2   -1    0    0  501    0  0.00000000000E+00 -0.00000000000E+00 -0.18581874478E+04  0.18581874478E+04  0.25500000000E-02 0. -1.
    8880023    1    1    2    0    0 -0.90604666812E+03  0.32174882172E+02 -0.13157208922E+04  0.17282613981E+04  0.65864270000E+03 0.  0.
    8880022    1    1    2    0    0  0.90604666812E+03 -0.32174882172E+02  0.29241519188E+03  0.96480779708E+03  0.15294330000E+03 0.  0.
<mgrwt>
<rscale>  0 0.10665229E+04</rscale>
<asrwt>0</asrwt>
<pdfrwt beam="1">  1        2 0.28587499E+00 0.11206097E+04</pdfrwt>
<pdfrwt beam="2">  1       -2 0.12844335E+00 0.11206097E+04</pdfrwt>
<totfact> 0.35252565E+00</totfact>
</mgrwt>
</event>
<event>
 4    2  0.3747163E-007  0.8040734E+03  0.7818608E-02  0.9702057E-01
         -2   -1    0    0    0  501 -0.00000000000E+00  0.00000000000E+00  0.14416546132E+03  0.14416546134E+03  0.25500000000E-02 0.  1.
          2   -1    0    0  501    0  0.00000000000E+00 -0.00000000000E+00 -0.29091376957E+04  0.29091376957E+04  0.25500000000E-02 0. -1.
    8880023    1    1    2    0    0 -0.25625568100E+03  0.38347983636E+03 -0.18535288294E+04  0.20204215121E+04  0.65864270000E+03 0.  0.
    8880022    1    1    2    0    0  0.25625568100E+03 -0.38347983636E+03 -0.91144340501E+03  0.10328816450E+04  0.15294330000E+03 0.  0.
<mgrwt>
<rscale>  0 0.70894460E+03</rscale>
<asrwt>0</asrwt>
<pdfrwt beam="1">  1        2 0.44755960E+00 0.80407336E+03</pdfrwt>
<pdfrwt beam="2">  1       -2 0.22179304E-01 0.80407336E+03</pdfrwt>
<totfact> 0.36848718E+01</totfact>
</mgrwt>
</event>
<event>
 4    2  0.3747163E-007  0.7840806E+03  0.7818608E-02  0.9746337E-01
         -2   -1    0    0    0  501 -0.00000000000E+00  0.00000000000E+00  0.12690942288E+04  0.12690942288E+04  0.25500000000E-02 0.  1.
          2   -1    0    0  501    0  0.00000000000E+00 -0.00000000000E+00 -0.11032332314E+04  0.11032332314E+04  0.25500000000E-02 0. -1.
    8880023    1    1    2    0    0  0.41805723097E+03  0.78741899077E+02 -0.91246878973E+03  0.12030717491E+04  0.65864270000E+03 0.  0.
    8880022    1    1    2    0    0 -0.41805723097E+03 -0.78741899077E+02  0.10783297871E+04  0.11692557111E+04  0.15294330000E+03 0.  1.
<mgrwt>
<rscale>  0 0.68323643E+03</rscale>
<asrwt>0</asrwt>
<pdfrwt beam="1">  1        2 0.16972819E+00 0.78408057E+03</pdfrwt>
<pdfrwt beam="2">  1       -2 0.19524527E+00 0.78408057E+03</pdfrwt>
<totfact> 0.31617444E+00</totfact>
</mgrwt>
</event>
<event>
 4    2  0.3747163E-007  0.7085697E+03  0.7818608E-02  0.9963351E-01
          2   -1    0    0  501    0  0.00000000000E+00  0.00000000000E+00  0.17132702904E+04  0.17132702904E+04  0.25500000000E-02 0. -1.
         -2   -1    0    0    0  501 -0.00000000000E+00 -0.00000000000E+00 -0.87104513023E+03  0.87104513023E+03  0.25500000000E-02 0.  1.
    8880023    1    1    2    0    0 -0.23840300821E+03  0.10688722327E+03  0.16099909888E+04  0.17590173572E+04  0.65864270000E+03 0. -1.
    8880022    1    1    2    0    0  0.23840300821E+03 -0.10688722327E+03 -0.76776582862E+03  0.82529806339E+03  0.15294330000E+03 0.  0.
<mgrwt>
<rscale>  0 0.57286858E+03</rscale>
<asrwt>0</asrwt>
<pdfrwt beam="1">  1        2 0.26358004E+00 0.70856974E+03</pdfrwt>
<pdfrwt beam="2">  1       -2 0.13400695E+00 0.70856974E+03</pdfrwt>
<totfact> 0.40204680E+00</totfact>
</mgrwt>
</event>
<event>
 4    2  0.3747163E-007  0.6950907E+03  0.7818608E-02  0.1001821E+00
         -2   -1    0    0    0  501 -0.00000000000E+00  0.00000000000E+00  0.77136325357E+03  0.77136325358E+03  0.25500000000E-02 0.  1.
          2   -1    0    0  501    0  0.00000000000E+00 -0.00000000000E+00 -0.10846415346E+04  0.10846415346E+04  0.25500000000E-02 0. -1.
    8880023    1    1    2    0    0 -0.11783275130E+03  0.18829863563E+03 -0.94269162834E+03  0.11712466204E+04  0.65864270000E+03 0. -1.
    8880022    1    1    2    0    0  0.11783275130E+03 -0.18829863563E+03  0.62941334733E+03  0.68475816773E+03  0.15294330000E+03 0.  0.
<mgrwt>
<rscale>  0 0.54858920E+03</rscale>
<asrwt>0</asrwt>
<pdfrwt beam="1">  1        2 0.16686793E+00 0.69509074E+03</pdfrwt>
<pdfrwt beam="2">  1       -2 0.11867127E+00 0.69509074E+03</pdfrwt>
<totfact> 0.12458994E+01</totfact>
</mgrwt>
</event>
<event>
 4    2  0.3747163E-007  0.7446127E+03  0.7818608E-02  0.9846709E-01
         -2   -1    0    0    0  501 -0.00000000000E+00  0.00000000000E+00  0.31663516274E+03  0.31663516275E+03  0.25500000000E-02 0.  1.
          2   -1    0    0  501    0  0.00000000000E+00 -0.00000000000E+00 -0.26704396199E+04  0.26704396199E+04  0.25500000000E-02 0. -1.
    8880023    1    1    2    0    0  0.31119098658E+02 -0.34593278882E+03 -0.24782372613E+04  0.25876839108E+04  0.65864270000E+03 0. -1.
    8880022    1    1    2    0    0 -0.31119098658E+02  0.34593278882E+03  0.12443280420E+03  0.39939087178E+03  0.15294330000E+03 0.  0.
<mgrwt>
<rscale>  0 0.62915012E+03</rscale>
<asrwt>0</asrwt>
<pdfrwt beam="1">  1        2 0.41083685E+00 0.74461272E+03</pdfrwt>
<pdfrwt beam="2">  1       -2 0.48713104E-01 0.74461272E+03</pdfrwt>
<totfact> 0.11628877E+01</totfact>
</mgrwt>
</event>
<event>
 4    2  0.3747163E-007  0.8459769E+03  0.7818608E-02  0.9619012E-01
          2   -1    0    0  501    0  0.00000000000E+00  0.00000000000E+00  0.60251673260E+03  0.60251673261E+03  0.25500000000E-02 0. -1.
         -2   -1    0    0    0  501 -0.00000000000E+00 -0.00000000000E+00 -0.18292445853E+04  0.18292445853E+04  0.25500000000E-02 0.  1.
    8880023    1    1    2    0    0  0.52680480361E+03 -0.65904950599E+02  0.22756850119E+03  0.87605045095E+03  0.65864270000E+03 0. -1.
    8880022    1    1    2    0    0 -0.52680480361E+03  0.65904950599E+02 -0.14542963539E+04  0.15557108670E+04  0.15294330000E+03 0.  0.
<mgrwt>
<rscale>  0 0.76050548E+03</rscale>
<asrwt>0</asrwt>
<pdfrwt beam="1">  1        2 0.92694883E-01 0.84597693E+03</pdfrwt>
<pdfrwt beam="2">  1       -2 0.28142224E+00 0.84597693E+03</pdfrwt>
<totfact> 0.20837686E+00</totfact>
</mgrwt>
</event>
<event>
 4    2  0.3747163E-007  0.8233770E+03  0.7818608E-02  0.9662359E-01
          2   -1    0    0  501    0  0.00000000000E+00  0.00000000000E+00  0.16497228844E+04  0.16497228844E+04  0.25500000000E-02 0. -1.
         -2   -1    0    0    0  501 -0.00000000000E+00 -0.00000000000E+00 -0.46893112454E+03  0.46893112455E+03  0.25500000000E-02 0.  1.
    8880023    1    1    2    0    0 -0.36334974165E+03 -0.33483795278E+03  0.13441037342E+04  0.15762501527E+04  0.65864270000E+03 0. -1.
    8880022    1    1    2    0    0  0.36334974165E+03  0.33483795278E+03 -0.16331197426E+03  0.54240385630E+03  0.15294330000E+03 0.  0.
<mgrwt>
<rscale>  0 0.73302847E+03</rscale>
<asrwt>0</asrwt>
<pdfrwt beam="1">  1        2 0.25380352E+00 0.82337701E+03</pdfrwt>
<pdfrwt beam="2">  1       -2 0.72143250E-01 0.82337701E+03</pdfrwt>
<totfact> 0.18522446E+01</totfact>
</mgrwt>
</event>
<event>
 4    2  0.3747163E-007  0.1089472E+04  0.7818608E-02  0.9272869E-01
          2   -1    0    0  501    0  0.00000000000E+00  0.00000000000E+00  0.12426362900E+04  0.12426362900E+04  0.25500000000E-02 0. -1.
         -2   -1    0    0    0  501 -0.00000000000E+00 -0.00000000000E+00 -0.11457831420E+04  0.11457831420E+04  0.25500000000E-02 0.  1.
    8880023    1    1    2    0    0 -0.80577571833E+03  0.32228056171E+03  0.72287537132E+03  0.13074778306E+04  0.65864270000E+03 0.  0.
    8880022    1    1    2    0    0  0.80577571833E+03 -0.32228056171E+03 -0.62602222331E+03  0.10809416015E+04  0.15294330000E+03 0.  0.
<mgrwt>
<rscale>  0 0.10331941E+04</rscale>
<asrwt>0</asrwt>
<pdfrwt beam="1">  1        2 0.19117481E+00 0.10894721E+04</pdfrwt>
<pdfrwt beam="2">  1       -2 0.17627433E+00 0.10894721E+04</pdfrwt>
<totfact> 0.33765601E+00</totfact>
</mgrwt>
</event>
<event>
 4    2  0.3747163E-007  0.6635643E+03  0.7818608E-02  0.1020770E+00
         -2   -1    0    0    0  501 -0.00000000000E+00  0.00000000000E+00  0.18335874448E+03  0.18335874450E+03  0.25500000000E-02 0.  1.
          2   -1    0    0  501    0  0.00000000000E+00 -0.00000000000E+00 -0.10820564263E+04  0.10820564263E+04  0.25500000000E-02 0. -1.
    8880023    1    1    2    0    0  0.57427431336E+02  0.56651648274E+02 -0.86340350215E+03  0.10889366983E+04  0.65864270000E+03 0. -1.
    8880022    1    1    2    0    0 -0.57427431336E+02 -0.56651648274E+02 -0.35294179677E+02  0.17647847250E+03  0.15294330000E+03 0.  0.
<mgrwt>
<rscale>  0 0.47409925E+03</rscale>
<asrwt>0</asrwt>
<pdfrwt beam="1">  1        2 0.16647022E+00 0.66356426E+03</pdfrwt>
<pdfrwt beam="2">  1       -2 0.28209038E-01 0.66356426E+03</pdfrwt>
<totfact> 0.26056867E+02</totfact>
</mgrwt>
</event>
<event>
 4    2  0.3747163E-007  0.7252639E+03  0.7818608E-02  0.9905161E-01
         -2   -1    0    0    0  501 -0.00000000000E+00  0.00000000000E+00  0.74030121031E+03  0.74030121032E+03  0.25500000000E-02 0.  1.
          2   -1    0    0  501    0  0.00000000000E+00 -0.00000000000E+00 -0.63226172378E+03  0.63226172378E+03  0.25500000000E-02 0. -1.
    8880023    1    1    2    0    0 -0.17490099808E+03 -0.24820788974E+03 -0.34743754109E+03  0.80418938496E+03  0.65864270000E+03 0. -1.
    8880022    1    1    2    0    0  0.17490099808E+03  0.24820788974E+03  0.45547702762E+03  0.56837354914E+03  0.15294330000E+03 0.  0.
<mgrwt>
<rscale>  0 0.60011805E+03</rscale>
<asrwt>0</asrwt>
<pdfrwt beam="1">  1        2 0.97271034E-01 0.72526390E+03</pdfrwt>
<pdfrwt beam="2">  1       -2 0.11389249E+00 0.72526390E+03</pdfrwt>
<totfact> 0.28515095E+01</totfact>
</mgrwt>
</event>
<event>
 4    2  0.3747163E-007  0.8099450E+03  0.7818608E-02  0.9689691E-01
          2   -1    0    0  501    0  0.00000000000E+00  0.00000000000E+00  0.10464691301E+04  0.10464691301E+04  0.25500000000E-02 0. -1.
         -2   -1    0    0    0  501 -0.00000000000E+00 -0.00000000000E+00 -0.10677679960E+04  0.10677679960E+04  0.25500000000E-02 0.  1.
    8880023    1    1    2    0    0  0.22988856753E+03  0.41152399644E+03  0.81061041936E+03  0.11459058475E+04  0.65864270000E+03 0.  0.
    8880022    1    1    2    0    0 -0.22988856753E+03 -0.41152399644E+03 -0.83190928530E+03  0.96833127860E+03  0.15294330000E+03 0.  0.
<mgrwt>
<rscale>  0 0.71633889E+03</rscale>
<asrwt>0</asrwt>
<pdfrwt beam="1">  1        2 0.16099525E+00 0.80994503E+03</pdfrwt>
<pdfrwt beam="2">  1       -2 0.16427200E+00 0.80994503E+03</pdfrwt>
<totfact> 0.55822419E+00</totfact>
</mgrwt>
</event>
<event>
 4    2  0.3747163E-007  0.7077008E+03  0.7818608E-02  0.9966640E-01
          2   -1    0    0  501    0  0.00000000000E+00  0.00000000000E+00  0.41616427430E+03  0.41616427431E+03  0.25500000000E-02 0. -1.
         -2   -1    0    0    0  501 -0.00000000000E+00 -0.00000000000E+00 -0.13299171484E+04  0.13299171484E+04  0.25500000000E-02 0.  1.
    8880023    1    1    2    0    0 -0.22219263166E+03  0.13289319015E+03  0.75894452960E+02  0.71175862468E+03  0.65864270000E+03 0. -1.
    8880022    1    1    2    0    0  0.22219263166E+03 -0.13289319015E+03 -0.98964732708E+03  0.10343227981E+04  0.15294330000E+03 0.  0.
<mgrwt>
<rscale>  0 0.57137522E+03</rscale>
<asrwt>0</asrwt>
<pdfrwt beam="1">  1        2 0.64025273E-01 0.70770076E+03</pdfrwt>
<pdfrwt beam="2">  1       -2 0.20460264E+00 0.70770076E+03</pdfrwt>
<totfact> 0.96626607E+00</totfact>
</mgrwt>
</event>
<event>
 4    2  0.3747163E-007  0.1088863E+04  0.7818608E-02  0.9273558E-01
         -2   -1    0    0    0  501 -0.00000000000E+00  0.00000000000E+00  0.85244369024E+03  0.85244369024E+03  0.25500000000E-02 0.  1.
          2   -1    0    0  501    0  0.00000000000E+00 -0.00000000000E+00 -0.15632735873E+04  0.15632735873E+04  0.25500000000E-02 0. -1.
    8880023    1    1    2    0    0 -0.82704958870E+03 -0.26038755738E+03 -0.10106519100E+04  0.14856110499E+04  0.65864270000E+03 0.  0.
    8880022    1    1    2    0    0  0.82704958870E+03  0.26038755738E+03  0.29982201294E+03  0.93010622763E+03  0.15294330000E+03 0.  0.
<mgrwt>
<rscale>  0 0.10325403E+04</rscale>
<asrwt>0</asrwt>
<pdfrwt beam="1">  1        2 0.24050363E+00 0.10888631E+04</pdfrwt>
<pdfrwt beam="2">  1       -2 0.13114518E+00 0.10888631E+04</pdfrwt>
<totfact> 0.48891600E+00</totfact>
</mgrwt>
</event>
<event>
 4    2  0.3747163E-007  0.6914934E+03  0.7818608E-02  0.1003451E+00
         -2   -1    0    0    0  501 -0.00000000000E+00  0.00000000000E+00  0.40633816977E+03  0.40633816978E+03  0.25500000000E-02 0.  1.
          2   -1    0    0  501    0  0.00000000000E+00 -0.00000000000E+00 -0.17099751415E+04  0.17099751415E+04  0.25500000000E-02 0. -1.
    8880023    1    1    2    0    0  0.21050462865E+03 -0.63848085572E+01 -0.15872706221E+04  0.17313553069E+04  0.65864270000E+03 0. -1.
    8880022    1    1    2    0    0 -0.21050462865E+03  0.63848085572E+01  0.28363365043E+03  0.38495800438E+03  0.15294330000E+03 0.  0.
<mgrwt>
<rscale>  0 0.54162711E+03</rscale>
<asrwt>0</asrwt>
<pdfrwt beam="1">  1        2 0.26307309E+00 0.69149344E+03</pdfrwt>
<pdfrwt beam="2">  1       -2 0.62513566E-01 0.69149344E+03</pdfrwt>
<totfact> 0.23797850E+01</totfact>
</mgrwt>
</event>
<event>
 4    2  0.3747163E-007  0.7147046E+03  0.7818608E-02  0.9940929E-01
         -2   -1    0    0    0  501 -0.00000000000E+00  0.00000000000E+00  0.32015322638E+03  0.32015322639E+03  0.25500000000E-02 0.  1.
          2   -1    0    0  501    0  0.00000000000E+00 -0.00000000000E+00 -0.83666633826E+03  0.83666633827E+03  0.25500000000E-02 0. -1.
    8880023    1    1    2    0    0 -0.39402591089E+02  0.27466335415E+03 -0.40147569889E+03  0.81974719601E+03  0.65864270000E+03 0.  0.
    8880022    1    1    2    0    0  0.39402591089E+02 -0.27466335415E+03 -0.11503741299E+03  0.33707236864E+03  0.15294330000E+03 0. -1.
<mgrwt>
<rscale>  0 0.58318066E+03</rscale>
<asrwt>0</asrwt>
<pdfrwt beam="1">  1        2 0.12871790E+00 0.71470464E+03</pdfrwt>
<pdfrwt beam="2">  1       -2 0.49254343E-01 0.71470464E+03</pdfrwt>
<totfact> 0.12830898E+02</totfact>
</mgrwt>
</event>
<event>
 4    2  0.3747163E-007  0.9081391E+03  0.7818608E-02  0.9513090E-01
          2   -1    0    0  501    0  0.00000000000E+00  0.00000000000E+00  0.34715764731E+04  0.34715764731E+04  0.25500000000E-02 0. -1.
         -2   -1    0    0    0  501 -0.00000000000E+00 -0.00000000000E+00 -0.21667575683E+03  0.21667575684E+03  0.25500000000E-02 0.  1.
    8880023    1    1    2    0    0  0.61465769036E+03 -0.11446528620E+03  0.26638272979E+04  0.28143724802E+04  0.65864270000E+03 0.  0.
    8880022    1    1    2    0    0 -0.61465769036E+03  0.11446528620E+03  0.59107341836E+03  0.87387974973E+03  0.15294330000E+03 0.  1.
<mgrwt>
<rscale>  0 0.83325587E+03</rscale>
<asrwt>0</asrwt>
<pdfrwt beam="1">  1        2 0.53408867E+00 0.90813908E+03</pdfrwt>
<pdfrwt beam="2">  1       -2 0.33334733E-01 0.90813908E+03</pdfrwt>
<totfact> 0.75144921E+00</totfact>
</mgrwt>
</event>
<event>
 4    2  0.3747163E-007  0.6955818E+03  0.7818608E-02  0.1001605E+00
         -2   -1    0    0    0  501 -0.00000000000E+00  0.00000000000E+00  0.14782561717E+03  0.14782561719E+03  0.25500000000E-02 0.  1.
          2   -1    0    0  501    0  0.00000000000E+00 -0.00000000000E+00 -0.27867574221E+04  0.27867574221E+04  0.25500000000E-02 0. -1.
    8880023    1    1    2    0    0 -0.41441903182E+02  0.21978705085E+03 -0.25593440563E+04  0.26521832486E+04  0.65864270000E+03 0. -1.
    8880022    1    1    2    0    0  0.41441903182E+02 -0.21978705085E+03 -0.79587748601E+02  0.28239979073E+03  0.15294330000E+03 0.  0.
<mgrwt>
<rscale>  0 0.54952134E+03</rscale>
<asrwt>0</asrwt>
<pdfrwt beam="1">  1        2 0.42873187E+00 0.69558176E+03</pdfrwt>
<pdfrwt beam="2">  1       -2 0.22742405E-01 0.69558176E+03</pdfrwt>
<totfact> 0.42352338E+01</totfact>
</mgrwt>
</event>
<event>
 4    2  0.3747163E-007  0.6645935E+03  0.7818608E-02  0.1019877E+00
         -2   -1    0    0    0  501 -0.00000000000E+00  0.00000000000E+00  0.14873932656E+04  0.14873932656E+04  0.25500000000E-02 0.  1.
          2   -1    0    0  501    0  0.00000000000E+00 -0.00000000000E+00 -0.34047212802E+03  0.34047212803E+03  0.25500000000E-02 0. -1.
    8880023    1    1    2    0    0  0.58997165582E+02 -0.66284144111E+02 -0.28274026858E+01  0.66459946869E+03  0.65864270000E+03 0. -1.
    8880022    1    1    2    0    0 -0.58997165582E+02  0.66284144111E+02  0.11497485403E+04  0.11632659250E+04  0.15294330000E+03 0.  0.
<mgrwt>
<rscale>  0 0.47731043E+03</rscale>
<asrwt>0</asrwt>
<pdfrwt beam="1">  1        2 0.52380328E-01 0.66459345E+03</pdfrwt>
<pdfrwt beam="2">  1       -2 0.22882973E+00 0.66459345E+03</pdfrwt>
<totfact> 0.85638109E+00</totfact>
</mgrwt>
</event>
<event>
 4    2  0.3747163E-007  0.9457316E+03  0.7818608E-02  0.9456282E-01
          2   -1    0    0  501    0  0.00000000000E+00  0.00000000000E+00  0.30480750149E+04  0.30480750149E+04  0.25500000000E-02 0. -1.
         -2   -1    0    0    0  501 -0.00000000000E+00 -0.00000000000E+00 -0.32611827247E+03  0.32611827248E+03  0.25500000000E-02 0.  1.
    8880023    1    1    2    0    0  0.21610575765E+03  0.64334778106E+03  0.24518179801E+04  0.26278926309E+04  0.65864270000E+03 0.  0.
    8880022    1    1    2    0    0 -0.21610575765E+03 -0.64334778106E+03  0.27013876233E+03  0.74630065645E+03  0.15294330000E+03 0.  0.
<mgrwt>
<rscale>  0 0.87585143E+03</rscale>
<asrwt>0</asrwt>
<pdfrwt beam="1">  1        2 0.46893462E+00 0.94573161E+03</pdfrwt>
<pdfrwt beam="2">  1       -2 0.50172042E-01 0.94573161E+03</pdfrwt>
<totfact> 0.62997043E+00</totfact>
</mgrwt>
</event>
<event>
 4    2  0.3747163E-007  0.7101877E+03  0.7818608E-02  0.9957305E-01
         -2   -1    0    0    0  501 -0.00000000000E+00  0.00000000000E+00  0.97994702297E+02  0.97994702331E+02  0.25500000000E-02 0.  1.
          2   -1    0    0  501    0  0.00000000000E+00 -0.00000000000E+00 -0.40858355412E+04  0.40858355412E+04  0.25500000000E-02 0. -1.
    8880023    1    1    2    0    0 -0.12460152621E+03  0.23458639870E+03 -0.36854855236E+04  0.37532879012E+04  0.65864270000E+03 0.  0.
    8880022    1    1    2    0    0  0.12460152621E+03 -0.23458639870E+03 -0.30235531532E+03  0.43054234229E+03  0.15294330000E+03 0.  0.
<mgrwt>
<rscale>  0 0.57562649E+03</rscale>
<asrwt>0</asrwt>
<pdfrwt beam="1">  1        2 0.62858995E+00 0.71018767E+03</pdfrwt>
<pdfrwt beam="2">  1       -2 0.15076111E-01 0.71018767E+03</pdfrwt>
<totfact> 0.11264285E+01</totfact>
</mgrwt>
</event>
<event>
 4    2  0.3747163E-007  0.6861251E+03  0.7818608E-02  0.1006051E+00
         -2   -1    0    0    0  501 -0.00000000000E+00  0.00000000000E+00  0.96021496062E+02  0.96021496096E+02  0.25500000000E-02 0.  1.
          2   -1    0    0  501    0  0.00000000000E+00 -0.00000000000E+00 -0.36278770242E+04  0.36278770242E+04  0.25500000000E-02 0. -1.
    8880023    1    1    2    0    0  0.14978007590E+03 -0.12051294892E+03 -0.33466118768E+04  0.34162228707E+04  0.65864270000E+03 0.  0.
    8880022    1    1    2    0    0 -0.14978007590E+03  0.12051294892E+03 -0.18524365136E+03  0.30767564963E+03  0.15294330000E+03 0.  0.
<mgrwt>
<rscale>  0 0.53074550E+03</rscale>
<asrwt>0</asrwt>
<pdfrwt beam="1">  1        2 0.55813482E+00 0.68612510E+03</pdfrwt>
<pdfrwt beam="2">  1       -2 0.14772541E-01 0.68612510E+03</pdfrwt>
<totfact> 0.25936189E+01</totfact>
</mgrwt>
</event>
<event>
 4    2  0.3747163E-007  0.7181643E+03  0.7818608E-02  0.9928847E-01
          2   -1    0    0  501    0  0.00000000000E+00  0.00000000000E+00  0.13694959419E+04  0.13694959419E+04  0.25500000000E-02 0. -1.
         -2   -1    0    0    0  501 -0.00000000000E+00 -0.00000000000E+00 -0.34388761916E+03  0.34388761917E+03  0.25500000000E-02 0.  1.
    8880023    1    1    2    0    0 -0.77299535350E+02  0.27563473383E+03  0.11581957453E+04  0.13627829304E+04  0.65864270000E+03 0. -1.
    8880022    1    1    2    0    0  0.77299535350E+02 -0.27563473383E+03 -0.13258742250E+03  0.35060063075E+03  0.15294330000E+03 0.  0.
<mgrwt>
<rscale>  0 0.58883379E+03</rscale>
<asrwt>0</asrwt>
<pdfrwt beam="1">  1        2 0.21069168E+00 0.71816428E+03</pdfrwt>
<pdfrwt beam="2">  1       -2 0.52905787E-01 0.71816428E+03</pdfrwt>
<totfact> 0.51938632E+01</totfact>
</mgrwt>
</event>
<event>
 4    2  0.3747163E-007  0.1395637E+04  0.7818608E-02  0.8987080E-01
         -2   -1    0    0    0  501 -0.00000000000E+00  0.00000000000E+00  0.65421158857E+03  0.65421158857E+03  0.25500000000E-02 0.  1.
          2   -1    0    0  501    0  0.00000000000E+00 -0.00000000000E+00 -0.28270180965E+04  0.28270180965E+04  0.25500000000E-02 0. -1.
    8880023    1    1    2    0    0  0.42147129472E+03  0.11560079630E+04 -0.15760969768E+04  0.21052041110E+04  0.65864270000E+03 0.  0.
    8880022    1    1    2    0    0 -0.42147129472E+03 -0.11560079630E+04 -0.59670953113E+03  0.13760255740E+04  0.15294330000E+03 0.  0.
<mgrwt>
<rscale>  0 0.13549621E+04</rscale>
<asrwt>0</asrwt>
<pdfrwt beam="1">  1        2 0.43492585E+00 0.13956370E+04</pdfrwt>
<pdfrwt beam="2">  1       -2 0.10064794E+00 0.13956370E+04</pdfrwt>
<totfact> 0.17488571E+00</totfact>
</mgrwt>
</event>
<event>
 4    2  0.3747163E-007  0.7376800E+03  0.7818608E-02  0.9866757E-01
          2   -1    0    0  501    0  0.00000000000E+00  0.00000000000E+00  0.57198120539E+03  0.57198120539E+03  0.25500000000E-02 0. -1.
         -2   -1    0    0    0  501 -0.00000000000E+00 -0.00000000000E+00 -0.98578572917E+03  0.98578572918E+03  0.25500000000E-02 0.  1.
    8880023    1    1    2    0    0  0.26303152551E+03 -0.20291884122E+03  0.26735654440E+03  0.78463454400E+03  0.65864270000E+03 0.  0.
    8880022    1    1    2    0    0 -0.26303152551E+03  0.20291884122E+03 -0.68116106818E+03  0.77313239057E+03  0.15294330000E+03 0.  0.
<mgrwt>
<rscale>  0 0.61899777E+03</rscale>
<asrwt>0</asrwt>
<pdfrwt beam="1">  1        2 0.87997109E-01 0.73768004E+03</pdfrwt>
<pdfrwt beam="2">  1       -2 0.15165934E+00 0.73768004E+03</pdfrwt>
<totfact> 0.15525111E+01</totfact>
</mgrwt>
</event>
<event>
 4    2  0.3747163E-007  0.8640739E+03  0.7818608E-02  0.9586357E-01
         -2   -1    0    0    0  501 -0.00000000000E+00  0.00000000000E+00  0.13660662044E+04  0.13660662044E+04  0.25500000000E-02 0.  1.
          2   -1    0    0  501    0  0.00000000000E+00 -0.00000000000E+00 -0.59762154793E+03  0.59762154794E+03  0.25500000000E-02 0. -1.
    8880023    1    1    2    0    0  0.17974653482E+03  0.52962695231E+03 -0.15052088802E+03  0.87708623828E+03  0.65864270000E+03 0.  0.
    8880022    1    1    2    0    0 -0.17974653482E+03 -0.52962695231E+03  0.91896554453E+03  0.10866015141E+04  0.15294330000E+03 0.  0.
<mgrwt>
<rscale>  0 0.78205756E+03</rscale>
<asrwt>0</asrwt>
<pdfrwt beam="1">  1        2 0.91941778E-01 0.86407392E+03</pdfrwt>
<pdfrwt beam="2">  1       -2 0.21016403E+00 0.86407392E+03</pdfrwt>
<totfact> 0.57411698E+00</totfact>
</mgrwt>
</event>
<event>
 4    2  0.3747163E-007  0.7157444E+03  0.7818608E-02  0.9937258E-01
         -2   -1    0    0    0  501 -0.00000000000E+00  0.00000000000E+00  0.37740672719E+03  0.37740672720E+03  0.25500000000E-02 0.  1.
          2   -1    0    0  501    0  0.00000000000E+00 -0.00000000000E+00 -0.42548650658E+04  0.42548650659E+04  0.25500000000E-02 0. -1.
    8880023    1    1    2    0    0  0.17004879348E+02 -0.27962588533E+03 -0.41507946960E+04  0.42120525420E+04  0.65864270000E+03 0. -1.
    8880022    1    1    2    0    0 -0.17004879348E+02  0.27962588533E+03  0.27333635738E+03  0.42021925105E+03  0.15294330000E+03 0.  0.
<mgrwt>
<rscale>  0 0.58489111E+03</rscale>
<asrwt>0</asrwt>
<pdfrwt beam="1">  1        2 0.65459459E+00 0.71574437E+03</pdfrwt>
<pdfrwt beam="2">  1       -2 0.58062576E-01 0.71574437E+03</pdfrwt>
<totfact> 0.65729960E-01</totfact>
</mgrwt>
</event>
<event>
 4    2  0.3747163E-007  0.7531778E+03  0.7818608E-02  0.9823101E-01
          2   -1    0    0  501    0  0.00000000000E+00  0.00000000000E+00  0.24362549249E+04  0.24362549249E+04  0.25500000000E-02 0. -1.
         -2   -1    0    0    0  501 -0.00000000000E+00 -0.00000000000E+00 -0.13826227100E+03  0.13826227103E+03  0.25500000000E-02 0.  1.
    8880023    1    1    2    0    0 -0.21976776243E+03  0.29183693208E+03  0.13267770092E+04  0.15256520254E+04  0.65864270000E+03 0.  0.
    8880022    1    1    2    0    0  0.21976776243E+03 -0.29183693208E+03  0.97121564470E+03  0.10488651705E+04  0.15294330000E+03 0.  1.
<mgrwt>
<rscale>  0 0.64137437E+03</rscale>
<asrwt>0</asrwt>
<pdfrwt beam="1">  1        2 0.37480845E+00 0.75317785E+03</pdfrwt>
<pdfrwt beam="2">  1       -2 0.21271119E-01 0.75317785E+03</pdfrwt>
<totfact> 0.75223508E+01</totfact>
</mgrwt>
</event>
<event>
 4    2  0.3747163E-007  0.1350521E+04  0.7818608E-02  0.9023115E-01
         -2   -1    0    0    0  501 -0.00000000000E+00  0.00000000000E+00  0.88541173722E+03  0.88541173723E+03  0.25500000000E-02 0.  1.
          2   -1    0    0  501    0  0.00000000000E+00 -0.00000000000E+00 -0.22609727967E+04  0.22609727967E+04  0.25500000000E-02 0. -1.
    8880023    1    1    2    0    0 -0.35421307102E+03  0.11245572363E+04 -0.14160287614E+04  0.19567941989E+04  0.65864270000E+03 0.  0.
    8880022    1    1    2    0    0  0.35421307102E+03 -0.11245572363E+04  0.40467701936E+02  0.11895903350E+04  0.15294330000E+03 0. -1.
<mgrwt>
<rscale>  0 0.13081647E+04</rscale>
<asrwt>0</asrwt>
<pdfrwt beam="1">  1        2 0.34784197E+00 0.13505207E+04</pdfrwt>
<pdfrwt beam="2">  1       -2 0.13621719E+00 0.13505207E+04</pdfrwt>
<totfact> 0.17665055E+00</totfact>
</mgrwt>
</event>
<event>
 4    2  0.3747163E-007  0.7094398E+03  0.7818608E-02  0.9960087E-01
         -2   -1    0    0    0  501 -0.00000000000E+00  0.00000000000E+00  0.54894404281E+03  0.54894404281E+03  0.25500000000E-02 0.  1.
          2   -1    0    0  501    0  0.00000000000E+00 -0.00000000000E+00 -0.22626215041E+04  0.22626215042E+04  0.25500000000E-02 0. -1.
    8880023    1    1    2    0    0 -0.15967050048E+03 -0.20976152077E+03 -0.21586423088E+04  0.22722326879E+04  0.65864270000E+03 0.  0.
    8880022    1    1    2    0    0  0.15967050048E+03  0.20976152077E+03  0.44496484749E+03  0.53933285904E+03  0.15294330000E+03 0.  1.
<mgrwt>
<rscale>  0 0.57435519E+03</rscale>
<asrwt>0</asrwt>
<pdfrwt beam="1">  1        2 0.34809561E+00 0.70943976E+03</pdfrwt>
<pdfrwt beam="2">  1       -2 0.84452930E-01 0.70943976E+03</pdfrwt>
<totfact> 0.61123471E+00</totfact>
</mgrwt>
</event>
<event>
 4    2  0.3747163E-007  0.8368798E+03  0.7818608E-02  0.9636092E-01
         -2   -1    0    0    0  501 -0.00000000000E+00  0.00000000000E+00  0.93672728001E+03  0.93672728001E+03  0.25500000000E-02 0.  1.
          2   -1    0    0  501    0  0.00000000000E+00 -0.00000000000E+00 -0.95716125588E+03  0.95716125588E+03  0.25500000000E-02 0. -1.
    8880023    1    1    2    0    0  0.40810494014E+03 -0.31624024543E+03 -0.65421628798E+03  0.10622460603E+04  0.65864270000E+03 0. -1.
    8880022    1    1    2    0    0 -0.40810494014E+03  0.31624024543E+03  0.63378231211E+03  0.83164247555E+03  0.15294330000E+03 0.  0.
<mgrwt>
<rscale>  0 0.74952744E+03</rscale>
<asrwt>0</asrwt>
<pdfrwt beam="1">  1        2 0.14725558E+00 0.83687977E+03</pdfrwt>
<pdfrwt beam="2">  1       -2 0.14411189E+00 0.83687977E+03</pdfrwt>
<totfact> 0.90106364E+00</totfact>
</mgrwt>
</event>
<event>
 4    2  0.3747163E-007  0.7423150E+03  0.7818608E-02  0.9853254E-01
          2   -1    0    0  501    0  0.00000000000E+00  0.00000000000E+00  0.31307253646E+04  0.31307253646E+04  0.25500000000E-02 0. -1.
         -2   -1    0    0    0  501 -0.00000000000E+00 -0.00000000000E+00 -0.25288928356E+03  0.25288928357E+03  0.25500000000E-02 0.  1.
    8880023    1    1    2    0    0 -0.29537360260E+03 -0.17313519686E+03  0.29138383520E+04  0.30069063021E+04  0.65864270000E+03 0. -1.
    8880022    1    1    2    0    0  0.29537360260E+03  0.17313519686E+03 -0.36002270957E+02  0.37670834612E+03  0.15294330000E+03 0.  0.
<mgrwt>
<rscale>  0 0.62581270E+03</rscale>
<asrwt>0</asrwt>
<pdfrwt beam="1">  1        2 0.48165005E+00 0.74231501E+03</pdfrwt>
<pdfrwt beam="2">  1       -2 0.38906044E-01 0.74231501E+03</pdfrwt>
<totfact> 0.95986256E+00</totfact>
</mgrwt>
</event>
<event>
 4    2  0.3747163E-007  0.6795335E+03  0.7818608E-02  0.1009589E+00
         -2   -1    0    0    0  501 -0.00000000000E+00  0.00000000000E+00  0.11082324108E+03  0.11082324111E+03  0.25500000000E-02 0.  1.
          2   -1    0    0  501    0  0.00000000000E+00 -0.00000000000E+00 -0.25814483935E+04  0.25814483935E+04  0.25500000000E-02 0. -1.
    8880023    1    1    2    0    0  0.14242670301E+03  0.87579796979E+02 -0.23265276575E+04  0.24237361106E+04  0.65864270000E+03 0. -1.
    8880022    1    1    2    0    0 -0.14242670301E+03 -0.87579796979E+02 -0.14409749486E+03  0.26853552392E+03  0.15294330000E+03 0.  0.
<mgrwt>
<rscale>  0 0.51638402E+03</rscale>
<asrwt>0</asrwt>
<pdfrwt beam="1">  1        2 0.39714586E+00 0.67953351E+03</pdfrwt>
<pdfrwt beam="2">  1       -2 0.17049731E-01 0.67953351E+03</pdfrwt>
<totfact> 0.92284414E+01</totfact>
</mgrwt>
</event>
<event>
 4    2  0.3747163E-007  0.7235666E+03  0.7818608E-02  0.9910698E-01
          2   -1    0    0  501    0  0.00000000000E+00  0.00000000000E+00  0.13855386918E+04  0.13855386918E+04  0.25500000000E-02 0. -1.
         -2   -1    0    0    0  501 -0.00000000000E+00 -0.00000000000E+00 -0.33951458078E+03  0.33951458079E+03  0.25500000000E-02 0.  1.
    8880023    1    1    2    0    0 -0.29893098952E+03 -0.19457899365E+02  0.11183414110E+03  0.73215806198E+03  0.65864270000E+03 0.  0.
    8880022    1    1    2    0    0  0.29893098952E+03  0.19457899365E+02  0.93418996995E+03  0.99289521064E+03  0.15294330000E+03 0.  0.
<mgrwt>
<rscale>  0 0.59745622E+03</rscale>
<asrwt>0</asrwt>
<pdfrwt beam="1">  1        2 0.21315980E+00 0.72356655E+03</pdfrwt>
<pdfrwt beam="2">  1       -2 0.52233012E-01 0.72356655E+03</pdfrwt>
<totfact> 0.52188665E+01</totfact>
</mgrwt>
</event>
<event>
 4    2  0.3747163E-007  0.7963978E+03  0.7818608E-02  0.9718640E-01
         -2   -1    0    0    0  501 -0.00000000000E+00  0.00000000000E+00  0.45259108045E+03  0.45259108045E+03  0.25500000000E-02 0.  1.
          2   -1    0    0  501    0  0.00000000000E+00 -0.00000000000E+00 -0.95363706375E+03  0.95363706375E+03  0.25500000000E-02 0. -1.
    8880023    1    1    2    0    0  0.37797843256E+03  0.23994075629E+03 -0.48580477235E+03  0.93287498901E+03  0.65864270000E+03 0.  0.
    8880022    1    1    2    0    0 -0.37797843256E+03 -0.23994075629E+03 -0.15241210950E+02  0.47335315520E+03  0.15294330000E+03 0.  0.
<mgrwt>
<rscale>  0 0.69917767E+03</rscale>
<asrwt>0</asrwt>
<pdfrwt beam="1">  1        2 0.14671339E+00 0.79639781E+03</pdfrwt>
<pdfrwt beam="2">  1       -2 0.69629397E-01 0.79639781E+03</pdfrwt>
<totfact> 0.51341567E+01</totfact>
</mgrwt>
</event>
<event>
 4    2  0.3747163E-007  0.8361926E+03  0.7818608E-02  0.9637402E-01
          2   -1    0    0  501    0  0.00000000000E+00  0.00000000000E+00  0.18657741193E+04  0.18657741193E+04  0.25500000000E-02 0. -1.
         -2   -1    0    0    0  501 -0.00000000000E+00 -0.00000000000E+00 -0.46726189095E+03  0.46726189096E+03  0.25500000000E-02 0.  1.
    8880023    1    1    2    0    0  0.51265539979E+03  0.50913889530E+02  0.15616397650E+04  0.17714222379E+04  0.65864270000E+03 0.  0.
    8880022    1    1    2    0    0 -0.51265539979E+03 -0.50913889530E+02 -0.16312753663E+03  0.56161377236E+03  0.15294330000E+03 0.  0.
<mgrwt>
<rscale>  0 0.74869385E+03</rscale>
<asrwt>0</asrwt>
<pdfrwt beam="1">  1        2 0.28704217E+00 0.83619256E+03</pdfrwt>
<pdfrwt beam="2">  1       -2 0.71886445E-01 0.83619256E+03</pdfrwt>
<totfact> 0.14190354E+01</totfact>
</mgrwt>
</event>
<event>
 4    2  0.3747163E-007  0.9346134E+03  0.7818608E-02  0.9472606E-01
          2   -1    0    0  501    0  0.00000000000E+00  0.00000000000E+00  0.44364736723E+04  0.44364736723E+04  0.25500000000E-02 0. -1.
         -2   -1    0    0    0  501 -0.00000000000E+00 -0.00000000000E+00 -0.72326106702E+03  0.72326106702E+03  0.25500000000E-02 0.  1.
    8880023    1    1    2    0    0 -0.56116768692E+03 -0.35324607274E+03  0.42129970320E+04  0.43154195808E+04  0.65864270000E+03 0.  0.
    8880022    1    1    2    0    0  0.56116768692E+03  0.35324607274E+03 -0.49978442668E+03  0.84431515852E+03  0.15294330000E+03 0.  0.
<mgrwt>
<rscale>  0 0.86333912E+03</rscale>
<asrwt>0</asrwt>
<pdfrwt beam="1">  1        2 0.68253441E+00 0.93461338E+03</pdfrwt>
<pdfrwt beam="2">  1       -2 0.11127093E+00 0.93461338E+03</pdfrwt>
<totfact> 0.98297820E-02</totfact>
</mgrwt>
</event>
<event>
 4    2  0.3747163E-007  0.6887545E+03  0.7818608E-02  0.1004750E+00
          2   -1    0    0  501    0  0.00000000000E+00  0.00000000000E+00  0.13964575133E+04  0.13964575133E+04  0.25500000000E-02 0. -1.
         -2   -1    0    0    0  501 -0.00000000000E+00 -0.00000000000E+00 -0.50710559282E+03  0.50710559283E+03  0.25500000000E-02 0.  1.
    8880023    1    1    2    0    0  0.19521082350E+03 -0.49651790603E+02  0.12710575853E+04  0.14456729081E+04  0.65864270000E+03 0.  0.
    8880022    1    1    2    0    0 -0.19521082350E+03  0.49651790603E+02 -0.38170566477E+03  0.45789019803E+03  0.15294330000E+03 0.  1.
<mgrwt>
<rscale>  0 0.53615515E+03</rscale>
<asrwt>0</asrwt>
<pdfrwt beam="1">  1        2 0.21483961E+00 0.68875451E+03</pdfrwt>
<pdfrwt beam="2">  1       -2 0.78016246E-01 0.68875451E+03</pdfrwt>
<totfact> 0.21894659E+01</totfact>
</mgrwt>
</event>
<event>
 4    2  0.3747163E-007  0.7478558E+03  0.7818608E-02  0.9837627E-01
         -2   -1    0    0    0  501 -0.00000000000E+00  0.00000000000E+00  0.49008149598E+03  0.49008149598E+03  0.25500000000E-02 0.  1.
          2   -1    0    0  501    0  0.00000000000E+00 -0.00000000000E+00 -0.73103490055E+03  0.73103490055E+03  0.25500000000E-02 0. -1.
    8880023    1    1    2    0    0 -0.22415372241E+03  0.27428680948E+03 -0.34188363537E+03  0.82229725253E+03  0.65864270000E+03 0. -1.
    8880022    1    1    2    0    0  0.22415372241E+03 -0.27428680948E+03  0.10093023080E+03  0.39881914400E+03  0.15294330000E+03 0.  1.
<mgrwt>
<rscale>  0 0.63381752E+03</rscale>
<asrwt>0</asrwt>
<pdfrwt beam="1">  1        2 0.11246691E+00 0.74785584E+03</pdfrwt>
<pdfrwt beam="2">  1       -2 0.75397153E-01 0.74785584E+03</pdfrwt>
<totfact> 0.61973722E+01</totfact>
</mgrwt>
</event>
<event>
 4    2  0.3747163E-007  0.6837323E+03  0.7818608E-02  0.1007287E+00
         -2   -1    0    0    0  501 -0.00000000000E+00  0.00000000000E+00  0.17731477151E+03  0.17731477153E+03  0.25500000000E-02 0.  1.
          2   -1    0    0  501    0  0.00000000000E+00 -0.00000000000E+00 -0.26485790136E+04  0.26485790136E+04  0.25500000000E-02 0. -1.
    8880023    1    1    2    0    0 -0.10694897300E+03  0.14913616718E+03 -0.24938991063E+04  0.25859278099E+04  0.65864270000E+03 0. -1.
    8880022    1    1    2    0    0  0.10694897300E+03 -0.14913616718E+03  0.22634864220E+02  0.23996597526E+03  0.15294330000E+03 0.  0.
<mgrwt>
<rscale>  0 0.52567441E+03</rscale>
<asrwt>0</asrwt>
<pdfrwt beam="1">  1        2 0.40747367E+00 0.68373232E+03</pdfrwt>
<pdfrwt beam="2">  1       -2 0.27279198E-01 0.68373232E+03</pdfrwt>
<totfact> 0.36801935E+01</totfact>
</mgrwt>
</event>
<event>
 4    2  0.3747163E-007  0.6849405E+03  0.7818608E-02  0.1006657E+00
          2   -1    0    0  501    0  0.00000000000E+00  0.00000000000E+00  0.68578371302E+03  0.68578371303E+03  0.25500000000E-02 0. -1.
         -2   -1    0    0    0  501 -0.00000000000E+00 -0.00000000000E+00 -0.64369866982E+03  0.64369866983E+03  0.25500000000E-02 0.  1.
    8880023    1    1    2    0    0  0.88066502581E+02 -0.16606511117E+03  0.47488164534E+03  0.83346032501E+03  0.65864270000E+03 0. -1.
    8880022    1    1    2    0    0 -0.88066502581E+02  0.16606511117E+03 -0.43279660214E+03  0.49602205784E+03  0.15294330000E+03 0.  0.
<mgrwt>
<rscale>  0 0.52825366E+03</rscale>
<asrwt>0</asrwt>
<pdfrwt beam="1">  1        2 0.10550519E+00 0.68494053E+03</pdfrwt>
<pdfrwt beam="2">  1       -2 0.99030565E-01 0.68494053E+03</pdfrwt>
<totfact> 0.36209143E+01</totfact>
</mgrwt>
</event>
<event>
 4    2  0.3747163E-007  0.7012642E+03  0.7818608E-02  0.9991997E-01
         -2   -1    0    0    0  501 -0.00000000000E+00  0.00000000000E+00  0.22025543160E+03  0.22025543162E+03  0.25500000000E-02 0.  1.
          2   -1    0    0  501    0  0.00000000000E+00 -0.00000000000E+00 -0.17804761979E+04  0.17804761979E+04  0.25500000000E-02 0. -1.
    8880023    1    1    2    0    0  0.23517450710E+03  0.51519183138E+02 -0.15655738320E+04  0.17154570542E+04  0.65864270000E+03 0.  0.
    8880022    1    1    2    0    0 -0.23517450710E+03 -0.51519183138E+02  0.53530656880E+01  0.28527457536E+03  0.15294330000E+03 0.  0.
<mgrwt>
<rscale>  0 0.56002563E+03</rscale>
<asrwt>0</asrwt>
<pdfrwt beam="1">  1        2 0.27391941E+00 0.70126420E+03</pdfrwt>
<pdfrwt beam="2">  1       -2 0.33885452E-01 0.70126420E+03</pdfrwt>
<totfact> 0.74208490E+01</totfact>
</mgrwt>
</event>
<event>
 4    2  0.3747163E-007  0.6708177E+03  0.7818608E-02  0.1015083E+00
         -2   -1    0    0    0  501 -0.00000000000E+00  0.00000000000E+00  0.12400752173E+04  0.12400752173E+04  0.25500000000E-02 0.  1.
          2   -1    0    0  501    0  0.00000000000E+00 -0.00000000000E+00 -0.93916778099E+03  0.93916778099E+03  0.25500000000E-02 0. -1.
    8880023    1    1    2    0    0  0.46435267080E+01 -0.12714021739E+03 -0.80940244623E+03  0.10512510278E+04  0.65864270000E+03 0. -1.
    8880022    1    1    2    0    0 -0.46435267080E+01  0.12714021739E+03  0.11103098825E+04  0.11279919705E+04  0.15294330000E+03 0.  0.
<mgrwt>
<rscale>  0 0.49503387E+03</rscale>
<asrwt>0</asrwt>
<pdfrwt beam="1">  1        2 0.14448735E+00 0.67081771E+03</pdfrwt>
<pdfrwt beam="2">  1       -2 0.19078080E+00 0.67081771E+03</pdfrwt>
<totfact> 0.43710845E+00</totfact>
</mgrwt>
</event>
<event>
 4    2  0.3747163E-007  0.7329442E+03  0.7818608E-02  0.9880998E-01
          2   -1    0    0  501    0  0.00000000000E+00  0.00000000000E+00  0.17733497518E+04  0.17733497518E+04  0.25500000000E-02 0. -1.
         -2   -1    0    0    0  501 -0.00000000000E+00 -0.00000000000E+00 -0.20180869755E+03  0.20180869757E+03  0.25500000000E-02 0.  1.
    8880023    1    1    2    0    0 -0.17999126374E+03 -0.26645841926E+03  0.13992522625E+04  0.15795929997E+04  0.65864270000E+03 0.  0.
    8880022    1    1    2    0    0  0.17999126374E+03  0.26645841926E+03  0.17228879172E+03  0.39556544969E+03  0.15294330000E+03 0.  0.
<mgrwt>
<rscale>  0 0.61191091E+03</rscale>
<asrwt>0</asrwt>
<pdfrwt beam="1">  1        2 0.27282304E+00 0.73294417E+03</pdfrwt>
<pdfrwt beam="2">  1       -2 0.31047492E-01 0.73294417E+03</pdfrwt>
<totfact> 0.87945607E+01</totfact>
</mgrwt>
</event>
<event>
 4    2  0.3747163E-007  0.7454243E+03  0.7818608E-02  0.9844419E-01
         -2   -1    0    0    0  501 -0.00000000000E+00  0.00000000000E+00  0.23696309150E+03  0.23696309152E+03  0.25500000000E-02 0.  1.
          2   -1    0    0  501    0  0.00000000000E+00 -0.00000000000E+00 -0.16716845425E+04  0.16716845425E+04  0.25500000000E-02 0. -1.
    8880023    1    1    2    0    0  0.18724449583E+03 -0.29459569744E+03 -0.13107532716E+04  0.15078897412E+04  0.65864270000E+03 0.  0.
    8880022    1    1    2    0    0 -0.18724449583E+03  0.29459569744E+03 -0.12396817937E+03  0.40075789285E+03  0.15294330000E+03 0.  0.
<mgrwt>
<rscale>  0 0.63032273E+03</rscale>
<asrwt>0</asrwt>
<pdfrwt beam="1">  1        2 0.25718223E+00 0.74542426E+03</pdfrwt>
<pdfrwt beam="2">  1       -2 0.36455861E-01 0.74542426E+03</pdfrwt>
<totfact> 0.73675086E+01</totfact>
</mgrwt>
</event>
<event>
 4    2  0.3747163E-007  0.7835138E+03  0.7818608E-02  0.9747647E-01
         -2   -1    0    0    0  501 -0.00000000000E+00  0.00000000000E+00  0.26128140280E+03  0.26128140281E+03  0.25500000000E-02 0.  1.
          2   -1    0    0  501    0  0.00000000000E+00 -0.00000000000E+00 -0.14729709501E+04  0.14729709501E+04  0.25500000000E-02 0. -1.
    8880023    1    1    2    0    0 -0.17556453680E+03  0.38634279615E+03 -0.85041026045E+03  0.11563267186E+04  0.65864270000E+03 0.  1.
    8880022    1    1    2    0    0  0.17556453680E+03 -0.38634279615E+03 -0.36127928687E+03  0.57792563437E+03  0.15294330000E+03 0. -1.
<mgrwt>
<rscale>  0 0.68249418E+03</rscale>
<asrwt>0</asrwt>
<pdfrwt beam="1">  1        2 0.22661091E+00 0.78351380E+03</pdfrwt>
<pdfrwt beam="2">  1       -2 0.40197140E-01 0.78351380E+03</pdfrwt>
<totfact> 0.78262130E+01</totfact>
</mgrwt>
</event>
<event>
 4    2  0.3747163E-007  0.6848637E+03  0.7818608E-02  0.1006696E+00
         -2   -1    0    0    0  501 -0.00000000000E+00  0.00000000000E+00  0.29275896185E+03  0.29275896186E+03  0.25500000000E-02 0.  1.
          2   -1    0    0  501    0  0.00000000000E+00 -0.00000000000E+00 -0.73761563442E+03  0.73761563442E+03  0.25500000000E-02 0. -1.
    8880023    1    1    2    0    0  0.14188278797E+03 -0.12287139042E+03 -0.36075247670E+03  0.77406760675E+03  0.65864270000E+03 0. -1.
    8880022    1    1    2    0    0 -0.14188278797E+03  0.12287139042E+03 -0.84104195868E+02  0.25630698953E+03  0.15294330000E+03 0.  1.
<mgrwt>
<rscale>  0 0.52809082E+03</rscale>
<asrwt>0</asrwt>
<pdfrwt beam="1">  1        2 0.11347933E+00 0.68486372E+03</pdfrwt>
<pdfrwt beam="2">  1       -2 0.45039841E-01 0.68486372E+03</pdfrwt>
<totfact> 0.18154637E+02</totfact>
</mgrwt>
</event>
<event>
 4    2  0.3747163E-007  0.7245698E+03  0.7818608E-02  0.9907416E-01
         -2   -1    0    0    0  501 -0.00000000000E+00  0.00000000000E+00  0.68143864254E+03  0.68143864254E+03  0.25500000000E-02 0.  1.
          2   -1    0    0  501    0  0.00000000000E+00 -0.00000000000E+00 -0.76475447481E+03  0.76475447482E+03  0.25500000000E-02 0. -1.
    8880023    1    1    2    0    0  0.24039378897E+03  0.18276211564E+03 -0.52132613966E+03  0.89262663799E+03  0.65864270000E+03 0. -1.
    8880022    1    1    2    0    0 -0.24039378897E+03 -0.18276211564E+03  0.43801030739E+03  0.55356647937E+03  0.15294330000E+03 0.  0.
<mgrwt>
<rscale>  0 0.59903211E+03</rscale>
<asrwt>0</asrwt>
<pdfrwt beam="1">  1        2 0.11765453E+00 0.72456978E+03</pdfrwt>
<pdfrwt beam="2">  1       -2 0.10483671E+00 0.72456978E+03</pdfrwt>
<totfact> 0.27414932E+01</totfact>
</mgrwt>
</event>
<event>
 4    2  0.3747163E-007  0.7547701E+03  0.7818608E-02  0.9818840E-01
         -2   -1    0    0    0  501 -0.00000000000E+00  0.00000000000E+00  0.12150130645E+03  0.12150130648E+03  0.25500000000E-02 0.  1.
          2   -1    0    0  501    0  0.00000000000E+00 -0.00000000000E+00 -0.32528861201E+04  0.32528861201E+04  0.25500000000E-02 0. -1.
    8880023    1    1    2    0    0  0.13726748138E+03 -0.34208965245E+03 -0.26151257172E+04  0.27218670825E+04  0.65864270000E+03 0. -1.
    8880022    1    1    2    0    0 -0.13726748138E+03  0.34208965245E+03 -0.51625909644E+03  0.65252034407E+03  0.15294330000E+03 0.  0.
<mgrwt>
<rscale>  0 0.64361199E+03</rscale>
<asrwt>0</asrwt>
<pdfrwt beam="1">  1        2 0.50044395E+00 0.75477010E+03</pdfrwt>
<pdfrwt beam="2">  1       -2 0.18692511E-01 0.75477010E+03</pdfrwt>
<totfact> 0.30622190E+01</totfact>
</mgrwt>
</event>
<event>
 4    2  0.3747163E-007  0.6638352E+03  0.7818608E-02  0.1020531E+00
          2   -1    0    0  501    0  0.00000000000E+00  0.00000000000E+00  0.26770905508E+03  0.26770905509E+03  0.25500000000E-02 0. -1.
         -2   -1    0    0    0  501 -0.00000000000E+00 -0.00000000000E+00 -0.10667477978E+04  0.10667477978E+04  0.25500000000E-02 0.  1.
    8880023    1    1    2    0    0  0.79474758900E+02  0.23468360170E+02 -0.17484070275E+03  0.68647394621E+03  0.65864270000E+03 0. -1.
    8880022    1    1    2    0    0 -0.79474758900E+02 -0.23468360170E+02 -0.62419803996E+03  0.64798290667E+03  0.15294330000E+03 0.  0.
<mgrwt>
<rscale>  0 0.47495386E+03</rscale>
<asrwt>0</asrwt>
<pdfrwt beam="1">  1        2 0.41186009E-01 0.66383523E+03</pdfrwt>
<pdfrwt beam="2">  1       -2 0.16411504E+00 0.66383523E+03</pdfrwt>
<totfact> 0.29851424E+01</totfact>
</mgrwt>
</event>
<event>
 4    2  0.3747163E-007  0.7881228E+03  0.7818608E-02  0.9737091E-01
          2   -1    0    0  501    0  0.00000000000E+00  0.00000000000E+00  0.33443052614E+04  0.33443052614E+04  0.25500000000E-02 0. -1.
         -2   -1    0    0    0  501 -0.00000000000E+00 -0.00000000000E+00 -0.21215431790E+03  0.21215431792E+03  0.25500000000E-02 0.  1.
    8880023    1    1    2    0    0 -0.43277465192E+03  0.57811539029E+01  0.29649606174E+04  0.30679193259E+04  0.65864270000E+03 0. -1.
    8880022    1    1    2    0    0  0.43277465192E+03 -0.57811539029E+01  0.16719032611E+03  0.48854025346E+03  0.15294330000E+03 0.  0.
<mgrwt>
<rscale>  0 0.68850701E+03</rscale>
<asrwt>0</asrwt>
<pdfrwt beam="1">  1        2 0.51450845E+00 0.78812279E+03</pdfrwt>
<pdfrwt beam="2">  1       -2 0.32639129E-01 0.78812279E+03</pdfrwt>
<totfact> 0.97100542E+00</totfact>
</mgrwt>
</event>
<event>
 4    2  0.3747163E-007  0.7369857E+03  0.7818608E-02  0.9868816E-01
         -2   -1    0    0    0  501 -0.00000000000E+00  0.00000000000E+00  0.34270910489E+03  0.34270910490E+03  0.25500000000E-02 0.  1.
          2   -1    0    0  501    0  0.00000000000E+00 -0.00000000000E+00 -0.19181470248E+04  0.19181470248E+04  0.25500000000E-02 0. -1.
    8880023    1    1    2    0    0 -0.16081247786E+03  0.28892386361E+03 -0.17181805641E+04  0.18695700867E+04  0.65864270000E+03 0.  0.
    8880022    1    1    2    0    0  0.16081247786E+03 -0.28892386361E+03  0.14274264414E+03  0.39128604303E+03  0.15294330000E+03 0.  0.
<mgrwt>
<rscale>  0 0.61796678E+03</rscale>
<asrwt>0</asrwt>
<pdfrwt beam="1">  1        2 0.29509954E+00 0.73698566E+03</pdfrwt>
<pdfrwt beam="2">  1       -2 0.52724479E-01 0.73698566E+03</pdfrwt>
<totfact> 0.26013975E+01</totfact>
</mgrwt>
</event>
<event>
 4    2  0.3747163E-007  0.6593035E+03  0.7818608E-02  0.1024882E+00
         -2   -1    0    0    0  501 -0.00000000000E+00  0.00000000000E+00  0.63038513305E+02  0.63038513357E+02  0.25500000000E-02 0.  1.
          2   -1    0    0  501    0  0.00000000000E+00 -0.00000000000E+00 -0.26487036020E+04  0.26487036020E+04  0.25500000000E-02 0. -1.
    8880023    1    1    2    0    0  0.10218563159E+02 -0.27684919455E+02 -0.21651013137E+04  0.22632597683E+04  0.65864270000E+03 0. -1.
    8880022    1    1    2    0    0 -0.10218563159E+02  0.27684919455E+02 -0.42056377493E+03  0.44848234702E+03  0.15294330000E+03 0.  1.
<mgrwt>
<rscale>  0 0.45965399E+03</rscale>
<asrwt>0</asrwt>
<pdfrwt beam="1">  1        2 0.40749277E+00 0.65930348E+03</pdfrwt>
<pdfrwt beam="2">  1       -2 0.96982349E-02 0.65930348E+03</pdfrwt>
<totfact> 0.21641648E+02</totfact>
</mgrwt>
</event>
<event>
 4    2  0.3747163E-007  0.7406380E+03  0.7818608E-02  0.9858092E-01
         -2   -1    0    0    0  501 -0.00000000000E+00  0.00000000000E+00  0.10080822471E+04  0.10080822471E+04  0.25500000000E-02 0.  1.
          2   -1    0    0  501    0  0.00000000000E+00 -0.00000000000E+00 -0.13961686347E+04  0.13961686347E+04  0.25500000000E-02 0. -1.
    8880023    1    1    2    0    0  0.12950490757E+03  0.31299032879E+03 -0.12571244005E+04  0.14590772535E+04  0.65864270000E+03 0. -1.
    8880022    1    1    2    0    0 -0.12950490757E+03 -0.31299032879E+03  0.86903801286E+03  0.94517362840E+03  0.15294330000E+03 0.  0.
<mgrwt>
<rscale>  0 0.62336007E+03</rscale>
<asrwt>0</asrwt>
<pdfrwt beam="1">  1        2 0.21479517E+00 0.74063802E+03</pdfrwt>
<pdfrwt beam="2">  1       -2 0.15508958E+00 0.74063802E+03</pdfrwt>
<totfact> 0.40920763E+00</totfact>
</mgrwt>
</event>
<event>
 4    2  0.3747163E-007  0.1028092E+04  0.7818608E-02  0.9345694E-01
          2   -1    0    0  501    0  0.00000000000E+00  0.00000000000E+00  0.79786843216E+03  0.79786843216E+03  0.25500000000E-02 0. -1.
         -2   -1    0    0    0  501 -0.00000000000E+00 -0.00000000000E+00 -0.17797881173E+04  0.17797881173E+04  0.25500000000E-02 0.  1.
    8880023    1    1    2    0    0  0.77440522808E+03 -0.15316228250E+03  0.29417931339E+03  0.10693520546E+04  0.65864270000E+03 0.  0.
    8880022    1    1    2    0    0 -0.77440522808E+03  0.15316228250E+03 -0.12760989985E+04  0.15083044948E+04  0.15294330000E+03 0.  0.
<mgrwt>
<rscale>  0 0.96682850E+03</rscale>
<asrwt>0</asrwt>
<pdfrwt beam="1">  1        2 0.12274899E+00 0.10280916E+04</pdfrwt>
<pdfrwt beam="2">  1       -2 0.27381356E+00 0.10280916E+04</pdfrwt>
<totfact> 0.15835682E+00</totfact>
</mgrwt>
</event>
<event>
 4    2  0.3747163E-007  0.8067536E+03  0.7818608E-02  0.9696379E-01
          2   -1    0    0  501    0  0.00000000000E+00  0.00000000000E+00  0.38586382889E+04  0.38586382889E+04  0.25500000000E-02 0. -1.
         -2   -1    0    0    0  501 -0.00000000000E+00 -0.00000000000E+00 -0.47738064798E+03  0.47738064799E+03  0.25500000000E-02 0.  1.
    8880023    1    1    2    0    0 -0.45976514916E+03  0.75214052546E+02  0.36762857426E+04  0.37637651645E+04  0.65864270000E+03 0. -1.
    8880022    1    1    2    0    0  0.45976514916E+03 -0.75214052546E+02 -0.29502810175E+03  0.57225377231E+03  0.15294330000E+03 0.  0.
<mgrwt>
<rscale>  0 0.71232780E+03</rscale>
<asrwt>0</asrwt>
<pdfrwt beam="1">  1        2 0.59363667E+00 0.80675359E+03</pdfrwt>
<pdfrwt beam="2">  1       -2 0.73443175E-01 0.80675359E+03</pdfrwt>
<totfact> 0.80782644E-01</totfact>
</mgrwt>
</event>
<event>
 4    2  0.3747163E-007  0.6871198E+03  0.7818608E-02  0.1005553E+00
         -2   -1    0    0    0  501 -0.00000000000E+00  0.00000000000E+00  0.30962999369E+03  0.30962999370E+03  0.25500000000E-02 0.  1.
          2   -1    0    0  501    0  0.00000000000E+00 -0.00000000000E+00 -0.10182699479E+04  0.10182699479E+04  0.25500000000E-02 0. -1.
    8880023    1    1    2    0    0 -0.91866908990E+02 -0.17286956447E+03 -0.13153479910E+03  0.69959632998E+03  0.65864270000E+03 0.  1.
    8880022    1    1    2    0    0  0.91866908990E+02  0.17286956447E+03 -0.57710515507E+03  0.62830361157E+03  0.15294330000E+03 0.  0.
<mgrwt>
<rscale>  0 0.53281108E+03</rscale>
<asrwt>0</asrwt>
<pdfrwt beam="1">  1        2 0.15665691E+00 0.68711980E+03</pdfrwt>
<pdfrwt beam="2">  1       -2 0.47635384E-01 0.68711980E+03</pdfrwt>
<totfact> 0.10427460E+02</totfact>
</mgrwt>
</event>
<event>
 4    2  0.3747163E-007  0.7532417E+03  0.7818608E-02  0.9822929E-01
          2   -1    0    0  501    0  0.00000000000E+00  0.00000000000E+00  0.95548414607E+03  0.95548414608E+03  0.25500000000E-02 0. -1.
         -2   -1    0    0    0  501 -0.00000000000E+00 -0.00000000000E+00 -0.10198955027E+04  0.10198955027E+04  0.25500000000E-02 0.  1.
    8880023    1    1    2    0    0 -0.33822822984E+03  0.13843586386E+03  0.75421141014E+03  0.10659305237E+04  0.65864270000E+03 0. -1.
    8880022    1    1    2    0    0  0.33822822984E+03 -0.13843586386E+03 -0.81862276681E+03  0.90944912514E+03  0.15294330000E+03 0.  0.
<mgrwt>
<rscale>  0 0.64146427E+03</rscale>
<asrwt>0</asrwt>
<pdfrwt beam="1">  1        2 0.14699756E+00 0.75324168E+03</pdfrwt>
<pdfrwt beam="2">  1       -2 0.15690700E+00 0.75324168E+03</pdfrwt>
<totfact> 0.72803348E+00</totfact>
</mgrwt>
</event>
<event>
 4    2  0.3747163E-007  0.7517007E+03  0.7818608E-02  0.9827088E-01
         -2   -1    0    0    0  501 -0.00000000000E+00  0.00000000000E+00  0.12563867509E+04  0.12563867509E+04  0.25500000000E-02 0.  1.
          2   -1    0    0  501    0  0.00000000000E+00 -0.00000000000E+00 -0.29693942865E+03  0.29693942866E+03  0.25500000000E-02 0. -1.
    8880023    1    1    2    0    0  0.25953247622E+03 -0.25275802734E+03  0.35279530816E+03  0.83037248408E+03  0.65864270000E+03 0. -1.
    8880022    1    1    2    0    0 -0.25953247622E+03  0.25275802734E+03  0.60665201412E+03  0.72295369550E+03  0.15294330000E+03 0.  0.
<mgrwt>
<rscale>  0 0.63928913E+03</rscale>
<asrwt>0</asrwt>
<pdfrwt beam="1">  1        2 0.45682989E-01 0.75170069E+03</pdfrwt>
<pdfrwt beam="2">  1       -2 0.19329027E+00 0.75170069E+03</pdfrwt>
<totfact> 0.16628227E+01</totfact>
</mgrwt>
</event>
<event>
 4    2  0.3747163E-007  0.1193192E+04  0.7818608E-02  0.9163769E-01
         -2   -1    0    0    0  501 -0.00000000000E+00  0.00000000000E+00  0.61205227215E+03  0.61205227215E+03  0.25500000000E-02 0.  1.
          2   -1    0    0  501    0  0.00000000000E+00 -0.00000000000E+00 -0.20656246949E+04  0.20656246949E+04  0.25500000000E-02 0. -1.
    8880023    1    1    2    0    0 -0.94509499345E+03 -0.31095310551E+03 -0.50881643609E+03  0.12971510137E+04  0.65864270000E+03 0. -1.
    8880022    1    1    2    0    0  0.94509499345E+03  0.31095310551E+03 -0.94475598662E+03  0.13805259533E+04  0.15294330000E+03 0.  1.
<mgrwt>
<rscale>  0 0.11435346E+04</rscale>
<asrwt>0</asrwt>
<pdfrwt beam="1">  1        2 0.31778841E+00 0.11931918E+04</pdfrwt>
<pdfrwt beam="2">  1       -2 0.94161889E-01 0.11931918E+04</pdfrwt>
<totfact> 0.57317511E+00</totfact>
</mgrwt>
</event>
<event>
 4    2  0.3747163E-007  0.8556784E+03  0.7818608E-02  0.9601298E-01
         -2   -1    0    0    0  501 -0.00000000000E+00  0.00000000000E+00  0.38260726833E+03  0.38260726833E+03  0.25500000000E-02 0.  1.
          2   -1    0    0  501    0  0.00000000000E+00 -0.00000000000E+00 -0.16786770422E+04  0.16786770422E+04  0.25500000000E-02 0. -1.
    8880023    1    1    2    0    0  0.54506349479E+03 -0.35791715636E+02 -0.12182436332E+04  0.14887252992E+04  0.65864270000E+03 0. -1.
    8880022    1    1    2    0    0 -0.54506349479E+03  0.35791715636E+02 -0.77826140610E+02  0.57255901132E+03  0.15294330000E+03 0.  0.
<mgrwt>
<rscale>  0 0.77210362E+03</rscale>
<asrwt>0</asrwt>
<pdfrwt beam="1">  1        2 0.25825800E+00 0.85567837E+03</pdfrwt>
<pdfrwt beam="2">  1       -2 0.58862658E-01 0.85567837E+03</pdfrwt>
<totfact> 0.27569530E+01</totfact>
</mgrwt>
</event>
<event>
 4    2  0.3747163E-007  0.8505482E+03  0.7818608E-02  0.9610603E-01
          2   -1    0    0  501    0  0.00000000000E+00  0.00000000000E+00  0.14072084984E+04  0.14072084984E+04  0.25500000000E-02 0. -1.
         -2   -1    0    0    0  501 -0.00000000000E+00 -0.00000000000E+00 -0.11159188194E+04  0.11159188194E+04  0.25500000000E-02 0.  1.
    8880023    1    1    2    0    0  0.50489305315E+03 -0.18629296580E+03  0.11910734989E+04  0.14635874932E+04  0.65864270000E+03 0. -1.
    8880022    1    1    2    0    0 -0.50489305315E+03  0.18629296580E+03 -0.89978381994E+03  0.10595398246E+04  0.15294330000E+03 0.  0.
<mgrwt>
<rscale>  0 0.76598387E+03</rscale>
<asrwt>0</asrwt>
<pdfrwt beam="1">  1        2 0.21649362E+00 0.85054822E+03</pdfrwt>
<pdfrwt beam="2">  1       -2 0.17167982E+00 0.85054822E+03</pdfrwt>
<totfact> 0.30060752E+00</totfact>
</mgrwt>
</event>
<event>
 4    2  0.3747163E-007  0.7315449E+03  0.7818608E-02  0.9885298E-01
         -2   -1    0    0    0  501 -0.00000000000E+00  0.00000000000E+00  0.27633564223E+03  0.27633564224E+03  0.25500000000E-02 0.  1.
          2   -1    0    0  501    0  0.00000000000E+00 -0.00000000000E+00 -0.12750919161E+04  0.12750919161E+04  0.25500000000E-02 0. -1.
    8880023    1    1    2    0    0 -0.84714875121E+01  0.31823879965E+03 -0.94360433615E+03  0.11939627503E+04  0.65864270000E+03 0. -1.
    8880022    1    1    2    0    0  0.84714875121E+01 -0.31823879965E+03 -0.55151937689E+02  0.35746480799E+03  0.15294330000E+03 0.  1.
<mgrwt>
<rscale>  0 0.60979122E+03</rscale>
<asrwt>0</asrwt>
<pdfrwt beam="1">  1        2 0.19616798E+00 0.73154488E+03</pdfrwt>
<pdfrwt beam="2">  1       -2 0.42513176E-01 0.73154488E+03</pdfrwt>
<totfact> 0.91270923E+01</totfact>
</mgrwt>
</event>
<event>
 4    2  0.3747163E-007  0.9957965E+03  0.7818608E-02  0.9387078E-01
          2   -1    0    0  501    0  0.00000000000E+00  0.00000000000E+00  0.16226534552E+04  0.16226534552E+04  0.25500000000E-02 0. -1.
         -2   -1    0    0    0  501 -0.00000000000E+00 -0.00000000000E+00 -0.79652996342E+03  0.79652996343E+03  0.25500000000E-02 0.  1.
    8880023    1    1    2    0    0  0.21195792570E+02  0.74655960653E+03  0.12088202511E+04  0.15661599897E+04  0.65864270000E+03 0.  0.
    8880022    1    1    2    0    0 -0.21195792570E+02 -0.74655960653E+03 -0.38269675928E+03  0.85302342893E+03  0.15294330000E+03 0.  0.
<mgrwt>
<rscale>  0 0.93146796E+03</rscale>
<asrwt>0</asrwt>
<pdfrwt beam="1">  1        2 0.24963899E+00 0.99579652E+03</pdfrwt>
<pdfrwt beam="2">  1       -2 0.12254307E+00 0.99579652E+03</pdfrwt>
<totfact> 0.54324065E+00</totfact>
</mgrwt>
</event>
<event>
 4    2  0.3747163E-007  0.1122710E+04  0.7818608E-02  0.9236183E-01
         -2   -1    0    0    0  501 -0.00000000000E+00  0.00000000000E+00  0.83147865774E+03  0.83147865774E+03  0.25500000000E-02 0.  1.
          2   -1    0    0  501    0  0.00000000000E+00 -0.00000000000E+00 -0.21619004804E+04  0.21619004804E+04  0.25500000000E-02 0. -1.
    8880023    1    1    2    0    0  0.31677708316E+03  0.85224428672E+03 -0.16687559747E+04  0.20112744104E+04  0.65864270000E+03 0. -1.
    8880022    1    1    2    0    0 -0.31677708316E+03 -0.85224428672E+03  0.33833415207E+03  0.98210472769E+03  0.15294330000E+03 0.  0.
<mgrwt>
<rscale>  0 0.10687643E+04</rscale>
<asrwt>0</asrwt>
<pdfrwt beam="1">  1        2 0.33260007E+00 0.11227102E+04</pdfrwt>
<pdfrwt beam="2">  1       -2 0.12791979E+00 0.11227102E+04</pdfrwt>
<totfact> 0.24181725E+00</totfact>
</mgrwt>
</event>
<event>
 4    2  0.3747163E-007  0.6590310E+03  0.7818608E-02  0.1025172E+00
         -2   -1    0    0    0  501 -0.00000000000E+00  0.00000000000E+00  0.11049455854E+04  0.11049455854E+04  0.25500000000E-02 0.  1.
          2   -1    0    0  501    0  0.00000000000E+00 -0.00000000000E+00 -0.30701868690E+03  0.30701868691E+03  0.25500000000E-02 0. -1.
    8880023    1    1    2    0    0  0.19318747230E+02 -0.11766524781E+02  0.64228777201E+02  0.66215346196E+03  0.65864270000E+03 0. -1.
    8880022    1    1    2    0    0 -0.19318747230E+02  0.11766524781E+02  0.73369812134E+03  0.74981081038E+03  0.15294330000E+03 0.  0.
<mgrwt>
<rscale>  0 0.45865556E+03</rscale>
<asrwt>0</asrwt>
<pdfrwt beam="1">  1        2 0.47233644E-01 0.65903101E+03</pdfrwt>
<pdfrwt beam="2">  1       -2 0.16999163E+00 0.65903101E+03</pdfrwt>
<totfact> 0.23292554E+01</totfact>
</mgrwt>
</event>
<event>
 4    2  0.3747163E-007  0.8192626E+03  0.7818608E-02  0.9670597E-01
         -2   -1    0    0    0  501 -0.00000000000E+00  0.00000000000E+00  0.54549180514E+03  0.54549180515E+03  0.25500000000E-02 0.  1.
          2   -1    0    0  501    0  0.00000000000E+00 -0.00000000000E+00 -0.17308700590E+04  0.17308700590E+04  0.25500000000E-02 0. -1.
    8880023    1    1    2    0    0  0.38348176046E+03  0.30053731064E+03 -0.14764898189E+04  0.16885536199E+04  0.65864270000E+03 0.  0.
    8880022    1    1    2    0    0 -0.38348176046E+03 -0.30053731064E+03  0.29111156504E+03  0.58780824425E+03  0.15294330000E+03 0.  0.
<mgrwt>
<rscale>  0 0.72794752E+03</rscale>
<asrwt>0</asrwt>
<pdfrwt beam="1">  1        2 0.26628770E+00 0.81926256E+03</pdfrwt>
<pdfrwt beam="2">  1       -2 0.83921817E-01 0.81926256E+03</pdfrwt>
<totfact> 0.11922582E+01</totfact>
</mgrwt>
</event>
<event>
 4    2  0.3747163E-007  0.7123250E+03  0.7818608E-02  0.9949466E-01
         -2   -1    0    0    0  501 -0.00000000000E+00  0.00000000000E+00  0.15475137643E+03  0.15475137645E+03  0.25500000000E-02 0.  1.
          2   -1    0    0  501    0  0.00000000000E+00 -0.00000000000E+00 -0.17990278686E+04  0.17990278686E+04  0.25500000000E-02 0. -1.
    8880023    1    1    2    0    0 -0.26388178092E+03 -0.62953449544E+02 -0.13443510114E+04  0.15214094055E+04  0.65864270000E+03 0.  0.
    8880022    1    1    2    0    0  0.26388178092E+03  0.62953449544E+02 -0.29992548082E+03  0.43236983957E+03  0.15294330000E+03 0. -1.
<mgrwt>
<rscale>  0 0.57922676E+03</rscale>
<asrwt>0</asrwt>
<pdfrwt beam="1">  1        2 0.27677350E+00 0.71232502E+03</pdfrwt>
<pdfrwt beam="2">  1       -2 0.23807905E-01 0.71232502E+03</pdfrwt>
<totfact> 0.13860111E+02</totfact>
</mgrwt>
</event>
<event>
 4    2  0.3747163E-007  0.6598335E+03  0.7818608E-02  0.1024328E+00
         -2   -1    0    0    0  501 -0.00000000000E+00  0.00000000000E+00  0.69802693627E+02  0.69802693673E+02  0.25500000000E-02 0.  1.
          2   -1    0    0  501    0  0.00000000000E+00 -0.00000000000E+00 -0.24046011296E+04  0.24046011296E+04  0.25500000000E-02 0. -1.
    8880023    1    1    2    0    0 -0.23198775140E+02 -0.32121794312E+02 -0.19413130555E+04  0.20503844953E+04  0.65864270000E+03 0.  1.
    8880022    1    1    2    0    0  0.23198775140E+02  0.32121794312E+02 -0.39348538049E+03  0.42401932799E+03  0.15294330000E+03 0. -1.
<mgrwt>
<rscale>  0 0.46156716E+03</rscale>
<asrwt>0</asrwt>
<pdfrwt beam="1">  1        2 0.36993857E+00 0.65983346E+03</pdfrwt>
<pdfrwt beam="2">  1       -2 0.10738878E-01 0.65983346E+03</pdfrwt>
<totfact> 0.25209565E+02</totfact>
</mgrwt>
</event>
<event>
 4    2  0.3747163E-007  0.6713625E+03  0.7818608E-02  0.1014704E+00
         -2   -1    0    0    0  501 -0.00000000000E+00  0.00000000000E+00  0.17737923366E+03  0.17737923368E+03  0.25500000000E-02 0.  1.
          2   -1    0    0  501    0  0.00000000000E+00 -0.00000000000E+00 -0.10751853133E+04  0.10751853133E+04  0.25500000000E-02 0. -1.
    8880023    1    1    2    0    0 -0.93540547780E+02  0.90374807538E+02 -0.71903284574E+03  0.98373567559E+03  0.65864270000E+03 0.  0.
    8880022    1    1    2    0    0  0.93540547780E+02 -0.90374807538E+02 -0.17877323388E+03  0.26882887137E+03  0.15294330000E+03 0. -1.
<mgrwt>
<rscale>  0 0.49647022E+03</rscale>
<asrwt>0</asrwt>
<pdfrwt beam="1">  1        2 0.16541312E+00 0.67136253E+03</pdfrwt>
<pdfrwt beam="2">  1       -2 0.27289114E-01 0.67136253E+03</pdfrwt>
<totfact> 0.27943774E+02</totfact>
</mgrwt>
</event>
<event>
 4    2  0.3747163E-007  0.8439152E+03  0.7818608E-02  0.9622842E-01
         -2   -1    0    0    0  501 -0.00000000000E+00  0.00000000000E+00  0.36101062718E+03  0.36101062719E+03  0.25500000000E-02 0.  1.
          2   -1    0    0  501    0  0.00000000000E+00 -0.00000000000E+00 -0.17895865289E+04  0.17895865289E+04  0.25500000000E-02 0. -1.
    8880023    1    1    2    0    0  0.51629439609E+03  0.10873246788E+03 -0.13550532603E+04  0.15963590440E+04  0.65864270000E+03 0. -1.
    8880022    1    1    2    0    0 -0.51629439609E+03 -0.10873246788E+03 -0.73522641409E+02  0.55423811202E+03  0.15294330000E+03 0.  0.
<mgrwt>
<rscale>  0 0.75802650E+03</rscale>
<asrwt>0</asrwt>
<pdfrwt beam="1">  1        2 0.27532100E+00 0.84391520E+03</pdfrwt>
<pdfrwt beam="2">  1       -2 0.55540097E-01 0.84391520E+03</pdfrwt>
<totfact> 0.27100805E+01</totfact>
</mgrwt>
</event>
<event>
 4    2  0.3747163E-007  0.6661514E+03  0.7818608E-02  0.1018586E+00
         -2   -1    0    0    0  501 -0.00000000000E+00  0.00000000000E+00  0.26613978876E+03  0.26613978877E+03  0.25500000000E-02 0.  1.
          2   -1    0    0  501    0  0.00000000000E+00 -0.00000000000E+00 -0.12383839258E+04  0.12383839258E+04  0.25500000000E-02 0. -1.
    8880023    1    1    2    0    0 -0.98834024237E+02 -0.13392560850E+02 -0.10969739874E+04  0.12833977015E+04  0.65864270000E+03 0. -1.
    8880022    1    1    2    0    0  0.98834024237E+02  0.13392560850E+02  0.12472985038E+03  0.22112601300E+03  0.15294330000E+03 0.  0.
<mgrwt>
<rscale>  0 0.48200227E+03</rscale>
<asrwt>0</asrwt>
<pdfrwt beam="1">  1        2 0.19052060E+00 0.66615143E+03</pdfrwt>
<pdfrwt beam="2">  1       -2 0.40944583E-01 0.66615143E+03</pdfrwt>
<totfact> 0.10381600E+02</totfact>
</mgrwt>
</event>
<event>
 4    2  0.3747163E-007  0.6826597E+03  0.7818608E-02  0.1007857E+00
          2   -1    0    0  501    0  0.00000000000E+00  0.00000000000E+00  0.23557964398E+04  0.23557964398E+04  0.25500000000E-02 0. -1.
         -2   -1    0    0    0  501 -0.00000000000E+00 -0.00000000000E+00 -0.94802218970E+02  0.94802219004E+02  0.25500000000E-02 0.  1.
    8880023    1    1    2    0    0 -0.16441316422E+03  0.71988455922E+02  0.19046823509E+04  0.20233237730E+04  0.65864270000E+03 0. -1.
    8880022    1    1    2    0    0  0.16441316422E+03 -0.71988455922E+02  0.35631186991E+03  0.42727488577E+03  0.15294330000E+03 0.  1.
<mgrwt>
<rscale>  0 0.52335103E+03</rscale>
<asrwt>0</asrwt>
<pdfrwt beam="1">  1        2 0.36243019E+00 0.68265968E+03</pdfrwt>
<pdfrwt beam="2">  1       -2 0.14584958E-01 0.68265968E+03</pdfrwt>
<totfact> 0.16115807E+02</totfact>
</mgrwt>
</event>
<event>
 4    2  0.3747163E-007  0.8250135E+03  0.7818608E-02  0.9659113E-01
          2   -1    0    0  501    0  0.00000000000E+00  0.00000000000E+00  0.29944253864E+03  0.29944253866E+03  0.25500000000E-02 0. -1.
         -2   -1    0    0    0  501 -0.00000000000E+00 -0.00000000000E+00 -0.18023139004E+04  0.18023139004E+04  0.25500000000E-02 0.  1.
    8880023    1    1    2    0    0 -0.22263428907E+03  0.44415211896E+03 -0.48030260861E+03  0.95464021157E+03  0.65864270000E+03 0. -1.
    8880022    1    1    2    0    0  0.22263428907E+03 -0.44415211896E+03 -0.10225687532E+04  0.11471162275E+04  0.15294330000E+03 0.  0.
<mgrwt>
<rscale>  0 0.73504217E+03</rscale>
<asrwt>0</asrwt>
<pdfrwt beam="1">  1        2 0.46068084E-01 0.82501354E+03</pdfrwt>
<pdfrwt beam="2">  1       -2 0.27727905E+00 0.82501354E+03</pdfrwt>
<totfact> 0.49317801E+00</totfact>
</mgrwt>
</event>
<event>
 4    2  0.3747163E-007  0.6683194E+03  0.7818608E-02  0.1016897E+00
          2   -1    0    0  501    0  0.00000000000E+00  0.00000000000E+00  0.92133644941E+03  0.92133644942E+03  0.25500000000E-02 0. -1.
         -2   -1    0    0    0  501 -0.00000000000E+00 -0.00000000000E+00 -0.44467499594E+03  0.44467499595E+03  0.25500000000E-02 0.  1.
    8880023    1    1    2    0    0 -0.22792800725E+02 -0.11100048338E+03  0.76795484977E+03  0.10180400172E+04  0.65864270000E+03 0. -1.
    8880022    1    1    2    0    0  0.22792800725E+02  0.11100048338E+03 -0.29129339630E+03  0.34797142816E+03  0.15294330000E+03 0.  0.
<mgrwt>
<rscale>  0 0.48823060E+03</rscale>
<asrwt>0</asrwt>
<pdfrwt beam="1">  1        2 0.14174407E+00 0.66831940E+03</pdfrwt>
<pdfrwt beam="2">  1       -2 0.68411538E-01 0.66831940E+03</pdfrwt>
<totfact> 0.56642298E+01</totfact>
</mgrwt>
</event>
<event>
 4    2  0.3747163E-007  0.6737503E+03  0.7818608E-02  0.1013106E+00
         -2   -1    0    0    0  501 -0.00000000000E+00  0.00000000000E+00  0.52756998633E+03  0.52756998633E+03  0.25500000000E-02 0.  1.
          2   -1    0    0  501    0  0.00000000000E+00 -0.00000000000E+00 -0.89528332534E+03  0.89528332534E+03  0.25500000000E-02 0. -1.
    8880023    1    1    2    0    0 -0.21989956015E+02  0.14016289424E+03 -0.73710046991E+03  0.99862730991E+03  0.65864270000E+03 0. -1.
    8880022    1    1    2    0    0  0.21989956015E+02 -0.14016289424E+03  0.36938713090E+03  0.42422600177E+03  0.15294330000E+03 0.  0.
<mgrwt>
<rscale>  0 0.50258714E+03</rscale>
<asrwt>0</asrwt>
<pdfrwt beam="1">  1        2 0.13773590E+00 0.67375025E+03</pdfrwt>
<pdfrwt beam="2">  1       -2 0.81164613E-01 0.67375025E+03</pdfrwt>
<totfact> 0.40386248E+01</totfact>
</mgrwt>
</event>
<event>
 4    2  0.3747163E-007  0.7218912E+03  0.7818608E-02  0.9916238E-01
         -2   -1    0    0    0  501 -0.00000000000E+00  0.00000000000E+00  0.36944250638E+03  0.36944250639E+03  0.25500000000E-02 0.  1.
          2   -1    0    0  501    0  0.00000000000E+00 -0.00000000000E+00 -0.15012549184E+04  0.15012549184E+04  0.25500000000E-02 0. -1.
    8880023    1    1    2    0    0  0.98533232997E+02  0.27858186038E+03 -0.13081600333E+04  0.14941250048E+04  0.65864270000E+03 0. -1.
    8880022    1    1    2    0    0 -0.98533232997E+02 -0.27858186038E+03  0.17634762131E+03  0.37657241999E+03  0.15294330000E+03 0.  0.
<mgrwt>
<rscale>  0 0.59480734E+03</rscale>
<asrwt>0</asrwt>
<pdfrwt beam="1">  1        2 0.23096229E+00 0.72189117E+03</pdfrwt>
<pdfrwt beam="2">  1       -2 0.56837309E-01 0.72189117E+03</pdfrwt>
<totfact> 0.37740576E+01</totfact>
</mgrwt>
</event>
<event>
 4    2  0.3747163E-007  0.9025768E+03  0.7818608E-02  0.9521908E-01
         -2   -1    0    0    0  501 -0.00000000000E+00  0.00000000000E+00  0.42190018702E+03  0.42190018703E+03  0.25500000000E-02 0.  1.
          2   -1    0    0  501    0  0.00000000000E+00 -0.00000000000E+00 -0.29039789075E+04  0.29039789075E+04  0.25500000000E-02 0. -1.
    8880023    1    1    2    0    0 -0.45904632862E+03 -0.41244531910E+03 -0.25320723724E+04  0.26881286015E+04  0.65864270000E+03 0.  0.
    8880022    1    1    2    0    0  0.45904632862E+03  0.41244531910E+03  0.49993651930E+02  0.63775049299E+03  0.15294330000E+03 0.  1.
<mgrwt>
<rscale>  0 0.82687755E+03</rscale>
<asrwt>0</asrwt>
<pdfrwt beam="1">  1        2 0.44676597E+00 0.90257680E+03</pdfrwt>
<pdfrwt beam="2">  1       -2 0.64907723E-01 0.90257680E+03</pdfrwt>
<totfact> 0.45281372E+00</totfact>
</mgrwt>
</event>
<event>
 4    2  0.3747163E-007  0.8887117E+03  0.7818608E-02  0.9544401E-01
          2   -1    0    0  501    0  0.00000000000E+00  0.00000000000E+00  0.79579564934E+03  0.79579564934E+03  0.25500000000E-02 0. -1.
         -2   -1    0    0    0  501 -0.00000000000E+00 -0.00000000000E+00 -0.80377599821E+03  0.80377599821E+03  0.25500000000E-02 0.  1.
    8880023    1    1    2    0    0  0.59640040653E+03  0.17460416174E+02  0.26276974853E+03  0.92674508795E+03  0.65864270000E+03 0.  0.
    8880022    1    1    2    0    0 -0.59640040653E+03 -0.17460416174E+02 -0.27075009740E+03  0.67282655960E+03  0.15294330000E+03 0.  0.
<mgrwt>
<rscale>  0 0.81087967E+03</rscale>
<asrwt>0</asrwt>
<pdfrwt beam="1">  1        2 0.12243010E+00 0.88871172E+03</pdfrwt>
<pdfrwt beam="2">  1       -2 0.12365785E+00 0.88871172E+03</pdfrwt>
<totfact> 0.17121718E+01</totfact>
</mgrwt>
</event>
<event>
 4    2  0.3747163E-007  0.7077225E+03  0.7818608E-02  0.9966557E-01
          2   -1    0    0  501    0  0.00000000000E+00  0.00000000000E+00  0.10827594665E+04  0.10827594665E+04  0.25500000000E-02 0. -1.
         -2   -1    0    0    0  501 -0.00000000000E+00 -0.00000000000E+00 -0.80085373145E+03  0.80085373146E+03  0.25500000000E-02 0.  1.
    8880023    1    1    2    0    0  0.39701231585E+02  0.25589986004E+03  0.93027782751E+03  0.11688832143E+04  0.65864270000E+03 0. -1.
    8880022    1    1    2    0    0 -0.39701231585E+02 -0.25589986004E+03 -0.64837209247E+03  0.71472998361E+03  0.15294330000E+03 0.  0.
<mgrwt>
<rscale>  0 0.57141268E+03</rscale>
<asrwt>0</asrwt>
<pdfrwt beam="1">  1        2 0.16657838E+00 0.70772250E+03</pdfrwt>
<pdfrwt beam="2">  1       -2 0.12320827E+00 0.70772250E+03</pdfrwt>
<totfact> 0.11361581E+01</totfact>
</mgrwt>
</event>
<event>
 4    2  0.3747163E-007  0.8025481E+03  0.7818608E-02  0.9705313E-01
          2   -1    0    0  501    0  0.00000000000E+00  0.00000000000E+00  0.64127998415E+03  0.64127998415E+03  0.25500000000E-02 0. -1.
         -2   -1    0    0    0  501 -0.00000000000E+00 -0.00000000000E+00 -0.13131937215E+04  0.13131937215E+04  0.25500000000E-02 0.  1.
    8880023    1    1    2    0    0 -0.33558395286E+03  0.31250072391E+03  0.30974956031E+03  0.86024896875E+03  0.65864270000E+03 0.  0.
    8880022    1    1    2    0    0  0.33558395286E+03 -0.31250072391E+03 -0.98166329766E+03  0.10942247369E+04  0.15294330000E+03 0.  0.
<mgrwt>
<rscale>  0 0.70701318E+03</rscale>
<asrwt>0</asrwt>
<pdfrwt beam="1">  1        2 0.98658460E-01 0.80254813E+03</pdfrwt>
<pdfrwt beam="2">  1       -2 0.20202980E+00 0.80254813E+03</pdfrwt>
<totfact> 0.59823942E+00</totfact>
</mgrwt>
</event>
<event>
 4    2  0.3747163E-007  0.7885531E+03  0.7818608E-02  0.9736116E-01
         -2   -1    0    0    0  501 -0.00000000000E+00  0.00000000000E+00  0.92246432181E+03  0.92246432182E+03  0.25500000000E-02 0.  1.
          2   -1    0    0  501    0  0.00000000000E+00 -0.00000000000E+00 -0.67985780804E+03  0.67985780805E+03  0.25500000000E-02 0. -1.
    8880023    1    1    2    0    0  0.43561196640E+02  0.43140253282E+03 -0.34119745600E+03  0.85920406972E+03  0.65864270000E+03 0.  1.
    8880022    1    1    2    0    0 -0.43561196640E+02 -0.43140253282E+03  0.58380396977E+03  0.74311806014E+03  0.15294330000E+03 0.  0.
<mgrwt>
<rscale>  0 0.68906571E+03</rscale>
<asrwt>0</asrwt>
<pdfrwt beam="1">  1        2 0.10459351E+00 0.78855306E+03</pdfrwt>
<pdfrwt beam="2">  1       -2 0.14191759E+00 0.78855306E+03</pdfrwt>
<totfact> 0.14895200E+01</totfact>
</mgrwt>
</event>
<event>
 4    2  0.3747163E-007  0.7245957E+03  0.7818608E-02  0.9907332E-01
         -2   -1    0    0    0  501 -0.00000000000E+00  0.00000000000E+00  0.17978184678E+03  0.17978184680E+03  0.25500000000E-02 0.  1.
          2   -1    0    0  501    0  0.00000000000E+00 -0.00000000000E+00 -0.15780992603E+04  0.15780992603E+04  0.25500000000E-02 0. -1.
    8880023    1    1    2    0    0  0.25211880815E+03  0.16632743499E+03 -0.10039494688E+04  0.12381249740E+04  0.65864270000E+03 0.  1.
    8880022    1    1    2    0    0 -0.25211880815E+03 -0.16632743499E+03 -0.39436794468E+03  0.51975613307E+03  0.15294330000E+03 0.  0.
<mgrwt>
<rscale>  0 0.59907270E+03</rscale>
<asrwt>0</asrwt>
<pdfrwt beam="1">  1        2 0.24278449E+00 0.72459569E+03</pdfrwt>
<pdfrwt beam="2">  1       -2 0.27658747E-01 0.72459569E+03</pdfrwt>
<totfact> 0.13941799E+02</totfact>
</mgrwt>
</event>
<event>
 4    2  0.3747163E-007  0.6906796E+03  0.7818608E-02  0.1003831E+00
         -2   -1    0    0    0  501 -0.00000000000E+00  0.00000000000E+00  0.24906277295E+03  0.24906277296E+03  0.25500000000E-02 0.  1.
          2   -1    0    0  501    0  0.00000000000E+00 -0.00000000000E+00 -0.15748526201E+04  0.15748526201E+04  0.25500000000E-02 0. -1.
    8880023    1    1    2    0    0  0.18311616266E+03 -0.98471332132E+02 -0.13950606026E+04  0.15566735122E+04  0.65864270000E+03 0. -1.
    8880022    1    1    2    0    0 -0.18311616266E+03  0.98471332132E+02  0.69270755528E+02  0.26724188082E+03  0.15294330000E+03 0.  0.
<mgrwt>
<rscale>  0 0.54001756E+03</rscale>
<asrwt>0</asrwt>
<pdfrwt beam="1">  1        2 0.24228501E+00 0.69067962E+03</pdfrwt>
<pdfrwt beam="2">  1       -2 0.38317351E-01 0.69067962E+03</pdfrwt>
<totfact> 0.76097625E+01</totfact>
</mgrwt>
</event>
<event>
 4    2  0.3747163E-007  0.6874623E+03  0.7818608E-02  0.1005383E+00
         -2   -1    0    0    0  501 -0.00000000000E+00  0.00000000000E+00  0.32418450331E+03  0.32418450332E+03  0.25500000000E-02 0.  1.
          2   -1    0    0  501    0  0.00000000000E+00 -0.00000000000E+00 -0.11919056447E+04  0.11919056447E+04  0.25500000000E-02 0. -1.
    8880023    1    1    2    0    0  0.15036806981E+03 -0.12721505502E+03 -0.10154304443E+04  0.12262558542E+04  0.65864270000E+03 0. -1.
    8880022    1    1    2    0    0 -0.15036806981E+03  0.12721505502E+03  0.14770930293E+03  0.28983429374E+03  0.15294330000E+03 0.  0.
<mgrwt>
<rscale>  0 0.53351686E+03</rscale>
<asrwt>0</asrwt>
<pdfrwt beam="1">  1        2 0.18337010E+00 0.68746231E+03</pdfrwt>
<pdfrwt beam="2">  1       -2 0.49874539E-01 0.68746231E+03</pdfrwt>
<totfact> 0.74465312E+01</totfact>
</mgrwt>
</event>
<event>
 4    2  0.3747163E-007  0.7094105E+03  0.7818608E-02  0.9960197E-01
          2   -1    0    0  501    0  0.00000000000E+00  0.00000000000E+00  0.15467494587E+04  0.15467494587E+04  0.25500000000E-02 0. -1.
         -2   -1    0    0    0  501 -0.00000000000E+00 -0.00000000000E+00 -0.17511938259E+03  0.17511938261E+03  0.25500000000E-02 0.  1.
    8880023    1    1    2    0    0  0.24558087372E+03 -0.95619238709E+02  0.11243721645E+04  0.13294645444E+04  0.65864270000E+03 0. -1.
    8880022    1    1    2    0    0 -0.24558087372E+03  0.95619238709E+02  0.24725791164E+03  0.39240429691E+03  0.15294330000E+03 0.  1.
<mgrwt>
<rscale>  0 0.57430528E+03</rscale>
<asrwt>0</asrwt>
<pdfrwt beam="1">  1        2 0.23796146E+00 0.70941047E+03</pdfrwt>
<pdfrwt beam="2">  1       -2 0.26941443E-01 0.70941047E+03</pdfrwt>
<totfact> 0.15242826E+02</totfact>
</mgrwt>
</event>
<event>
 4    2  0.3747163E-007  0.7218066E+03  0.7818608E-02  0.9916520E-01
         -2   -1    0    0    0  501 -0.00000000000E+00  0.00000000000E+00  0.30277371345E+03  0.30277371346E+03  0.25500000000E-02 0.  1.
          2   -1    0    0  501    0  0.00000000000E+00 -0.00000000000E+00 -0.15295601803E+04  0.15295601803E+04  0.25500000000E-02 0. -1.
    8880023    1    1    2    0    0  0.29446513953E+03  0.22019691640E+02 -0.13044531208E+04  0.14908396077E+04  0.65864270000E+03 0.  0.
    8880022    1    1    2    0    0 -0.29446513953E+03 -0.22019691640E+02  0.77666654017E+02  0.34149428601E+03  0.15294330000E+03 0.  0.
<mgrwt>
<rscale>  0 0.59467308E+03</rscale>
<asrwt>0</asrwt>
<pdfrwt beam="1">  1        2 0.23531695E+00 0.72180662E+03</pdfrwt>
<pdfrwt beam="2">  1       -2 0.46580572E-01 0.72180662E+03</pdfrwt>
<totfact> 0.54697960E+01</totfact>
</mgrwt>
</event>
<event>
 4    2  0.3747163E-007  0.7189826E+03  0.7818608E-02  0.9926044E-01
          2   -1    0    0  501    0  0.00000000000E+00  0.00000000000E+00  0.28786362882E+04  0.28786362882E+04  0.25500000000E-02 0. -1.
         -2   -1    0    0    0  501 -0.00000000000E+00 -0.00000000000E+00 -0.19095150872E+03  0.19095150874E+03  0.25500000000E-02 0.  1.
    8880023    1    1    2    0    0  0.25877546811E+03 -0.12712593216E+03  0.26443530149E+04  0.27403537763E+04  0.65864270000E+03 0. -1.
    8880022    1    1    2    0    0 -0.25877546811E+03  0.12712593216E+03  0.43331764581E+02  0.32923402066E+03  0.15294330000E+03 0.  0.
<mgrwt>
<rscale>  0 0.59015535E+03</rscale>
<asrwt>0</asrwt>
<pdfrwt beam="1">  1        2 0.44286712E+00 0.71898258E+03</pdfrwt>
<pdfrwt beam="2">  1       -2 0.29377155E-01 0.71898258E+03</pdfrwt>
<totfact> 0.23401878E+01</totfact>
</mgrwt>
</event>
<event>
 4    2  0.3747163E-007  0.8536519E+03  0.7818608E-02  0.9604957E-01
          2   -1    0    0  501    0  0.00000000000E+00  0.00000000000E+00  0.21850799825E+04  0.21850799825E+04  0.25500000000E-02 0. -1.
         -2   -1    0    0    0  501 -0.00000000000E+00 -0.00000000000E+00 -0.36192048103E+03  0.36192048104E+03  0.25500000000E-02 0.  1.
    8880023    1    1    2    0    0 -0.23295084506E+01 -0.54305246035E+03  0.17884677117E+04  0.19817513374E+04  0.65864270000E+03 0. -1.
    8880022    1    1    2    0    0  0.23295084506E+01  0.54305246035E+03  0.34691789775E+02  0.56524912613E+03  0.15294330000E+03 0.  0.
<mgrwt>
<rscale>  0 0.76968978E+03</rscale>
<asrwt>0</asrwt>
<pdfrwt beam="1">  1        2 0.33616615E+00 0.85365192E+03</pdfrwt>
<pdfrwt beam="2">  1       -2 0.55680075E-01 0.85365192E+03</pdfrwt>
<totfact> 0.16337928E+01</totfact>
</mgrwt>
</event>
<event>
 4    2  0.3747163E-007  0.6853885E+03  0.7818608E-02  0.1006426E+00
          2   -1    0    0  501    0  0.00000000000E+00  0.00000000000E+00  0.95066660858E+03  0.95066660858E+03  0.25500000000E-02 0. -1.
         -2   -1    0    0    0  501 -0.00000000000E+00 -0.00000000000E+00 -0.99672133558E+03  0.99672133559E+03  0.25500000000E-02 0.  1.
    8880023    1    1    2    0    0  0.49704664349E+02 -0.18296638260E+03  0.80784604519E+03  0.10594209219E+04  0.65864270000E+03 0. -1.
    8880022    1    1    2    0    0 -0.49704664349E+02  0.18296638260E+03 -0.85390077220E+03  0.88796702224E+03  0.15294330000E+03 0.  0.
<mgrwt>
<rscale>  0 0.52920029E+03</rscale>
<asrwt>0</asrwt>
<pdfrwt beam="1">  1        2 0.14625640E+00 0.68538854E+03</pdfrwt>
<pdfrwt beam="2">  1       -2 0.15334174E+00 0.68538854E+03</pdfrwt>
<totfact> 0.78675551E+00</totfact>
</mgrwt>
</event>
<event>
 4    2  0.3747163E-007  0.6695776E+03  0.7818608E-02  0.1015967E+00
          2   -1    0    0  501    0  0.00000000000E+00  0.00000000000E+00  0.10696809949E+04  0.10696809949E+04  0.25500000000E-02 0. -1.
         -2   -1    0    0    0  501 -0.00000000000E+00 -0.00000000000E+00 -0.36381239156E+03  0.36381239157E+03  0.25500000000E-02 0.  1.
    8880023    1    1    2    0    0  0.23925644308E+02 -0.11811676059E+03  0.92399634084E+03  0.11410974760E+04  0.65864270000E+03 0. -1.
    8880022    1    1    2    0    0 -0.23925644308E+02  0.11811676059E+03 -0.21812773749E+03  0.29239591048E+03  0.15294330000E+03 0.  0.
<mgrwt>
<rscale>  0 0.49170320E+03</rscale>
<asrwt>0</asrwt>
<pdfrwt beam="1">  1        2 0.16456631E+00 0.66957764E+03</pdfrwt>
<pdfrwt beam="2">  1       -2 0.55971137E-01 0.66957764E+03</pdfrwt>
<totfact> 0.69741836E+01</totfact>
</mgrwt>
</event>
<event>
 4    2  0.3747163E-007  0.7910228E+03  0.7818608E-02  0.9730554E-01
         -2   -1    0    0    0  501 -0.00000000000E+00  0.00000000000E+00  0.51957446570E+03  0.51957446571E+03  0.25500000000E-02 0.  1.
          2   -1    0    0  501    0  0.00000000000E+00 -0.00000000000E+00 -0.11116061605E+04  0.11116061605E+04  0.25500000000E-02 0. -1.
    8880023    1    1    2    0    0 -0.29167391673E+03  0.32685357300E+03 -0.79790872980E+03  0.11235548403E+04  0.65864270000E+03 0.  0.
    8880022    1    1    2    0    0  0.29167391673E+03 -0.32685357300E+03  0.20587703503E+03  0.50762578584E+03  0.15294330000E+03 0.  0.
<mgrwt>
<rscale>  0 0.69226427E+03</rscale>
<asrwt>0</asrwt>
<pdfrwt beam="1">  1        2 0.17101633E+00 0.79102284E+03</pdfrwt>
<pdfrwt beam="2">  1       -2 0.79934534E-01 0.79102284E+03</pdfrwt>
<totfact> 0.30075193E+01</totfact>
</mgrwt>
</event>
<event>
 4    2  0.3747163E-007  0.6651330E+03  0.7818608E-02  0.1019422E+00
          2   -1    0    0  501    0  0.00000000000E+00  0.00000000000E+00  0.24802827119E+03  0.24802827121E+03  0.25500000000E-02 0. -1.
         -2   -1    0    0    0  501 -0.00000000000E+00 -0.00000000000E+00 -0.14849280090E+04  0.14849280090E+04  0.25500000000E-02 0.  1.
    8880023    1    1    2    0    0  0.91069623087E+02  0.17263562026E+02 -0.22018216121E+03  0.70062978612E+03  0.65864270000E+03 0.  0.
    8880022    1    1    2    0    0 -0.91069623087E+02 -0.17263562026E+02 -0.10167175766E+04  0.10323264941E+04  0.15294330000E+03 0.  0.
<mgrwt>
<rscale>  0 0.47895740E+03</rscale>
<asrwt>0</asrwt>
<pdfrwt beam="1">  1        2 0.38158196E-01 0.66513300E+03</pdfrwt>
<pdfrwt beam="2">  1       -2 0.22845046E+00 0.66513300E+03</pdfrwt>
<totfact> 0.12237756E+01</totfact>
</mgrwt>
</event>
<event>
 4    2  0.3747163E-007  0.7172508E+03  0.7818608E-02  0.9932000E-01
          2   -1    0    0  501    0  0.00000000000E+00  0.00000000000E+00  0.62681186976E+03  0.62681186976E+03  0.25500000000E-02 0. -1.
         -2   -1    0    0    0  501 -0.00000000000E+00 -0.00000000000E+00 -0.12419928430E+04  0.12419928430E+04  0.25500000000E-02 0.  1.
    8880023    1    1    2    0    0 -0.28368408579E+03  0.12721832530E+02  0.38770413970E+03  0.81533012440E+03  0.65864270000E+03 0. -1.
    8880022    1    1    2    0    0  0.28368408579E+03 -0.12721832530E+02 -0.10028851129E+04  0.10534745883E+04  0.15294330000E+03 0.  0.
<mgrwt>
<rscale>  0 0.58735164E+03</rscale>
<asrwt>0</asrwt>
<pdfrwt beam="1">  1        2 0.96432595E-01 0.71725080E+03</pdfrwt>
<pdfrwt beam="2">  1       -2 0.19107582E+00 0.71725080E+03</pdfrwt>
<totfact> 0.73332746E+00</totfact>
</mgrwt>
</event>
<event>
 4    2  0.3747163E-007  0.8562126E+03  0.7818608E-02  0.9600336E-01
         -2   -1    0    0    0  501 -0.00000000000E+00  0.00000000000E+00  0.96665364894E+03  0.96665364894E+03  0.25500000000E-02 0.  1.
          2   -1    0    0  501    0  0.00000000000E+00 -0.00000000000E+00 -0.65355993453E+03  0.65355993453E+03  0.25500000000E-02 0. -1.
    8880023    1    1    2    0    0  0.37244103488E+03  0.40072119409E+03 -0.17188603282E+03  0.87329537638E+03  0.65864270000E+03 0. -1.
    8880022    1    1    2    0    0 -0.37244103488E+03 -0.40072119409E+03  0.48497974722E+03  0.74691820710E+03  0.15294330000E+03 0.  0.
<mgrwt>
<rscale>  0 0.77273923E+03</rscale>
<asrwt>0</asrwt>
<pdfrwt beam="1">  1        2 0.10054768E+00 0.85621259E+03</pdfrwt>
<pdfrwt beam="2">  1       -2 0.14871595E+00 0.85621259E+03</pdfrwt>
<totfact> 0.13753038E+01</totfact>
</mgrwt>
</event>
<event>
 4    2  0.3747163E-007  0.8890972E+03  0.7818608E-02  0.9543766E-01
          2   -1    0    0  501    0  0.00000000000E+00  0.00000000000E+00  0.46556469242E+04  0.46556469242E+04  0.25500000000E-02 0. -1.
         -2   -1    0    0    0  501 -0.00000000000E+00 -0.00000000000E+00 -0.28607680748E+03  0.28607680749E+03  0.25500000000E-02 0.  1.
    8880023    1    1    2    0    0 -0.14988447612E+03 -0.57811615886E+03  0.49338903350E+03  0.10168218103E+04  0.65864270000E+03 0.  1.
    8880022    1    1    2    0    0  0.14988447612E+03  0.57811615886E+03  0.38761810833E+04  0.39249019214E+04  0.15294330000E+03 0.  0.
<mgrwt>
<rscale>  0 0.81132647E+03</rscale>
<asrwt>0</asrwt>
<pdfrwt beam="1">  1        2 0.71625338E+00 0.88909721E+03</pdfrwt>
<pdfrwt beam="2">  1       -2 0.44011816E-01 0.88909721E+03</pdfrwt>
<totfact> 0.46545615E-01</totfact>
</mgrwt>
</event>
<event>
 4    2  0.3747163E-007  0.9762704E+03  0.7818608E-02  0.9413284E-01
         -2   -1    0    0    0  501 -0.00000000000E+00  0.00000000000E+00  0.74944845422E+03  0.74944845423E+03  0.25500000000E-02 0.  1.
          2   -1    0    0  501    0  0.00000000000E+00 -0.00000000000E+00 -0.11416564809E+04  0.11416564809E+04  0.25500000000E-02 0. -1.
    8880023    1    1    2    0    0 -0.32966346305E+03  0.64079304840E+03 -0.57376319703E+03  0.11323904549E+04  0.65864270000E+03 0. -1.
    8880022    1    1    2    0    0  0.32966346305E+03 -0.64079304840E+03  0.18155517031E+03  0.75871448031E+03  0.15294330000E+03 0.  0.
<mgrwt>
<rscale>  0 0.90990513E+03</rscale>
<asrwt>0</asrwt>
<pdfrwt beam="1">  1        2 0.17563946E+00 0.97627042E+03</pdfrwt>
<pdfrwt beam="2">  1       -2 0.11529976E+00 0.97627042E+03</pdfrwt>
<totfact> 0.11975518E+01</totfact>
</mgrwt>
</event>
<event>
 4    2  0.3747163E-007  0.1045598E+04  0.7818608E-02  0.9324192E-01
          2   -1    0    0  501    0  0.00000000000E+00  0.00000000000E+00  0.12268641619E+04  0.12268641619E+04  0.25500000000E-02 0. -1.
         -2   -1    0    0    0  501 -0.00000000000E+00 -0.00000000000E+00 -0.10671987355E+04  0.10671987355E+04  0.25500000000E-02 0.  1.
    8880023    1    1    2    0    0  0.51435481421E+03  0.62841415461E+03  0.74287800521E+03  0.12826313428E+04  0.65864270000E+03 0. -1.
    8880022    1    1    2    0    0 -0.51435481421E+03 -0.62841415461E+03 -0.58321257885E+03  0.10114315547E+04  0.15294330000E+03 0.  0.
<mgrwt>
<rscale>  0 0.98585900E+03</rscale>
<asrwt>0</asrwt>
<pdfrwt beam="1">  1        2 0.18874833E+00 0.10455981E+04</pdfrwt>
<pdfrwt beam="2">  1       -2 0.16418442E+00 0.10455981E+04</pdfrwt>
<totfact> 0.42264729E+00</totfact>
</mgrwt>
</event>
<event>
 4    2  0.3747163E-007  0.8480766E+03  0.7818608E-02  0.9615135E-01
         -2   -1    0    0    0  501 -0.00000000000E+00  0.00000000000E+00  0.85113762385E+03  0.85113762386E+03  0.25500000000E-02 0.  1.
          2   -1    0    0  501    0  0.00000000000E+00 -0.00000000000E+00 -0.97656986171E+03  0.97656986171E+03  0.25500000000E-02 0. -1.
    8880023    1    1    2    0    0  0.28483593437E+03 -0.45198694752E+03 -0.64612909909E+03  0.10661691841E+04  0.65864270000E+03 0.  0.
    8880022    1    1    2    0    0 -0.28483593437E+03  0.45198694752E+03  0.52069686123E+03  0.76153830144E+03  0.15294330000E+03 0.  0.
<mgrwt>
<rscale>  0 0.76302483E+03</rscale>
<asrwt>0</asrwt>
<pdfrwt beam="1">  1        2 0.15024152E+00 0.84807660E+03</pdfrwt>
<pdfrwt beam="2">  1       -2 0.13094425E+00 0.84807660E+03</pdfrwt>
<totfact> 0.11191631E+01</totfact>
</mgrwt>
</event>
<event>
 4    2  0.3747163E-007  0.6877123E+03  0.7818608E-02  0.1005259E+00
         -2   -1    0    0    0  501 -0.00000000000E+00  0.00000000000E+00  0.42936256996E+03  0.42936256997E+03  0.25500000000E-02 0.  1.
          2   -1    0    0  501    0  0.00000000000E+00 -0.00000000000E+00 -0.14285970204E+04  0.14285970204E+04  0.25500000000E-02 0. -1.
    8880023    1    1    2    0    0  0.15698042109E+03 -0.12039573440E+03 -0.12976531913E+04  0.14686224827E+04  0.65864270000E+03 0. -1.
    8880022    1    1    2    0    0 -0.15698042109E+03  0.12039573440E+03  0.29841874090E+03  0.38933710766E+03  0.15294330000E+03 0.  0.
<mgrwt>
<rscale>  0 0.53403021E+03</rscale>
<asrwt>0</asrwt>
<pdfrwt beam="1">  1        2 0.21978415E+00 0.68771229E+03</pdfrwt>
<pdfrwt beam="2">  1       -2 0.66055781E-01 0.68771229E+03</pdfrwt>
<totfact> 0.30254662E+01</totfact>
</mgrwt>
</event>
<event>
 4    2  0.3747163E-007  0.1016634E+04  0.7818608E-02  0.9360112E-01
          2   -1    0    0  501    0  0.00000000000E+00  0.00000000000E+00  0.16204819536E+04  0.16204819536E+04  0.25500000000E-02 0. -1.
         -2   -1    0    0    0  501 -0.00000000000E+00 -0.00000000000E+00 -0.62512492946E+03  0.62512492946E+03  0.25500000000E-02 0.  1.
    8880023    1    1    2    0    0  0.59917258654E+03  0.49063830446E+03  0.10407888695E+04  0.14549176648E+04  0.65864270000E+03 0.  0.
    8880022    1    1    2    0    0 -0.59917258654E+03 -0.49063830446E+03 -0.45431845362E+02  0.79068921825E+03  0.15294330000E+03 0.  0.
<mgrwt>
<rscale>  0 0.95432277E+03</rscale>
<asrwt>0</asrwt>
<pdfrwt beam="1">  1        2 0.24930492E+00 0.10166336E+04</pdfrwt>
<pdfrwt beam="2">  1       -2 0.96173066E-01 0.10166336E+04</pdfrwt>
<totfact> 0.97867866E+00</totfact>
</mgrwt>
</event>
<event>
 4    2  0.3747163E-007  0.1367701E+04  0.7818608E-02  0.9009195E-01
          2   -1    0    0  501    0  0.00000000000E+00  0.00000000000E+00  0.22610683379E+04  0.22610683379E+04  0.25500000000E-02 0. -1.
         -2   -1    0    0    0  501 -0.00000000000E+00 -0.00000000000E+00 -0.14909284260E+04  0.14909284260E+04  0.25500000000E-02 0.  1.
    8880023    1    1    2    0    0  0.68937958632E+03  0.98058711822E+03  0.17324476391E+04  0.22072562921E+04  0.65864270000E+03 0. -1.
    8880022    1    1    2    0    0 -0.68937958632E+03 -0.98058711822E+03 -0.96230772718E+03  0.15447404718E+04  0.15294330000E+03 0.  0.
<mgrwt>
<rscale>  0 0.13260026E+04</rscale>
<asrwt>0</asrwt>
<pdfrwt beam="1">  1        2 0.34785666E+00 0.13677008E+04</pdfrwt>
<pdfrwt beam="2">  1       -2 0.22937361E+00 0.13677008E+04</pdfrwt>
<totfact> 0.39198193E-01</totfact>
</mgrwt>
</event>
<event>
 4    2  0.3747163E-007  0.6954050E+03  0.7818608E-02  0.1001682E+00
         -2   -1    0    0    0  501 -0.00000000000E+00  0.00000000000E+00  0.51910945584E+03  0.51910945584E+03  0.25500000000E-02 0.  1.
          2   -1    0    0  501    0  0.00000000000E+00 -0.00000000000E+00 -0.14259232655E+04  0.14259232655E+04  0.25500000000E-02 0. -1.
    8880023    1    1    2    0    0 -0.21210230879E+03 -0.69213162429E+02 -0.12961715667E+04  0.14709346647E+04  0.65864270000E+03 0. -1.
    8880022    1    1    2    0    0  0.21210230879E+03  0.69213162429E+02  0.38935775709E+03  0.47409805659E+03  0.15294330000E+03 0.  0.
<mgrwt>
<rscale>  0 0.54918618E+03</rscale>
<asrwt>0</asrwt>
<pdfrwt beam="1">  1        2 0.21937281E+00 0.69540496E+03</pdfrwt>
<pdfrwt beam="2">  1       -2 0.79862993E-01 0.69540496E+03</pdfrwt>
<totfact> 0.19981671E+01</totfact>
</mgrwt>
</event>
<event>
 4    2  0.3747163E-007  0.1020176E+04  0.7818608E-02  0.9355624E-01
         -2   -1    0    0    0  501 -0.00000000000E+00  0.00000000000E+00  0.13141376857E+04  0.13141376857E+04  0.25500000000E-02 0.  1.
          2   -1    0    0  501    0  0.00000000000E+00 -0.00000000000E+00 -0.11080093900E+04  0.11080093900E+04  0.25500000000E-02 0. -1.
    8880023    1    1    2    0    0  0.77821550132E+03  0.36473793349E+02 -0.68486885231E+03  0.12287413297E+04  0.65864270000E+03 0. -1.
    8880022    1    1    2    0    0 -0.77821550132E+03 -0.36473793349E+02  0.89099714796E+03  0.11934057461E+04  0.15294330000E+03 0.  0.
<mgrwt>
<rscale>  0 0.95819397E+03</rscale>
<asrwt>0</asrwt>
<pdfrwt beam="1">  1        2 0.17046298E+00 0.10201764E+04</pdfrwt>
<pdfrwt beam="2">  1       -2 0.20217503E+00 0.10201764E+04</pdfrwt>
<totfact> 0.27444623E+00</totfact>
</mgrwt>
</event>
<event>
 4    2  0.3747163E-007  0.7714903E+03  0.7818608E-02  0.9776220E-01
         -2   -1    0    0    0  501 -0.00000000000E+00  0.00000000000E+00  0.27738443209E+03  0.27738443210E+03  0.25500000000E-02 0.  1.
          2   -1    0    0  501    0  0.00000000000E+00 -0.00000000000E+00 -0.16723186142E+04  0.16723186142E+04  0.25500000000E-02 0. -1.
    8880023    1    1    2    0    0 -0.27592283229E+03 -0.29198220154E+03 -0.12965625265E+04  0.15087317875E+04  0.65864270000E+03 0. -1.
    8880022    1    1    2    0    0  0.27592283229E+03  0.29198220154E+03 -0.98371655607E+02  0.44097125874E+03  0.15294330000E+03 0.  1.
<mgrwt>
<rscale>  0 0.66654475E+03</rscale>
<asrwt>0</asrwt>
<pdfrwt beam="1">  1        2 0.25727978E+00 0.77149026E+03</pdfrwt>
<pdfrwt beam="2">  1       -2 0.42674529E-01 0.77149026E+03</pdfrwt>
<totfact> 0.54038463E+01</totfact>
</mgrwt>
</event>
<event>
 4    2  0.3747163E-007  0.7360626E+03  0.7818608E-02  0.9871568E-01
         -2   -1    0    0    0  501 -0.00000000000E+00  0.00000000000E+00  0.86655776144E+03  0.86655776145E+03  0.25500000000E-02 0.  1.
          2   -1    0    0  501    0  0.00000000000E+00 -0.00000000000E+00 -0.19056091154E+04  0.19056091154E+04  0.25500000000E-02 0. -1.
    8880023    1    1    2    0    0  0.28388718147E+03  0.16548723527E+03 -0.17915854691E+04  0.19368961397E+04  0.65864270000E+03 0. -1.
    8880022    1    1    2    0    0 -0.28388718147E+03 -0.16548723527E+03  0.75253411512E+03  0.83527073711E+03  0.15294330000E+03 0.  0.
<mgrwt>
<rscale>  0 0.61659206E+03</rscale>
<asrwt>0</asrwt>
<pdfrwt beam="1">  1        2 0.29317063E+00 0.73606261E+03</pdfrwt>
<pdfrwt beam="2">  1       -2 0.13331658E+00 0.73606261E+03</pdfrwt>
<totfact> 0.31850757E+00</totfact>
</mgrwt>
</event>
<event>
 4    2  0.3747163E-007  0.7561985E+03  0.7818608E-02  0.9815050E-01
         -2   -1    0    0    0  501 -0.00000000000E+00  0.00000000000E+00  0.22910406826E+03  0.22910406827E+03  0.25500000000E-02 0.  1.
          2   -1    0    0  501    0  0.00000000000E+00 -0.00000000000E+00 -0.17290465137E+04  0.17290465137E+04  0.25500000000E-02 0. -1.
    8880023    1    1    2    0    0 -0.11002959412E+03 -0.35485128354E+03 -0.13126131734E+04  0.15148562619E+04  0.65864270000E+03 0.  1.
    8880022    1    1    2    0    0  0.11002959412E+03  0.35485128354E+03 -0.18732927202E+03  0.44329432004E+03  0.15294330000E+03 0.  0.
<mgrwt>
<rscale>  0 0.64561069E+03</rscale>
<asrwt>0</asrwt>
<pdfrwt beam="1">  1        2 0.26600715E+00 0.75619849E+03</pdfrwt>
<pdfrwt beam="2">  1       -2 0.35246781E-01 0.75619849E+03</pdfrwt>
<totfact> 0.73021813E+01</totfact>
</mgrwt>
</event>
<event>
 4    2  0.3747163E-007  0.6676085E+03  0.7818608E-02  0.1017439E+00
          2   -1    0    0  501    0  0.00000000000E+00  0.00000000000E+00  0.21989814445E+04  0.21989814445E+04  0.25500000000E-02 0. -1.
         -2   -1    0    0    0  501 -0.00000000000E+00 -0.00000000000E+00 -0.11158288186E+03  0.11158288189E+03  0.25500000000E-02 0.  1.
    8880023    1    1    2    0    0 -0.44626339878E+02 -0.99495794591E+02  0.19899534526E+04  0.20989559007E+04  0.65864270000E+03 0. -1.
    8880022    1    1    2    0    0  0.44626339878E+02  0.99495794591E+02  0.97445110125E+02  0.21160842576E+03  0.15294330000E+03 0.  0.
<mgrwt>
<rscale>  0 0.48622405E+03</rscale>
<asrwt>0</asrwt>
<pdfrwt beam="1">  1        2 0.33830484E+00 0.66760852E+03</pdfrwt>
<pdfrwt beam="2">  1       -2 0.17166597E-01 0.66760852E+03</pdfrwt>
<totfact> 0.14943443E+02</totfact>
</mgrwt>
</event>
<event>
 4    2  0.3747163E-007  0.1054459E+04  0.7818608E-02  0.9313540E-01
          2   -1    0    0  501    0  0.00000000000E+00  0.00000000000E+00  0.30746800495E+04  0.30746800495E+04  0.25500000000E-02 0. -1.
         -2   -1    0    0    0  501 -0.00000000000E+00 -0.00000000000E+00 -0.45135213752E+03  0.45135213753E+03  0.25500000000E-02 0.  1.
    8880023    1    1    2    0    0  0.82334197432E+03  0.13466456360E+02  0.24548277265E+04  0.26717153151E+04  0.65864270000E+03 0. -1.
    8880022    1    1    2    0    0 -0.82334197432E+03 -0.13466456360E+02  0.16850018553E+03  0.85431687193E+03  0.15294330000E+03 0.  0.
<mgrwt>
<rscale>  0 0.99545812E+03</rscale>
<asrwt>0</asrwt>
<pdfrwt beam="1">  1        2 0.47302769E+00 0.10544589E+04</pdfrwt>
<pdfrwt beam="2">  1       -2 0.69438793E-01 0.10544589E+04</pdfrwt>
<totfact> 0.30015829E+00</totfact>
</mgrwt>
</event>
<event>
 4    2  0.3747163E-007  0.6753739E+03  0.7818608E-02  0.1012072E+00
          2   -1    0    0  501    0  0.00000000000E+00  0.00000000000E+00  0.28134048292E+04  0.28134048292E+04  0.25500000000E-02 0. -1.
         -2   -1    0    0    0  501 -0.00000000000E+00 -0.00000000000E+00 -0.78008631144E+02  0.78008631186E+02  0.25500000000E-02 0.  1.
    8880023    1    1    2    0    0 -0.60288024512E+02 -0.13669330552E+03  0.24037301800E+04  0.24968076999E+04  0.65864270000E+03 0.  0.
    8880022    1    1    2    0    0  0.60288024512E+02  0.13669330552E+03  0.33166601801E+03  0.39460576046E+03  0.15294330000E+03 0. -1.
<mgrwt>
<rscale>  0 0.50659538E+03</rscale>
<asrwt>0</asrwt>
<pdfrwt beam="1">  1        2 0.43283145E+00 0.67537391E+03</pdfrwt>
<pdfrwt beam="2">  1       -2 0.12001330E-01 0.67537391E+03</pdfrwt>
<totfact> 0.12219864E+02</totfact>
</mgrwt>
</event>
<event>
 4    2  0.3747163E-007  0.1377161E+04  0.7818608E-02  0.9001635E-01
          2   -1    0    0  501    0  0.00000000000E+00  0.00000000000E+00  0.13912161751E+04  0.13912161751E+04  0.25500000000E-02 0. -1.
         -2   -1    0    0    0  501 -0.00000000000E+00 -0.00000000000E+00 -0.25312893335E+04  0.25312893335E+04  0.25500000000E-02 0.  1.
    8880023    1    1    2    0    0  0.47133668869E+03  0.11138242652E+04 -0.20016889411E+04  0.24296772607E+04  0.65864270000E+03 0.  0.
    8880022    1    1    2    0    0 -0.47133668869E+03 -0.11138242652E+04  0.86161578273E+03  0.14928282479E+04  0.15294330000E+03 0.  0.
<mgrwt>
<rscale>  0 0.13358158E+04</rscale>
<asrwt>0</asrwt>
<pdfrwt beam="1">  1        2 0.21403326E+00 0.13771612E+04</pdfrwt>
<pdfrwt beam="2">  1       -2 0.38942913E+00 0.13771612E+04</pdfrwt>
<totfact> 0.12208993E-01</totfact>
</mgrwt>
</event>
<event>
 4    2  0.3747163E-007  0.1096487E+04  0.7818608E-02  0.9264978E-01
         -2   -1    0    0    0  501 -0.00000000000E+00  0.00000000000E+00  0.66840099622E+03  0.66840099622E+03  0.25500000000E-02 0.  1.
          2   -1    0    0  501    0  0.00000000000E+00 -0.00000000000E+00 -0.30476463274E+04  0.30476463274E+04  0.25500000000E-02 0. -1.
    8880023    1    1    2    0    0 -0.27054558287E+03 -0.83383315920E+03 -0.25804220010E+04  0.28037226252E+04  0.65864270000E+03 0. -1.
    8880022    1    1    2    0    0  0.27054558287E+03  0.83383315920E+03  0.20117666981E+03  0.91232469839E+03  0.15294330000E+03 0.  0.
<mgrwt>
<rscale>  0 0.10407199E+04</rscale>
<asrwt>0</asrwt>
<pdfrwt beam="1">  1        2 0.46886866E+00 0.10964866E+04</pdfrwt>
<pdfrwt beam="2">  1       -2 0.10283092E+00 0.10964866E+04</pdfrwt>
<totfact> 0.12625248E+00</totfact>
</mgrwt>
</event>
<event>
 4    2  0.3747163E-007  0.7392473E+03  0.7818608E-02  0.9862145E-01
         -2   -1    0    0    0  501 -0.00000000000E+00  0.00000000000E+00  0.48201235315E+03  0.48201235315E+03  0.25500000000E-02 0.  1.
          2   -1    0    0  501    0  0.00000000000E+00 -0.00000000000E+00 -0.18706890515E+04  0.18706890515E+04  0.25500000000E-02 0. -1.
    8880023    1    1    2    0    0 -0.17990382697E+03  0.28339179240E+03 -0.17103494799E+04  0.18632718117E+04  0.65864270000E+03 0. -1.
    8880022    1    1    2    0    0  0.17990382697E+03 -0.28339179240E+03  0.32167278155E+03  0.48942959285E+03  0.15294330000E+03 0.  0.
<mgrwt>
<rscale>  0 0.62131490E+03</rscale>
<asrwt>0</asrwt>
<pdfrwt beam="1">  1        2 0.28779831E+00 0.73924725E+03</pdfrwt>
<pdfrwt beam="2">  1       -2 0.74155748E-01 0.73924725E+03</pdfrwt>
<totfact> 0.13341645E+01</totfact>
</mgrwt>
</event>
<event>
 4    2  0.3747163E-007  0.1001690E+04  0.7818608E-02  0.9379350E-01
          2   -1    0    0  501    0  0.00000000000E+00  0.00000000000E+00  0.14284057502E+04  0.14284057502E+04  0.25500000000E-02 0. -1.
         -2   -1    0    0    0  501 -0.00000000000E+00 -0.00000000000E+00 -0.14955605622E+04  0.14955605622E+04  0.25500000000E-02 0.  1.
    8880023    1    1    2    0    0  0.73042150723E+03 -0.18988544456E+03  0.11240040791E+04  0.15055787712E+04  0.65864270000E+03 0. -1.
    8880022    1    1    2    0    0 -0.73042150723E+03  0.18988544456E+03 -0.11911588910E+04  0.14183875412E+04  0.15294330000E+03 0.  0.
<mgrwt>
<rscale>  0 0.93794727E+03</rscale>
<asrwt>0</asrwt>
<pdfrwt beam="1">  1        2 0.21975473E+00 0.10016897E+04</pdfrwt>
<pdfrwt beam="2">  1       -2 0.23008624E+00 0.10016897E+04</pdfrwt>
<totfact> 0.11847801E+00</totfact>
</mgrwt>
</event>
<event>
 4    2  0.3747163E-007  0.6875884E+03  0.7818608E-02  0.1005320E+00
         -2   -1    0    0    0  501 -0.00000000000E+00  0.00000000000E+00  0.26731730135E+03  0.26731730136E+03  0.25500000000E-02 0.  1.
          2   -1    0    0  501    0  0.00000000000E+00 -0.00000000000E+00 -0.22653983636E+04  0.22653983636E+04  0.25500000000E-02 0. -1.
    8880023    1    1    2    0    0  0.90881398716E+02 -0.17523742945E+03 -0.21384333417E+04  0.22462579880E+04  0.65864270000E+03 0. -1.
    8880022    1    1    2    0    0 -0.90881398716E+02  0.17523742945E+03  0.14035227949E+03  0.28645767696E+03  0.15294330000E+03 0.  0.
<mgrwt>
<rscale>  0 0.53377595E+03</rscale>
<asrwt>0</asrwt>
<pdfrwt beam="1">  1        2 0.34852281E+00 0.68758839E+03</pdfrwt>
<pdfrwt beam="2">  1       -2 0.41125740E-01 0.68758839E+03</pdfrwt>
<totfact> 0.27839009E+01</totfact>
</mgrwt>
</event>
<event>
 4    2  0.3747163E-007  0.6712481E+03  0.7818608E-02  0.1014783E+00
          2   -1    0    0  501    0  0.00000000000E+00  0.00000000000E+00  0.19437482517E+04  0.19437482517E+04  0.25500000000E-02 0. -1.
         -2   -1    0    0    0  501 -0.00000000000E+00 -0.00000000000E+00 -0.25453338874E+03  0.25453338876E+03  0.25500000000E-02 0.  1.
    8880023    1    1    2    0    0 -0.80476929001E+02  0.10142625474E+03  0.18327399201E+04  0.19517965166E+04  0.65864270000E+03 0. -1.
    8880022    1    1    2    0    0  0.80476929001E+02 -0.10142625474E+03 -0.14352505712E+03  0.24648512387E+03  0.15294330000E+03 0.  0.
<mgrwt>
<rscale>  0 0.49616989E+03</rscale>
<asrwt>0</asrwt>
<pdfrwt beam="1">  1        2 0.29903819E+00 0.67124811E+03</pdfrwt>
<pdfrwt beam="2">  1       -2 0.39158983E-01 0.67124811E+03</pdfrwt>
<totfact> 0.46028893E+01</totfact>
</mgrwt>
</event>
<event>
 4    2  0.3747163E-007  0.7319587E+03  0.7818608E-02  0.9884022E-01
         -2   -1    0    0    0  501 -0.00000000000E+00  0.00000000000E+00  0.13480303019E+03  0.13480303021E+03  0.25500000000E-02 0.  1.
          2   -1    0    0  501    0  0.00000000000E+00 -0.00000000000E+00 -0.31407994325E+04  0.31407994325E+04  0.25500000000E-02 0. -1.
    8880023    1    1    2    0    0 -0.98391247095E+02  0.30376398269E+03 -0.27307716261E+04  0.28271677126E+04  0.65864270000E+03 0.  0.
    8880022    1    1    2    0    0  0.98391247095E+02 -0.30376398269E+03 -0.27522477616E+03  0.44843475012E+03  0.15294330000E+03 0.  0.
<mgrwt>
<rscale>  0 0.61041943E+03</rscale>
<asrwt>0</asrwt>
<pdfrwt beam="1">  1        2 0.48319986E+00 0.73195874E+03</pdfrwt>
<pdfrwt beam="2">  1       -2 0.20738930E-01 0.73195874E+03</pdfrwt>
<totfact> 0.30206553E+01</totfact>
</mgrwt>
</event>
<event>
 4    2  0.3747163E-007  0.6793971E+03  0.7818608E-02  0.1009667E+00
         -2   -1    0    0    0  501 -0.00000000000E+00  0.00000000000E+00  0.25251973428E+03  0.25251973429E+03  0.25500000000E-02 0.  1.
          2   -1    0    0  501    0  0.00000000000E+00 -0.00000000000E+00 -0.12950298351E+04  0.12950298351E+04  0.25500000000E-02 0. -1.
    8880023    1    1    2    0    0  0.10225375798E+03 -0.13158392798E+03 -0.11187251598E+04  0.13088645272E+04  0.65864270000E+03 0.  0.
    8880022    1    1    2    0    0 -0.10225375798E+03  0.13158392798E+03  0.76215058999E+02  0.23868504218E+03  0.15294330000E+03 0.  0.
<mgrwt>
<rscale>  0 0.51607282E+03</rscale>
<asrwt>0</asrwt>
<pdfrwt beam="1">  1        2 0.19923536E+00 0.67939706E+03</pdfrwt>
<pdfrwt beam="2">  1       -2 0.38849191E-01 0.67939706E+03</pdfrwt>
<totfact> 0.10649486E+02</totfact>
</mgrwt>
</event>
<event>
 4    2  0.3747163E-007  0.7493402E+03  0.7818608E-02  0.9833530E-01
         -2   -1    0    0    0  501 -0.00000000000E+00  0.00000000000E+00  0.50596637029E+03  0.50596637029E+03  0.25500000000E-02 0.  1.
          2   -1    0    0  501    0  0.00000000000E+00 -0.00000000000E+00 -0.73052299436E+03  0.73052299436E+03  0.25500000000E-02 0. -1.
    8880023    1    1    2    0    0  0.25561887399E+03 -0.24971896821E+03 -0.35135669262E+03  0.82762449428E+03  0.65864270000E+03 0.  0.
    8880022    1    1    2    0    0 -0.25561887399E+03  0.24971896821E+03  0.12680006854E+03  0.40886487037E+03  0.15294330000E+03 0.  0.
<mgrwt>
<rscale>  0 0.63593767E+03</rscale>
<asrwt>0</asrwt>
<pdfrwt beam="1">  1        2 0.11238815E+00 0.74934023E+03</pdfrwt>
<pdfrwt beam="2">  1       -2 0.77840980E-01 0.74934023E+03</pdfrwt>
<totfact> 0.57769543E+01</totfact>
</mgrwt>
</event>
<event>
 4    2  0.3747163E-007  0.7163384E+03  0.7818608E-02  0.9935176E-01
          2   -1    0    0  501    0  0.00000000000E+00  0.00000000000E+00  0.72887935608E+03  0.72887935608E+03  0.25500000000E-02 0. -1.
         -2   -1    0    0    0  501 -0.00000000000E+00 -0.00000000000E+00 -0.38272872845E+03  0.38272872846E+03  0.25500000000E-02 0.  1.
    8880023    1    1    2    0    0 -0.16264830481E+03 -0.22994790576E+03  0.13818357967E+03  0.72954466510E+03  0.65864270000E+03 0.  1.
    8880022    1    1    2    0    0  0.16264830481E+03  0.22994790576E+03  0.20796704796E+03  0.38206341944E+03  0.15294330000E+03 0. -1.
<mgrwt>
<rscale>  0 0.58586385E+03</rscale>
<asrwt>0</asrwt>
<pdfrwt beam="1">  1        2 0.11213528E+00 0.71633841E+03</pdfrwt>
<pdfrwt beam="2">  1       -2 0.58881343E-01 0.71633841E+03</pdfrwt>
<totfact> 0.10633229E+02</totfact>
</mgrwt>
</event>
<event>
 4    2  0.3747163E-007  0.7417671E+03  0.7818608E-02  0.9854829E-01
         -2   -1    0    0    0  501 -0.00000000000E+00  0.00000000000E+00  0.52122037547E+03  0.52122037548E+03  0.25500000000E-02 0.  1.
          2   -1    0    0  501    0  0.00000000000E+00 -0.00000000000E+00 -0.11526716302E+04  0.11526716303E+04  0.25500000000E-02 0. -1.
    8880023    1    1    2    0    0 -0.18313557661E+03 -0.28787073773E+03 -0.93414245220E+03  0.11928287925E+04  0.65864270000E+03 0. -1.
    8880022    1    1    2    0    0  0.18313557661E+03  0.28787073773E+03  0.30269119742E+03  0.48106321318E+03  0.15294330000E+03 0.  0.
<mgrwt>
<rscale>  0 0.62501294E+03</rscale>
<asrwt>0</asrwt>
<pdfrwt beam="1">  1        2 0.17733410E+00 0.74176708E+03</pdfrwt>
<pdfrwt beam="2">  1       -2 0.80187751E-01 0.74176708E+03</pdfrwt>
<totfact> 0.28339538E+01</totfact>
</mgrwt>
</event>
<event>
 4    2  0.3747163E-007  0.8609550E+03  0.7818608E-02  0.9591867E-01
         -2   -1    0    0    0  501 -0.00000000000E+00  0.00000000000E+00  0.11638082892E+04  0.11638082892E+04  0.25500000000E-02 0.  1.
          2   -1    0    0  501    0  0.00000000000E+00 -0.00000000000E+00 -0.91295717565E+03  0.91295717566E+03  0.25500000000E-02 0. -1.
    8880023    1    1    2    0    0 -0.54624863216E+03  0.95109308099E+02 -0.60024473188E+03  0.10495414680E+04  0.65864270000E+03 0.  0.
    8880022    1    1    2    0    0  0.54624863216E+03 -0.95109308099E+02  0.85109584542E+03  0.10272239969E+04  0.15294330000E+03 0.  0.
<mgrwt>
<rscale>  0 0.77836830E+03</rscale>
<asrwt>0</asrwt>
<pdfrwt beam="1">  1        2 0.14045495E+00 0.86095502E+03</pdfrwt>
<pdfrwt beam="2">  1       -2 0.17904743E+00 0.86095502E+03</pdfrwt>
<totfact> 0.53237919E+00</totfact>
</mgrwt>
</event>
<event>
 4    2  0.3747163E-007  0.6896609E+03  0.7818608E-02  0.1004314E+00
          2   -1    0    0  501    0  0.00000000000E+00  0.00000000000E+00  0.24263658389E+04  0.24263658389E+04  0.25500000000E-02 0. -1.
         -2   -1    0    0    0  501 -0.00000000000E+00 -0.00000000000E+00 -0.21975524095E+03  0.21975524097E+03  0.25500000000E-02 0.  1.
    8880023    1    1    2    0    0 -0.19332789256E+03  0.66679991082E+02  0.22786943375E+04  0.23807729806E+04  0.65864270000E+03 0. -1.
    8880022    1    1    2    0    0  0.19332789256E+03 -0.66679991082E+02 -0.72083739546E+02  0.26534809925E+03  0.15294330000E+03 0.  0.
<mgrwt>
<rscale>  0 0.53798345E+03</rscale>
<asrwt>0</asrwt>
<pdfrwt beam="1">  1        2 0.37328707E+00 0.68966086E+03</pdfrwt>
<pdfrwt beam="2">  1       -2 0.33808497E-01 0.68966086E+03</pdfrwt>
<totfact> 0.33007223E+01</totfact>
</mgrwt>
</event>
<event>
 4    2  0.3747163E-007  0.7165433E+03  0.7818608E-02  0.9934461E-01
          2   -1    0    0  501    0  0.00000000000E+00  0.00000000000E+00  0.12538673295E+04  0.12538673295E+04  0.25500000000E-02 0. -1.
         -2   -1    0    0    0  501 -0.00000000000E+00 -0.00000000000E+00 -0.25838632703E+03  0.25838632704E+03  0.25500000000E-02 0.  1.
    8880023    1    1    2    0    0 -0.49249937889E+02  0.27784615593E+03  0.94717824606E+03  0.11876787776E+04  0.65864270000E+03 0. -1.
    8880022    1    1    2    0    0  0.49249937889E+02 -0.27784615593E+03  0.48302756438E+02  0.32457487894E+03  0.15294330000E+03 0.  1.
<mgrwt>
<rscale>  0 0.58619855E+03</rscale>
<asrwt>0</asrwt>
<pdfrwt beam="1">  1        2 0.19290266E+00 0.71654326E+03</pdfrwt>
<pdfrwt beam="2">  1       -2 0.39751743E-01 0.71654326E+03</pdfrwt>
<totfact> 0.10724207E+02</totfact>
</mgrwt>
</event>
<event>
 4    2  0.3747163E-007  0.7190980E+03  0.7818608E-02  0.9925650E-01
         -2   -1    0    0    0  501 -0.00000000000E+00  0.00000000000E+00  0.17938246551E+03  0.17938246553E+03  0.25500000000E-02 0.  1.
          2   -1    0    0  501    0  0.00000000000E+00 -0.00000000000E+00 -0.15781906462E+04  0.15781906462E+04  0.25500000000E-02 0. -1.
    8880023    1    1    2    0    0  0.85366873842E+02  0.27568869467E+03 -0.11042147134E+04  0.13177223148E+04  0.65864270000E+03 0.  0.
    8880022    1    1    2    0    0 -0.85366873842E+02 -0.27568869467E+03 -0.29459346728E+03  0.43985079686E+03  0.15294330000E+03 0.  0.
<mgrwt>
<rscale>  0 0.59034132E+03</rscale>
<asrwt>0</asrwt>
<pdfrwt beam="1">  1        2 0.24279855E+00 0.71909802E+03</pdfrwt>
<pdfrwt beam="2">  1       -2 0.27597303E-01 0.71909802E+03</pdfrwt>
<totfact> 0.14003874E+02</totfact>
</mgrwt>
</event>
<event>
 4    2  0.3747163E-007  0.9100498E+03  0.7818608E-02  0.9510087E-01
         -2   -1    0    0    0  501 -0.00000000000E+00  0.00000000000E+00  0.46497308564E+03  0.46497308565E+03  0.25500000000E-02 0.  1.
          2   -1    0    0  501    0  0.00000000000E+00 -0.00000000000E+00 -0.19652750614E+04  0.19652750614E+04  0.25500000000E-02 0. -1.
    8880023    1    1    2    0    0  0.52532555398E+03 -0.34411260439E+03 -0.15333246798E+04  0.17830522152E+04  0.65864270000E+03 0.  0.
    8880022    1    1    2    0    0 -0.52532555398E+03  0.34411260439E+03  0.33022704083E+02  0.64719593182E+03  0.15294330000E+03 0.  0.
<mgrwt>
<rscale>  0 0.83544198E+03</rscale>
<asrwt>0</asrwt>
<pdfrwt beam="1">  1        2 0.30235000E+00 0.91004979E+03</pdfrwt>
<pdfrwt beam="2">  1       -2 0.71534322E-01 0.91004979E+03</pdfrwt>
<totfact> 0.12538986E+01</totfact>
</mgrwt>
</event>
<event>
 4    2  0.3747163E-007  0.6628935E+03  0.7818608E-02  0.1021370E+00
         -2   -1    0    0    0  501 -0.00000000000E+00  0.00000000000E+00  0.13310632045E+03  0.13310632048E+03  0.25500000000E-02 0.  1.
          2   -1    0    0  501    0  0.00000000000E+00 -0.00000000000E+00 -0.21870129649E+04  0.21870129649E+04  0.25500000000E-02 0. -1.
    8880023    1    1    2    0    0  0.35091769700E+02  0.66228436455E+02 -0.20447873638E+04  0.21495541881E+04  0.65864270000E+03 0. -1.
    8880022    1    1    2    0    0 -0.35091769700E+02 -0.66228436455E+02 -0.91192805732E+01  0.17056509722E+03  0.15294330000E+03 0.  0.
<mgrwt>
<rscale>  0 0.47195433E+03</rscale>
<asrwt>0</asrwt>
<pdfrwt beam="1">  1        2 0.33646351E+00 0.66289354E+03</pdfrwt>
<pdfrwt beam="2">  1       -2 0.20477897E-01 0.66289354E+03</pdfrwt>
<totfact> 0.11183077E+02</totfact>
</mgrwt>
</event>
<event>
 4    2  0.3747163E-007  0.9241924E+03  0.7818608E-02  0.9488260E-01
          2   -1    0    0  501    0  0.00000000000E+00  0.00000000000E+00  0.11917415895E+04  0.11917415895E+04  0.25500000000E-02 0. -1.
         -2   -1    0    0    0  501 -0.00000000000E+00 -0.00000000000E+00 -0.57518780882E+03  0.57518780883E+03  0.25500000000E-02 0.  1.
    8880023    1    1    2    0    0 -0.60743787919E+03  0.22658470748E+03  0.59754267966E+03  0.11005402614E+04  0.65864270000E+03 0.  0.
    8880022    1    1    2    0    0  0.60743787919E+03 -0.22658470748E+03  0.19011100965E+02  0.66638913685E+03  0.15294330000E+03 0.  0.
<mgrwt>
<rscale>  0 0.85154887E+03</rscale>
<asrwt>0</asrwt>
<pdfrwt beam="1">  1        2 0.18334486E+00 0.92419241E+03</pdfrwt>
<pdfrwt beam="2">  1       -2 0.88490433E-01 0.92419241E+03</pdfrwt>
<totfact> 0.21083586E+01</totfact>
</mgrwt>
</event>
<event>
 4    2  0.3747163E-007  0.1147924E+04  0.7818608E-02  0.9209485E-01
         -2   -1    0    0    0  501 -0.00000000000E+00  0.00000000000E+00  0.52349079169E+03  0.52349079169E+03  0.25500000000E-02 0.  1.
          2   -1    0    0  501    0  0.00000000000E+00 -0.00000000000E+00 -0.23146985621E+04  0.23146985621E+04  0.25500000000E-02 0. -1.
    8880023    1    1    2    0    0  0.72832041442E+03 -0.59453299513E+03 -0.13948898234E+04  0.18065015732E+04  0.65864270000E+03 0.  0.
    8880022    1    1    2    0    0 -0.72832041442E+03  0.59453299513E+03 -0.39631794695E+03  0.10316877805E+04  0.15294330000E+03 0.  0.
<mgrwt>
<rscale>  0 0.10956063E+04</rscale>
<asrwt>0</asrwt>
<pdfrwt beam="1">  1        2 0.35610747E+00 0.11479244E+04</pdfrwt>
<pdfrwt beam="2">  1       -2 0.80537046E-01 0.11479244E+04</pdfrwt>
<totfact> 0.59930068E+00</totfact>
</mgrwt>
</event>
<event>
 4    2  0.3747163E-007  0.1134430E+04  0.7818608E-02  0.9223658E-01
         -2   -1    0    0    0  501 -0.00000000000E+00  0.00000000000E+00  0.40165113021E+03  0.40165113022E+03  0.25500000000E-02 0.  1.
          2   -1    0    0  501    0  0.00000000000E+00 -0.00000000000E+00 -0.34731670622E+04  0.34731670622E+04  0.25500000000E-02 0. -1.
    8880023    1    1    2    0    0  0.92086769869E+03 -0.71575972263E+02 -0.71960072915E+03  0.13434120194E+04  0.65864270000E+03 0.  0.
    8880022    1    1    2    0    0 -0.92086769869E+03  0.71575972263E+02 -0.23519152028E+04  0.25314061730E+04  0.15294330000E+03 0.  0.
<mgrwt>
<rscale>  0 0.10812545E+04</rscale>
<asrwt>0</asrwt>
<pdfrwt beam="1">  1        2 0.53433337E+00 0.11344297E+04</pdfrwt>
<pdfrwt beam="2">  1       -2 0.61792484E-01 0.11344297E+04</pdfrwt>
<totfact> 0.20958331E+00</totfact>
</mgrwt>
</event>
<event>
 4    2  0.3747163E-007  0.9097400E+03  0.7818608E-02  0.9510573E-01
         -2   -1    0    0    0  501 -0.00000000000E+00  0.00000000000E+00  0.69808870475E+03  0.69808870475E+03  0.25500000000E-02 0.  1.
          2   -1    0    0  501    0  0.00000000000E+00 -0.00000000000E+00 -0.11156093509E+04  0.11156093509E+04  0.25500000000E-02 0. -1.
    8880023    1    1    2    0    0 -0.56938682334E+03  0.26384707354E+03 -0.65982269847E+03  0.11238295389E+04  0.65864270000E+03 0.  0.
    8880022    1    1    2    0    0  0.56938682334E+03 -0.26384707354E+03  0.24230205233E+03  0.68986851674E+03  0.15294330000E+03 0.  0.
<mgrwt>
<rscale>  0 0.83508768E+03</rscale>
<asrwt>0</asrwt>
<pdfrwt beam="1">  1        2 0.17163221E+00 0.90973998E+03</pdfrwt>
<pdfrwt beam="2">  1       -2 0.10739826E+00 0.90973998E+03</pdfrwt>
<totfact> 0.14857321E+01</totfact>
</mgrwt>
</event>
<event>
 4    2  0.3747163E-007  0.6884272E+03  0.7818608E-02  0.1004909E+00
          2   -1    0    0  501    0  0.00000000000E+00  0.00000000000E+00  0.16004032292E+04  0.16004032292E+04  0.25500000000E-02 0. -1.
         -2   -1    0    0    0  501 -0.00000000000E+00 -0.00000000000E+00 -0.17898611692E+03  0.17898611694E+03  0.25500000000E-02 0.  1.
    8880023    1    1    2    0    0 -0.15687637172E+03 -0.12454568407E+03  0.13532815698E+04  0.15183224417E+04  0.65864270000E+03 0.  1.
    8880022    1    1    2    0    0  0.15687637172E+03  0.12454568407E+03  0.68135542399E+02  0.26106690441E+03  0.15294330000E+03 0.  0.
<mgrwt>
<rscale>  0 0.53549048E+03</rscale>
<asrwt>0</asrwt>
<pdfrwt beam="1">  1        2 0.24621589E+00 0.68842721E+03</pdfrwt>
<pdfrwt beam="2">  1       -2 0.27536325E-01 0.68842721E+03</pdfrwt>
<totfact> 0.13709049E+02</totfact>
</mgrwt>
</event>
<event>
 4    2  0.3747163E-007  0.1221761E+04  0.7818608E-02  0.9136254E-01
          2   -1    0    0  501    0  0.00000000000E+00  0.00000000000E+00  0.31305735954E+04  0.31305735954E+04  0.25500000000E-02 0. -1.
         -2   -1    0    0    0  501 -0.00000000000E+00 -0.00000000000E+00 -0.48898826007E+03  0.48898826007E+03  0.25500000000E-02 0.  1.
    8880023    1    1    2    0    0  0.73457588068E+03 -0.72061620253E+03  0.21409798283E+04  0.24650546175E+04  0.65864270000E+03 0. -1.
    8880022    1    1    2    0    0 -0.73457588068E+03  0.72061620253E+03  0.50060550704E+03  0.11545072380E+04  0.15294330000E+03 0.  0.
<mgrwt>
<rscale>  0 0.11736326E+04</rscale>
<asrwt>0</asrwt>
<pdfrwt beam="1">  1        2 0.48162671E+00 0.12217609E+04</pdfrwt>
<pdfrwt beam="2">  1       -2 0.75228963E-01 0.12217609E+04</pdfrwt>
<totfact> 0.22671966E+00</totfact>
</mgrwt>
</event>
<event>
 4    2  0.3747163E-007  0.7066377E+03  0.7818608E-02  0.9970705E-01
          2   -1    0    0  501    0  0.00000000000E+00  0.00000000000E+00  0.44701948828E+03  0.44701948829E+03  0.25500000000E-02 0. -1.
         -2   -1    0    0    0  501 -0.00000000000E+00 -0.00000000000E+00 -0.97450670489E+03  0.97450670489E+03  0.25500000000E-02 0.  1.
    8880023    1    1    2    0    0 -0.21496671867E+03  0.13898175884E+03  0.11244603524E+03  0.71552843167E+03  0.65864270000E+03 0. -1.
    8880022    1    1    2    0    0  0.21496671867E+03 -0.13898175884E+03 -0.63993325185E+03  0.70599776151E+03  0.15294330000E+03 0.  0.
<mgrwt>
<rscale>  0 0.56953639E+03</rscale>
<asrwt>0</asrwt>
<pdfrwt beam="1">  1        2 0.68772229E-01 0.70663769E+03</pdfrwt>
<pdfrwt beam="2">  1       -2 0.14992411E+00 0.70663769E+03</pdfrwt>
<totfact> 0.21383700E+01</totfact>
</mgrwt>
</event>
<event>
 4    2  0.3747163E-007  0.1058885E+04  0.7818608E-02  0.9308276E-01
          2   -1    0    0  501    0  0.00000000000E+00  0.00000000000E+00  0.92627573030E+03  0.92627573030E+03  0.25500000000E-02 0. -1.
         -2   -1    0    0    0  501 -0.00000000000E+00 -0.00000000000E+00 -0.15906372362E+04  0.15906372362E+04  0.25500000000E-02 0.  1.
    8880023    1    1    2    0    0 -0.82821887312E+03  0.38477751697E+02  0.42363546421E+03  0.11404842182E+04  0.65864270000E+03 0.  0.
    8880022    1    1    2    0    0  0.82821887312E+03 -0.38477751697E+02 -0.10879969701E+04  0.13764287483E+04  0.15294330000E+03 0.  0.
<mgrwt>
<rscale>  0 0.10002451E+04</rscale>
<asrwt>0</asrwt>
<pdfrwt beam="1">  1        2 0.14250396E+00 0.10588849E+04</pdfrwt>
<pdfrwt beam="2">  1       -2 0.24471342E+00 0.10588849E+04</pdfrwt>
<totfact> 0.19294835E+00</totfact>
</mgrwt>
</event>
<event>
 4    2  0.3747163E-007  0.7193528E+03  0.7818608E-02  0.9924782E-01
         -2   -1    0    0    0  501 -0.00000000000E+00  0.00000000000E+00  0.28870037627E+03  0.28870037628E+03  0.25500000000E-02 0.  1.
          2   -1    0    0  501    0  0.00000000000E+00 -0.00000000000E+00 -0.13479437638E+04  0.13479437638E+04  0.25500000000E-02 0. -1.
    8880023    1    1    2    0    0  0.12546585380E+03 -0.26060800213E+03 -0.10921923929E+04  0.13078045117E+04  0.65864270000E+03 0. -1.
    8880022    1    1    2    0    0 -0.12546585380E+03  0.26060800213E+03  0.32949005427E+02  0.32883962842E+03  0.15294330000E+03 0.  0.
<mgrwt>
<rscale>  0 0.59075133E+03</rscale>
<asrwt>0</asrwt>
<pdfrwt beam="1">  1        2 0.20737596E+00 0.71935278E+03</pdfrwt>
<pdfrwt beam="2">  1       -2 0.44415443E-01 0.71935278E+03</pdfrwt>
<totfact> 0.76087258E+01</totfact>
</mgrwt>
</event>
<event>
 4    2  0.3747163E-007  0.6597045E+03  0.7818608E-02  0.1024461E+00
          2   -1    0    0  501    0  0.00000000000E+00  0.00000000000E+00  0.89272295084E+03  0.89272295085E+03  0.25500000000E-02 0. -1.
         -2   -1    0    0    0  501 -0.00000000000E+00 -0.00000000000E+00 -0.32221046154E+03  0.32221046155E+03  0.25500000000E-02 0.  1.
    8880023    1    1    2    0    0 -0.16889031754E+02  0.33385057605E+02  0.73472146745E+03  0.98743386738E+03  0.65864270000E+03 0. -1.
    8880022    1    1    2    0    0  0.16889031754E+02 -0.33385057605E+02 -0.16420897814E+03  0.22749954502E+03  0.15294330000E+03 0.  0.
<mgrwt>
<rscale>  0 0.46110500E+03</rscale>
<asrwt>0</asrwt>
<pdfrwt beam="1">  1        2 0.13734199E+00 0.65970449E+03</pdfrwt>
<pdfrwt beam="2">  1       -2 0.49570841E-01 0.65970449E+03</pdfrwt>
<totfact> 0.11636945E+02</totfact>
</mgrwt>
</event>
<event>
 4    2  0.3747163E-007  0.7959859E+03  0.7818608E-02  0.9719544E-01
         -2   -1    0    0    0  501 -0.00000000000E+00  0.00000000000E+00  0.82873771361E+03  0.82873771362E+03  0.25500000000E-02 0.  1.
          2   -1    0    0  501    0  0.00000000000E+00 -0.00000000000E+00 -0.49154571898E+03  0.49154571898E+03  0.25500000000E-02 0. -1.
    8880023    1    1    2    0    0 -0.23930018118E+03 -0.37751652397E+03  0.13923993216E+03  0.80807256330E+03  0.65864270000E+03 0.  0.
    8880022    1    1    2    0    0  0.23930018118E+03  0.37751652397E+03  0.19795206248E+03  0.51221086931E+03  0.15294330000E+03 0.  0.
<mgrwt>
<rscale>  0 0.69865006E+03</rscale>
<asrwt>0</asrwt>
<pdfrwt beam="1">  1        2 0.75622419E-01 0.79598587E+03</pdfrwt>
<pdfrwt beam="2">  1       -2 0.12749811E+00 0.79598587E+03</pdfrwt>
<totfact> 0.28908234E+01</totfact>
</mgrwt>
</event>
<event>
 4    2  0.3747163E-007  0.9449994E+03  0.7818608E-02  0.9457346E-01
          2   -1    0    0  501    0  0.00000000000E+00  0.00000000000E+00  0.16238901134E+04  0.16238901134E+04  0.25500000000E-02 0. -1.
         -2   -1    0    0    0  501 -0.00000000000E+00 -0.00000000000E+00 -0.91964484528E+03  0.91964484528E+03  0.25500000000E-02 0.  1.
    8880023    1    1    2    0    0 -0.23477221233E+03 -0.63568523063E+03  0.13144552677E+04  0.16188936225E+04  0.65864270000E+03 0. -1.
    8880022    1    1    2    0    0  0.23477221233E+03  0.63568523063E+03 -0.61020999949E+03  0.92464133620E+03  0.15294330000E+03 0.  0.
<mgrwt>
<rscale>  0 0.87502946E+03</rscale>
<asrwt>0</asrwt>
<pdfrwt beam="1">  1        2 0.24982924E+00 0.94499942E+03</pdfrwt>
<pdfrwt beam="2">  1       -2 0.14148382E+00 0.94499942E+03</pdfrwt>
<totfact> 0.37809489E+00</totfact>
</mgrwt>
</event>
<event>
 4    2  0.3747163E-007  0.7510220E+03  0.7818608E-02  0.9828931E-01
         -2   -1    0    0    0  501 -0.00000000000E+00  0.00000000000E+00  0.18598852384E+04  0.18598852384E+04  0.25500000000E-02 0.  1.
          2   -1    0    0  501    0  0.00000000000E+00 -0.00000000000E+00 -0.55492473080E+03  0.55492473080E+03  0.25500000000E-02 0. -1.
    8880023    1    1    2    0    0  0.35869851244E+03 -0.39487359393E+02 -0.26520079856E+03  0.79647068006E+03  0.65864270000E+03 0.  0.
    8880022    1    1    2    0    0 -0.35869851244E+03  0.39487359393E+02  0.15701613061E+04  0.16183392891E+04  0.15294330000E+03 0.  0.
<mgrwt>
<rscale>  0 0.63832800E+03</rscale>
<asrwt>0</asrwt>
<pdfrwt beam="1">  1        2 0.85373037E-01 0.75102202E+03</pdfrwt>
<pdfrwt beam="2">  1       -2 0.28613619E+00 0.75102202E+03</pdfrwt>
<totfact> 0.21848397E+00</totfact>
</mgrwt>
</event>
<event>
 4    2  0.3747163E-007  0.8135151E+03  0.7818608E-02  0.9682301E-01
         -2   -1    0    0    0  501 -0.00000000000E+00  0.00000000000E+00  0.13360120018E+04  0.13360120018E+04  0.25500000000E-02 0.  1.
          2   -1    0    0  501    0  0.00000000000E+00 -0.00000000000E+00 -0.40407081828E+03  0.40407081828E+03  0.25500000000E-02 0. -1.
    8880023    1    1    2    0    0  0.64894416313E+02 -0.47305955343E+03  0.17496522428E+03  0.83211757723E+03  0.65864270000E+03 0. -1.
    8880022    1    1    2    0    0 -0.64894416313E+02  0.47305955343E+03  0.75697595929E+03  0.90796524290E+03  0.15294330000E+03 0.  0.
<mgrwt>
<rscale>  0 0.72080426E+03</rscale>
<asrwt>0</asrwt>
<pdfrwt beam="1">  1        2 0.62164741E-01 0.81351511E+03</pdfrwt>
<pdfrwt beam="2">  1       -2 0.20554031E+00 0.81351511E+03</pdfrwt>
<totfact> 0.97453384E+00</totfact>
</mgrwt>
</event>
<event>
 4    2  0.3747163E-007  0.6962620E+03  0.7818608E-02  0.1001308E+00
         -2   -1    0    0    0  501 -0.00000000000E+00  0.00000000000E+00  0.43546230969E+03  0.43546230970E+03  0.25500000000E-02 0.  1.
          2   -1    0    0  501    0  0.00000000000E+00 -0.00000000000E+00 -0.54111776760E+03  0.54111776761E+03  0.25500000000E-02 0. -1.
    8880023    1    1    2    0    0  0.22218889443E+03  0.40032846286E+02 -0.10324451810E+03  0.70387510992E+03  0.65864270000E+03 0.  0.
    8880022    1    1    2    0    0 -0.22218889443E+03 -0.40032846286E+02 -0.24109398052E+01  0.27270496738E+03  0.15294330000E+03 0.  1.
<mgrwt>
<rscale>  0 0.55080583E+03</rscale>
<asrwt>0</asrwt>
<pdfrwt beam="1">  1        2 0.83248887E-01 0.69626198E+03</pdfrwt>
<pdfrwt beam="2">  1       -2 0.66994202E-01 0.69626198E+03</pdfrwt>
<totfact> 0.11637920E+02</totfact>
</mgrwt>
</event>
<event>
 4    2  0.3747163E-007  0.7837190E+03  0.7818608E-02  0.9747172E-01
         -2   -1    0    0    0  501 -0.00000000000E+00  0.00000000000E+00  0.14033628129E+03  0.14033628131E+03  0.25500000000E-02 0.  1.
          2   -1    0    0  501    0  0.00000000000E+00 -0.00000000000E+00 -0.29312354143E+04  0.29312354143E+04  0.25500000000E-02 0. -1.
    8880023    1    1    2    0    0 -0.39944733767E+03 -0.14438505538E+03 -0.21438029545E+04  0.22825657786E+04  0.65864270000E+03 0. -1.
    8880022    1    1    2    0    0  0.39944733767E+03  0.14438505538E+03 -0.64709617855E+03  0.78900591702E+03  0.15294330000E+03 0.  0.
<mgrwt>
<rscale>  0 0.68276297E+03</rscale>
<asrwt>0</asrwt>
<pdfrwt beam="1">  1        2 0.45095925E+00 0.78371897E+03</pdfrwt>
<pdfrwt beam="2">  1       -2 0.21590199E-01 0.78371897E+03</pdfrwt>
<totfact> 0.37587667E+01</totfact>
</mgrwt>
</event>
<event>
 4    2  0.3747163E-007  0.7791960E+03  0.7818608E-02  0.9757729E-01
          2   -1    0    0  501    0  0.00000000000E+00  0.00000000000E+00  0.10067524626E+04  0.10067524626E+04  0.25500000000E-02 0. -1.
         -2   -1    0    0    0  501 -0.00000000000E+00 -0.00000000000E+00 -0.87480338234E+03  0.87480338235E+03  0.25500000000E-02 0.  1.
    8880023    1    1    2    0    0  0.11809068682E+03  0.39923767358E+03  0.77590876497E+03  0.10996275497E+04  0.65864270000E+03 0. -1.
    8880022    1    1    2    0    0 -0.11809068682E+03 -0.39923767358E+03 -0.64395968471E+03  0.78192829522E+03  0.15294330000E+03 0.  0.
<mgrwt>
<rscale>  0 0.67681228E+03</rscale>
<asrwt>0</asrwt>
<pdfrwt beam="1">  1        2 0.15488499E+00 0.77919596E+03</pdfrwt>
<pdfrwt beam="2">  1       -2 0.13458514E+00 0.77919596E+03</pdfrwt>
<totfact> 0.10056297E+01</totfact>
</mgrwt>
</event>
<event>
 4    2  0.3747163E-007  0.7797617E+03  0.7818608E-02  0.9756397E-01
         -2   -1    0    0    0  501 -0.00000000000E+00  0.00000000000E+00  0.61333362965E+03  0.61333362965E+03  0.25500000000E-02 0.  1.
          2   -1    0    0  501    0  0.00000000000E+00 -0.00000000000E+00 -0.11460568531E+04  0.11460568532E+04  0.25500000000E-02 0. -1.
    8880023    1    1    2    0    0  0.27594046021E+03  0.31316910934E+03 -0.89420365942E+03  0.11864351729E+04  0.65864270000E+03 0. -1.
    8880022    1    1    2    0    0 -0.27594046021E+03 -0.31316910934E+03  0.36148043592E+03  0.57295530994E+03  0.15294330000E+03 0.  0.
<mgrwt>
<rscale>  0 0.67755949E+03</rscale>
<asrwt>0</asrwt>
<pdfrwt beam="1">  1        2 0.17631644E+00 0.77976165E+03</pdfrwt>
<pdfrwt beam="2">  1       -2 0.94359020E-01 0.77976165E+03</pdfrwt>
<totfact> 0.19622194E+01</totfact>
</mgrwt>
</event>
<event>
 4    2  0.3747163E-007  0.8785192E+03  0.7818608E-02  0.9561434E-01
          2   -1    0    0  501    0  0.00000000000E+00  0.00000000000E+00  0.19892330537E+04  0.19892330537E+04  0.25500000000E-02 0. -1.
         -2   -1    0    0    0  501 -0.00000000000E+00 -0.00000000000E+00 -0.31082866810E+03  0.31082866811E+03  0.25500000000E-02 0.  1.
    8880023    1    1    2    0    0 -0.46656608665E+03 -0.34684568787E+03  0.13619434170E+04  0.16207053779E+04  0.65864270000E+03 0.  1.
    8880022    1    1    2    0    0  0.46656608665E+03  0.34684568787E+03  0.31646096858E+03  0.67935634394E+03  0.15294330000E+03 0.  0.
<mgrwt>
<rscale>  0 0.79902174E+03</rscale>
<asrwt>0</asrwt>
<pdfrwt beam="1">  1        2 0.30603586E+00 0.87851924E+03</pdfrwt>
<pdfrwt beam="2">  1       -2 0.47819795E-01 0.87851924E+03</pdfrwt>
<totfact> 0.28534686E+01</totfact>
</mgrwt>
</event>
<event>
 4    2  0.3747163E-007  0.8218477E+03  0.7818608E-02  0.9665407E-01
          2   -1    0    0  501    0  0.00000000000E+00  0.00000000000E+00  0.40002691864E+04  0.40002691864E+04  0.25500000000E-02 0. -1.
         -2   -1    0    0    0  501 -0.00000000000E+00 -0.00000000000E+00 -0.25822962572E+03  0.25822962573E+03  0.25500000000E-02 0.  1.
    8880023    1    1    2    0    0 -0.44029272075E+03 -0.21855378844E+03  0.36426308405E+04  0.37341924274E+04  0.65864270000E+03 0. -1.
    8880022    1    1    2    0    0  0.44029272075E+03  0.21855378844E+03  0.99408720150E+02  0.52430638471E+03  0.15294330000E+03 0.  0.
<mgrwt>
<rscale>  0 0.73114301E+03</rscale>
<asrwt>0</asrwt>
<pdfrwt beam="1">  1        2 0.61542597E+00 0.82184770E+03</pdfrwt>
<pdfrwt beam="2">  1       -2 0.39727639E-01 0.82184770E+03</pdfrwt>
<totfact> 0.22368184E+00</totfact>
</mgrwt>
</event>
<event>
 4    2  0.3747163E-007  0.7066343E+03  0.7818608E-02  0.9970718E-01
         -2   -1    0    0    0  501 -0.00000000000E+00  0.00000000000E+00  0.17061829155E+03  0.17061829157E+03  0.25500000000E-02 0.  1.
          2   -1    0    0  501    0  0.00000000000E+00 -0.00000000000E+00 -0.29700990315E+04  0.29700990315E+04  0.25500000000E-02 0. -1.
    8880023    1    1    2    0    0 -0.24016497314E+03  0.88558409285E+02 -0.27489037268E+04  0.28382747774E+04  0.65864270000E+03 0. -1.
    8880022    1    1    2    0    0  0.24016497314E+03 -0.88558409285E+02 -0.50577013097E+02  0.30244254569E+03  0.15294330000E+03 0.  0.
<mgrwt>
<rscale>  0 0.56953047E+03</rscale>
<asrwt>0</asrwt>
<pdfrwt beam="1">  1        2 0.45693827E+00 0.70663428E+03</pdfrwt>
<pdfrwt beam="2">  1       -2 0.26248970E-01 0.70663428E+03</pdfrwt>
<totfact> 0.25387950E+01</totfact>
</mgrwt>
</event>
<event>
 4    2  0.3747163E-007  0.6762622E+03  0.7818608E-02  0.1011522E+00
          2   -1    0    0  501    0  0.00000000000E+00  0.00000000000E+00  0.14420479976E+04  0.14420479976E+04  0.25500000000E-02 0. -1.
         -2   -1    0    0    0  501 -0.00000000000E+00 -0.00000000000E+00 -0.24416532100E+03  0.24416532102E+03  0.25500000000E-02 0.  1.
    8880023    1    1    2    0    0 -0.13262229644E+03 -0.77017363149E+02  0.12855331400E+04  0.14525584353E+04  0.65864270000E+03 0. -1.
    8880022    1    1    2    0    0  0.13262229644E+03  0.77017363149E+02 -0.87650463395E+02  0.23365488330E+03  0.15294330000E+03 0.  0.
<mgrwt>
<rscale>  0 0.50874110E+03</rscale>
<asrwt>0</asrwt>
<pdfrwt beam="1">  1        2 0.22185354E+00 0.67626219E+03</pdfrwt>
<pdfrwt beam="2">  1       -2 0.37563895E-01 0.67626219E+03</pdfrwt>
<totfact> 0.93828465E+01</totfact>
</mgrwt>
</event>
<event>
 4    2  0.3747163E-007  0.6724422E+03  0.7818608E-02  0.1013969E+00
          2   -1    0    0  501    0  0.00000000000E+00  0.00000000000E+00  0.81800504273E+03  0.81800504273E+03  0.25500000000E-02 0. -1.
         -2   -1    0    0    0  501 -0.00000000000E+00 -0.00000000000E+00 -0.80351529214E+03  0.80351529214E+03  0.25500000000E-02 0.  1.
    8880023    1    1    2    0    0  0.87076388150E+02 -0.10385586234E+03  0.66133941750E+03  0.94315871883E+03  0.65864270000E+03 0. -1.
    8880022    1    1    2    0    0 -0.87076388150E+02  0.10385586234E+03 -0.64684966691E+03  0.67836161604E+03  0.15294330000E+03 0.  0.
<mgrwt>
<rscale>  0 0.49927093E+03</rscale>
<asrwt>0</asrwt>
<pdfrwt beam="1">  1        2 0.12584693E+00 0.67244222E+03</pdfrwt>
<pdfrwt beam="2">  1       -2 0.12361774E+00 0.67244222E+03</pdfrwt>
<totfact> 0.16871945E+01</totfact>
</mgrwt>
</event>
<event>
 4    2  0.3747163E-007  0.6682953E+03  0.7818608E-02  0.1016916E+00
         -2   -1    0    0    0  501 -0.00000000000E+00  0.00000000000E+00  0.22964078863E+03  0.22964078864E+03  0.25500000000E-02 0.  1.
          2   -1    0    0  501    0  0.00000000000E+00 -0.00000000000E+00 -0.80247409575E+03  0.80247409575E+03  0.25500000000E-02 0. -1.
    8880023    1    1    2    0    0 -0.44425434115E+02 -0.10409031969E+03 -0.44553361960E+03  0.80319289483E+03  0.65864270000E+03 0.  0.
    8880022    1    1    2    0    0  0.44425434115E+02  0.10409031969E+03 -0.12729968752E+03  0.22892198957E+03  0.15294330000E+03 0. -1.
<mgrwt>
<rscale>  0 0.48816314E+03</rscale>
<asrwt>0</asrwt>
<pdfrwt beam="1">  1        2 0.12345755E+00 0.66829531E+03</pdfrwt>
<pdfrwt beam="2">  1       -2 0.35329352E-01 0.66829531E+03</pdfrwt>
<totfact> 0.26124491E+02</totfact>
</mgrwt>
</event>
<event>
 4    2  0.3747163E-007  0.1267336E+04  0.7818608E-02  0.9094294E-01
         -2   -1    0    0    0  501 -0.00000000000E+00  0.00000000000E+00  0.57214923947E+03  0.57214923948E+03  0.25500000000E-02 0.  1.
          2   -1    0    0  501    0  0.00000000000E+00 -0.00000000000E+00 -0.36061569911E+04  0.36061569911E+04  0.25500000000E-02 0. -1.
    8880023    1    1    2    0    0  0.53021823392E+03  0.94403303040E+03 -0.27806631966E+04  0.30558513965E+04  0.65864270000E+03 0.  0.
    8880022    1    1    2    0    0 -0.53021823392E+03 -0.94403303040E+03 -0.25334455502E+03  0.11224548341E+04  0.15294330000E+03 0.  0.
<mgrwt>
<rscale>  0 0.12214411E+04</rscale>
<asrwt>0</asrwt>
<pdfrwt beam="1">  1        2 0.55479337E+00 0.12673358E+04</pdfrwt>
<pdfrwt beam="2">  1       -2 0.88022962E-01 0.12673358E+04</pdfrwt>
<totfact> 0.75631119E-01</totfact>
</mgrwt>
</event>
<event>
 4    2  0.3747163E-007  0.7843110E+03  0.7818608E-02  0.9745806E-01
          2   -1    0    0  501    0  0.00000000000E+00  0.00000000000E+00  0.28622730811E+04  0.28622730811E+04  0.25500000000E-02 0. -1.
         -2   -1    0    0    0  501 -0.00000000000E+00 -0.00000000000E+00 -0.15621461187E+03  0.15621461189E+03  0.25500000000E-02 0.  1.
    8880023    1    1    2    0    0 -0.21929235931E+03 -0.36502655821E+03  0.22197761698E+04  0.23542620876E+04  0.65864270000E+03 0.  0.
    8880022    1    1    2    0    0  0.21929235931E+03  0.36502655821E+03  0.48628229947E+03  0.66422560538E+03  0.15294330000E+03 0.  0.
<mgrwt>
<rscale>  0 0.68353795E+03</rscale>
<asrwt>0</asrwt>
<pdfrwt beam="1">  1        2 0.44034970E+00 0.78431099E+03</pdfrwt>
<pdfrwt beam="2">  1       -2 0.24033018E-01 0.78431099E+03</pdfrwt>
<totfact> 0.34160250E+01</totfact>
</mgrwt>
</event>
<event>
 4    2  0.3747163E-007  0.8520289E+03  0.7818608E-02  0.9607903E-01
          2   -1    0    0  501    0  0.00000000000E+00  0.00000000000E+00  0.14439694706E+04  0.14439694706E+04  0.25500000000E-02 0. -1.
         -2   -1    0    0    0  501 -0.00000000000E+00 -0.00000000000E+00 -0.68906675014E+03  0.68906675014E+03  0.25500000000E-02 0.  1.
    8880023    1    1    2    0    0 -0.53050911287E+03 -0.10345561697E+03  0.11608536440E+04  0.14399772125E+04  0.65864270000E+03 0. -1.
    8880022    1    1    2    0    0  0.53050911287E+03  0.10345561697E+03 -0.40595092355E+03  0.69305900821E+03  0.15294330000E+03 0.  0.
<mgrwt>
<rscale>  0 0.76775316E+03</rscale>
<asrwt>0</asrwt>
<pdfrwt beam="1">  1        2 0.22214915E+00 0.85202887E+03</pdfrwt>
<pdfrwt beam="2">  1       -2 0.10601027E+00 0.85202887E+03</pdfrwt>
<totfact> 0.99155124E+00</totfact>
</mgrwt>
</event>
<event>
 4    2  0.3747163E-007  0.7077608E+03  0.7818608E-02  0.9966412E-01
         -2   -1    0    0    0  501 -0.00000000000E+00  0.00000000000E+00  0.10429637826E+04  0.10429637826E+04  0.25500000000E-02 0.  1.
          2   -1    0    0  501    0  0.00000000000E+00 -0.00000000000E+00 -0.76838215082E+03  0.76838215082E+03  0.25500000000E-02 0. -1.
    8880023    1    1    2    0    0 -0.10114107174E+02  0.25886842430E+03 -0.57384125052E+03  0.91116362050E+03  0.65864270000E+03 0. -1.
    8880022    1    1    2    0    0  0.10114107174E+02 -0.25886842430E+03  0.84842288231E+03  0.90018231292E+03  0.15294330000E+03 0.  0.
<mgrwt>
<rscale>  0 0.57147869E+03</rscale>
<asrwt>0</asrwt>
<pdfrwt beam="1">  1        2 0.11821264E+00 0.70776081E+03</pdfrwt>
<pdfrwt beam="2">  1       -2 0.16045597E+00 0.70776081E+03</pdfrwt>
<totfact> 0.92789832E+00</totfact>
</mgrwt>
</event>
<event>
 4    2  0.3747163E-007  0.1016848E+04  0.7818608E-02  0.9359839E-01
         -2   -1    0    0    0  501 -0.00000000000E+00  0.00000000000E+00  0.40971811565E+03  0.40971811566E+03  0.25500000000E-02 0.  1.
          2   -1    0    0  501    0  0.00000000000E+00 -0.00000000000E+00 -0.40884867484E+04  0.40884867484E+04  0.25500000000E-02 0. -1.
    8880023    1    1    2    0    0 -0.44827007758E+02  0.77340857846E+03 -0.35566558105E+04  0.36991595060E+04  0.65864270000E+03 0.  0.
    8880022    1    1    2    0    0  0.44827007758E+02 -0.77340857846E+03 -0.12211282218E+03  0.79904535805E+03  0.15294330000E+03 0.  0.
<mgrwt>
<rscale>  0 0.95455747E+03</rscale>
<asrwt>0</asrwt>
<pdfrwt beam="1">  1        2 0.62899793E+00 0.10168483E+04</pdfrwt>
<pdfrwt beam="2">  1       -2 0.63033559E-01 0.10168483E+04</pdfrwt>
<totfact> 0.71138020E-01</totfact>
</mgrwt>
</event>
<event>
 4    2  0.3747163E-007  0.6670452E+03  0.7818608E-02  0.1017876E+00
          2   -1    0    0  501    0  0.00000000000E+00  0.00000000000E+00  0.12945924283E+04  0.12945924283E+04  0.25500000000E-02 0. -1.
         -2   -1    0    0    0  501 -0.00000000000E+00 -0.00000000000E+00 -0.26344158082E+03  0.26344158083E+03  0.25500000000E-02 0.  1.
    8880023    1    1    2    0    0 -0.23346434841E+02 -0.10292750696E+03  0.11556594383E+04  0.13343530535E+04  0.65864270000E+03 0. -1.
    8880022    1    1    2    0    0  0.23346434841E+02  0.10292750696E+03 -0.12450859085E+03  0.22368095564E+03  0.15294330000E+03 0.  0.
<mgrwt>
<rscale>  0 0.48460988E+03</rscale>
<asrwt>0</asrwt>
<pdfrwt beam="1">  1        2 0.19916807E+00 0.66704523E+03</pdfrwt>
<pdfrwt beam="2">  1       -2 0.40529474E-01 0.66704523E+03</pdfrwt>
<totfact> 0.98248886E+01</totfact>
</mgrwt>
</event>
<event>
 4    2  0.3747163E-007  0.7238837E+03  0.7818608E-02  0.9909658E-01
         -2   -1    0    0    0  501 -0.00000000000E+00  0.00000000000E+00  0.35279208907E+03  0.35279208908E+03  0.25500000000E-02 0.  1.
          2   -1    0    0  501    0  0.00000000000E+00 -0.00000000000E+00 -0.25158819448E+04  0.25158819448E+04  0.25500000000E-02 0. -1.
    8880023    1    1    2    0    0  0.77881686258E+02 -0.29005480721E+03 -0.23666901746E+04  0.24749201880E+04  0.65864270000E+03 0. -1.
    8880022    1    1    2    0    0 -0.77881686258E+02  0.29005480721E+03  0.20360031890E+03  0.39375384584E+03  0.15294330000E+03 0.  0.
<mgrwt>
<rscale>  0 0.59795516E+03</rscale>
<asrwt>0</asrwt>
<pdfrwt beam="1">  1        2 0.38705875E+00 0.72388366E+03</pdfrwt>
<pdfrwt beam="2">  1       -2 0.54275708E-01 0.72388366E+03</pdfrwt>
<totfact> 0.11469891E+01</totfact>
</mgrwt>
</event>
<event>
 4    2  0.3747163E-007  0.6842798E+03  0.7818608E-02  0.1006999E+00
         -2   -1    0    0    0  501 -0.00000000000E+00  0.00000000000E+00  0.13366799465E+04  0.13366799465E+04  0.25500000000E-02 0.  1.
          2   -1    0    0  501    0  0.00000000000E+00 -0.00000000000E+00 -0.92169092553E+03  0.92169092554E+03  0.25500000000E-02 0. -1.
    8880023    1    1    2    0    0 -0.61649668099E+02 -0.17500825682E+03 -0.78104892687E+03  0.10384007916E+04  0.65864270000E+03 0. -1.
    8880022    1    1    2    0    0  0.61649668099E+02  0.17500825682E+03  0.11960379478E+04  0.12199700804E+04  0.15294330000E+03 0.  0.
<mgrwt>
<rscale>  0 0.52684788E+03</rscale>
<asrwt>0</asrwt>
<pdfrwt beam="1">  1        2 0.14179860E+00 0.68427975E+03</pdfrwt>
<pdfrwt beam="2">  1       -2 0.20564307E+00 0.68427975E+03</pdfrwt>
<totfact> 0.35833123E+00</totfact>
</mgrwt>
</event>
<event>
 4    2  0.3747163E-007  0.8000038E+03  0.7818608E-02  0.9710788E-01
          2   -1    0    0  501    0  0.00000000000E+00  0.00000000000E+00  0.14396975804E+04  0.14396975804E+04  0.25500000000E-02 0. -1.
         -2   -1    0    0    0  501 -0.00000000000E+00 -0.00000000000E+00 -0.66917097000E+03  0.66917097000E+03  0.25500000000E-02 0.  1.
    8880023    1    1    2    0    0 -0.92041955621E+02  0.44466175239E+03  0.12153819575E+04  0.14550461520E+04  0.65864270000E+03 0. -1.
    8880022    1    1    2    0    0  0.92041955621E+02 -0.44466175239E+03 -0.44485534717E+03  0.65382239832E+03  0.15294330000E+03 0.  0.
<mgrwt>
<rscale>  0 0.70378100E+03</rscale>
<asrwt>0</asrwt>
<pdfrwt beam="1">  1        2 0.22149193E+00 0.80000375E+03</pdfrwt>
<pdfrwt beam="2">  1       -2 0.10294938E+00 0.80000375E+03</pdfrwt>
<totfact> 0.10764823E+01</totfact>
</mgrwt>
</event>
<event>
 4    2  0.3747163E-007  0.9187824E+03  0.7818608E-02  0.9496528E-01
          2   -1    0    0  501    0  0.00000000000E+00  0.00000000000E+00  0.20160403665E+04  0.20160403665E+04  0.25500000000E-02 0. -1.
         -2   -1    0    0    0  501 -0.00000000000E+00 -0.00000000000E+00 -0.67760138338E+03  0.67760138338E+03  0.25500000000E-02 0.  1.
    8880023    1    1    2    0    0  0.29092886306E+03 -0.57071125286E+03  0.17072759949E+04  0.19388018121E+04  0.65864270000E+03 0.  0.
    8880022    1    1    2    0    0 -0.29092886306E+03  0.57071125286E+03 -0.36883701175E+03  0.75483993784E+03  0.15294330000E+03 0.  0.
<mgrwt>
<rscale>  0 0.84540248E+03</rscale>
<asrwt>0</asrwt>
<pdfrwt beam="1">  1        2 0.31016005E+00 0.91878242E+03</pdfrwt>
<pdfrwt beam="2">  1       -2 0.10424637E+00 0.91878242E+03</pdfrwt>
<totfact> 0.49482867E+00</totfact>
</mgrwt>
</event>
<event>
 4    2  0.3747163E-007  0.6647128E+03  0.7818608E-02  0.1019776E+00
         -2   -1    0    0    0  501 -0.00000000000E+00  0.00000000000E+00  0.73569093192E+03  0.73569093192E+03  0.25500000000E-02 0.  1.
          2   -1    0    0  501    0  0.00000000000E+00 -0.00000000000E+00 -0.11648455120E+04  0.11648455120E+04  0.25500000000E-02 0. -1.
    8880023    1    1    2    0    0  0.77381517802E+02  0.45222351670E+02 -0.10567285367E+04  0.12484063308E+04  0.65864270000E+03 0. -1.
    8880022    1    1    2    0    0 -0.77381517802E+02 -0.45222351670E+02  0.62757395659E+03  0.65213011309E+03  0.15294330000E+03 0.  0.
<mgrwt>
<rscale>  0 0.47767696E+03</rscale>
<asrwt>0</asrwt>
<pdfrwt beam="1">  1        2 0.17920700E+00 0.66471285E+03</pdfrwt>
<pdfrwt beam="2">  1       -2 0.11318322E+00 0.66471285E+03</pdfrwt>
<totfact> 0.12559380E+01</totfact>
</mgrwt>
</event>
<event>
 4    2  0.3747163E-007  0.9654596E+03  0.7818608E-02  0.9428212E-01
          2   -1    0    0  501    0  0.00000000000E+00  0.00000000000E+00  0.20811409544E+04  0.20811409544E+04  0.25500000000E-02 0. -1.
         -2   -1    0    0    0  501 -0.00000000000E+00 -0.00000000000E+00 -0.76196607724E+03  0.76196607724E+03  0.25500000000E-02 0.  1.
    8880023    1    1    2    0    0  0.65040941441E+03 -0.27435294050E+03  0.17524770533E+04  0.20008218239E+04  0.65864270000E+03 0.  0.
    8880022    1    1    2    0    0 -0.65040941441E+03  0.27435294050E+03 -0.43330217616E+03  0.84228520775E+03  0.15294330000E+03 0.  0.
<mgrwt>
<rscale>  0 0.89789903E+03</rscale>
<asrwt>0</asrwt>
<pdfrwt beam="1">  1        2 0.32017552E+00 0.96545955E+03</pdfrwt>
<pdfrwt beam="2">  1       -2 0.11722555E+00 0.96545955E+03</pdfrwt>
<totfact> 0.34036720E+00</totfact>
</mgrwt>
</event>
<event>
 4    2  0.3747163E-007  0.1016899E+04  0.7818608E-02  0.9359775E-01
          2   -1    0    0  501    0  0.00000000000E+00  0.00000000000E+00  0.23442722259E+04  0.23442722259E+04  0.25500000000E-02 0. -1.
         -2   -1    0    0    0  501 -0.00000000000E+00 -0.00000000000E+00 -0.49958224090E+03  0.49958224090E+03  0.25500000000E-02 0.  1.
    8880023    1    1    2    0    0 -0.23813221302E+03 -0.73726951279E+03  0.17818894560E+04  0.20516367917E+04  0.65864270000E+03 0.  0.
    8880022    1    1    2    0    0  0.23813221302E+03  0.73726951279E+03  0.62800529056E+02  0.79221767516E+03  0.15294330000E+03 0.  0.
<mgrwt>
<rscale>  0 0.95461283E+03</rscale>
<asrwt>0</asrwt>
<pdfrwt beam="1">  1        2 0.36065727E+00 0.10168990E+04</pdfrwt>
<pdfrwt beam="2">  1       -2 0.76858805E-01 0.10168990E+04</pdfrwt>
<totfact> 0.65051374E+00</totfact>
</mgrwt>
</event>
<event>
 4    2  0.3747163E-007  0.7554162E+03  0.7818608E-02  0.9817122E-01
         -2   -1    0    0    0  501 -0.00000000000E+00  0.00000000000E+00  0.25082026314E+03  0.25082026316E+03  0.25500000000E-02 0.  1.
          2   -1    0    0  501    0  0.00000000000E+00 -0.00000000000E+00 -0.15598951139E+04  0.15598951139E+04  0.25500000000E-02 0. -1.
    8880023    1    1    2    0    0 -0.29802528021E+03 -0.21914459634E+03 -0.11585137621E+04  0.13830429368E+04  0.65864270000E+03 0.  0.
    8880022    1    1    2    0    0  0.29802528021E+03  0.21914459634E+03 -0.15056108867E+03  0.42767244029E+03  0.15294330000E+03 0. -1.
<mgrwt>
<rscale>  0 0.64451706E+03</rscale>
<asrwt>0</asrwt>
<pdfrwt beam="1">  1        2 0.23998386E+00 0.75541620E+03</pdfrwt>
<pdfrwt beam="2">  1       -2 0.38587734E-01 0.75541620E+03</pdfrwt>
<totfact> 0.76006954E+01</totfact>
</mgrwt>
</event>
<event>
 4    2  0.3747163E-007  0.6687727E+03  0.7818608E-02  0.1016558E+00
          2   -1    0    0  501    0  0.00000000000E+00  0.00000000000E+00  0.17598371049E+04  0.17598371049E+04  0.25500000000E-02 0. -1.
         -2   -1    0    0    0  501 -0.00000000000E+00 -0.00000000000E+00 -0.17680051322E+03  0.17680051324E+03  0.25500000000E-02 0.  1.
    8880023    1    1    2    0    0  0.84093869144E+02  0.79842802100E+02  0.16094767651E+04  0.17428919403E+04  0.65864270000E+03 0. -1.
    8880022    1    1    2    0    0 -0.84093869144E+02 -0.79842802100E+02 -0.26440173482E+02  0.19374567779E+03  0.15294330000E+03 0.  0.
<mgrwt>
<rscale>  0 0.48949283E+03</rscale>
<asrwt>0</asrwt>
<pdfrwt beam="1">  1        2 0.27074418E+00 0.66877265E+03</pdfrwt>
<pdfrwt beam="2">  1       -2 0.27200078E-01 0.66877265E+03</pdfrwt>
<totfact> 0.11495257E+02</totfact>
</mgrwt>
</event>
<event>
 4    2  0.3747163E-007  0.7645555E+03  0.7818608E-02  0.9793453E-01
         -2   -1    0    0    0  501 -0.00000000000E+00  0.00000000000E+00  0.26913102126E+03  0.26913102127E+03  0.25500000000E-02 0.  1.
          2   -1    0    0  501    0  0.00000000000E+00 -0.00000000000E+00 -0.39394677204E+04  0.39394677204E+04  0.25500000000E-02 0. -1.
    8880023    1    1    2    0    0 -0.26439284694E+03  0.28430858670E+03 -0.37113690198E+04  0.37893014076E+04  0.65864270000E+03 0. -1.
    8880022    1    1    2    0    0  0.26439284694E+03 -0.28430858670E+03  0.41032320710E+02  0.41929733405E+03  0.15294330000E+03 0.  0.
<mgrwt>
<rscale>  0 0.65715061E+03</rscale>
<asrwt>0</asrwt>
<pdfrwt beam="1">  1        2 0.60607192E+00 0.76455553E+03</pdfrwt>
<pdfrwt beam="2">  1       -2 0.41404775E-01 0.76455553E+03</pdfrwt>
<totfact> 0.23307961E+00</totfact>
</mgrwt>
</event>
<event>
 4    2  0.3747163E-007  0.7166570E+03  0.7818608E-02  0.9934064E-01
          2   -1    0    0  501    0  0.00000000000E+00  0.00000000000E+00  0.22016211937E+03  0.22016211938E+03  0.25500000000E-02 0. -1.
         -2   -1    0    0    0  501 -0.00000000000E+00 -0.00000000000E+00 -0.17865976024E+04  0.17865976024E+04  0.25500000000E-02 0.  1.
    8880023    1    1    2    0    0 -0.10195224426E+03 -0.26342522463E+03 -0.45278397219E+03  0.84770905435E+03  0.65864270000E+03 0. -1.
    8880022    1    1    2    0    0  0.10195224426E+03  0.26342522463E+03 -0.11136515108E+04  0.11590506674E+04  0.15294330000E+03 0.  0.
<mgrwt>
<rscale>  0 0.58638428E+03</rscale>
<asrwt>0</asrwt>
<pdfrwt beam="1">  1        2 0.33871096E-01 0.71665704E+03</pdfrwt>
<pdfrwt beam="2">  1       -2 0.27486116E+00 0.71665704E+03</pdfrwt>
<totfact> 0.72797359E+00</totfact>
</mgrwt>
</event>
<event>
 4    2  0.3747163E-007  0.7056356E+03  0.7818608E-02  0.9974579E-01
          2   -1    0    0  501    0  0.00000000000E+00  0.00000000000E+00  0.15854749313E+04  0.15854749313E+04  0.25500000000E-02 0. -1.
         -2   -1    0    0    0  501 -0.00000000000E+00 -0.00000000000E+00 -0.33023208130E+03  0.33023208131E+03  0.25500000000E-02 0.  1.
    8880023    1    1    2    0    0 -0.73458130845E+02 -0.24231237722E+03  0.14137793041E+04  0.15800928808E+04  0.65864270000E+03 0. -1.
    8880022    1    1    2    0    0  0.73458130845E+02  0.24231237722E+03 -0.15853645411E+03  0.33561413176E+03  0.15294330000E+03 0.  0.
<mgrwt>
<rscale>  0 0.56779067E+03</rscale>
<asrwt>0</asrwt>
<pdfrwt beam="1">  1        2 0.24391922E+00 0.70563559E+03</pdfrwt>
<pdfrwt beam="2">  1       -2 0.50804935E-01 0.70563559E+03</pdfrwt>
<totfact> 0.42816023E+01</totfact>
</mgrwt>
</event>
<event>
 4    2  0.3747163E-007  0.6942072E+03  0.7818608E-02  0.1002214E+00
         -2   -1    0    0    0  501 -0.00000000000E+00  0.00000000000E+00  0.21022439604E+03  0.21022439605E+03  0.25500000000E-02 0.  1.
          2   -1    0    0  501    0  0.00000000000E+00 -0.00000000000E+00 -0.15883101046E+04  0.15883101046E+04  0.25500000000E-02 0. -1.
    8880023    1    1    2    0    0 -0.21491335176E+03  0.43881903002E+02 -0.13643134180E+04  0.15307758422E+04  0.65864270000E+03 0.  0.
    8880022    1    1    2    0    0  0.21491335176E+03 -0.43881903002E+02 -0.13772290526E+02  0.26775865845E+03  0.15294330000E+03 0.  0.
<mgrwt>
<rscale>  0 0.54690121E+03</rscale>
<asrwt>0</asrwt>
<pdfrwt beam="1">  1        2 0.24435539E+00 0.69420716E+03</pdfrwt>
<pdfrwt beam="2">  1       -2 0.32342216E-01 0.69420716E+03</pdfrwt>
<totfact> 0.10327524E+02</totfact>
</mgrwt>
</event>
<event>
 4    2  0.3747163E-007  0.8082618E+03  0.7818608E-02  0.9693209E-01
          2   -1    0    0  501    0  0.00000000000E+00  0.00000000000E+00  0.96679595991E+03  0.96679595991E+03  0.25500000000E-02 0. -1.
         -2   -1    0    0    0  501 -0.00000000000E+00 -0.00000000000E+00 -0.59475959589E+03  0.59475959589E+03  0.25500000000E-02 0.  1.
    8880023    1    1    2    0    0 -0.24622740788E+03 -0.39855864378E+03 -0.17319467596E+03  0.82660966058E+03  0.65864270000E+03 0.  0.
    8880022    1    1    2    0    0  0.24622740788E+03  0.39855864378E+03  0.54523103998E+03  0.73494589522E+03  0.15294330000E+03 0.  0.
<mgrwt>
<rscale>  0 0.71422567E+03</rscale>
<asrwt>0</asrwt>
<pdfrwt beam="1">  1        2 0.14873784E+00 0.80826180E+03</pdfrwt>
<pdfrwt beam="2">  1       -2 0.91501476E-01 0.80826180E+03</pdfrwt>
<totfact> 0.27200427E+01</totfact>
</mgrwt>
</event>
<event>
 4    2  0.3747163E-007  0.7278675E+03  0.7818608E-02  0.9896812E-01
         -2   -1    0    0    0  501 -0.00000000000E+00  0.00000000000E+00  0.36707219113E+03  0.36707219113E+03  0.25500000000E-02 0.  1.
          2   -1    0    0  501    0  0.00000000000E+00 -0.00000000000E+00 -0.15533640422E+04  0.15533640422E+04  0.25500000000E-02 0. -1.
    8880023    1    1    2    0    0 -0.30730822898E+03  0.39274681742E+02 -0.13533474721E+04  0.15366653619E+04  0.65864270000E+03 0.  0.
    8880022    1    1    2    0    0  0.30730822898E+03 -0.39274681742E+02  0.16705562097E+03  0.38377087140E+03  0.15294330000E+03 0.  0.
<mgrwt>
<rscale>  0 0.60416042E+03</rscale>
<asrwt>0</asrwt>
<pdfrwt beam="1">  1        2 0.23897908E+00 0.72786747E+03</pdfrwt>
<pdfrwt beam="2">  1       -2 0.56472646E-01 0.72786747E+03</pdfrwt>
<totfact> 0.35764206E+01</totfact>
</mgrwt>
</event>
<event>
 4    2  0.3747163E-007  0.7136108E+03  0.7818608E-02  0.9944829E-01
         -2   -1    0    0    0  501 -0.00000000000E+00  0.00000000000E+00  0.28147172199E+03  0.28147172200E+03  0.25500000000E-02 0.  1.
          2   -1    0    0  501    0  0.00000000000E+00 -0.00000000000E+00 -0.21125426166E+04  0.21125426166E+04  0.25500000000E-02 0. -1.
    8880023    1    1    2    0    0 -0.19882243358E+03 -0.18947229896E+03 -0.19354211304E+04  0.20627882272E+04  0.65864270000E+03 0.  0.
    8880022    1    1    2    0    0  0.19882243358E+03  0.18947229896E+03  0.10435023574E+03  0.33122611141E+03  0.15294330000E+03 0.  0.
<mgrwt>
<rscale>  0 0.58137000E+03</rscale>
<asrwt>0</asrwt>
<pdfrwt beam="1">  1        2 0.32500655E+00 0.71361076E+03</pdfrwt>
<pdfrwt beam="2">  1       -2 0.43303343E-01 0.71361076E+03</pdfrwt>
<totfact> 0.30402976E+01</totfact>
</mgrwt>
</event>
<event>
 4    2  0.3747163E-007  0.8702485E+03  0.7818608E-02  0.9575587E-01
          2   -1    0    0  501    0  0.00000000000E+00  0.00000000000E+00  0.10819544129E+04  0.10819544129E+04  0.25500000000E-02 0. -1.
         -2   -1    0    0    0  501 -0.00000000000E+00 -0.00000000000E+00 -0.15819351695E+04  0.15819351695E+04  0.25500000000E-02 0.  1.
    8880023    1    1    2    0    0  0.41080710787E+03 -0.39339514343E+03  0.83419102003E+03  0.12054903910E+04  0.65864270000E+03 0.  0.
    8880022    1    1    2    0    0 -0.41080710787E+03  0.39339514343E+03 -0.13341717766E+04  0.14583991913E+04  0.15294330000E+03 0.  0.
<mgrwt>
<rscale>  0 0.78933283E+03</rscale>
<asrwt>0</asrwt>
<pdfrwt beam="1">  1        2 0.16645452E+00 0.87024848E+03</pdfrwt>
<pdfrwt beam="2">  1       -2 0.24337464E+00 0.87024848E+03</pdfrwt>
<totfact> 0.16001505E+00</totfact>
</mgrwt>
</event>
<event>
 4    2  0.3747163E-007  0.6788668E+03  0.7818608E-02  0.1009972E+00
          2   -1    0    0  501    0  0.00000000000E+00  0.00000000000E+00  0.57300681144E+03  0.57300681144E+03  0.25500000000E-02 0. -1.
         -2   -1    0    0    0  501 -0.00000000000E+00 -0.00000000000E+00 -0.75791807084E+03  0.75791807084E+03  0.25500000000E-02 0.  1.
    8880023    1    1    2    0    0  0.13218192376E+02 -0.16393665420E+03  0.34053696391E+03  0.75949034046E+03  0.65864270000E+03 0. -1.
    8880022    1    1    2    0    0 -0.13218192376E+02  0.16393665420E+03 -0.52544822331E+03  0.57143454183E+03  0.15294330000E+03 0.  0.
<mgrwt>
<rscale>  0 0.51485750E+03</rscale>
<asrwt>0</asrwt>
<pdfrwt beam="1">  1        2 0.88154894E-01 0.67886682E+03</pdfrwt>
<pdfrwt beam="2">  1       -2 0.11660278E+00 0.67886682E+03</pdfrwt>
<totfact> 0.30441785E+01</totfact>
</mgrwt>
</event>
<event>
 4    2  0.3747163E-007  0.8847092E+03  0.7818608E-02  0.9551038E-01
          2   -1    0    0  501    0  0.00000000000E+00  0.00000000000E+00  0.10762358443E+04  0.10762358443E+04  0.25500000000E-02 0. -1.
         -2   -1    0    0    0  501 -0.00000000000E+00 -0.00000000000E+00 -0.11902307601E+04  0.11902307601E+04  0.25500000000E-02 0.  1.
    8880023    1    1    2    0    0 -0.56000606446E+03  0.18786519540E+03  0.78312131408E+03  0.11815199206E+04  0.65864270000E+03 0.  0.
    8880022    1    1    2    0    0  0.56000606446E+03 -0.18786519540E+03 -0.89711622988E+03  0.10849466839E+04  0.15294330000E+03 0.  0.
<mgrwt>
<rscale>  0 0.80623348E+03</rscale>
<asrwt>0</asrwt>
<pdfrwt beam="1">  1        2 0.16557475E+00 0.88470918E+03</pdfrwt>
<pdfrwt beam="2">  1       -2 0.18311242E+00 0.88470918E+03</pdfrwt>
<totfact> 0.39080422E+00</totfact>
</mgrwt>
</event>
<event>
 4    2  0.3747163E-007  0.6726065E+03  0.7818608E-02  0.1013859E+00
         -2   -1    0    0    0  501 -0.00000000000E+00  0.00000000000E+00  0.18687769989E+03  0.18687769991E+03  0.25500000000E-02 0.  1.
          2   -1    0    0  501    0  0.00000000000E+00 -0.00000000000E+00 -0.21529655879E+04  0.21529655879E+04  0.25500000000E-02 0. -1.
    8880023    1    1    2    0    0 -0.13557056546E+03  0.14489369341E+02 -0.20191170899E+04  0.21281995557E+04  0.65864270000E+03 0. -1.
    8880022    1    1    2    0    0  0.13557056546E+03 -0.14489369341E+02  0.53029201916E+02  0.21164373204E+03  0.15294330000E+03 0.  0.
<mgrwt>
<rscale>  0 0.49969196E+03</rscale>
<asrwt>0</asrwt>
<pdfrwt beam="1">  1        2 0.33122546E+00 0.67260652E+03</pdfrwt>
<pdfrwt beam="2">  1       -2 0.28750417E-01 0.67260652E+03</pdfrwt>
<totfact> 0.63432039E+01</totfact>
</mgrwt>
</event>
<event>
 4    2  0.3747163E-007  0.7680648E+03  0.7818608E-02  0.9784659E-01
         -2   -1    0    0    0  501 -0.00000000000E+00  0.00000000000E+00  0.45936471394E+03  0.45936471394E+03  0.25500000000E-02 0.  1.
          2   -1    0    0  501    0  0.00000000000E+00 -0.00000000000E+00 -0.19083405083E+04  0.19083405083E+04  0.25500000000E-02 0. -1.
    8880023    1    1    2    0    0  0.31656919183E+03 -0.23642610685E+03 -0.17068620892E+04  0.18717109165E+04  0.65864270000E+03 0.  0.
    8880022    1    1    2    0    0 -0.31656919183E+03  0.23642610685E+03  0.25788629484E+03  0.49599430571E+03  0.15294330000E+03 0.  1.
<mgrwt>
<rscale>  0 0.66192377E+03</rscale>
<asrwt>0</asrwt>
<pdfrwt beam="1">  1        2 0.29359084E+00 0.76806482E+03</pdfrwt>
<pdfrwt beam="2">  1       -2 0.70671495E-01 0.76806482E+03</pdfrwt>
<totfact> 0.14089554E+01</totfact>
</mgrwt>
</event>
<event>
 4    2  0.3747163E-007  0.1067603E+04  0.7818608E-02  0.9298013E-01
          2   -1    0    0  501    0  0.00000000000E+00  0.00000000000E+00  0.12936777444E+04  0.12936777444E+04  0.25500000000E-02 0. -1.
         -2   -1    0    0    0  501 -0.00000000000E+00 -0.00000000000E+00 -0.92755862541E+03  0.92755862542E+03  0.25500000000E-02 0.  1.
    8880023    1    1    2    0    0  0.11274248048E+03 -0.83261971779E+03  0.72958380556E+03  0.12930851468E+04  0.65864270000E+03 0. -1.
    8880022    1    1    2    0    0 -0.11274248048E+03  0.83261971779E+03 -0.36346468656E+03  0.92815122300E+03  0.15294330000E+03 0.  0.
<mgrwt>
<rscale>  0 0.10096597E+04</rscale>
<asrwt>0</asrwt>
<pdfrwt beam="1">  1        2 0.19902734E+00 0.10676032E+04</pdfrwt>
<pdfrwt beam="2">  1       -2 0.14270133E+00 0.10676032E+04</pdfrwt>
<totfact> 0.56119365E+00</totfact>
</mgrwt>
</event>
<event>
 4    2  0.3747163E-007  0.1073122E+04  0.7818608E-02  0.9291588E-01
          2   -1    0    0  501    0  0.00000000000E+00  0.00000000000E+00  0.15829280875E+04  0.15829280875E+04  0.25500000000E-02 0. -1.
         -2   -1    0    0    0  501 -0.00000000000E+00 -0.00000000000E+00 -0.77686601589E+03  0.77686601589E+03  0.25500000000E-02 0.  1.
    8880023    1    1    2    0    0 -0.76807869980E+03  0.35754206574E+03  0.10115146524E+04  0.14747044844E+04  0.65864270000E+03 0.  0.
    8880022    1    1    2    0    0  0.76807869980E+03 -0.35754206574E+03 -0.20545258076E+03  0.88508961909E+03  0.15294330000E+03 0.  0.
<mgrwt>
<rscale>  0 0.10156097E+04</rscale>
<asrwt>0</asrwt>
<pdfrwt beam="1">  1        2 0.24352740E+00 0.10731223E+04</pdfrwt>
<pdfrwt beam="2">  1       -2 0.11951785E+00 0.10731223E+04</pdfrwt>
<totfact> 0.60348484E+00</totfact>
</mgrwt>
</event>
<event>
 4    2  0.3747163E-007  0.6669466E+03  0.7818608E-02  0.1017953E+00
          2   -1    0    0  501    0  0.00000000000E+00  0.00000000000E+00  0.84448740369E+03  0.84448740369E+03  0.25500000000E-02 0. -1.
         -2   -1    0    0    0  501 -0.00000000000E+00 -0.00000000000E+00 -0.45067460533E+03  0.45067460534E+03  0.25500000000E-02 0.  1.
    8880023    1    1    2    0    0  0.10046714698E+03 -0.30230282113E+02  0.68106254446E+03  0.95323864447E+03  0.65864270000E+03 0. -1.
    8880022    1    1    2    0    0 -0.10046714698E+03  0.30230282113E+02 -0.28724974611E+03  0.34192336456E+03  0.15294330000E+03 0.  0.
<mgrwt>
<rscale>  0 0.48432488E+03</rscale>
<asrwt>0</asrwt>
<pdfrwt beam="1">  1        2 0.12992114E+00 0.66694657E+03</pdfrwt>
<pdfrwt beam="2">  1       -2 0.69334555E-01 0.66694657E+03</pdfrwt>
<totfact> 0.62033079E+01</totfact>
</mgrwt>
</event>
<event>
 4    2  0.3747163E-007  0.6687543E+03  0.7818608E-02  0.1016572E+00
          2   -1    0    0  501    0  0.00000000000E+00  0.00000000000E+00  0.56689684809E+03  0.56689684809E+03  0.25500000000E-02 0. -1.
         -2   -1    0    0    0  501 -0.00000000000E+00 -0.00000000000E+00 -0.34620280353E+03  0.34620280354E+03  0.25500000000E-02 0.  1.
    8880023    1    1    2    0    0 -0.69694737455E+02  0.92546248412E+02  0.25951472217E+03  0.71734249965E+03  0.65864270000E+03 0. -1.
    8880022    1    1    2    0    0  0.69694737455E+02 -0.92546248412E+02 -0.38820677609E+02  0.19575715197E+03  0.15294330000E+03 0.  0.
<mgrwt>
<rscale>  0 0.48944209E+03</rscale>
<asrwt>0</asrwt>
<pdfrwt beam="1">  1        2 0.87214900E-01 0.66875434E+03</pdfrwt>
<pdfrwt beam="2">  1       -2 0.53261970E-01 0.66875434E+03</pdfrwt>
<totfact> 0.17889810E+02</totfact>
</mgrwt>
</event>
<event>
 4    2  0.3747163E-007  0.6596503E+03  0.7818608E-02  0.1024518E+00
          2   -1    0    0  501    0  0.00000000000E+00  0.00000000000E+00  0.23739044814E+03  0.23739044816E+03  0.25500000000E-02 0. -1.
         -2   -1    0    0    0  501 -0.00000000000E+00 -0.00000000000E+00 -0.95918530038E+03  0.95918530038E+03  0.25500000000E-02 0.  1.
    8880023    1    1    2    0    0 -0.72312228308E+01 -0.35721780884E+02 -0.26050226527E+03  0.70922490981E+03  0.65864270000E+03 0. -1.
    8880022    1    1    2    0    0  0.72312228308E+01  0.35721780884E+02 -0.46129258696E+03  0.48735083874E+03  0.15294330000E+03 0.  0.
<mgrwt>
<rscale>  0 0.46091025E+03</rscale>
<asrwt>0</asrwt>
<pdfrwt beam="1">  1        2 0.36521608E-01 0.65965032E+03</pdfrwt>
<pdfrwt beam="2">  1       -2 0.14756697E+00 0.65965032E+03</pdfrwt>
<totfact> 0.45357153E+01</totfact>
</mgrwt>
</event>
<event>
 4    2  0.3747163E-007  0.7670744E+03  0.7818608E-02  0.9787125E-01
         -2   -1    0    0    0  501 -0.00000000000E+00  0.00000000000E+00  0.22234607744E+04  0.22234607744E+04  0.25500000000E-02 0.  1.
          2   -1    0    0  501    0  0.00000000000E+00 -0.00000000000E+00 -0.38750381811E+03  0.38750381812E+03  0.25500000000E-02 0. -1.
    8880023    1    1    2    0    0  0.38145395372E+03 -0.95319642396E+02  0.42168638629E+02  0.76823261672E+03  0.65864270000E+03 0.  0.
    8880022    1    1    2    0    0 -0.38145395372E+03  0.95319642396E+02  0.17937883176E+04  0.18427319758E+04  0.15294330000E+03 0.  0.
<mgrwt>
<rscale>  0 0.66058077E+03</rscale>
<asrwt>0</asrwt>
<pdfrwt beam="1">  1        2 0.59615973E-01 0.76707442E+03</pdfrwt>
<pdfrwt beam="2">  1       -2 0.34207088E+00 0.76707442E+03</pdfrwt>
<totfact> 0.15078360E+00</totfact>
</mgrwt>
</event>
<event>
 4    2  0.3747163E-007  0.7515613E+03  0.7818608E-02  0.9827466E-01
         -2   -1    0    0    0  501 -0.00000000000E+00  0.00000000000E+00  0.59891972410E+03  0.59891972410E+03  0.25500000000E-02 0.  1.
          2   -1    0    0  501    0  0.00000000000E+00 -0.00000000000E+00 -0.57121681389E+03  0.57121681390E+03  0.25500000000E-02 0. -1.
    8880023    1    1    2    0    0  0.25991392651E+03  0.25195019456E+03 -0.97137605520E+02  0.75781268820E+03  0.65864270000E+03 0.  0.
    8880022    1    1    2    0    0 -0.25991392651E+03 -0.25195019456E+03  0.12484051572E+03  0.41232384980E+03  0.15294330000E+03 0.  0.
<mgrwt>
<rscale>  0 0.63909185E+03</rscale>
<asrwt>0</asrwt>
<pdfrwt beam="1">  1        2 0.87879510E-01 0.75156128E+03</pdfrwt>
<pdfrwt beam="2">  1       -2 0.92141496E-01 0.75156128E+03</pdfrwt>
<totfact> 0.53293441E+01</totfact>
</mgrwt>
</event>
<event>
 4    2  0.3747163E-007  0.1027271E+04  0.7818608E-02  0.9346718E-01
         -2   -1    0    0    0  501 -0.00000000000E+00  0.00000000000E+00  0.30001506564E+03  0.30001506565E+03  0.25500000000E-02 0.  1.
          2   -1    0    0  501    0  0.00000000000E+00 -0.00000000000E+00 -0.34041755915E+04  0.34041755915E+04  0.25500000000E-02 0. -1.
    8880023    1    1    2    0    0  0.57596487760E+03 -0.53827411919E+03 -0.24888595025E+04  0.26925278823E+04  0.65864270000E+03 0.  0.
    8880022    1    1    2    0    0 -0.57596487760E+03  0.53827411919E+03 -0.61530102339E+03  0.10116627749E+04  0.15294330000E+03 0.  0.
<mgrwt>
<rscale>  0 0.96593373E+03</rscale>
<asrwt>0</asrwt>
<pdfrwt beam="1">  1        2 0.52371929E+00 0.10272705E+04</pdfrwt>
<pdfrwt beam="2">  1       -2 0.46156166E-01 0.10272705E+04</pdfrwt>
<totfact> 0.43418539E+00</totfact>
</mgrwt>
</event>
<event>
 4    2  0.3747163E-007  0.7641541E+03  0.7818608E-02  0.9794469E-01
          2   -1    0    0  501    0  0.00000000000E+00  0.00000000000E+00  0.10654787989E+04  0.10654787989E+04  0.25500000000E-02 0. -1.
         -2   -1    0    0    0  501 -0.00000000000E+00 -0.00000000000E+00 -0.54115957313E+03  0.54115957313E+03  0.25500000000E-02 0.  1.
    8880023    1    1    2    0    0 -0.35589545522E+02  0.38581692358E+03  0.80063606664E+03  0.11067744268E+04  0.65864270000E+03 0. -1.
    8880022    1    1    2    0    0  0.35589545522E+02 -0.38581692358E+03 -0.27631684083E+03  0.49986394531E+03  0.15294330000E+03 0.  0.
<mgrwt>
<rscale>  0 0.65660202E+03</rscale>
<asrwt>0</asrwt>
<pdfrwt beam="1">  1        2 0.16391981E+00 0.76415412E+03</pdfrwt>
<pdfrwt beam="2">  1       -2 0.83255321E-01 0.76415412E+03</pdfrwt>
<totfact> 0.29361341E+01</totfact>
</mgrwt>
</event>
<event>
 4    2  0.3747163E-007  0.6902783E+03  0.7818608E-02  0.1004021E+00
          2   -1    0    0  501    0  0.00000000000E+00  0.00000000000E+00  0.15869772591E+04  0.15869772591E+04  0.25500000000E-02 0. -1.
         -2   -1    0    0    0  501 -0.00000000000E+00 -0.00000000000E+00 -0.38744209316E+03  0.38744209317E+03  0.25500000000E-02 0.  1.
    8880023    1    1    2    0    0 -0.14434377502E+02  0.20607172280E+03  0.14559880704E+04  0.16113303117E+04  0.65864270000E+03 0. -1.
    8880022    1    1    2    0    0  0.14434377502E+02 -0.20607172280E+03 -0.25645290440E+03  0.36308904057E+03  0.15294330000E+03 0.  0.
<mgrwt>
<rscale>  0 0.53921883E+03</rscale>
<asrwt>0</asrwt>
<pdfrwt beam="1">  1        2 0.24415035E+00 0.69027829E+03</pdfrwt>
<pdfrwt beam="2">  1       -2 0.59606476E-01 0.69027829E+03</pdfrwt>
<totfact> 0.30743230E+01</totfact>
</mgrwt>
</event>
<event>
 4    2  0.3747163E-007  0.6749896E+03  0.7818608E-02  0.1012313E+00
         -2   -1    0    0    0  501 -0.00000000000E+00  0.00000000000E+00  0.12164348972E+04  0.12164348972E+04  0.25500000000E-02 0.  1.
          2   -1    0    0  501    0  0.00000000000E+00 -0.00000000000E+00 -0.13627188269E+04  0.13627188269E+04  0.25500000000E-02 0. -1.
    8880023    1    1    2    0    0  0.77432575518E+02 -0.12571753399E+03 -0.12685387631E+04  0.14369417183E+04  0.65864270000E+03 0. -1.
    8880022    1    1    2    0    0 -0.77432575518E+02  0.12571753399E+03  0.11222548334E+04  0.11422120058E+04  0.15294330000E+03 0.  0.
<mgrwt>
<rscale>  0 0.50565687E+03</rscale>
<asrwt>0</asrwt>
<pdfrwt beam="1">  1        2 0.20964905E+00 0.67498956E+03</pdfrwt>
<pdfrwt beam="2">  1       -2 0.18714383E+00 0.67498956E+03</pdfrwt>
<totfact> 0.25653236E+00</totfact>
</mgrwt>
</event>
<event>
 4    2  0.3747163E-007  0.7825547E+03  0.7818608E-02  0.9749870E-01
         -2   -1    0    0    0  501 -0.00000000000E+00  0.00000000000E+00  0.22692535777E+03  0.22692535779E+03  0.25500000000E-02 0.  1.
          2   -1    0    0  501    0  0.00000000000E+00 -0.00000000000E+00 -0.26005656280E+04  0.26005656280E+04  0.25500000000E-02 0. -1.
    8880023    1    1    2    0    0 -0.10509240195E+03 -0.40931322139E+03 -0.22178155264E+04  0.23518285740E+04  0.65864270000E+03 0. -1.
    8880022    1    1    2    0    0  0.10509240195E+03  0.40931322139E+03 -0.15582474380E+03  0.47566241175E+03  0.15294330000E+03 0.  0.
<mgrwt>
<rscale>  0 0.68123635E+03</rscale>
<asrwt>0</asrwt>
<pdfrwt beam="1">  1        2 0.40008700E+00 0.78255475E+03</pdfrwt>
<pdfrwt beam="2">  1       -2 0.34911595E-01 0.78255475E+03</pdfrwt>
<totfact> 0.24393547E+01</totfact>
</mgrwt>
</event>
<event>
 4    2  0.3747163E-007  0.7626707E+03  0.7818608E-02  0.9798242E-01
          2   -1    0    0  501    0  0.00000000000E+00  0.00000000000E+00  0.14163022930E+04  0.14163022930E+04  0.25500000000E-02 0. -1.
         -2   -1    0    0    0  501 -0.00000000000E+00 -0.00000000000E+00 -0.32491651659E+03  0.32491651660E+03  0.25500000000E-02 0.  1.
    8880023    1    1    2    0    0  0.33807296446E+03  0.18320203403E+03  0.10863875086E+04  0.13273674471E+04  0.65864270000E+03 0. -1.
    8880022    1    1    2    0    0 -0.33807296446E+03 -0.18320203403E+03  0.49982678545E+01  0.41385136253E+03  0.15294330000E+03 0.  0.
<mgrwt>
<rscale>  0 0.65456978E+03</rscale>
<asrwt>0</asrwt>
<pdfrwt beam="1">  1        2 0.21789266E+00 0.76267065E+03</pdfrwt>
<pdfrwt beam="2">  1       -2 0.49987156E-01 0.76267065E+03</pdfrwt>
<totfact> 0.54639050E+01</totfact>
</mgrwt>
</event>
<event>
 4    2  0.3747163E-007  0.1534371E+04  0.7818608E-02  0.8885739E-01
         -2   -1    0    0    0  501 -0.00000000000E+00  0.00000000000E+00  0.11602029722E+04  0.11602029722E+04  0.25500000000E-02 0.  1.
          2   -1    0    0  501    0  0.00000000000E+00 -0.00000000000E+00 -0.19274241359E+04  0.19274241359E+04  0.25500000000E-02 0. -1.
    8880023    1    1    2    0    0 -0.12658993961E+04 -0.56389892868E+03 -0.88370661549E+02  0.15369134207E+04  0.65864270000E+03 0.  0.
    8880022    1    1    2    0    0  0.12658993961E+04  0.56389892868E+03 -0.67885050216E+03  0.15507136873E+04  0.15294330000E+03 0.  0.
<mgrwt>
<rscale>  0 0.14980671E+04</rscale>
<asrwt>0</asrwt>
<pdfrwt beam="1">  1        2 0.29652679E+00 0.15343707E+04</pdfrwt>
<pdfrwt beam="2">  1       -2 0.17849276E+00 0.15343707E+04</pdfrwt>
<totfact> 0.12779684E+00</totfact>
</mgrwt>
</event>
<event>
 4    2  0.3747163E-007  0.9312250E+03  0.7818608E-02  0.9477658E-01
          2   -1    0    0  501    0  0.00000000000E+00  0.00000000000E+00  0.52830857571E+03  0.52830857571E+03  0.25500000000E-02 0. -1.
         -2   -1    0    0    0  501 -0.00000000000E+00 -0.00000000000E+00 -0.13604904482E+04  0.13604904482E+04  0.25500000000E-02 0.  1.
    8880023    1    1    2    0    0  0.87117125218E+02  0.65251847010E+03 -0.17776061275E+03  0.94803944488E+03  0.65864270000E+03 0. -1.
    8880022    1    1    2    0    0 -0.87117125218E+02 -0.65251847010E+03 -0.65442125973E+03  0.94075957903E+03  0.15294330000E+03 0.  0.
<mgrwt>
<rscale>  0 0.85951238E+03</rscale>
<asrwt>0</asrwt>
<pdfrwt beam="1">  1        2 0.81278243E-01 0.93122497E+03</pdfrwt>
<pdfrwt beam="2">  1       -2 0.20930622E+00 0.93122497E+03</pdfrwt>
<totfact> 0.66921758E+00</totfact>
</mgrwt>
</event>
<event>
 4    2  0.3747163E-007  0.1677026E+04  0.7818608E-02  0.8793796E-01
          2   -1    0    0  501    0  0.00000000000E+00  0.00000000000E+00  0.36959877191E+04  0.36959877191E+04  0.25500000000E-02 0. -1.
         -2   -1    0    0    0  501 -0.00000000000E+00 -0.00000000000E+00 -0.90723476048E+03  0.90723476048E+03  0.25500000000E-02 0.  1.
    8880023    1    1    2    0    0 -0.14061867279E+04  0.63344004211E+03  0.25248842225E+04  0.30310819758E+04  0.65864270000E+03 0.  0.
    8880022    1    1    2    0    0  0.14061867279E+04 -0.63344004211E+03  0.26386873618E+03  0.15721405038E+04  0.15294330000E+03 0.  0.
<mgrwt>
<rscale>  0 0.16442829E+04</rscale>
<asrwt>0</asrwt>
<pdfrwt beam="1">  1        2 0.56861348E+00 0.16770264E+04</pdfrwt>
<pdfrwt beam="2">  1       -2 0.13957458E+00 0.16770264E+04</pdfrwt>
<totfact> 0.19936990E-01</totfact>
</mgrwt>
</event>
<event>
 4    2  0.3747163E-007  0.8525203E+03  0.7818608E-02  0.9607009E-01
          2   -1    0    0  501    0  0.00000000000E+00  0.00000000000E+00  0.12695349223E+04  0.12695349223E+04  0.25500000000E-02 0. -1.
         -2   -1    0    0    0  501 -0.00000000000E+00 -0.00000000000E+00 -0.80766331032E+03  0.80766331032E+03  0.25500000000E-02 0.  1.
    8880023    1    1    2    0    0 -0.48672154728E+03  0.23681801070E+03  0.98942183249E+03  0.13060422672E+04  0.65864270000E+03 0. -1.
    8880022    1    1    2    0    0  0.48672154728E+03 -0.23681801070E+03 -0.52755022054E+03  0.77115596541E+03  0.15294330000E+03 0.  0.
<mgrwt>
<rscale>  0 0.76833983E+03</rscale>
<asrwt>0</asrwt>
<pdfrwt beam="1">  1        2 0.19531306E+00 0.85252029E+03</pdfrwt>
<pdfrwt beam="2">  1       -2 0.12425589E+00 0.85252029E+03</pdfrwt>
<totfact> 0.84529430E+00</totfact>
</mgrwt>
</event>
<event>
 4    2  0.3747163E-007  0.1187642E+04  0.7818608E-02  0.9169230E-01
         -2   -1    0    0    0  501 -0.00000000000E+00  0.00000000000E+00  0.79908937034E+03  0.79908937034E+03  0.25500000000E-02 0.  1.
          2   -1    0    0  501    0  0.00000000000E+00 -0.00000000000E+00 -0.23605971296E+04  0.23605971296E+04  0.25500000000E-02 0. -1.
    8880023    1    1    2    0    0 -0.89780319885E+03 -0.41307577161E+03 -0.17763814435E+04  0.21368255465E+04  0.65864270000E+03 0.  0.
    8880022    1    1    2    0    0  0.89780319885E+03  0.41307577161E+03  0.21487368423E+03  0.10228609535E+04  0.15294330000E+03 0.  0.
<mgrwt>
<rscale>  0 0.11376745E+04</rscale>
<asrwt>0</asrwt>
<pdfrwt beam="1">  1        2 0.36316879E+00 0.11876415E+04</pdfrwt>
<pdfrwt beam="2">  1       -2 0.12293683E+00 0.11876415E+04</pdfrwt>
<totfact> 0.20521030E+00</totfact>
</mgrwt>
</event>
<event>
 4    2  0.3747163E-007  0.7356894E+03  0.7818608E-02  0.9872686E-01
         -2   -1    0    0    0  501 -0.00000000000E+00  0.00000000000E+00  0.18351046436E+03  0.18351046438E+03  0.25500000000E-02 0.  1.
          2   -1    0    0  501    0  0.00000000000E+00 -0.00000000000E+00 -0.24297390152E+04  0.24297390152E+04  0.25500000000E-02 0. -1.
    8880023    1    1    2    0    0  0.18571158748E+03 -0.27007383074E+03 -0.20964232067E+04  0.22217626191E+04  0.65864270000E+03 0. -1.
    8880022    1    1    2    0    0 -0.18571158748E+03  0.27007383074E+03 -0.14980534411E+03  0.39148686046E+03  0.15294330000E+03 0.  0.
<mgrwt>
<rscale>  0 0.61603483E+03</rscale>
<asrwt>0</asrwt>
<pdfrwt beam="1">  1        2 0.37380598E+00 0.73568939E+03</pdfrwt>
<pdfrwt beam="2">  1       -2 0.28232381E-01 0.73568939E+03</pdfrwt>
<totfact> 0.45678562E+01</totfact>
</mgrwt>
</event>
<event>
 4    2  0.3747163E-007  0.7048953E+03  0.7818608E-02  0.9977469E-01
          2   -1    0    0  501    0  0.00000000000E+00  0.00000000000E+00  0.26776966619E+04  0.26776966619E+04  0.25500000000E-02 0. -1.
         -2   -1    0    0    0  501 -0.00000000000E+00 -0.00000000000E+00 -0.10475149905E+03  0.10475149908E+03  0.25500000000E-02 0.  1.
    8880023    1    1    2    0    0 -0.13663984914E+03 -0.21070527961E+03  0.21835365029E+04  0.22944953757E+04  0.65864270000E+03 0.  0.
    8880022    1    1    2    0    0  0.13663984914E+03  0.21070527961E+03  0.38940865992E+03  0.48795278528E+03  0.15294330000E+03 0.  0.
<mgrwt>
<rscale>  0 0.56649309E+03</rscale>
<asrwt>0</asrwt>
<pdfrwt beam="1">  1        2 0.41195331E+00 0.70489529E+03</pdfrwt>
<pdfrwt beam="2">  1       -2 0.16115616E-01 0.70489529E+03</pdfrwt>
<totfact> 0.89144576E+01</totfact>
</mgrwt>
</event>
<event>
 4    2  0.3747163E-007  0.6669079E+03  0.7818608E-02  0.1017984E+00
         -2   -1    0    0    0  501 -0.00000000000E+00  0.00000000000E+00  0.38752448979E+03  0.38752448979E+03  0.25500000000E-02 0.  1.
          2   -1    0    0  501    0  0.00000000000E+00 -0.00000000000E+00 -0.51846446222E+03  0.51846446223E+03  0.25500000000E-02 0. -1.
    8880023    1    1    2    0    0  0.10353977712E+03 -0.15343052957E+02 -0.21744751762E+03  0.70146241803E+03  0.65864270000E+03 0. -1.
    8880022    1    1    2    0    0 -0.10353977712E+03  0.15343052957E+02  0.86507545185E+02  0.20452653400E+03  0.15294330000E+03 0.  0.
<mgrwt>
<rscale>  0 0.48421289E+03</rscale>
<asrwt>0</asrwt>
<pdfrwt beam="1">  1        2 0.79763764E-01 0.66690787E+03</pdfrwt>
<pdfrwt beam="2">  1       -2 0.59619152E-01 0.66690787E+03</pdfrwt>
<totfact> 0.15714689E+02</totfact>
</mgrwt>
</event>
<event>
 4    2  0.3747163E-007  0.7542550E+03  0.7818608E-02  0.9820214E-01
         -2   -1    0    0    0  501 -0.00000000000E+00  0.00000000000E+00  0.48909367902E+03  0.48909367903E+03  0.25500000000E-02 0.  1.
          2   -1    0    0  501    0  0.00000000000E+00 -0.00000000000E+00 -0.11572115656E+04  0.11572115656E+04  0.25500000000E-02 0. -1.
    8880023    1    1    2    0    0  0.24018016652E+03 -0.27821544188E+03 -0.90886400195E+03  0.11810733782E+04  0.65864270000E+03 0.  0.
    8880022    1    1    2    0    0 -0.24018016652E+03  0.27821544188E+03  0.24074611532E+03  0.46523186644E+03  0.15294330000E+03 0.  0.
<mgrwt>
<rscale>  0 0.64288919E+03</rscale>
<asrwt>0</asrwt>
<pdfrwt beam="1">  1        2 0.17803255E+00 0.75425496E+03</pdfrwt>
<pdfrwt beam="2">  1       -2 0.75245181E-01 0.75425496E+03</pdfrwt>
<totfact> 0.32421580E+01</totfact>
</mgrwt>
</event>
<event>
 4    2  0.3747163E-007  0.7009866E+03  0.7818608E-02  0.9993133E-01
          2   -1    0    0  501    0  0.00000000000E+00  0.00000000000E+00  0.32005996671E+04  0.32005996671E+04  0.25500000000E-02 0. -1.
         -2   -1    0    0    0  501 -0.00000000000E+00 -0.00000000000E+00 -0.11408213399E+03  0.11408213401E+03  0.25500000000E-02 0.  1.
    8880023    1    1    2    0    0  0.23085276151E+03  0.65414632169E+02  0.28774151963E+04  0.29615706120E+04  0.65864270000E+03 0. -1.
    8880022    1    1    2    0    0 -0.23085276151E+03 -0.65414632169E+02  0.20910233677E+03  0.35311118909E+03  0.15294330000E+03 0.  0.
<mgrwt>
<rscale>  0 0.55952387E+03</rscale>
<asrwt>0</asrwt>
<pdfrwt beam="1">  1        2 0.49239997E+00 0.70098665E+03</pdfrwt>
<pdfrwt beam="2">  1       -2 0.17551097E-01 0.70098665E+03</pdfrwt>
<totfact> 0.37200529E+01</totfact>
</mgrwt>
</event>
<event>
 4    2  0.3747163E-007  0.6816680E+03  0.7818608E-02  0.1008395E+00
          2   -1    0    0  501    0  0.00000000000E+00  0.00000000000E+00  0.20291109136E+04  0.20291109136E+04  0.25500000000E-02 0. -1.
         -2   -1    0    0    0  501 -0.00000000000E+00 -0.00000000000E+00 -0.10933243698E+03  0.10933243701E+03  0.25500000000E-02 0.  1.
    8880023    1    1    2    0    0  0.10873134098E+03 -0.13798008153E+03  0.16290272008E+04  0.17658994407E+04  0.65864270000E+03 0. -1.
    8880022    1    1    2    0    0 -0.10873134098E+03  0.13798008153E+03  0.29075127581E+03  0.37254390991E+03  0.15294330000E+03 0.  1.
<mgrwt>
<rscale>  0 0.52117346E+03</rscale>
<asrwt>0</asrwt>
<pdfrwt beam="1">  1        2 0.31217090E+00 0.68166796E+03</pdfrwt>
<pdfrwt beam="2">  1       -2 0.16820375E-01 0.68166796E+03</pdfrwt>
<totfact> 0.19133628E+02</totfact>
</mgrwt>
</event>
<event>
 4    2  0.3747163E-007  0.8260285E+03  0.7818608E-02  0.9657110E-01
         -2   -1    0    0    0  501 -0.00000000000E+00  0.00000000000E+00  0.30719176841E+03  0.30719176842E+03  0.25500000000E-02 0.  1.
          2   -1    0    0  501    0  0.00000000000E+00 -0.00000000000E+00 -0.25415125335E+04  0.25415125335E+04  0.25500000000E-02 0. -1.
    8880023    1    1    2    0    0  0.45919526294E+03 -0.19404274002E+03 -0.21717287008E+04  0.23235164365E+04  0.65864270000E+03 0.  0.
    8880022    1    1    2    0    0 -0.45919526294E+03  0.19404274002E+03 -0.62592064269E+02  0.52518786542E+03  0.15294330000E+03 0.  0.
<mgrwt>
<rscale>  0 0.73628903E+03</rscale>
<asrwt>0</asrwt>
<pdfrwt beam="1">  1        2 0.39100191E+00 0.82602850E+03</pdfrwt>
<pdfrwt beam="2">  1       -2 0.47260274E-01 0.82602850E+03</pdfrwt>
<totfact> 0.14479817E+01</totfact>
</mgrwt>
</event>
<event>
 4    2  0.3747163E-007  0.6624836E+03  0.7818608E-02  0.1021745E+00
          2   -1    0    0  501    0  0.00000000000E+00  0.00000000000E+00  0.12414690924E+03  0.12414690927E+03  0.25500000000E-02 0. -1.
         -2   -1    0    0    0  501 -0.00000000000E+00 -0.00000000000E+00 -0.16622008749E+04  0.16622008749E+04  0.25500000000E-02 0.  1.
    8880023    1    1    2    0    0 -0.16887640716E+02  0.69203519716E+02 -0.84871759857E+03  0.10766643339E+04  0.65864270000E+03 0. -1.
    8880022    1    1    2    0    0  0.16887640716E+02 -0.69203519716E+02 -0.68933636710E+03  0.70968345026E+03  0.15294330000E+03 0.  0.
<mgrwt>
<rscale>  0 0.47062187E+03</rscale>
<asrwt>0</asrwt>
<pdfrwt beam="1">  1        2 0.19099526E-01 0.66248360E+03</pdfrwt>
<pdfrwt beam="2">  1       -2 0.25572320E+00 0.66248360E+03</pdfrwt>
<totfact> 0.18425036E+01</totfact>
</mgrwt>
</event>
<event>
 4    2  0.3747163E-007  0.7112786E+03  0.7818608E-02  0.9953283E-01
         -2   -1    0    0    0  501 -0.00000000000E+00  0.00000000000E+00  0.61242622721E+03  0.61242622722E+03  0.25500000000E-02 0.  1.
          2   -1    0    0  501    0  0.00000000000E+00 -0.00000000000E+00 -0.26311319118E+04  0.26311319118E+04  0.25500000000E-02 0. -1.
    8880023    1    1    2    0    0 -0.21205031067E+03  0.16474757231E+03 -0.25399116072E+04  0.26376254995E+04  0.65864270000E+03 0. -1.
    8880022    1    1    2    0    0  0.21205031067E+03 -0.16474757231E+03  0.52120592263E+03  0.60593263952E+03  0.15294330000E+03 0.  0.
<mgrwt>
<rscale>  0 0.57747014E+03</rscale>
<asrwt>0</asrwt>
<pdfrwt beam="1">  1        2 0.40478952E+00 0.71127864E+03</pdfrwt>
<pdfrwt beam="2">  1       -2 0.94219421E-01 0.71127864E+03</pdfrwt>
<totfact> 0.29455514E+00</totfact>
</mgrwt>
</event>
<event>
 4    2  0.3747163E-007  0.8004659E+03  0.7818608E-02  0.9709790E-01
         -2   -1    0    0    0  501 -0.00000000000E+00  0.00000000000E+00  0.29755439114E+03  0.29755439115E+03  0.25500000000E-02 0.  1.
          2   -1    0    0  501    0  0.00000000000E+00 -0.00000000000E+00 -0.18928453234E+04  0.18928453234E+04  0.25500000000E-02 0. -1.
    8880023    1    1    2    0    0  0.37937432094E+03  0.25101893105E+03 -0.15012886772E+04  0.17013563053E+04  0.65864270000E+03 0.  0.
    8880022    1    1    2    0    0 -0.37937432094E+03 -0.25101893105E+03 -0.94002255075E+02  0.48904340923E+03  0.15294330000E+03 0.  0.
<mgrwt>
<rscale>  0 0.70436898E+03</rscale>
<asrwt>0</asrwt>
<pdfrwt beam="1">  1        2 0.29120697E+00 0.80046586E+03</pdfrwt>
<pdfrwt beam="2">  1       -2 0.45777600E-01 0.80046586E+03</pdfrwt>
<totfact> 0.35490726E+01</totfact>
</mgrwt>
</event>
<event>
 4    2  0.3747163E-007  0.1090280E+04  0.7818608E-02  0.9271956E-01
          2   -1    0    0  501    0  0.00000000000E+00  0.00000000000E+00  0.96320050449E+03  0.96320050450E+03  0.25500000000E-02 0. -1.
         -2   -1    0    0    0  501 -0.00000000000E+00 -0.00000000000E+00 -0.13116275079E+04  0.13116275080E+04  0.25500000000E-02 0.  1.
    8880023    1    1    2    0    0 -0.75653442412E+03 -0.42726519205E+03  0.35488340517E+03  0.11465828870E+04  0.65864270000E+03 0.  0.
    8880022    1    1    2    0    0  0.75653442412E+03  0.42726519205E+03 -0.70331040862E+03  0.11282451255E+04  0.15294330000E+03 0.  0.
<mgrwt>
<rscale>  0 0.10340613E+04</rscale>
<asrwt>0</asrwt>
<pdfrwt beam="1">  1        2 0.14818469E+00 0.10902798E+04</pdfrwt>
<pdfrwt beam="2">  1       -2 0.20178885E+00 0.10902798E+04</pdfrwt>
<totfact> 0.33869956E+00</totfact>
</mgrwt>
</event>
<event>
 4    2  0.3747163E-007  0.8414085E+03  0.7818608E-02  0.9627530E-01
         -2   -1    0    0    0  501 -0.00000000000E+00  0.00000000000E+00  0.46932820186E+03  0.46932820186E+03  0.25500000000E-02 0.  1.
          2   -1    0    0  501    0  0.00000000000E+00 -0.00000000000E+00 -0.15841278891E+04  0.15841278891E+04  0.25500000000E-02 0. -1.
    8880023    1    1    2    0    0 -0.40954998128E+03  0.32623142286E+03 -0.33168629101E+02  0.84206204798E+03  0.65864270000E+03 0.  1.
    8880022    1    1    2    0    0  0.40954998128E+03 -0.32623142286E+03 -0.10816310581E+04  0.12113940429E+04  0.15294330000E+03 0.  0.
<mgrwt>
<rscale>  0 0.75500555E+03</rscale>
<asrwt>0</asrwt>
<pdfrwt beam="1">  1        2 0.24371198E+00 0.84140854E+03</pdfrwt>
<pdfrwt beam="2">  1       -2 0.72204339E-01 0.84140854E+03</pdfrwt>
<totfact> 0.20055027E+01</totfact>
</mgrwt>
</event>
<event>
 4    2  0.6468014E-007  0.1094536E+04  0.7818608E-02  0.9267164E-01
          2   -1    0    0  501    0  0.00000000000E+00  0.00000000000E+00  0.27286247712E+04  0.27286247712E+04  0.25500000000E-02 0. -1.
         -2   -1    0    0    0  501 -0.00000000000E+00 -0.00000000000E+00 -0.13424239403E+04  0.13424239403E+04  0.25500000000E-02 0.  1.
    8880023    1    1    2    0    0  0.86258721841E+03 -0.14192048960E+03  0.24513677378E+04  0.26846251371E+04  0.65864270000E+03 0. -1.
    8880022    1    1    2    0    0 -0.86258721841E+03  0.14192048960E+03 -0.10651669069E+04  0.13864235743E+04  0.15294330000E+03 0.  0.
<mgrwt>
<rscale>  0 0.10386278E+04</rscale>
<asrwt>0</asrwt>
<pdfrwt beam="1">  1        2 0.41978842E+00 0.10945357E+04</pdfrwt>
<pdfrwt beam="2">  1       -2 0.20652676E+00 0.10945357E+04</pdfrwt>
<totfact> 0.30635837E-01</totfact>
</mgrwt>
</event>
<event>
 4    2  0.3747163E-007  0.1172748E+04  0.7818608E-02  0.9184079E-01
          2   -1    0    0  501    0  0.00000000000E+00  0.00000000000E+00  0.20710519999E+04  0.20710519999E+04  0.25500000000E-02 0. -1.
         -2   -1    0    0    0  501 -0.00000000000E+00 -0.00000000000E+00 -0.10278486518E+04  0.10278486518E+04  0.25500000000E-02 0.  1.
    8880023    1    1    2    0    0 -0.76613526946E+03  0.59545321445E+03 -0.49570305993E+03  0.12732083536E+04  0.65864270000E+03 0.  1.
    8880022    1    1    2    0    0  0.76613526946E+03 -0.59545321445E+03  0.15389064081E+04  0.18256922981E+04  0.15294330000E+03 0.  0.
<mgrwt>
<rscale>  0 0.11219278E+04</rscale>
<asrwt>0</asrwt>
<pdfrwt beam="1">  1        2 0.31862338E+00 0.11727480E+04</pdfrwt>
<pdfrwt beam="2">  1       -2 0.15813056E+00 0.11727480E+04</pdfrwt>
<totfact> 0.15486733E+00</totfact>
</mgrwt>
</event>
<event>
 4    2  0.3747163E-007  0.8105771E+03  0.7818608E-02  0.9688376E-01
         -2   -1    0    0    0  501 -0.00000000000E+00  0.00000000000E+00  0.71965052232E+03  0.71965052232E+03  0.25500000000E-02 0.  1.
          2   -1    0    0  501    0  0.00000000000E+00 -0.00000000000E+00 -0.69768017132E+03  0.69768017132E+03  0.25500000000E-02 0. -1.
    8880023    1    1    2    0    0 -0.15914859069E+03 -0.44485593596E+03 -0.25368744744E+03  0.84934834134E+03  0.65864270000E+03 0. -1.
    8880022    1    1    2    0    0  0.15914859069E+03  0.44485593596E+03  0.27565779844E+03  0.56798235231E+03  0.15294330000E+03 0.  0.
<mgrwt>
<rscale>  0 0.71713113E+03</rscale>
<asrwt>0</asrwt>
<pdfrwt beam="1">  1        2 0.10733541E+00 0.81057713E+03</pdfrwt>
<pdfrwt beam="2">  1       -2 0.11071546E+00 0.81057713E+03</pdfrwt>
<totfact> 0.26834591E+01</totfact>
</mgrwt>
</event>
<event>
 4    2  0.3747163E-007  0.1352216E+04  0.7818608E-02  0.9021730E-01
         -2   -1    0    0    0  501 -0.00000000000E+00  0.00000000000E+00  0.10100288290E+04  0.10100288290E+04  0.25500000000E-02 0.  1.
          2   -1    0    0  501    0  0.00000000000E+00 -0.00000000000E+00 -0.35087665617E+04  0.35087665617E+04  0.25500000000E-02 0. -1.
    8880023    1    1    2    0    0 -0.10564636205E+04 -0.52779078997E+03 -0.29501456253E+04  0.32452808686E+04  0.65864270000E+03 0. -1.
    8880022    1    1    2    0    0  0.10564636205E+04  0.52779078997E+03  0.45140789265E+03  0.12735145221E+04  0.15294330000E+03 0.  0.
<mgrwt>
<rscale>  0 0.13099262E+04</rscale>
<asrwt>0</asrwt>
<pdfrwt beam="1">  1        2 0.53981024E+00 0.13522162E+04</pdfrwt>
<pdfrwt beam="2">  1       -2 0.15538905E+00 0.13522162E+04</pdfrwt>
<totfact> 0.21239929E-01</totfact>
</mgrwt>
</event>
<event>
 4    2  0.3747163E-007  0.6786397E+03  0.7818608E-02  0.1010104E+00
         -2   -1    0    0    0  501 -0.00000000000E+00  0.00000000000E+00  0.30560990630E+03  0.30560990631E+03  0.25500000000E-02 0.  1.
          2   -1    0    0  501    0  0.00000000000E+00 -0.00000000000E+00 -0.13104358470E+04  0.13104358470E+04  0.25500000000E-02 0. -1.
    8880023    1    1    2    0    0 -0.24306970024E+02 -0.16171226892E+03 -0.11597869757E+04  0.13437476407E+04  0.65864270000E+03 0. -1.
    8880022    1    1    2    0    0  0.24306970024E+02  0.16171226892E+03  0.15496103502E+03  0.27229811255E+03  0.15294330000E+03 0.  0.
<mgrwt>
<rscale>  0 0.51433407E+03</rscale>
<asrwt>0</asrwt>
<pdfrwt beam="1">  1        2 0.20160551E+00 0.67863974E+03</pdfrwt>
<pdfrwt beam="2">  1       -2 0.47016909E-01 0.67863974E+03</pdfrwt>
<totfact> 0.71631733E+01</totfact>
</mgrwt>
</event>
<event>
 4    2  0.3747163E-007  0.6897664E+03  0.7818608E-02  0.1004264E+00
          2   -1    0    0  501    0  0.00000000000E+00  0.00000000000E+00  0.74409210337E+03  0.74409210337E+03  0.25500000000E-02 0. -1.
         -2   -1    0    0    0  501 -0.00000000000E+00 -0.00000000000E+00 -0.68390684382E+03  0.68390684383E+03  0.25500000000E-02 0.  1.
    8880023    1    1    2    0    0 -0.80485920737E+01 -0.20470138820E+03  0.54554185356E+03  0.87942797227E+03  0.65864270000E+03 0. -1.
    8880022    1    1    2    0    0  0.80485920737E+01  0.20470138820E+03 -0.48535659401E+03  0.54857097493E+03  0.15294330000E+03 0.  0.
<mgrwt>
<rscale>  0 0.53819513E+03</rscale>
<asrwt>0</asrwt>
<pdfrwt beam="1">  1        2 0.11447571E+00 0.68976637E+03</pdfrwt>
<pdfrwt beam="2">  1       -2 0.10521644E+00 0.68976637E+03</pdfrwt>
<totfact> 0.28250904E+01</totfact>
</mgrwt>
</event>
<event>
 4    2  0.3747163E-007  0.8370948E+03  0.7818608E-02  0.9635683E-01
          2   -1    0    0  501    0  0.00000000000E+00  0.00000000000E+00  0.69530721525E+03  0.69530721525E+03  0.25500000000E-02 0. -1.
         -2   -1    0    0    0  501 -0.00000000000E+00 -0.00000000000E+00 -0.19448340209E+04  0.19448340209E+04  0.25500000000E-02 0.  1.
    8880023    1    1    2    0    0 -0.28855469487E+03 -0.42854827247E+03  0.38332641103E+03  0.92068820858E+03  0.65864270000E+03 0. -1.
    8880022    1    1    2    0    0  0.28855469487E+03  0.42854827247E+03 -0.16328532167E+04  0.17194530276E+04  0.15294330000E+03 0.  0.
<mgrwt>
<rscale>  0 0.74978811E+03</rscale>
<asrwt>0</asrwt>
<pdfrwt beam="1">  1        2 0.10697034E+00 0.83709476E+03</pdfrwt>
<pdfrwt beam="2">  1       -2 0.29920523E+00 0.83709476E+03</pdfrwt>
<totfact> 0.13657069E+00</totfact>
</mgrwt>
</event>
<event>
 4    2  0.3747163E-007  0.1202372E+04  0.7818608E-02  0.9154820E-01
          2   -1    0    0  501    0  0.00000000000E+00  0.00000000000E+00  0.26024961184E+04  0.26024961184E+04  0.25500000000E-02 0. -1.
         -2   -1    0    0    0  501 -0.00000000000E+00 -0.00000000000E+00 -0.97073106701E+03  0.97073106702E+03  0.25500000000E-02 0.  1.
    8880023    1    1    2    0    0 -0.57576356892E+03  0.82485457272E+03 -0.42765856219E+03  0.12761625310E+04  0.65864270000E+03 0.  1.
    8880022    1    1    2    0    0  0.57576356892E+03 -0.82485457272E+03  0.20594236136E+04  0.22970646544E+04  0.15294330000E+03 0.  0.
<mgrwt>
<rscale>  0 0.11532181E+04</rscale>
<asrwt>0</asrwt>
<pdfrwt beam="1">  1        2 0.40038402E+00 0.12023722E+04</pdfrwt>
<pdfrwt beam="2">  1       -2 0.14934324E+00 0.12023722E+04</pdfrwt>
<totfact> 0.89984423E-01</totfact>
</mgrwt>
</event>
<event>
 4    2  0.3747163E-007  0.6912793E+03  0.7818608E-02  0.1003550E+00
          2   -1    0    0  501    0  0.00000000000E+00  0.00000000000E+00  0.16211777228E+04  0.16211777228E+04  0.25500000000E-02 0. -1.
         -2   -1    0    0    0  501 -0.00000000000E+00 -0.00000000000E+00 -0.14472069092E+03  0.14472069094E+03  0.25500000000E-02 0.  1.
    8880023    1    1    2    0    0  0.20871962259E+03  0.22202477993E+02  0.12117452752E+04  0.13950604464E+04  0.65864270000E+03 0.  0.
    8880022    1    1    2    0    0 -0.20871962259E+03 -0.22202477993E+02  0.26471175668E+03  0.37083796734E+03  0.15294330000E+03 0.  0.
<mgrwt>
<rscale>  0 0.54120485E+03</rscale>
<asrwt>0</asrwt>
<pdfrwt beam="1">  1        2 0.24941195E+00 0.69127928E+03</pdfrwt>
<pdfrwt beam="2">  1       -2 0.22264722E-01 0.69127928E+03</pdfrwt>
<totfact> 0.19569404E+02</totfact>
</mgrwt>
</event>
<event>
 4    2  0.3747163E-007  0.7357866E+03  0.7818608E-02  0.9872395E-01
          2   -1    0    0  501    0  0.00000000000E+00  0.00000000000E+00  0.42422098941E+04  0.42422098941E+04  0.25500000000E-02 0. -1.
         -2   -1    0    0    0  501 -0.00000000000E+00 -0.00000000000E+00 -0.12547340349E+03  0.12547340352E+03  0.25500000000E-02 0.  1.
    8880023    1    1    2    0    0 -0.92144397223E+02  0.31477148017E+03  0.38459484579E+04  0.39156993528E+04  0.65864270000E+03 0. -1.
    8880022    1    1    2    0    0  0.92144397223E+02 -0.31477148017E+03  0.27078803269E+03  0.45198394478E+03  0.15294330000E+03 0.  0.
<mgrwt>
<rscale>  0 0.61618001E+03</rscale>
<asrwt>0</asrwt>
<pdfrwt beam="1">  1        2 0.65264763E+00 0.73578657E+03</pdfrwt>
<pdfrwt beam="2">  1       -2 0.19303602E-01 0.73578657E+03</pdfrwt>
<totfact> 0.54294653E+00</totfact>
</mgrwt>
</event>
<event>
 4    2  0.3747163E-007  0.7823442E+03  0.7818608E-02  0.9750359E-01
         -2   -1    0    0    0  501 -0.00000000000E+00  0.00000000000E+00  0.59682011242E+03  0.59682011243E+03  0.25500000000E-02 0.  1.
          2   -1    0    0  501    0  0.00000000000E+00 -0.00000000000E+00 -0.86842385783E+03  0.86842385783E+03  0.25500000000E-02 0. -1.
    8880023    1    1    2    0    0  0.30841464059E+03 -0.28832737132E+03  0.20669172540E+03  0.80918720899E+03  0.65864270000E+03 0.  1.
    8880022    1    1    2    0    0 -0.30841464059E+03  0.28832737132E+03 -0.47829547081E+03  0.65605676126E+03  0.15294330000E+03 0.  0.
<mgrwt>
<rscale>  0 0.68095991E+03</rscale>
<asrwt>0</asrwt>
<pdfrwt beam="1">  1        2 0.13360367E+00 0.78234421E+03</pdfrwt>
<pdfrwt beam="2">  1       -2 0.91818479E-01 0.78234421E+03</pdfrwt>
<totfact> 0.31461380E+01</totfact>
</mgrwt>
</event>
<event>
 4    2  0.3747163E-007  0.8653660E+03  0.7818608E-02  0.9584089E-01
          2   -1    0    0  501    0  0.00000000000E+00  0.00000000000E+00  0.17078585586E+04  0.17078585586E+04  0.25500000000E-02 0. -1.
         -2   -1    0    0    0  501 -0.00000000000E+00 -0.00000000000E+00 -0.38065584997E+03  0.38065584998E+03  0.25500000000E-02 0.  1.
    8880023    1    1    2    0    0 -0.13349734319E+03 -0.54518490074E+03  0.31475883576E+03  0.92083193232E+03  0.65864270000E+03 0.  0.
    8880022    1    1    2    0    0  0.13349734319E+03  0.54518490074E+03  0.10124438728E+04  0.11676824762E+04  0.15294330000E+03 0.  0.
<mgrwt>
<rscale>  0 0.78358307E+03</rscale>
<asrwt>0</asrwt>
<pdfrwt beam="1">  1        2 0.26274747E+00 0.86536601E+03</pdfrwt>
<pdfrwt beam="2">  1       -2 0.58562438E-01 0.86536601E+03</pdfrwt>
<totfact> 0.26828908E+01</totfact>
</mgrwt>
</event>
<event>
 4    2  0.5016659E-007  0.6604204E+03  0.7818608E-02  0.1023730E+00
         -2   -1    0    0    0  501 -0.00000000000E+00  0.00000000000E+00  0.23412854116E+04  0.23412854116E+04  0.25500000000E-02 0.  1.
          2   -1    0    0  501    0  0.00000000000E+00 -0.00000000000E+00 -0.12673020599E+04  0.12673020599E+04  0.25500000000E-02 0. -1.
    8880023    1    1    2    0    0  0.99990729200E+00  0.48413368182E+02 -0.11782146298E+04  0.13506830769E+04  0.65864270000E+03 0. -1.
    8880022    1    1    2    0    0 -0.99990729200E+00 -0.48413368182E+02  0.22521979816E+04  0.22579043946E+04  0.15294330000E+03 0.  0.
<mgrwt>
<rscale>  0 0.46364336E+03</rscale>
<asrwt>0</asrwt>
<pdfrwt beam="1">  1        2 0.19496955E+00 0.66042037E+03</pdfrwt>
<pdfrwt beam="2">  1       -2 0.36019775E+00 0.66042037E+03</pdfrwt>
<totfact> 0.25250190E-01</totfact>
</mgrwt>
</event>
<event>
 4    2  0.3747163E-007  0.9538100E+03  0.7818608E-02  0.9444653E-01
         -2   -1    0    0    0  501 -0.00000000000E+00  0.00000000000E+00  0.11112941689E+04  0.11112941689E+04  0.25500000000E-02 0.  1.
          2   -1    0    0  501    0  0.00000000000E+00 -0.00000000000E+00 -0.83874630071E+03  0.83874630071E+03  0.25500000000E-02 0. -1.
    8880023    1    1    2    0    0 -0.37428214172E+02  0.68887037759E+03 -0.34228659937E+03  0.10133674510E+04  0.65864270000E+03 0. -1.
    8880022    1    1    2    0    0  0.37428214172E+02 -0.68887037759E+03  0.61483446759E+03  0.93667301866E+03  0.15294330000E+03 0.  1.
<mgrwt>
<rscale>  0 0.88490243E+03</rscale>
<asrwt>0</asrwt>
<pdfrwt beam="1">  1        2 0.12903789E+00 0.95380998E+03</pdfrwt>
<pdfrwt beam="2">  1       -2 0.17096833E+00 0.95380998E+03</pdfrwt>
<totfact> 0.67533141E+00</totfact>
</mgrwt>
</event>
<event>
 4    2  0.3747163E-007  0.6802289E+03  0.7818608E-02  0.1009194E+00
         -2   -1    0    0    0  501 -0.00000000000E+00  0.00000000000E+00  0.62121960825E+03  0.62121960825E+03  0.25500000000E-02 0.  1.
          2   -1    0    0  501    0  0.00000000000E+00 -0.00000000000E+00 -0.12826744541E+04  0.12826744541E+04  0.25500000000E-02 0. -1.
    8880023    1    1    2    0    0  0.71745912970E+02 -0.15412242743E+03 -0.11660180104E+04  0.13499294076E+04  0.65864270000E+03 0. -1.
    8880022    1    1    2    0    0 -0.71745912970E+02  0.15412242743E+03  0.50456316456E+03  0.55396465475E+03  0.15294330000E+03 0.  0.
<mgrwt>
<rscale>  0 0.51796047E+03</rscale>
<asrwt>0</asrwt>
<pdfrwt beam="1">  1        2 0.19733453E+00 0.68022894E+03</pdfrwt>
<pdfrwt beam="2">  1       -2 0.95572248E-01 0.68022894E+03</pdfrwt>
<totfact> 0.16010314E+01</totfact>
</mgrwt>
</event>
<event>
 4    2  0.3747163E-007  0.7066088E+03  0.7818608E-02  0.9970816E-01
          2   -1    0    0  501    0  0.00000000000E+00  0.00000000000E+00  0.17978364812E+04  0.17978364812E+04  0.25500000000E-02 0. -1.
         -2   -1    0    0    0  501 -0.00000000000E+00 -0.00000000000E+00 -0.22124294511E+03  0.22124294512E+03  0.25500000000E-02 0.  1.
    8880023    1    1    2    0    0  0.25545127488E+03 -0.15180359096E+02  0.15690984873E+04  0.17208620125E+04  0.65864270000E+03 0.  0.
    8880022    1    1    2    0    0 -0.25545127488E+03  0.15180359096E+02  0.74950488638E+01  0.29821741383E+03  0.15294330000E+03 0.  0.
<mgrwt>
<rscale>  0 0.56948624E+03</rscale>
<asrwt>0</asrwt>
<pdfrwt beam="1">  1        2 0.27659022E+00 0.70660881E+03</pdfrwt>
<pdfrwt beam="2">  1       -2 0.34037377E-01 0.70660881E+03</pdfrwt>
<totfact> 0.71955205E+01</totfact>
</mgrwt>
</event>
<event>
 4    2  0.3747163E-007  0.8771416E+03  0.7818608E-02  0.9563770E-01
         -2   -1    0    0    0  501 -0.00000000000E+00  0.00000000000E+00  0.15271568551E+04  0.15271568551E+04  0.25500000000E-02 0.  1.
          2   -1    0    0  501    0  0.00000000000E+00 -0.00000000000E+00 -0.51747841574E+03  0.51747841575E+03  0.25500000000E-02 0. -1.
    8880023    1    1    2    0    0  0.57760634954E+03  0.44024171210E+02  0.76784055935E+01  0.87717523156E+03  0.65864270000E+03 0. -1.
    8880022    1    1    2    0    0 -0.57760634954E+03 -0.44024171210E+02  0.10020000338E+04  0.11674600393E+04  0.15294330000E+03 0.  0.
<mgrwt>
<rscale>  0 0.79741220E+03</rscale>
<asrwt>0</asrwt>
<pdfrwt beam="1">  1        2 0.79612064E-01 0.87714162E+03</pdfrwt>
<pdfrwt beam="2">  1       -2 0.23494721E+00 0.87714162E+03</pdfrwt>
<totfact> 0.47606919E+00</totfact>
</mgrwt>
</event>
<event>
 4    2  0.3747163E-007  0.6958539E+03  0.7818608E-02  0.1001486E+00
         -2   -1    0    0    0  501 -0.00000000000E+00  0.00000000000E+00  0.44454360677E+04  0.44454360677E+04  0.25500000000E-02 0.  1.
          2   -1    0    0  501    0  0.00000000000E+00 -0.00000000000E+00 -0.73729163789E+02  0.73729163833E+02  0.25500000000E-02 0. -1.
    8880023    1    1    2    0    0  0.20526511081E+03  0.90932391024E+02  0.17477044727E+04  0.18811389092E+04  0.65864270000E+03 0.  0.
    8880022    1    1    2    0    0 -0.20526511081E+03 -0.90932391024E+02  0.26240024312E+04  0.26380263223E+04  0.15294330000E+03 0.  0.
<mgrwt>
<rscale>  0 0.55003620E+03</rscale>
<asrwt>0</asrwt>
<pdfrwt beam="1">  1        2 0.11342948E-01 0.69585392E+03</pdfrwt>
<pdfrwt beam="2">  1       -2 0.68391325E+00 0.69585392E+03</pdfrwt>
<totfact> 0.15521033E-01</totfact>
</mgrwt>
</event>
<event>
 4    2  0.3747163E-007  0.6704711E+03  0.7818608E-02  0.1015327E+00
          2   -1    0    0  501    0  0.00000000000E+00  0.00000000000E+00  0.12143321120E+03  0.12143321123E+03  0.25500000000E-02 0. -1.
         -2   -1    0    0    0  501 -0.00000000000E+00 -0.00000000000E+00 -0.17193870928E+04  0.17193870928E+04  0.25500000000E-02 0.  1.
    8880023    1    1    2    0    0  0.57575728552E+02 -0.11138349973E+03 -0.94581091182E+03  0.11593488412E+04  0.65864270000E+03 0. -1.
    8880022    1    1    2    0    0 -0.57575728552E+02  0.11138349973E+03 -0.65214296979E+03  0.68147146279E+03  0.15294330000E+03 0. -1.
<mgrwt>
<rscale>  0 0.49411158E+03</rscale>
<asrwt>0</asrwt>
<pdfrwt beam="1">  1        2 0.18682034E-01 0.67047107E+03</pdfrwt>
<pdfrwt beam="2">  1       -2 0.26452107E+00 0.67047107E+03</pdfrwt>
<totfact> 0.16734685E+01</totfact>
</mgrwt>
</event>
<event>
 4    2  0.3747163E-007  0.7621913E+03  0.7818608E-02  0.9799467E-01
          2   -1    0    0  501    0  0.00000000000E+00  0.00000000000E+00  0.21019325055E+04  0.21019325055E+04  0.25500000000E-02 0. -1.
         -2   -1    0    0    0  501 -0.00000000000E+00 -0.00000000000E+00 -0.16842945687E+03  0.16842945689E+03  0.25500000000E-02 0.  1.
    8880023    1    1    2    0    0 -0.11538651669E+03  0.36580238208E+03  0.14179855980E+04  0.16098505500E+04  0.65864270000E+03 0. -1.
    8880022    1    1    2    0    0  0.11538651669E+03 -0.36580238208E+03  0.51551745067E+03  0.66051141241E+03  0.15294330000E+03 0.  0.
<mgrwt>
<rscale>  0 0.65391153E+03</rscale>
<asrwt>0</asrwt>
<pdfrwt beam="1">  1        2 0.32337421E+00 0.76219134E+03</pdfrwt>
<pdfrwt beam="2">  1       -2 0.25912226E-01 0.76219134E+03</pdfrwt>
<totfact> 0.80915278E+01</totfact>
</mgrwt>
</event>
<event>
 4    2  0.3747163E-007  0.9435769E+03  0.7818608E-02  0.9459416E-01
         -2   -1    0    0    0  501 -0.00000000000E+00  0.00000000000E+00  0.12811149904E+04  0.12811149904E+04  0.25500000000E-02 0.  1.
          2   -1    0    0  501    0  0.00000000000E+00 -0.00000000000E+00 -0.10132733142E+04  0.10132733142E+04  0.25500000000E-02 0. -1.
    8880023    1    1    2    0    0 -0.65886340978E+03 -0.14975343314E+03  0.93803156861E+03  0.13305038570E+04  0.65864270000E+03 0.  1.
    8880022    1    1    2    0    0  0.65886340978E+03  0.14975343314E+03 -0.67018989240E+03  0.96388444763E+03  0.15294330000E+03 0.  0.
<mgrwt>
<rscale>  0 0.87343165E+03</rscale>
<asrwt>0</asrwt>
<pdfrwt beam="1">  1        2 0.15588820E+00 0.94357686E+03</pdfrwt>
<pdfrwt beam="2">  1       -2 0.19709461E+00 0.94357686E+03</pdfrwt>
<totfact> 0.34275120E+00</totfact>
</mgrwt>
</event>
<event>
 4    2  0.3747163E-007  0.7128416E+03  0.7818608E-02  0.9947597E-01
          2   -1    0    0  501    0  0.00000000000E+00  0.00000000000E+00  0.99926737702E+03  0.99926737702E+03  0.25500000000E-02 0. -1.
         -2   -1    0    0    0  501 -0.00000000000E+00 -0.00000000000E+00 -0.85356260167E+03  0.85356260167E+03  0.25500000000E-02 0.  1.
    8880023    1    1    2    0    0  0.12092816978E+03 -0.24435478778E+03  0.83384329551E+03  0.10970130958E+04  0.65864270000E+03 0. -1.
    8880022    1    1    2    0    0 -0.12092816978E+03  0.24435478778E+03 -0.68813852017E+03  0.75581688292E+03  0.15294330000E+03 0.  0.
<mgrwt>
<rscale>  0 0.58008978E+03</rscale>
<asrwt>0</asrwt>
<pdfrwt beam="1">  1        2 0.15373344E+00 0.71284156E+03</pdfrwt>
<pdfrwt beam="2">  1       -2 0.13131732E+00 0.71284156E+03</pdfrwt>
<totfact> 0.10908676E+01</totfact>
</mgrwt>
</event>
<event>
 4    2  0.4107575E-007  0.9726367E+03  0.7818608E-02  0.9418267E-01
         -2   -1    0    0    0  501 -0.00000000000E+00  0.00000000000E+00  0.11286819177E+04  0.11286819177E+04  0.25500000000E-02 0.  1.
          2   -1    0    0  501    0  0.00000000000E+00 -0.00000000000E+00 -0.21098299884E+04  0.21098299884E+04  0.25500000000E-02 0. -1.
    8880023    1    1    2    0    0 -0.10866105734E+03 -0.70739294218E+03 -0.18575109586E+04  0.20967520520E+04  0.65864270000E+03 0.  0.
    8880022    1    1    2    0    0  0.10866105734E+03  0.70739294218E+03  0.87636288791E+03  0.11417598541E+04  0.15294330000E+03 0.  0.
<mgrwt>
<rscale>  0 0.90587535E+03</rscale>
<asrwt>0</asrwt>
<pdfrwt beam="1">  1        2 0.32458923E+00 0.97263673E+03</pdfrwt>
<pdfrwt beam="2">  1       -2 0.17364337E+00 0.97263673E+03</pdfrwt>
<totfact> 0.11691656E+00</totfact>
</mgrwt>
</event>
<event>
 4    2  0.3747163E-007  0.7842234E+03  0.7818608E-02  0.9746008E-01
         -2   -1    0    0    0  501 -0.00000000000E+00  0.00000000000E+00  0.12612841053E+03  0.12612841056E+03  0.25500000000E-02 0.  1.
          2   -1    0    0  501    0  0.00000000000E+00 -0.00000000000E+00 -0.33610201552E+04  0.33610201552E+04  0.25500000000E-02 0. -1.
    8880023    1    1    2    0    0 -0.37180333314E+03  0.20726423411E+03 -0.25374863120E+04  0.26559072218E+04  0.65864270000E+03 0.  0.
    8880022    1    1    2    0    0  0.37180333314E+03 -0.20726423411E+03 -0.69740543267E+03  0.83124134390E+03  0.15294330000E+03 0.  0.
<mgrwt>
<rscale>  0 0.68342339E+03</rscale>
<asrwt>0</asrwt>
<pdfrwt beam="1">  1        2 0.51707996E+00 0.78422343E+03</pdfrwt>
<pdfrwt beam="2">  1       -2 0.19404373E-01 0.78422343E+03</pdfrwt>
<totfact> 0.24279162E+01</totfact>
</mgrwt>
</event>
<event>
 4    2  0.3747163E-007  0.7401684E+03  0.7818608E-02  0.9859457E-01
         -2   -1    0    0    0  501 -0.00000000000E+00  0.00000000000E+00  0.90908477915E+03  0.90908477915E+03  0.25500000000E-02 0.  1.
          2   -1    0    0  501    0  0.00000000000E+00 -0.00000000000E+00 -0.65678621915E+03  0.65678621916E+03  0.25500000000E-02 0. -1.
    8880023    1    1    2    0    0  0.22881837605E+02  0.33692061117E+03  0.67633275295E+03  0.10026341684E+04  0.65864270000E+03 0.  1.
    8880022    1    1    2    0    0 -0.22881837605E+02 -0.33692061117E+03 -0.42403419296E+03  0.56323682988E+03  0.15294330000E+03 0.  0.
<mgrwt>
<rscale>  0 0.62267065E+03</rscale>
<asrwt>0</asrwt>
<pdfrwt beam="1">  1        2 0.10104403E+00 0.74016842E+03</pdfrwt>
<pdfrwt beam="2">  1       -2 0.13985920E+00 0.74016842E+03</pdfrwt>
<totfact> 0.16226644E+01</totfact>
</mgrwt>
</event>
<event>
 4    2  0.3747163E-007  0.6673016E+03  0.7818608E-02  0.1017676E+00
          2   -1    0    0  501    0  0.00000000000E+00  0.00000000000E+00  0.10037608853E+04  0.10037608853E+04  0.25500000000E-02 0. -1.
         -2   -1    0    0    0  501 -0.00000000000E+00 -0.00000000000E+00 -0.71112711274E+03  0.71112711274E+03  0.25500000000E-02 0.  1.
    8880023    1    1    2    0    0 -0.10575751780E+03  0.17221756816E+02  0.87665754488E+03  0.11017349494E+04  0.65864270000E+03 0. -1.
    8880022    1    1    2    0    0  0.10575751780E+03 -0.17221756816E+02 -0.58402377229E+03  0.61315304867E+03  0.15294330000E+03 0.  0.
<mgrwt>
<rscale>  0 0.48534732E+03</rscale>
<asrwt>0</asrwt>
<pdfrwt beam="1">  1        2 0.15442475E+00 0.66730162E+03</pdfrwt>
<pdfrwt beam="2">  1       -2 0.10940417E+00 0.66730162E+03</pdfrwt>
<totfact> 0.17116296E+01</totfact>
</mgrwt>
</event>
<event>
 4    2  0.3747163E-007  0.6855244E+03  0.7818608E-02  0.1006357E+00
         -2   -1    0    0    0  501 -0.00000000000E+00  0.00000000000E+00  0.86168252952E+03  0.86168252953E+03  0.25500000000E-02 0.  1.
          2   -1    0    0  501    0  0.00000000000E+00 -0.00000000000E+00 -0.99455001194E+03  0.99455001194E+03  0.25500000000E-02 0. -1.
    8880023    1    1    2    0    0  0.18984643803E+03  0.95843734699E+01 -0.85390663844E+03  0.10950343756E+04  0.65864270000E+03 0. -1.
    8880022    1    1    2    0    0 -0.18984643803E+03 -0.95843734699E+01  0.72103915602E+03  0.76119816590E+03  0.15294330000E+03 0.  0.
<mgrwt>
<rscale>  0 0.52948638E+03</rscale>
<asrwt>0</asrwt>
<pdfrwt beam="1">  1        2 0.15300769E+00 0.68552442E+03</pdfrwt>
<pdfrwt beam="2">  1       -2 0.13256654E+00 0.68552442E+03</pdfrwt>
<totfact> 0.10761286E+01</totfact>
</mgrwt>
</event>
<event>
 4    2  0.3747163E-007  0.8096807E+03  0.7818608E-02  0.9690242E-01
         -2   -1    0    0    0  501 -0.00000000000E+00  0.00000000000E+00  0.12551773147E+03  0.12551773149E+03  0.25500000000E-02 0.  1.
          2   -1    0    0  501    0  0.00000000000E+00 -0.00000000000E+00 -0.42337998338E+04  0.42337998338E+04  0.25500000000E-02 0. -1.
    8880023    1    1    2    0    0 -0.39411363989E+03  0.25777337624E+03 -0.34002983386E+04  0.34953700337E+04  0.65864270000E+03 0.  0.
    8880022    1    1    2    0    0  0.39411363989E+03 -0.25777337624E+03 -0.70798376371E+03  0.86394753159E+03  0.15294330000E+03 0.  0.
<mgrwt>
<rscale>  0 0.71600740E+03</rscale>
<asrwt>0</asrwt>
<pdfrwt beam="1">  1        2 0.65135371E+00 0.80968073E+03</pdfrwt>
<pdfrwt beam="2">  1       -2 0.19310423E-01 0.80968073E+03</pdfrwt>
<totfact> 0.54308683E+00</totfact>
</mgrwt>
</event>
<event>
 4    2  0.3747163E-007  0.1029362E+04  0.7818608E-02  0.9344113E-01
         -2   -1    0    0    0  501 -0.00000000000E+00  0.00000000000E+00  0.87323282281E+03  0.87323282281E+03  0.25500000000E-02 0.  1.
          2   -1    0    0  501    0  0.00000000000E+00 -0.00000000000E+00 -0.19630561326E+04  0.19630561326E+04  0.25500000000E-02 0. -1.
    8880023    1    1    2    0    0  0.24422846352E+03 -0.75241489437E+03 -0.15854810886E+04  0.18903270099E+04  0.65864270000E+03 0. -1.
    8880022    1    1    2    0    0 -0.24422846352E+03  0.75241489437E+03  0.49565777884E+03  0.94596194553E+03  0.15294330000E+03 0.  0.
<mgrwt>
<rscale>  0 0.96821243E+03</rscale>
<asrwt>0</asrwt>
<pdfrwt beam="1">  1        2 0.30200863E+00 0.10293619E+04</pdfrwt>
<pdfrwt beam="2">  1       -2 0.13434351E+00 0.10293619E+04</pdfrwt>
<totfact> 0.27814311E+00</totfact>
</mgrwt>
</event>
<event>
 4    2  0.3747163E-007  0.9474018E+03  0.7818608E-02  0.9453862E-01
          2   -1    0    0  501    0  0.00000000000E+00  0.00000000000E+00  0.21575469032E+04  0.21575469032E+04  0.25500000000E-02 0. -1.
         -2   -1    0    0    0  501 -0.00000000000E+00 -0.00000000000E+00 -0.67239342210E+03  0.67239342210E+03  0.25500000000E-02 0.  1.
    8880023    1    1    2    0    0 -0.41690240957E+03 -0.53847215871E+03  0.18230208338E+04  0.20545011686E+04  0.65864270000E+03 0. -1.
    8880022    1    1    2    0    0  0.41690240957E+03  0.53847215871E+03 -0.33786735269E+03  0.77543915676E+03  0.15294330000E+03 0.  0.
<mgrwt>
<rscale>  0 0.87772537E+03</rscale>
<asrwt>0</asrwt>
<pdfrwt beam="1">  1        2 0.33193030E+00 0.94740176E+03</pdfrwt>
<pdfrwt beam="2">  1       -2 0.10344514E+00 0.94740176E+03</pdfrwt>
<totfact> 0.41955965E+00</totfact>
</mgrwt>
</event>
<event>
 4    2  0.3747163E-007  0.7633828E+03  0.7818608E-02  0.9796427E-01
          2   -1    0    0  501    0  0.00000000000E+00  0.00000000000E+00  0.21052957049E+04  0.21052957049E+04  0.25500000000E-02 0. -1.
         -2   -1    0    0    0  501 -0.00000000000E+00 -0.00000000000E+00 -0.55605019121E+03  0.55605019121E+03  0.25500000000E-02 0.  1.
    8880023    1    1    2    0    0 -0.47460700342E+02 -0.38300200367E+03  0.19439843600E+04  0.20884990905E+04  0.65864270000E+03 0. -1.
    8880022    1    1    2    0    0  0.47460700342E+02  0.38300200367E+03 -0.39473884630E+03  0.57284680560E+03  0.15294330000E+03 0.  0.
<mgrwt>
<rscale>  0 0.65554628E+03</rscale>
<asrwt>0</asrwt>
<pdfrwt beam="1">  1        2 0.32389164E+00 0.76338277E+03</pdfrwt>
<pdfrwt beam="2">  1       -2 0.85546184E-01 0.76338277E+03</pdfrwt>
<totfact> 0.71805200E+00</totfact>
</mgrwt>
</event>
<event>
 4    2  0.3747163E-007  0.9592022E+03  0.7818608E-02  0.9436996E-01
         -2   -1    0    0    0  501 -0.00000000000E+00  0.00000000000E+00  0.11667728894E+04  0.11667728894E+04  0.25500000000E-02 0.  1.
          2   -1    0    0  501    0  0.00000000000E+00 -0.00000000000E+00 -0.65401674427E+03  0.65401674427E+03  0.25500000000E-02 0. -1.
    8880023    1    1    2    0    0  0.36616233983E+03 -0.59345083222E+03  0.31296798542E+02  0.95971268890E+03  0.65864270000E+03 0. -1.
    8880022    1    1    2    0    0 -0.36616233983E+03  0.59345083222E+03  0.48145934656E+03  0.86107694475E+03  0.15294330000E+03 0.  1.
<mgrwt>
<rscale>  0 0.89092611E+03</rscale>
<asrwt>0</asrwt>
<pdfrwt beam="1">  1        2 0.10061796E+00 0.95920225E+03</pdfrwt>
<pdfrwt beam="2">  1       -2 0.17950352E+00 0.95920225E+03</pdfrwt>
<totfact> 0.81270382E+00</totfact>
</mgrwt>
</event>
<event>
 4    2  0.3747163E-007  0.1968348E+04  0.7818608E-02  0.8634718E-01
         -2   -1    0    0    0  501 -0.00000000000E+00  0.00000000000E+00  0.20817980143E+04  0.20817980143E+04  0.25500000000E-02 0.  1.
          2   -1    0    0  501    0  0.00000000000E+00 -0.00000000000E+00 -0.23749087970E+04  0.23749087970E+04  0.25500000000E-02 0. -1.
    8880023    1    1    2    0    0 -0.95865715859E+03 -0.15879416652E+04  0.98291112261E+03  0.22001151700E+04  0.65864270000E+03 0.  0.
    8880022    1    1    2    0    0  0.95865715859E+03  0.15879416652E+04 -0.12760219053E+04  0.22565916413E+04  0.15294330000E+03 0.  0.
<mgrwt>
<rscale>  0 0.19409895E+04</rscale>
<asrwt>0</asrwt>
<pdfrwt beam="1">  1        2 0.36537059E+00 0.19683477E+04</pdfrwt>
<pdfrwt beam="2">  1       -2 0.32027662E+00 0.19683477E+04</pdfrwt>
<totfact> 0.87143619E-02</totfact>
</mgrwt>
</event>
<event>
 4    2  0.3747163E-007  0.6629009E+03  0.7818608E-02  0.1021363E+00
         -2   -1    0    0    0  501 -0.00000000000E+00  0.00000000000E+00  0.91262816393E+02  0.91262816429E+02  0.25500000000E-02 0.  1.
          2   -1    0    0  501    0  0.00000000000E+00 -0.00000000000E+00 -0.31122511754E+04  0.31122511754E+04  0.25500000000E-02 0. -1.
    8880023    1    1    2    0    0 -0.47358055339E+02  0.58176923967E+02 -0.29419704004E+04  0.30157299917E+04  0.65864270000E+03 0. -1.
    8880022    1    1    2    0    0  0.47358055339E+02 -0.58176923967E+02 -0.79017958556E+02  0.18778400006E+03  0.15294330000E+03 0.  0.
<mgrwt>
<rscale>  0 0.47197797E+03</rscale>
<asrwt>0</asrwt>
<pdfrwt beam="1">  1        2 0.47880779E+00 0.66290086E+03</pdfrwt>
<pdfrwt beam="2">  1       -2 0.14040436E-01 0.66290086E+03</pdfrwt>
<totfact> 0.62143593E+01</totfact>
</mgrwt>
</event>
<event>
 4    2  0.3747163E-007  0.6905591E+03  0.7818608E-02  0.1003888E+00
          2   -1    0    0  501    0  0.00000000000E+00  0.00000000000E+00  0.16630732259E+04  0.16630732259E+04  0.25500000000E-02 0. -1.
         -2   -1    0    0    0  501 -0.00000000000E+00 -0.00000000000E+00 -0.38554443227E+03  0.38554443228E+03  0.25500000000E-02 0.  1.
    8880023    1    1    2    0    0  0.19806940586E+03 -0.61888232631E+02  0.15356766549E+04  0.16837976831E+04  0.65864270000E+03 0. -1.
    8880022    1    1    2    0    0 -0.19806940586E+03  0.61888232631E+02 -0.25814786132E+03  0.36481997505E+03  0.15294330000E+03 0.  0.
<mgrwt>
<rscale>  0 0.53977802E+03</rscale>
<asrwt>0</asrwt>
<pdfrwt beam="1">  1        2 0.25585742E+00 0.69055908E+03</pdfrwt>
<pdfrwt beam="2">  1       -2 0.59314528E-01 0.69055908E+03</pdfrwt>
<totfact> 0.28215293E+01</totfact>
</mgrwt>
</event>
<event>
 4    2  0.3747163E-007  0.1330673E+04  0.7818608E-02  0.9039514E-01
          2   -1    0    0  501    0  0.00000000000E+00  0.00000000000E+00  0.34354916171E+04  0.34354916171E+04  0.25500000000E-02 0. -1.
         -2   -1    0    0    0  501 -0.00000000000E+00 -0.00000000000E+00 -0.74032842566E+03  0.74032842567E+03  0.25500000000E-02 0.  1.
    8880023    1    1    2    0    0  0.77293824884E+03 -0.85991163117E+03  0.26993386143E+04  0.30095050608E+04  0.65864270000E+03 0.  0.
    8880022    1    1    2    0    0 -0.77293824884E+03  0.85991163117E+03 -0.41754229043E+01  0.11663149820E+04  0.15294330000E+03 0.  0.
<mgrwt>
<rscale>  0 0.12875286E+04</rscale>
<asrwt>0</asrwt>
<pdfrwt beam="1">  1        2 0.52853717E+00 0.13306734E+04</pdfrwt>
<pdfrwt beam="2">  1       -2 0.11389668E+00 0.13306734E+04</pdfrwt>
<totfact> 0.53270044E-01</totfact>
</mgrwt>
</event>
<event>
 4    2  0.3747163E-007  0.6654999E+03  0.7818608E-02  0.1019118E+00
          2   -1    0    0  501    0  0.00000000000E+00  0.00000000000E+00  0.12706174670E+04  0.12706174670E+04  0.25500000000E-02 0. -1.
         -2   -1    0    0    0  501 -0.00000000000E+00 -0.00000000000E+00 -0.16768736022E+03  0.16768736024E+03  0.25500000000E-02 0.  1.
    8880023    1    1    2    0    0  0.94579516662E+02 -0.11602849306E+02  0.10623619364E+04  0.12535960279E+04  0.65864270000E+03 0. -1.
    8880022    1    1    2    0    0 -0.94579516662E+02  0.11602849306E+02  0.40568170408E+02  0.18470879933E+03  0.15294330000E+03 0.  0.
<mgrwt>
<rscale>  0 0.48006373E+03</rscale>
<asrwt>0</asrwt>
<pdfrwt beam="1">  1        2 0.19547960E+00 0.66549990E+03</pdfrwt>
<pdfrwt beam="2">  1       -2 0.25798056E-01 0.66549990E+03</pdfrwt>
<totfact> 0.23684281E+02</totfact>
</mgrwt>
</event>
<event>
 4    2  0.3747163E-007  0.9218667E+03  0.7818608E-02  0.9491803E-01
         -2   -1    0    0    0  501 -0.00000000000E+00  0.00000000000E+00  0.75835497793E+03  0.75835497794E+03  0.25500000000E-02 0.  1.
          2   -1    0    0  501    0  0.00000000000E+00 -0.00000000000E+00 -0.27369484868E+04  0.27369484868E+04  0.25500000000E-02 0. -1.
    8880023    1    1    2    0    0  0.20414809866E+03 -0.61184272957E+03 -0.24918718713E+04  0.26569274738E+04  0.65864270000E+03 0. -1.
    8880022    1    1    2    0    0 -0.20414809866E+03  0.61184272957E+03  0.51327836239E+03  0.83837599096E+03  0.15294330000E+03 0.  0.
<mgrwt>
<rscale>  0 0.84890877E+03</rscale>
<asrwt>0</asrwt>
<pdfrwt beam="1">  1        2 0.42106899E+00 0.92186668E+03</pdfrwt>
<pdfrwt beam="2">  1       -2 0.11667000E+00 0.92186668E+03</pdfrwt>
<totfact> 0.14725337E+00</totfact>
</mgrwt>
</event>
<event>
 4    2  0.3747163E-007  0.7129484E+03  0.7818608E-02  0.9947211E-01
         -2   -1    0    0    0  501 -0.00000000000E+00  0.00000000000E+00  0.14259440072E+04  0.14259440072E+04  0.25500000000E-02 0.  1.
          2   -1    0    0  501    0  0.00000000000E+00 -0.00000000000E+00 -0.10470817219E+04  0.10470817219E+04  0.25500000000E-02 0. -1.
    8880023    1    1    2    0    0 -0.16749670986E+03  0.21547634672E+03 -0.90471603195E+03  0.11518708732E+04  0.65864270000E+03 0. -1.
    8880022    1    1    2    0    0  0.16749670986E+03 -0.21547634672E+03  0.12835783173E+04  0.13211548559E+04  0.15294330000E+03 0.  0.
<mgrwt>
<rscale>  0 0.58026793E+03</rscale>
<asrwt>0</asrwt>
<pdfrwt beam="1">  1        2 0.16108950E+00 0.71294839E+03</pdfrwt>
<pdfrwt beam="2">  1       -2 0.21937600E+00 0.71294839E+03</pdfrwt>
<totfact> 0.24254201E+00</totfact>
</mgrwt>
</event>
<event>
 4    2  0.3747163E-007  0.8876531E+03  0.7818608E-02  0.9546150E-01
          2   -1    0    0  501    0  0.00000000000E+00  0.00000000000E+00  0.20362429939E+04  0.20362429939E+04  0.25500000000E-02 0. -1.
         -2   -1    0    0    0  501 -0.00000000000E+00 -0.00000000000E+00 -0.35118246082E+03  0.35118246083E+03  0.25500000000E-02 0.  1.
    8880023    1    1    2    0    0  0.89001360817E+02  0.58838468154E+03  0.15048216923E+04  0.17471165695E+04  0.65864270000E+03 0.  0.
    8880022    1    1    2    0    0 -0.89001360817E+02 -0.58838468154E+03  0.18023884076E+03  0.64030888518E+03  0.15294330000E+03 0.  0.
<mgrwt>
<rscale>  0 0.80965205E+03</rscale>
<asrwt>0</asrwt>
<pdfrwt beam="1">  1        2 0.31326816E+00 0.88765308E+03</pdfrwt>
<pdfrwt beam="2">  1       -2 0.54028069E-01 0.88765308E+03</pdfrwt>
<totfact> 0.20921367E+01</totfact>
</mgrwt>
</event>
<event>
 4    2  0.3747163E-007  0.6686927E+03  0.7818608E-02  0.1016618E+00
          2   -1    0    0  501    0  0.00000000000E+00  0.00000000000E+00  0.50006275685E+04  0.50006275685E+04  0.25500000000E-02 0. -1.
         -2   -1    0    0    0  501 -0.00000000000E+00 -0.00000000000E+00 -0.39279385777E+02  0.39279385860E+02  0.25500000000E-02 0.  1.
    8880023    1    1    2    0    0 -0.11528544054E+03 -0.70006408423E+01  0.42875504952E+04  0.43393823520E+04  0.65864270000E+03 0. -1.
    8880022    1    1    2    0    0  0.11528544054E+03  0.70006408423E+01  0.67379768748E+03  0.70052460231E+03  0.15294330000E+03 0.  1.
<mgrwt>
<rscale>  0 0.48927117E+03</rscale>
<asrwt>0</asrwt>
<pdfrwt beam="1">  1        2 0.76932683E+00 0.66869272E+03</pdfrwt>
<pdfrwt beam="2">  1       -2 0.60429863E-02 0.66869272E+03</pdfrwt>
<totfact> 0.62927538E+00</totfact>
</mgrwt>
</event>
<event>
 4    2  0.3747163E-007  0.1504222E+04  0.7818608E-02  0.8906660E-01
          2   -1    0    0  501    0  0.00000000000E+00  0.00000000000E+00  0.34344895982E+04  0.34344895982E+04  0.25500000000E-02 0. -1.
         -2   -1    0    0    0  501 -0.00000000000E+00 -0.00000000000E+00 -0.74198783021E+03  0.74198783021E+03  0.25500000000E-02 0.  1.
    8880023    1    1    2    0    0  0.75708945436E+03 -0.11205751722E+04  0.48009860396E+03  0.15789800614E+04  0.65864270000E+03 0.  0.
    8880022    1    1    2    0    0 -0.75708945436E+03  0.11205751722E+04  0.22124031640E+04  0.25974973670E+04  0.15294330000E+03 0.  0.
<mgrwt>
<rscale>  0 0.14670564E+04</rscale>
<asrwt>0</asrwt>
<pdfrwt beam="1">  1        2 0.52838302E+00 0.15042218E+04</pdfrwt>
<pdfrwt beam="2">  1       -2 0.11415197E+00 0.15042218E+04</pdfrwt>
<totfact> 0.51918070E-01</totfact>
</mgrwt>
</event>
<event>
 4    2  0.3747163E-007  0.7965705E+03  0.7818608E-02  0.9718261E-01
          2   -1    0    0  501    0  0.00000000000E+00  0.00000000000E+00  0.74584080736E+03  0.74584080737E+03  0.25500000000E-02 0. -1.
         -2   -1    0    0    0  501 -0.00000000000E+00 -0.00000000000E+00 -0.31346501571E+04  0.31346501571E+04  0.25500000000E-02 0.  1.
    8880023    1    1    2    0    0  0.44751697367E+03  0.21044882004E+02  0.50831869567E+03  0.94494043803E+03  0.65864270000E+03 0. -1.
    8880022    1    1    2    0    0 -0.44751697367E+03 -0.21044882004E+02 -0.28971280454E+04  0.29355505264E+04  0.15294330000E+03 0.  0.
<mgrwt>
<rscale>  0 0.69939873E+03</rscale>
<asrwt>0</asrwt>
<pdfrwt beam="1">  1        2 0.11474474E+00 0.79657048E+03</pdfrwt>
<pdfrwt beam="2">  1       -2 0.48225386E+00 0.79657048E+03</pdfrwt>
<totfact> 0.85028990E-02</totfact>
</mgrwt>
</event>
<event>
 4    2  0.3747163E-007  0.1025043E+04  0.7818608E-02  0.9349503E-01
          2   -1    0    0  501    0  0.00000000000E+00  0.00000000000E+00  0.11640297531E+04  0.11640297531E+04  0.25500000000E-02 0. -1.
         -2   -1    0    0    0  501 -0.00000000000E+00 -0.00000000000E+00 -0.93083426407E+03  0.93083426407E+03  0.25500000000E-02 0.  1.
    8880023    1    1    2    0    0 -0.76584299828E+03 -0.17432107346E+03  0.62847739889E+03  0.12023715656E+04  0.65864270000E+03 0.  0.
    8880022    1    1    2    0    0  0.76584299828E+03  0.17432107346E+03 -0.39528190990E+03  0.89249245150E+03  0.15294330000E+03 0.  0.
<mgrwt>
<rscale>  0 0.96350536E+03</rscale>
<asrwt>0</asrwt>
<pdfrwt beam="1">  1        2 0.17908150E+00 0.10250432E+04</pdfrwt>
<pdfrwt beam="2">  1       -2 0.14320527E+00 0.10250432E+04</pdfrwt>
<totfact> 0.66665264E+00</totfact>
</mgrwt>
</event>
<event>
 4    2  0.3747163E-007  0.7855055E+03  0.7818608E-02  0.9743060E-01
         -2   -1    0    0    0  501 -0.00000000000E+00  0.00000000000E+00  0.71011449041E+03  0.71011449042E+03  0.25500000000E-02 0.  1.
          2   -1    0    0  501    0  0.00000000000E+00 -0.00000000000E+00 -0.10044833794E+04  0.10044833794E+04  0.25500000000E-02 0. -1.
    8880023    1    1    2    0    0 -0.41631608861E+03 -0.99446318631E+02  0.40247861804E+03  0.88261424199E+03  0.65864270000E+03 0.  1.
    8880022    1    1    2    0    0  0.41631608861E+03  0.99446318631E+02 -0.69684750706E+03  0.83198362786E+03  0.15294330000E+03 0.  0.
<mgrwt>
<rscale>  0 0.68509892E+03</rscale>
<asrwt>0</asrwt>
<pdfrwt beam="1">  1        2 0.15453590E+00 0.78550548E+03</pdfrwt>
<pdfrwt beam="2">  1       -2 0.10924838E+00 0.78550548E+03</pdfrwt>
<totfact> 0.16931524E+01</totfact>
</mgrwt>
</event>
<event>
 4    2  0.3747163E-007  0.6714295E+03  0.7818608E-02  0.1014658E+00
          2   -1    0    0  501    0  0.00000000000E+00  0.00000000000E+00  0.47653829891E+03  0.47653829892E+03  0.25500000000E-02 0. -1.
         -2   -1    0    0    0  501 -0.00000000000E+00 -0.00000000000E+00 -0.66019200714E+03  0.66019200714E+03  0.25500000000E-02 0.  1.
    8880023    1    1    2    0    0 -0.11948806000E+03  0.52249254921E+02  0.20258252616E+03  0.70132536478E+03  0.65864270000E+03 0. -1.
    8880022    1    1    2    0    0  0.11948806000E+03 -0.52249254921E+02 -0.38623623438E+03  0.43540494127E+03  0.15294330000E+03 0.  0.
<mgrwt>
<rscale>  0 0.49664571E+03</rscale>
<asrwt>0</asrwt>
<pdfrwt beam="1">  1        2 0.73313584E-01 0.67142951E+03</pdfrwt>
<pdfrwt beam="2">  1       -2 0.10156800E+00 0.67142951E+03</pdfrwt>
<totfact> 0.52707270E+01</totfact>
</mgrwt>
</event>
<event>
 4    2  0.3747163E-007  0.6699205E+03  0.7818608E-02  0.1015720E+00
          2   -1    0    0  501    0  0.00000000000E+00  0.00000000000E+00  0.19769390012E+04  0.19769390012E+04  0.25500000000E-02 0. -1.
         -2   -1    0    0    0  501 -0.00000000000E+00 -0.00000000000E+00 -0.23800835126E+03  0.23800835127E+03  0.25500000000E-02 0.  1.
    8880023    1    1    2    0    0 -0.12230572933E+03 -0.49543518061E+01  0.18652165105E+04  0.19818743841E+04  0.65864270000E+03 0. -1.
    8880022    1    1    2    0    0  0.12230572933E+03  0.49543518061E+01 -0.12628586052E+03  0.23307296842E+03  0.15294330000E+03 0.  0.
<mgrwt>
<rscale>  0 0.49263281E+03</rscale>
<asrwt>0</asrwt>
<pdfrwt beam="1">  1        2 0.30414446E+00 0.66992048E+03</pdfrwt>
<pdfrwt beam="2">  1       -2 0.36616670E-01 0.66992048E+03</pdfrwt>
<totfact> 0.50265173E+01</totfact>
</mgrwt>
</event>
<event>
 4    2  0.3747163E-007  0.6813616E+03  0.7818608E-02  0.1008564E+00
          2   -1    0    0  501    0  0.00000000000E+00  0.00000000000E+00  0.83935817863E+03  0.83935817864E+03  0.25500000000E-02 0. -1.
         -2   -1    0    0    0  501 -0.00000000000E+00 -0.00000000000E+00 -0.38206097974E+03  0.38206097975E+03  0.25500000000E-02 0.  1.
    8880023    1    1    2    0    0 -0.14093080364E+03  0.10286844686E+03  0.63327428402E+03  0.93020961822E+03  0.65864270000E+03 0. -1.
    8880022    1    1    2    0    0  0.14093080364E+03 -0.10286844686E+03 -0.17597708513E+03  0.29120954016E+03  0.15294330000E+03 0.  0.
<mgrwt>
<rscale>  0 0.52049479E+03</rscale>
<asrwt>0</asrwt>
<pdfrwt beam="1">  1        2 0.12913203E+00 0.68136159E+03</pdfrwt>
<pdfrwt beam="2">  1       -2 0.58778613E-01 0.68136159E+03</pdfrwt>
<totfact> 0.88910537E+01</totfact>
</mgrwt>
</event>
<event>
 4    2  0.3747163E-007  0.1567175E+04  0.7818608E-02  0.8863602E-01
         -2   -1    0    0    0  501 -0.00000000000E+00  0.00000000000E+00  0.12052610171E+04  0.12052610171E+04  0.25500000000E-02 0.  1.
          2   -1    0    0  501    0  0.00000000000E+00 -0.00000000000E+00 -0.21491079004E+04  0.21491079004E+04  0.25500000000E-02 0. -1.
    8880023    1    1    2    0    0  0.13802970825E+04  0.34206449932E+03  0.12012269875E+03  0.15717721930E+04  0.65864270000E+03 0.  0.
    8880022    1    1    2    0    0 -0.13802970825E+04 -0.34206449932E+03 -0.10639695821E+04  0.17825967245E+04  0.15294330000E+03 0.  0.
<mgrwt>
<rscale>  0 0.15317620E+04</rscale>
<asrwt>0</asrwt>
<pdfrwt beam="1">  1        2 0.33063198E+00 0.15671753E+04</pdfrwt>
<pdfrwt beam="2">  1       -2 0.18542477E+00 0.15671753E+04</pdfrwt>
<totfact> 0.85754818E-01</totfact>
</mgrwt>
</event>
<event>
 4    2  0.3747163E-007  0.7809325E+03  0.7818608E-02  0.9753651E-01
          2   -1    0    0  501    0  0.00000000000E+00  0.00000000000E+00  0.92824073285E+03  0.92824073285E+03  0.25500000000E-02 0. -1.
         -2   -1    0    0    0  501 -0.00000000000E+00 -0.00000000000E+00 -0.88688902885E+03  0.88688902885E+03  0.25500000000E-02 0.  1.
    8880023    1    1    2    0    0 -0.41238253145E+03 -0.77369376629E+02  0.68022481718E+03  0.10356453934E+04  0.65864270000E+03 0. -1.
    8880022    1    1    2    0    0  0.41238253145E+03  0.77369376629E+02 -0.63887311318E+03  0.77948436831E+03  0.15294330000E+03 0.  1.
<mgrwt>
<rscale>  0 0.67910331E+03</rscale>
<asrwt>0</asrwt>
<pdfrwt beam="1">  1        2 0.14280627E+00 0.78093251E+03</pdfrwt>
<pdfrwt beam="2">  1       -2 0.13644447E+00 0.78093251E+03</pdfrwt>
<totfact> 0.10917252E+01</totfact>
</mgrwt>
</event>
<event>
 4    2  0.3747163E-007  0.1061227E+04  0.7818608E-02  0.9305505E-01
          2   -1    0    0  501    0  0.00000000000E+00  0.00000000000E+00  0.91816708865E+03  0.91816708865E+03  0.25500000000E-02 0. -1.
         -2   -1    0    0    0  501 -0.00000000000E+00 -0.00000000000E+00 -0.13715400519E+04  0.13715400519E+04  0.25500000000E-02 0.  1.
    8880023    1    1    2    0    0  0.62125171887E+03 -0.55357006920E+03  0.35552207070E+03  0.11191959921E+04  0.65864270000E+03 0.  0.
    8880022    1    1    2    0    0 -0.62125171887E+03  0.55357006920E+03 -0.80889503394E+03  0.11705111485E+04  0.15294330000E+03 0.  0.
<mgrwt>
<rscale>  0 0.10027766E+04</rscale>
<asrwt>0</asrwt>
<pdfrwt beam="1">  1        2 0.14125647E+00 0.10612275E+04</pdfrwt>
<pdfrwt beam="2">  1       -2 0.21100616E+00 0.10612275E+04</pdfrwt>
<totfact> 0.31729403E+00</totfact>
</mgrwt>
</event>
<event>
 4    2  0.3747163E-007  0.8449476E+03  0.7818608E-02  0.9620921E-01
         -2   -1    0    0    0  501 -0.00000000000E+00  0.00000000000E+00  0.32215551051E+03  0.32215551052E+03  0.25500000000E-02 0.  1.
          2   -1    0    0  501    0  0.00000000000E+00 -0.00000000000E+00 -0.16360308648E+04  0.16360308648E+04  0.25500000000E-02 0. -1.
    8880023    1    1    2    0    0  0.17234254400E+03 -0.50042413537E+03 -0.10487734468E+04  0.13467970214E+04  0.65864270000E+03 0.  0.
    8880022    1    1    2    0    0 -0.17234254400E+03  0.50042413537E+03 -0.26510190742E+03  0.61138935390E+03  0.15294330000E+03 0.  0.
<mgrwt>
<rscale>  0 0.75926850E+03</rscale>
<asrwt>0</asrwt>
<pdfrwt beam="1">  1        2 0.25169705E+00 0.84494762E+03</pdfrwt>
<pdfrwt beam="2">  1       -2 0.49562387E-01 0.84494762E+03</pdfrwt>
<totfact> 0.41602666E+01</totfact>
</mgrwt>
</event>
<event>
 4    2  0.3747163E-007  0.6733458E+03  0.7818608E-02  0.1013370E+00
          2   -1    0    0  501    0  0.00000000000E+00  0.00000000000E+00  0.15718481287E+04  0.15718481287E+04  0.25500000000E-02 0. -1.
         -2   -1    0    0    0  501 -0.00000000000E+00 -0.00000000000E+00 -0.12420167279E+03  0.12420167281E+03  0.25500000000E-02 0.  1.
    8880023    1    1    2    0    0 -0.95946605679E+02  0.10187521832E+03  0.11639140060E+04  0.13446524945E+04  0.65864270000E+03 0. -1.
    8880022    1    1    2    0    0  0.95946605679E+02 -0.10187521832E+03  0.28373244989E+03  0.35139730702E+03  0.15294330000E+03 0.  1.
<mgrwt>
<rscale>  0 0.50157029E+03</rscale>
<asrwt>0</asrwt>
<pdfrwt beam="1">  1        2 0.24182278E+00 0.67334576E+03</pdfrwt>
<pdfrwt beam="2">  1       -2 0.19107950E-01 0.67334576E+03</pdfrwt>
<totfact> 0.27279652E+02</totfact>
</mgrwt>
</event>
<event>
 4    2  0.3747163E-007  0.6671989E+03  0.7818608E-02  0.1017756E+00
          2   -1    0    0  501    0  0.00000000000E+00  0.00000000000E+00  0.31029040182E+03  0.31029040183E+03  0.25500000000E-02 0. -1.
         -2   -1    0    0    0  501 -0.00000000000E+00 -0.00000000000E+00 -0.10948892860E+04  0.10948892860E+04  0.25500000000E-02 0.  1.
    8880023    1    1    2    0    0 -0.82879770423E+02 -0.66896558572E+02 -0.74868894023E+02  0.67138644866E+03  0.65864270000E+03 0. -1.
    8880022    1    1    2    0    0  0.82879770423E+02  0.66896558572E+02 -0.70972999015E+03  0.73379323915E+03  0.15294330000E+03 0.  0.
<mgrwt>
<rscale>  0 0.48505252E+03</rscale>
<asrwt>0</asrwt>
<pdfrwt beam="1">  1        2 0.47736985E-01 0.66719893E+03</pdfrwt>
<pdfrwt beam="2">  1       -2 0.16844450E+00 0.66719893E+03</pdfrwt>
<totfact> 0.23591357E+01</totfact>
</mgrwt>
</event>
<event>
 4    2  0.3747163E-007  0.7534302E+03  0.7818608E-02  0.9822423E-01
         -2   -1    0    0    0  501 -0.00000000000E+00  0.00000000000E+00  0.27077127944E+03  0.27077127946E+03  0.25500000000E-02 0.  1.
          2   -1    0    0  501    0  0.00000000000E+00 -0.00000000000E+00 -0.19460374184E+04  0.19460374184E+04  0.25500000000E-02 0. -1.
    8880023    1    1    2    0    0 -0.31066742245E+03 -0.19321639180E+03 -0.16565441143E+04  0.18198339018E+04  0.65864270000E+03 0. -1.
    8880022    1    1    2    0    0  0.31066742245E+03  0.19321639180E+03 -0.18722024646E+02  0.39697479600E+03  0.15294330000E+03 0.  0.
<mgrwt>
<rscale>  0 0.64172966E+03</rscale>
<asrwt>0</asrwt>
<pdfrwt beam="1">  1        2 0.29939036E+00 0.75343017E+03</pdfrwt>
<pdfrwt beam="2">  1       -2 0.41657121E-01 0.75343017E+03</pdfrwt>
<totfact> 0.40250557E+01</totfact>
</mgrwt>
</event>
<event>
 4    2  0.3747163E-007  0.8503867E+03  0.7818608E-02  0.9610898E-01
          2   -1    0    0  501    0  0.00000000000E+00  0.00000000000E+00  0.98549283758E+03  0.98549283759E+03  0.25500000000E-02 0. -1.
         -2   -1    0    0    0  501 -0.00000000000E+00 -0.00000000000E+00 -0.59742475601E+03  0.59742475602E+03  0.25500000000E-02 0.  1.
    8880023    1    1    2    0    0  0.46252774625E+03 -0.27461870174E+03  0.53503336228E+03  0.10046980902E+04  0.65864270000E+03 0.  0.
    8880022    1    1    2    0    0 -0.46252774625E+03  0.27461870174E+03 -0.14696528070E+03  0.57821950343E+03  0.15294330000E+03 0.  0.
<mgrwt>
<rscale>  0 0.76579073E+03</rscale>
<asrwt>0</asrwt>
<pdfrwt beam="1">  1        2 0.15161428E+00 0.85038671E+03</pdfrwt>
<pdfrwt beam="2">  1       -2 0.91911501E-01 0.85038671E+03</pdfrwt>
<totfact> 0.26081645E+01</totfact>
</mgrwt>
</event>
<event>
 4    2  0.3747163E-007  0.6805868E+03  0.7818608E-02  0.1008994E+00
         -2   -1    0    0    0  501 -0.00000000000E+00  0.00000000000E+00  0.10178847729E+03  0.10178847732E+03  0.25500000000E-02 0.  1.
          2   -1    0    0  501    0  0.00000000000E+00 -0.00000000000E+00 -0.33552543193E+04  0.33552543193E+04  0.25500000000E-02 0. -1.
    8880023    1    1    2    0    0  0.16707005865E+03 -0.38415576915E+02 -0.31156931822E+04  0.31891601360E+04  0.65864270000E+03 0. -1.
    8880022    1    1    2    0    0 -0.16707005865E+03  0.38415576915E+02 -0.13777265974E+03  0.26788266057E+03  0.15294330000E+03 0.  0.
<mgrwt>
<rscale>  0 0.51876553E+03</rscale>
<asrwt>0</asrwt>
<pdfrwt beam="1">  1        2 0.51619289E+00 0.68058678E+03</pdfrwt>
<pdfrwt beam="2">  1       -2 0.15659768E-01 0.68058678E+03</pdfrwt>
<totfact> 0.36037943E+01</totfact>
</mgrwt>
</event>
<event>
 4    2  0.3747163E-007  0.1125938E+04  0.7818608E-02  0.9232713E-01
         -2   -1    0    0    0  501 -0.00000000000E+00  0.00000000000E+00  0.45325149480E+03  0.45325149480E+03  0.25500000000E-02 0.  1.
          2   -1    0    0  501    0  0.00000000000E+00 -0.00000000000E+00 -0.25535355589E+04  0.25535355589E+04  0.25500000000E-02 0. -1.
    8880023    1    1    2    0    0 -0.18198505793E+03  0.89487817451E+03 -0.69265815901E+03  0.13219345824E+04  0.65864270000E+03 0.  0.
    8880022    1    1    2    0    0  0.18198505793E+03 -0.89487817451E+03 -0.14076259051E+04  0.16848524714E+04  0.15294330000E+03 0.  0.
<mgrwt>
<rscale>  0 0.10722066E+04</rscale>
<asrwt>0</asrwt>
<pdfrwt beam="1">  1        2 0.39285161E+00 0.11259377E+04</pdfrwt>
<pdfrwt beam="2">  1       -2 0.69731001E-01 0.11259377E+04</pdfrwt>
<totfact> 0.60538772E+00</totfact>
</mgrwt>
</event>
<event>
 4    2  0.3747163E-007  0.7844741E+03  0.7818608E-02  0.9745430E-01
         -2   -1    0    0    0  501 -0.00000000000E+00  0.00000000000E+00  0.13308069293E+04  0.13308069293E+04  0.25500000000E-02 0.  1.
          2   -1    0    0  501    0  0.00000000000E+00 -0.00000000000E+00 -0.11856497700E+04  0.11856497700E+04  0.25500000000E-02 0. -1.
    8880023    1    1    2    0    0  0.42435164398E+03  0.38923621289E+02 -0.10081847935E+04  0.12774334230E+04  0.65864270000E+03 0. -1.
    8880022    1    1    2    0    0 -0.42435164398E+03 -0.38923621289E+02  0.11533419528E+04  0.12390232763E+04  0.15294330000E+03 0.  0.
<mgrwt>
<rscale>  0 0.68375128E+03</rscale>
<asrwt>0</asrwt>
<pdfrwt beam="1">  1        2 0.18240766E+00 0.78447407E+03</pdfrwt>
<pdfrwt beam="2">  1       -2 0.20473953E+00 0.78447407E+03</pdfrwt>
<totfact> 0.24453407E+00</totfact>
</mgrwt>
</event>
<event>
 4    2  0.3747163E-007  0.8625915E+03  0.7818608E-02  0.9588970E-01
          2   -1    0    0  501    0  0.00000000000E+00  0.00000000000E+00  0.10174346012E+04  0.10174346012E+04  0.25500000000E-02 0. -1.
         -2   -1    0    0    0  501 -0.00000000000E+00 -0.00000000000E+00 -0.90932889210E+03  0.90932889210E+03  0.25500000000E-02 0.  1.
    8880023    1    1    2    0    0  0.55240191818E+03  0.71456887863E+02  0.69168244496E+03  0.11056621441E+04  0.65864270000E+03 0. -1.
    8880022    1    1    2    0    0 -0.55240191818E+03 -0.71456887863E+02 -0.58357673584E+03  0.82110134920E+03  0.15294330000E+03 0.  0.
<mgrwt>
<rscale>  0 0.78030533E+03</rscale>
<asrwt>0</asrwt>
<pdfrwt beam="1">  1        2 0.15652840E+00 0.86259154E+03</pdfrwt>
<pdfrwt beam="2">  1       -2 0.13989675E+00 0.86259154E+03</pdfrwt>
<totfact> 0.88781879E+00</totfact>
</mgrwt>
</event>
<event>
 4    2  0.3747163E-007  0.1695074E+04  0.7818608E-02  0.8782912E-01
         -2   -1    0    0    0  501 -0.00000000000E+00  0.00000000000E+00  0.14007900567E+04  0.14007900567E+04  0.25500000000E-02 0.  1.
          2   -1    0    0  501    0  0.00000000000E+00 -0.00000000000E+00 -0.23870287269E+04  0.23870287269E+04  0.25500000000E-02 0. -1.
    8880023    1    1    2    0    0 -0.12858397188E+04  0.88661262434E+03  0.34507952152E+03  0.17298427127E+04  0.65864270000E+03 0.  0.
    8880022    1    1    2    0    0  0.12858397188E+04 -0.88661262434E+03 -0.13313181917E+04  0.20579760709E+04  0.15294330000E+03 0.  0.
<mgrwt>
<rscale>  0 0.16627288E+04</rscale>
<asrwt>0</asrwt>
<pdfrwt beam="1">  1        2 0.36723519E+00 0.16950740E+04</pdfrwt>
<pdfrwt beam="2">  1       -2 0.21550616E+00 0.16950740E+04</pdfrwt>
<totfact> 0.39253438E-01</totfact>
</mgrwt>
</event>
<event>
 4    2  0.3747163E-007  0.9078853E+03  0.7818608E-02  0.9513490E-01
          2   -1    0    0  501    0  0.00000000000E+00  0.00000000000E+00  0.10160777413E+04  0.10160777413E+04  0.25500000000E-02 0. -1.
         -2   -1    0    0    0  501 -0.00000000000E+00 -0.00000000000E+00 -0.72700746046E+03  0.72700746046E+03  0.25500000000E-02 0.  1.
    8880023    1    1    2    0    0 -0.61697206593E+03  0.98949320429E+02  0.53567458456E+03  0.10541361226E+04  0.65864270000E+03 0.  0.
    8880022    1    1    2    0    0  0.61697206593E+03 -0.98949320429E+02 -0.24660430368E+03  0.68894907922E+03  0.15294330000E+03 0.  0.
<mgrwt>
<rscale>  0 0.83296532E+03</rscale>
<asrwt>0</asrwt>
<pdfrwt beam="1">  1        2 0.15631965E+00 0.90788529E+03</pdfrwt>
<pdfrwt beam="2">  1       -2 0.11184730E+00 0.90788529E+03</pdfrwt>
<totfact> 0.15537260E+01</totfact>
</mgrwt>
</event>
<event>
 4    2  0.3747163E-007  0.6948156E+03  0.7818608E-02  0.1001943E+00
          2   -1    0    0  501    0  0.00000000000E+00  0.00000000000E+00  0.86497211651E+03  0.86497211652E+03  0.25500000000E-02 0. -1.
         -2   -1    0    0    0  501 -0.00000000000E+00 -0.00000000000E+00 -0.33662054707E+03  0.33662054708E+03  0.25500000000E-02 0.  1.
    8880023    1    1    2    0    0 -0.96109220499E+02  0.19930271255E+03  0.60564909989E+03  0.92172641925E+03  0.65864270000E+03 0.  0.
    8880022    1    1    2    0    0  0.96109220499E+02 -0.19930271255E+03 -0.77297530443E+02  0.27986624434E+03  0.15294330000E+03 0.  0.
<mgrwt>
<rscale>  0 0.54806511E+03</rscale>
<asrwt>0</asrwt>
<pdfrwt beam="1">  1        2 0.13307263E+00 0.69481563E+03</pdfrwt>
<pdfrwt beam="2">  1       -2 0.51787778E-01 0.69481563E+03</pdfrwt>
<totfact> 0.11087980E+02</totfact>
</mgrwt>
</event>
<event>
 4    2  0.3747163E-007  0.7298422E+03  0.7818608E-02  0.9890590E-01
          2   -1    0    0  501    0  0.00000000000E+00  0.00000000000E+00  0.13050695129E+04  0.13050695129E+04  0.25500000000E-02 0. -1.
         -2   -1    0    0    0  501 -0.00000000000E+00 -0.00000000000E+00 -0.26049092617E+03  0.26049092618E+03  0.25500000000E-02 0.  1.
    8880023    1    1    2    0    0  0.30750647550E+03  0.65568436552E+02  0.95982314075E+03  0.12057902472E+04  0.65864270000E+03 0. -1.
    8880022    1    1    2    0    0 -0.30750647550E+03 -0.65568436552E+02  0.84755445953E+02  0.35977019190E+03  0.15294330000E+03 0.  0.
<mgrwt>
<rscale>  0 0.60719521E+03</rscale>
<asrwt>0</asrwt>
<pdfrwt beam="1">  1        2 0.20077992E+00 0.72984221E+03</pdfrwt>
<pdfrwt beam="2">  1       -2 0.40075527E-01 0.72984221E+03</pdfrwt>
<totfact> 0.98485116E+01</totfact>
</mgrwt>
</event>
<event>
 4    2  0.3747163E-007  0.9865616E+03  0.7818608E-02  0.9399354E-01
          2   -1    0    0  501    0  0.00000000000E+00  0.00000000000E+00  0.74649125460E+03  0.74649125460E+03  0.25500000000E-02 0. -1.
         -2   -1    0    0    0  501 -0.00000000000E+00 -0.00000000000E+00 -0.12439364139E+04  0.12439364139E+04  0.25500000000E-02 0.  1.
    8880023    1    1    2    0    0  0.42425192644E+03  0.59958638726E+03  0.15190447348E+03  0.99818771190E+03  0.65864270000E+03 0.  0.
    8880022    1    1    2    0    0 -0.42425192644E+03 -0.59958638726E+03 -0.64934963279E+03  0.99223995661E+03  0.15294330000E+03 0.  0.
<mgrwt>
<rscale>  0 0.92128845E+03</rscale>
<asrwt>0</asrwt>
<pdfrwt beam="1">  1        2 0.11484481E+00 0.98656157E+03</pdfrwt>
<pdfrwt beam="2">  1       -2 0.19137483E+00 0.98656157E+03</pdfrwt>
<totfact> 0.56909077E+00</totfact>
</mgrwt>
</event>
<event>
 4    2  0.3747163E-007  0.9551953E+03  0.7818608E-02  0.9442678E-01
          2   -1    0    0  501    0  0.00000000000E+00  0.00000000000E+00  0.19990719135E+04  0.19990719135E+04  0.25500000000E-02 0. -1.
         -2   -1    0    0    0  501 -0.00000000000E+00 -0.00000000000E+00 -0.13931537953E+04  0.13931537953E+04  0.25500000000E-02 0.  1.
    8880023    1    1    2    0    0 -0.51882179594E+03 -0.45761533496E+03 -0.11522382796E+04  0.14966800293E+04  0.65864270000E+03 0.  1.
    8880022    1    1    2    0    0  0.51882179594E+03  0.45761533496E+03  0.17581563979E+04  0.18955456795E+04  0.15294330000E+03 0.  0.
<mgrwt>
<rscale>  0 0.88645130E+03</rscale>
<asrwt>0</asrwt>
<pdfrwt beam="1">  1        2 0.30754952E+00 0.95519530E+03</pdfrwt>
<pdfrwt beam="2">  1       -2 0.21433135E+00 0.95519530E+03</pdfrwt>
<totfact> 0.72337724E-01</totfact>
</mgrwt>
</event>
<event>
 4    2  0.3747163E-007  0.6839347E+03  0.7818608E-02  0.1007180E+00
         -2   -1    0    0    0  501 -0.00000000000E+00  0.00000000000E+00  0.31252661461E+03  0.31252661462E+03  0.25500000000E-02 0.  1.
          2   -1    0    0  501    0  0.00000000000E+00 -0.00000000000E+00 -0.17352028842E+04  0.17352028842E+04  0.25500000000E-02 0. -1.
    8880023    1    1    2    0    0 -0.91245926280E+02 -0.16009555498E+03 -0.16063758371E+04  0.17459123523E+04  0.65864270000E+03 0. -1.
    8880022    1    1    2    0    0  0.91245926280E+02  0.16009555498E+03  0.18369956751E+03  0.30181714648E+03  0.15294330000E+03 0.  0.
<mgrwt>
<rscale>  0 0.52610908E+03</rscale>
<asrwt>0</asrwt>
<pdfrwt beam="1">  1        2 0.26695429E+00 0.68393465E+03</pdfrwt>
<pdfrwt beam="2">  1       -2 0.48081018E-01 0.68393465E+03</pdfrwt>
<totfact> 0.39752123E+01</totfact>
</mgrwt>
</event>
<event>
 4    2  0.3747163E-007  0.1037011E+04  0.7818608E-02  0.9334661E-01
          2   -1    0    0  501    0  0.00000000000E+00  0.00000000000E+00  0.77225550467E+03  0.77225550467E+03  0.25500000000E-02 0. -1.
         -2   -1    0    0    0  501 -0.00000000000E+00 -0.00000000000E+00 -0.11385829433E+04  0.11385829433E+04  0.25500000000E-02 0.  1.
    8880023    1    1    2    0    0  0.78955990974E+03  0.13482374612E+03 -0.56650086332E+02  0.10385575247E+04  0.65864270000E+03 0.  1.
    8880022    1    1    2    0    0 -0.78955990974E+03 -0.13482374612E+03 -0.30967735234E+03  0.87228092330E+03  0.15294330000E+03 0.  0.
<mgrwt>
<rscale>  0 0.97653588E+03</rscale>
<asrwt>0</asrwt>
<pdfrwt beam="1">  1        2 0.11880854E+00 0.10370113E+04</pdfrwt>
<pdfrwt beam="2">  1       -2 0.17516661E+00 0.10370113E+04</pdfrwt>
<totfact> 0.69934844E+00</totfact>
</mgrwt>
</event>
<event>
 4    2  0.3747163E-007  0.8849325E+03  0.7818608E-02  0.9550666E-01
          2   -1    0    0  501    0  0.00000000000E+00  0.00000000000E+00  0.98434975271E+03  0.98434975271E+03  0.25500000000E-02 0. -1.
         -2   -1    0    0    0  501 -0.00000000000E+00 -0.00000000000E+00 -0.74877332241E+03  0.74877332241E+03  0.25500000000E-02 0.  1.
    8880023    1    1    2    0    0  0.47591632798E+03 -0.35042687914E+03  0.55455053399E+03  0.10443332083E+04  0.65864270000E+03 0.  0.
    8880022    1    1    2    0    0 -0.47591632798E+03  0.35042687914E+03 -0.31897410370E+03  0.68878986687E+03  0.15294330000E+03 0.  0.
<mgrwt>
<rscale>  0 0.80649308E+03</rscale>
<asrwt>0</asrwt>
<pdfrwt beam="1">  1        2 0.15143842E+00 0.88493251E+03</pdfrwt>
<pdfrwt beam="2">  1       -2 0.11519590E+00 0.88493251E+03</pdfrwt>
<totfact> 0.15183133E+01</totfact>
</mgrwt>
</event>
<event>
 4    2  0.3747163E-007  0.7183958E+03  0.7818608E-02  0.9928052E-01
          2   -1    0    0  501    0  0.00000000000E+00  0.00000000000E+00  0.66750364322E+03  0.66750364323E+03  0.25500000000E-02 0. -1.
         -2   -1    0    0    0  501 -0.00000000000E+00 -0.00000000000E+00 -0.53941974710E+03  0.53941974710E+03  0.25500000000E-02 0.  1.
    8880023    1    1    2    0    0  0.24952493979E+03  0.14149064302E+03  0.36391720542E+03  0.80531250847E+03  0.65864270000E+03 0. -1.
    8880022    1    1    2    0    0 -0.24952493979E+03 -0.14149064302E+03 -0.23583330929E+03  0.40161088186E+03  0.15294330000E+03 0.  0.
<mgrwt>
<rscale>  0 0.58920826E+03</rscale>
<asrwt>0</asrwt>
<pdfrwt beam="1">  1        2 0.10269287E+00 0.71839578E+03</pdfrwt>
<pdfrwt beam="2">  1       -2 0.82987654E-01 0.71839578E+03</pdfrwt>
<totfact> 0.56173761E+01</totfact>
</mgrwt>
</event>
<event>
 4    2  0.3747163E-007  0.7331659E+03  0.7818608E-02  0.9880321E-01
         -2   -1    0    0    0  501 -0.00000000000E+00  0.00000000000E+00  0.52147437343E+03  0.52147437344E+03  0.25500000000E-02 0.  1.
          2   -1    0    0  501    0  0.00000000000E+00 -0.00000000000E+00 -0.36409827142E+04  0.36409827142E+04  0.25500000000E-02 0. -1.
    8880023    1    1    2    0    0 -0.46507293340E+02 -0.31868328103E+03 -0.35377232472E+04  0.36128960602E+04  0.65864270000E+03 0. -1.
    8880022    1    1    2    0    0  0.46507293340E+02  0.31868328103E+03  0.41821490640E+03  0.54956102745E+03  0.15294330000E+03 0.  0.
<mgrwt>
<rscale>  0 0.61224561E+03</rscale>
<asrwt>0</asrwt>
<pdfrwt beam="1">  1        2 0.56015117E+00 0.73316585E+03</pdfrwt>
<pdfrwt beam="2">  1       -2 0.80226829E-01 0.73316585E+03</pdfrwt>
<totfact> 0.97374430E-01</totfact>
</mgrwt>
</event>
<event>
 4    2  0.3747163E-007  0.7077675E+03  0.7818608E-02  0.9966387E-01
          2   -1    0    0  501    0  0.00000000000E+00  0.00000000000E+00  0.16751244372E+04  0.16751244372E+04  0.25500000000E-02 0. -1.
         -2   -1    0    0    0  501 -0.00000000000E+00 -0.00000000000E+00 -0.17601974232E+03  0.17601974233E+03  0.25500000000E-02 0.  1.
    8880023    1    1    2    0    0 -0.43629578187E+01 -0.25904737613E+03  0.13285171797E+04  0.15052882386E+04  0.65864270000E+03 0.  0.
    8880022    1    1    2    0    0  0.43629578187E+01  0.25904737613E+03  0.17058751521E+03  0.34585594088E+03  0.15294330000E+03 0.  0.
<mgrwt>
<rscale>  0 0.57149016E+03</rscale>
<asrwt>0</asrwt>
<pdfrwt beam="1">  1        2 0.25771144E+00 0.70776747E+03</pdfrwt>
<pdfrwt beam="2">  1       -2 0.27079961E-01 0.70776747E+03</pdfrwt>
<totfact> 0.12838137E+02</totfact>
</mgrwt>
</event>
<event>
 4    2  0.3747163E-007  0.9591294E+03  0.7818608E-02  0.9437099E-01
         -2   -1    0    0    0  501 -0.00000000000E+00  0.00000000000E+00  0.10953191201E+04  0.10953191201E+04  0.25500000000E-02 0.  1.
          2   -1    0    0  501    0  0.00000000000E+00 -0.00000000000E+00 -0.79160114836E+03  0.79160114836E+03  0.25500000000E-02 0. -1.
    8880023    1    1    2    0    0 -0.53282231437E+03  0.44968802992E+03 -0.24108721003E+03  0.98896521276E+03  0.65864270000E+03 0.  0.
    8880022    1    1    2    0    0  0.53282231437E+03 -0.44968802992E+03  0.54480518174E+03  0.89795505567E+03  0.15294330000E+03 0.  0.
<mgrwt>
<rscale>  0 0.89084479E+03</rscale>
<asrwt>0</asrwt>
<pdfrwt beam="1">  1        2 0.12178479E+00 0.95912937E+03</pdfrwt>
<pdfrwt beam="2">  1       -2 0.16851063E+00 0.95912937E+03</pdfrwt>
<totfact> 0.75962947E+00</totfact>
</mgrwt>
</event>
<event>
 4    2  0.3747163E-007  0.1138462E+04  0.7818608E-02  0.9219395E-01
         -2   -1    0    0    0  501 -0.00000000000E+00  0.00000000000E+00  0.64146590888E+03  0.64146590889E+03  0.25500000000E-02 0.  1.
          2   -1    0    0  501    0  0.00000000000E+00 -0.00000000000E+00 -0.23534737706E+04  0.23534737706E+04  0.25500000000E-02 0. -1.
    8880023    1    1    2    0    0 -0.81657677511E+03  0.44213974237E+03 -0.17094241233E+04  0.20538320820E+04  0.65864270000E+03 0. -1.
    8880022    1    1    2    0    0  0.81657677511E+03 -0.44213974237E+03 -0.25837384604E+01  0.94110759754E+03  0.15294330000E+03 0.  0.
<mgrwt>
<rscale>  0 0.10855461E+04</rscale>
<asrwt>0</asrwt>
<pdfrwt beam="1">  1        2 0.36207288E+00 0.11384619E+04</pdfrwt>
<pdfrwt beam="2">  1       -2 0.98687064E-01 0.11384619E+04</pdfrwt>
<totfact> 0.35619845E+00</totfact>
</mgrwt>
</event>
<event>
 4    2  0.3747163E-007  0.7640294E+03  0.7818608E-02  0.9794785E-01
          2   -1    0    0  501    0  0.00000000000E+00  0.00000000000E+00  0.45075545669E+03  0.45075545670E+03  0.25500000000E-02 0. -1.
         -2   -1    0    0    0  501 -0.00000000000E+00 -0.00000000000E+00 -0.16348015744E+04  0.16348015744E+04  0.25500000000E-02 0.  1.
    8880023    1    1    2    0    0 -0.36523688826E+03  0.12857947542E+03  0.67093528517E+02  0.76696963035E+03  0.65864270000E+03 0. -1.
    8880022    1    1    2    0    0  0.36523688826E+03 -0.12857947542E+03 -0.12511396462E+04  0.13185874007E+04  0.15294330000E+03 0.  0.
<mgrwt>
<rscale>  0 0.65643140E+03</rscale>
<asrwt>0</asrwt>
<pdfrwt beam="1">  1        2 0.69346994E-01 0.76402937E+03</pdfrwt>
<pdfrwt beam="2">  1       -2 0.25150793E+00 0.76402937E+03</pdfrwt>
<totfact> 0.44855904E+00</totfact>
</mgrwt>
</event>
<event>
 4    2  0.3747163E-007  0.6586532E+03  0.7818608E-02  0.1025581E+00
          2   -1    0    0  501    0  0.00000000000E+00  0.00000000000E+00  0.18966435855E+04  0.18966435855E+04  0.25500000000E-02 0. -1.
         -2   -1    0    0    0  501 -0.00000000000E+00 -0.00000000000E+00 -0.15561496767E+03  0.15561496769E+03  0.25500000000E-02 0.  1.
    8880023    1    1    2    0    0  0.26332456160E+01  0.26175449435E+01  0.17769647526E+04  0.18951062566E+04  0.65864270000E+03 0. -1.
    8880022    1    1    2    0    0 -0.26332456160E+01 -0.26175449435E+01 -0.35936134783E+02  0.15715229659E+03  0.15294330000E+03 0.  0.
<mgrwt>
<rscale>  0 0.45725365E+03</rscale>
<asrwt>0</asrwt>
<pdfrwt beam="1">  1        2 0.29179132E+00 0.65865317E+03</pdfrwt>
<pdfrwt beam="2">  1       -2 0.23940764E-01 0.65865317E+03</pdfrwt>
<totfact> 0.12213318E+02</totfact>
</mgrwt>
</event>
<event>
 4    2  0.3747163E-007  0.7061415E+03  0.7818608E-02  0.9972618E-01
          2   -1    0    0  501    0  0.00000000000E+00  0.00000000000E+00  0.24752323578E+04  0.24752323578E+04  0.25500000000E-02 0. -1.
         -2   -1    0    0    0  501 -0.00000000000E+00 -0.00000000000E+00 -0.21330229097E+03  0.21330229099E+03  0.25500000000E-02 0.  1.
    8880023    1    1    2    0    0 -0.22436699111E+03 -0.12035370174E+03  0.22840333599E+04  0.23906995118E+04  0.65864270000E+03 0. -1.
    8880022    1    1    2    0    0  0.22436699111E+03  0.12035370174E+03 -0.22103293121E+02  0.29783513696E+03  0.15294330000E+03 0.  0.
<mgrwt>
<rscale>  0 0.56867345E+03</rscale>
<asrwt>0</asrwt>
<pdfrwt beam="1">  1        2 0.38080498E+00 0.70614146E+03</pdfrwt>
<pdfrwt beam="2">  1       -2 0.32815737E-01 0.70614146E+03</pdfrwt>
<totfact> 0.32691496E+01</totfact>
</mgrwt>
</event>
<event>
 4    2  0.3747163E-007  0.7290803E+03  0.7818608E-02  0.9892980E-01
          2   -1    0    0  501    0  0.00000000000E+00  0.00000000000E+00  0.38238193239E+04  0.38238193239E+04  0.25500000000E-02 0. -1.
         -2   -1    0    0    0  501 -0.00000000000E+00 -0.00000000000E+00 -0.37698941730E+03  0.37698941731E+03  0.25500000000E-02 0.  1.
    8880023    1    1    2    0    0  0.53059997000E+02  0.30811110529E+03  0.36995358762E+04  0.37706927377E+04  0.65864270000E+03 0.  0.
    8880022    1    1    2    0    0 -0.53059997000E+02 -0.30811110529E+03 -0.25270596954E+03  0.43011600359E+03  0.15294330000E+03 0.  0.
<mgrwt>
<rscale>  0 0.60602733E+03</rscale>
<asrwt>0</asrwt>
<pdfrwt beam="1">  1        2 0.58827993E+00 0.72908026E+03</pdfrwt>
<pdfrwt beam="2">  1       -2 0.57998369E-01 0.72908026E+03</pdfrwt>
<totfact> 0.14522345E+00</totfact>
</mgrwt>
</event>
<event>
 4    2  0.3747163E-007  0.7154292E+03  0.7818608E-02  0.9938367E-01
          2   -1    0    0  501    0  0.00000000000E+00  0.00000000000E+00  0.39447279331E+03  0.39447279332E+03  0.25500000000E-02 0. -1.
         -2   -1    0    0    0  501 -0.00000000000E+00 -0.00000000000E+00 -0.11399457923E+04  0.11399457923E+04  0.25500000000E-02 0.  1.
    8880023    1    1    2    0    0  0.26306142632E+03  0.93954501865E+02  0.90006154803E+01  0.71548583479E+03  0.65864270000E+03 0.  0.
    8880022    1    1    2    0    0 -0.26306142632E+03 -0.93954501865E+02 -0.75447361445E+03  0.81893275081E+03  0.15294330000E+03 0.  0.
<mgrwt>
<rscale>  0 0.58437372E+03</rscale>
<asrwt>0</asrwt>
<pdfrwt beam="1">  1        2 0.60688123E-01 0.71542922E+03</pdfrwt>
<pdfrwt beam="2">  1       -2 0.17537627E+00 0.71542922E+03</pdfrwt>
<totfact> 0.16065108E+01</totfact>
</mgrwt>
</event>
<event>
 4    2  0.3747163E-007  0.9777724E+03  0.7818608E-02  0.9411234E-01
         -2   -1    0    0    0  501 -0.00000000000E+00  0.00000000000E+00  0.77835060581E+03  0.77835060581E+03  0.25500000000E-02 0.  1.
          2   -1    0    0  501    0  0.00000000000E+00 -0.00000000000E+00 -0.36514484735E+04  0.36514484735E+04  0.25500000000E-02 0. -1.
    8880023    1    1    2    0    0  0.51900253361E+03  0.50285678279E+03 -0.33900315524E+04  0.35282223153E+04  0.65864270000E+03 0. -1.
    8880022    1    1    2    0    0 -0.51900253361E+03 -0.50285678279E+03  0.51693368472E+03  0.90157676396E+03  0.15294330000E+03 0.  0.
<mgrwt>
<rscale>  0 0.91156916E+03</rscale>
<asrwt>0</asrwt>
<pdfrwt beam="1">  1        2 0.56176129E+00 0.97777236E+03</pdfrwt>
<pdfrwt beam="2">  1       -2 0.11974625E+00 0.97777236E+03</pdfrwt>
<totfact> 0.35225330E-01</totfact>
</mgrwt>
</event>
<event>
 4    2  0.3747163E-007  0.7830146E+03  0.7818608E-02  0.9748803E-01
          2   -1    0    0  501    0  0.00000000000E+00  0.00000000000E+00  0.88845878054E+03  0.88845878054E+03  0.25500000000E-02 0. -1.
         -2   -1    0    0    0  501 -0.00000000000E+00 -0.00000000000E+00 -0.75702588809E+03  0.75702588809E+03  0.25500000000E-02 0.  1.
    8880023    1    1    2    0    0  0.36126301467E+03 -0.22088620918E+03  0.60690668150E+03  0.99068037706E+03  0.65864270000E+03 0. -1.
    8880022    1    1    2    0    0 -0.36126301467E+03  0.22088620918E+03 -0.47547378905E+03  0.65480429157E+03  0.15294330000E+03 0.  0.
<mgrwt>
<rscale>  0 0.68183978E+03</rscale>
<asrwt>0</asrwt>
<pdfrwt beam="1">  1        2 0.13668597E+00 0.78301462E+03</pdfrwt>
<pdfrwt beam="2">  1       -2 0.11646552E+00 0.78301462E+03</pdfrwt>
<totfact> 0.17274435E+01</totfact>
</mgrwt>
</event>
<event>
 4    2  0.3747163E-007  0.7345955E+03  0.7818608E-02  0.9875979E-01
         -2   -1    0    0    0  501 -0.00000000000E+00  0.00000000000E+00  0.43637433556E+03  0.43637433557E+03  0.25500000000E-02 0.  1.
          2   -1    0    0  501    0  0.00000000000E+00 -0.00000000000E+00 -0.24725203749E+04  0.24725203749E+04  0.25500000000E-02 0. -1.
    8880023    1    1    2    0    0 -0.27290072521E+03 -0.17704677111E+03 -0.23309767319E+04  0.24439891767E+04  0.65864270000E+03 0. -1.
    8880022    1    1    2    0    0  0.27290072521E+03  0.17704677111E+03  0.29483069259E+03  0.46490553373E+03  0.15294330000E+03 0.  0.
<mgrwt>
<rscale>  0 0.61439697E+03</rscale>
<asrwt>0</asrwt>
<pdfrwt beam="1">  1        2 0.38038774E+00 0.73459552E+03</pdfrwt>
<pdfrwt beam="2">  1       -2 0.67134515E-01 0.73459552E+03</pdfrwt>
<totfact> 0.77280478E+00</totfact>
</mgrwt>
</event>
<event>
 4    2  0.3747163E-007  0.7426519E+03  0.7818608E-02  0.9852289E-01
          2   -1    0    0  501    0  0.00000000000E+00  0.00000000000E+00  0.75024162378E+03  0.75024162378E+03  0.25500000000E-02 0. -1.
         -2   -1    0    0    0  501 -0.00000000000E+00 -0.00000000000E+00 -0.11657360162E+04  0.11657360162E+04  0.25500000000E-02 0.  1.
    8880023    1    1    2    0    0  0.75290506197E+02  0.33474311245E+03  0.52084849320E+03  0.90709148976E+03  0.65864270000E+03 0.  0.
    8880022    1    1    2    0    0 -0.75290506197E+02 -0.33474311245E+03 -0.93634288565E+03  0.10088861503E+04  0.15294330000E+03 0.  1.
<mgrwt>
<rscale>  0 0.62630365E+03</rscale>
<asrwt>0</asrwt>
<pdfrwt beam="1">  1        2 0.11542179E+00 0.74265188E+03</pdfrwt>
<pdfrwt beam="2">  1       -2 0.17934400E+00 0.74265188E+03</pdfrwt>
<totfact> 0.70019415E+00</totfact>
</mgrwt>
</event>
<event>
 4    2  0.3747163E-007  0.8169495E+03  0.7818608E-02  0.9675279E-01
         -2   -1    0    0    0  501 -0.00000000000E+00  0.00000000000E+00  0.14637018051E+04  0.14637018051E+04  0.25500000000E-02 0.  1.
          2   -1    0    0  501    0  0.00000000000E+00 -0.00000000000E+00 -0.95947688302E+03  0.95947688302E+03  0.25500000000E-02 0. -1.
    8880023    1    1    2    0    0  0.12939126393E+03 -0.46567612735E+03 -0.72579575276E+03  0.10927881935E+04  0.65864270000E+03 0. -1.
    8880022    1    1    2    0    0 -0.12939126393E+03  0.46567612735E+03  0.12300206749E+04  0.13303904947E+04  0.15294330000E+03 0.  0.
<mgrwt>
<rscale>  0 0.72507935E+03</rscale>
<asrwt>0</asrwt>
<pdfrwt beam="1">  1        2 0.14761183E+00 0.81694955E+03</pdfrwt>
<pdfrwt beam="2">  1       -2 0.22518489E+00 0.81694955E+03</pdfrwt>
<totfact> 0.24970168E+00</totfact>
</mgrwt>
</event>
<event>
 4    2  0.3747163E-007  0.7342611E+03  0.7818608E-02  0.9876991E-01
          2   -1    0    0  501    0  0.00000000000E+00  0.00000000000E+00  0.30049585233E+04  0.30049585233E+04  0.25500000000E-02 0. -1.
         -2   -1    0    0    0  501 -0.00000000000E+00 -0.00000000000E+00 -0.12247805467E+03  0.12247805469E+03  0.25500000000E-02 0.  1.
    8880023    1    1    2    0    0 -0.30049077491E+03 -0.12261491878E+03  0.24885422765E+04  0.25946063270E+04  0.65864270000E+03 0.  0.
    8880022    1    1    2    0    0  0.30049077491E+03  0.12261491878E+03  0.39393819218E+03  0.53283025100E+03  0.15294330000E+03 0.  0.
<mgrwt>
<rscale>  0 0.61389481E+03</rscale>
<asrwt>0</asrwt>
<pdfrwt beam="1">  1        2 0.46230133E+00 0.73426108E+03</pdfrwt>
<pdfrwt beam="2">  1       -2 0.18842777E-01 0.73426108E+03</pdfrwt>
<totfact> 0.43343378E+01</totfact>
</mgrwt>
</event>
<event>
 4    2  0.3747163E-007  0.7738330E+03  0.7818608E-02  0.9770528E-01
         -2   -1    0    0    0  501 -0.00000000000E+00  0.00000000000E+00  0.78999285410E+03  0.78999285411E+03  0.25500000000E-02 0.  1.
          2   -1    0    0  501    0  0.00000000000E+00 -0.00000000000E+00 -0.14633037134E+04  0.14633037134E+04  0.25500000000E-02 0. -1.
    8880023    1    1    2    0    0 -0.22221367641E+03 -0.34004177047E+03 -0.12869372712E+04  0.15016740891E+04  0.65864270000E+03 0. -1.
    8880022    1    1    2    0    0  0.22221367641E+03  0.34004177047E+03  0.61362641190E+03  0.75162247840E+03  0.15294330000E+03 0.  0.
<mgrwt>
<rscale>  0 0.66968452E+03</rscale>
<asrwt>0</asrwt>
<pdfrwt beam="1">  1        2 0.22512365E+00 0.77383301E+03</pdfrwt>
<pdfrwt beam="2">  1       -2 0.12153736E+00 0.77383301E+03</pdfrwt>
<totfact> 0.69942362E+00</totfact>
</mgrwt>
</event>
<event>
 4    2  0.3747163E-007  0.6695719E+03  0.7818608E-02  0.1015972E+00
          2   -1    0    0  501    0  0.00000000000E+00  0.00000000000E+00  0.29996534637E+03  0.29996534638E+03  0.25500000000E-02 0. -1.
         -2   -1    0    0    0  501 -0.00000000000E+00 -0.00000000000E+00 -0.77567260063E+03  0.77567260063E+03  0.25500000000E-02 0.  1.
    8880023    1    1    2    0    0 -0.42523071371E+02 -0.11273050537E+03 -0.13473583221E+03  0.68299365237E+03  0.65864270000E+03 0. -1.
    8880022    1    1    2    0    0  0.42523071371E+02  0.11273050537E+03 -0.34097142205E+03  0.39264429464E+03  0.15294330000E+03 0.  0.
<mgrwt>
<rscale>  0 0.49168769E+03</rscale>
<asrwt>0</asrwt>
<pdfrwt beam="1">  1        2 0.46148515E-01 0.66957194E+03</pdfrwt>
<pdfrwt beam="2">  1       -2 0.11933425E+00 0.66957194E+03</pdfrwt>
<totfact> 0.60002127E+01</totfact>
</mgrwt>
</event>
<event>
 4    2  0.3747163E-007  0.6812471E+03  0.7818608E-02  0.1008627E+00
          2   -1    0    0  501    0  0.00000000000E+00  0.00000000000E+00  0.75598378937E+03  0.75598378937E+03  0.25500000000E-02 0. -1.
         -2   -1    0    0    0  501 -0.00000000000E+00 -0.00000000000E+00 -0.78203954593E+03  0.78203954594E+03  0.25500000000E-02 0.  1.
    8880023    1    1    2    0    0 -0.16021551893E+03 -0.67958889638E+02  0.57651216255E+03  0.89244826350E+03  0.65864270000E+03 0. -1.
    8880022    1    1    2    0    0  0.16021551893E+03  0.67958889638E+02 -0.60256791911E+03  0.64557507181E+03  0.15294330000E+03 0.  0.
<mgrwt>
<rscale>  0 0.52024047E+03</rscale>
<asrwt>0</asrwt>
<pdfrwt beam="1">  1        2 0.11630520E+00 0.68124711E+03</pdfrwt>
<pdfrwt beam="2">  1       -2 0.12031378E+00 0.68124711E+03</pdfrwt>
<totfact> 0.19997035E+01</totfact>
</mgrwt>
</event>
<event>
 4    2  0.3747163E-007  0.7233886E+03  0.7818608E-02  0.9911283E-01
          2   -1    0    0  501    0  0.00000000000E+00  0.00000000000E+00  0.96148189904E+03  0.96148189904E+03  0.25500000000E-02 0. -1.
         -2   -1    0    0    0  501 -0.00000000000E+00 -0.00000000000E+00 -0.33991048982E+03  0.33991048983E+03  0.25500000000E-02 0.  1.
    8880023    1    1    2    0    0 -0.14878296534E+02 -0.29876319382E+03  0.63868476878E+03  0.96499183925E+03  0.65864270000E+03 0. -1.
    8880022    1    1    2    0    0  0.14878296534E+02  0.29876319382E+03 -0.17113359564E+02  0.33640054961E+03  0.15294330000E+03 0.  0.
<mgrwt>
<rscale>  0 0.59717584E+03</rscale>
<asrwt>0</asrwt>
<pdfrwt beam="1">  1        2 0.14792029E+00 0.72338856E+03</pdfrwt>
<pdfrwt beam="2">  1       -2 0.52293922E-01 0.72338856E+03</pdfrwt>
<totfact> 0.93522534E+01</totfact>
</mgrwt>
</event>
<event>
 4    2  0.3747163E-007  0.7659856E+03  0.7818608E-02  0.9789851E-01
          2   -1    0    0  501    0  0.00000000000E+00  0.00000000000E+00  0.38891848647E+03  0.38891848648E+03  0.25500000000E-02 0. -1.
         -2   -1    0    0    0  501 -0.00000000000E+00 -0.00000000000E+00 -0.90779301218E+03  0.90779301219E+03  0.25500000000E-02 0.  1.
    8880023    1    1    2    0    0  0.38975495911E+03 -0.31856412023E+02 -0.37494827962E+03  0.85283068530E+03  0.65864270000E+03 0.  1.
    8880022    1    1    2    0    0 -0.38975495911E+03  0.31856412023E+02 -0.14392624609E+03  0.44388081336E+03  0.15294330000E+03 0. -1.
<mgrwt>
<rscale>  0 0.65910066E+03</rscale>
<asrwt>0</asrwt>
<pdfrwt beam="1">  1        2 0.59833614E-01 0.76598562E+03</pdfrwt>
<pdfrwt beam="2">  1       -2 0.13966046E+00 0.76598562E+03</pdfrwt>
<totfact> 0.29991160E+01</totfact>
</mgrwt>
</event>
<event>
 4    2  0.3747163E-007  0.8707337E+03  0.7818608E-02  0.9574748E-01
         -2   -1    0    0    0  501 -0.00000000000E+00  0.00000000000E+00  0.59328546305E+03  0.59328546305E+03  0.25500000000E-02 0.  1.
          2   -1    0    0  501    0  0.00000000000E+00 -0.00000000000E+00 -0.98437233409E+03  0.98437233409E+03  0.25500000000E-02 0. -1.
    8880023    1    1    2    0    0 -0.13247267623E+03 -0.55391145061E+03 -0.12382735647E+01  0.87073454316E+03  0.65864270000E+03 0.  0.
    8880022    1    1    2    0    0  0.13247267623E+03  0.55391145061E+03 -0.38984859748E+03  0.70692325399E+03  0.15294330000E+03 0.  0.
<mgrwt>
<rscale>  0 0.78990294E+03</rscale>
<asrwt>0</asrwt>
<pdfrwt beam="1">  1        2 0.15144190E+00 0.87073366E+03</pdfrwt>
<pdfrwt beam="2">  1       -2 0.91274686E-01 0.87073366E+03</pdfrwt>
<totfact> 0.26503853E+01</totfact>
</mgrwt>
</event>
<event>
 4    2  0.3747163E-007  0.6997413E+03  0.7818608E-02  0.9998276E-01
         -2   -1    0    0    0  501 -0.00000000000E+00  0.00000000000E+00  0.10940387938E+04  0.10940387938E+04  0.25500000000E-02 0.  1.
          2   -1    0    0  501    0  0.00000000000E+00 -0.00000000000E+00 -0.10939501556E+04  0.10939501556E+04  0.25500000000E-02 0. -1.
    8880023    1    1    2    0    0  0.12195784330E+03 -0.20237091288E+03 -0.95973917742E+03  0.11877445840E+04  0.65864270000E+03 0. -1.
    8880022    1    1    2    0    0 -0.12195784330E+03  0.20237091288E+03  0.95982781558E+03  0.10002443654E+04  0.15294330000E+03 0.  0.
<mgrwt>
<rscale>  0 0.55725895E+03</rscale>
<asrwt>0</asrwt>
<pdfrwt beam="1">  1        2 0.16830002E+00 0.69974132E+03</pdfrwt>
<pdfrwt beam="2">  1       -2 0.16831366E+00 0.69974132E+03</pdfrwt>
<totfact> 0.49538859E+00</totfact>
</mgrwt>
</event>
<event>
 4    2  0.3747163E-007  0.8680859E+03  0.7818608E-02  0.9579339E-01
          2   -1    0    0  501    0  0.00000000000E+00  0.00000000000E+00  0.21153014407E+03  0.21153014408E+03  0.25500000000E-02 0. -1.
         -2   -1    0    0    0  501 -0.00000000000E+00 -0.00000000000E+00 -0.39382716279E+04  0.39382716279E+04  0.25500000000E-02 0.  1.
    8880023    1    1    2    0    0  0.42497599714E+03  0.37303928252E+03 -0.85327067610E+03  0.12172279809E+04  0.65864270000E+03 0.  0.
    8880022    1    1    2    0    0 -0.42497599714E+03 -0.37303928252E+03 -0.28734708078E+04  0.29325737912E+04  0.15294330000E+03 0.  0.
<mgrwt>
<rscale>  0 0.78678894E+03</rscale>
<asrwt>0</asrwt>
<pdfrwt beam="1">  1        2 0.32543102E-01 0.86808589E+03</pdfrwt>
<pdfrwt beam="2">  1       -2 0.60588789E+00 0.86808589E+03</pdfrwt>
<totfact> 0.78371638E-02</totfact>
</mgrwt>
</event>
<event>
 4    2  0.3747163E-007  0.7402975E+03  0.7818608E-02  0.9859081E-01
          2   -1    0    0  501    0  0.00000000000E+00  0.00000000000E+00  0.89946557231E+03  0.89946557232E+03  0.25500000000E-02 0. -1.
         -2   -1    0    0    0  501 -0.00000000000E+00 -0.00000000000E+00 -0.37670409052E+03  0.37670409052E+03  0.25500000000E-02 0.  1.
    8880023    1    1    2    0    0 -0.71148129144E+02 -0.33040592099E+03  0.52089361782E+03  0.90519086178E+03  0.65864270000E+03 0.  1.
    8880022    1    1    2    0    0  0.71148129144E+02  0.33040592099E+03  0.18678639799E+01  0.37097880106E+03  0.15294330000E+03 0.  0.
<mgrwt>
<rscale>  0 0.62286022E+03</rscale>
<asrwt>0</asrwt>
<pdfrwt beam="1">  1        2 0.13837932E+00 0.74029746E+03</pdfrwt>
<pdfrwt beam="2">  1       -2 0.57954476E-01 0.74029746E+03</pdfrwt>
<totfact> 0.82935144E+01</totfact>
</mgrwt>
</event>
<event>
 4    2  0.3747163E-007  0.7360872E+03  0.7818608E-02  0.9871495E-01
          2   -1    0    0  501    0  0.00000000000E+00  0.00000000000E+00  0.12515208781E+04  0.12515208781E+04  0.25500000000E-02 0. -1.
         -2   -1    0    0    0  501 -0.00000000000E+00 -0.00000000000E+00 -0.47254396222E+03  0.47254396222E+03  0.25500000000E-02 0.  1.
    8880023    1    1    2    0    0 -0.27028757390E+03  0.18697282325E+03  0.10423031402E+04  0.12760173398E+04  0.65864270000E+03 0. -1.
    8880022    1    1    2    0    0  0.27028757390E+03 -0.18697282325E+03 -0.26332622433E+03  0.44804750046E+03  0.15294330000E+03 0. -1.
<mgrwt>
<rscale>  0 0.61662880E+03</rscale>
<asrwt>0</asrwt>
<pdfrwt beam="1">  1        2 0.19254167E+00 0.73608723E+03</pdfrwt>
<pdfrwt beam="2">  1       -2 0.72699072E-01 0.73608723E+03</pdfrwt>
<totfact> 0.30826742E+01</totfact>
</mgrwt>
</event>
<event>
 4    2  0.3747163E-007  0.6827622E+03  0.7818608E-02  0.1007802E+00
         -2   -1    0    0    0  501 -0.00000000000E+00  0.00000000000E+00  0.17655369547E+03  0.17655369549E+03  0.25500000000E-02 0.  1.
          2   -1    0    0  501    0  0.00000000000E+00 -0.00000000000E+00 -0.14316772122E+04  0.14316772122E+04  0.25500000000E-02 0. -1.
    8880023    1    1    2    0    0  0.17489163488E+03 -0.42034226191E+02 -0.11748799572E+04  0.13588624214E+04  0.65864270000E+03 0.  0.
    8880022    1    1    2    0    0 -0.17489163488E+03  0.42034226191E+02 -0.80243559568E+02  0.24936848636E+03  0.15294330000E+03 0. -1.
<mgrwt>
<rscale>  0 0.52357442E+03</rscale>
<asrwt>0</asrwt>
<pdfrwt beam="1">  1        2 0.22025802E+00 0.68276216E+03</pdfrwt>
<pdfrwt beam="2">  1       -2 0.27162108E-01 0.68276216E+03</pdfrwt>
<totfact> 0.17443487E+02</totfact>
</mgrwt>
</event>
<event>
 4    2  0.3747163E-007  0.7165422E+03  0.7818608E-02  0.9934465E-01
         -2   -1    0    0    0  501 -0.00000000000E+00  0.00000000000E+00  0.46952689142E+03  0.46952689143E+03  0.25500000000E-02 0.  1.
          2   -1    0    0  501    0  0.00000000000E+00 -0.00000000000E+00 -0.16570352778E+04  0.16570352778E+04  0.25500000000E-02 0. -1.
    8880023    1    1    2    0    0  0.27319592722E+03  0.70614715872E+02 -0.15101158399E+04  0.16714911035E+04  0.65864270000E+03 0. -1.
    8880022    1    1    2    0    0 -0.27319592722E+03 -0.70614715872E+02  0.32260745358E+03  0.45507106573E+03  0.15294330000E+03 0.  0.
<mgrwt>
<rscale>  0 0.58619674E+03</rscale>
<asrwt>0</asrwt>
<pdfrwt beam="1">  1        2 0.25492850E+00 0.71654215E+03</pdfrwt>
<pdfrwt beam="2">  1       -2 0.72234907E-01 0.71654215E+03</pdfrwt>
<totfact> 0.18547373E+01</totfact>
</mgrwt>
</event>
<event>
 4    2  0.3747163E-007  0.7740115E+03  0.7818608E-02  0.9770097E-01
          2   -1    0    0  501    0  0.00000000000E+00  0.00000000000E+00  0.89349090259E+03  0.89349090260E+03  0.25500000000E-02 0. -1.
         -2   -1    0    0    0  501 -0.00000000000E+00 -0.00000000000E+00 -0.10744354886E+04  0.10744354886E+04  0.25500000000E-02 0.  1.
    8880023    1    1    2    0    0 -0.13521167090E+03 -0.38340758217E+03  0.66274765223E+03  0.10189839188E+04  0.65864270000E+03 0.  0.
    8880022    1    1    2    0    0  0.13521167090E+03  0.38340758217E+03 -0.84369223819E+03  0.94894247234E+03  0.15294330000E+03 0.  0.
<mgrwt>
<rscale>  0 0.66992304E+03</rscale>
<asrwt>0</asrwt>
<pdfrwt beam="1">  1        2 0.13746014E+00 0.77401148E+03</pdfrwt>
<pdfrwt beam="2">  1       -2 0.16529777E+00 0.77401148E+03</pdfrwt>
<totfact> 0.69294243E+00</totfact>
</mgrwt>
</event>
<event>
 4    2  0.3747163E-007  0.6891158E+03  0.7818608E-02  0.1004576E+00
         -2   -1    0    0    0  501 -0.00000000000E+00  0.00000000000E+00  0.92119285012E+03  0.92119285013E+03  0.25500000000E-02 0.  1.
          2   -1    0    0  501    0  0.00000000000E+00 -0.00000000000E+00 -0.76038799077E+03  0.76038799077E+03  0.25500000000E-02 0. -1.
    8880023    1    1    2    0    0 -0.18807653831E+03  0.75482827112E+02  0.76295307225E+03  0.10280943722E+04  0.65864270000E+03 0.  1.
    8880022    1    1    2    0    0  0.18807653831E+03 -0.75482827112E+02 -0.60214821290E+03  0.65348646869E+03  0.15294330000E+03 0.  0.
<mgrwt>
<rscale>  0 0.53688618E+03</rscale>
<asrwt>0</asrwt>
<pdfrwt beam="1">  1        2 0.11698277E+00 0.68911584E+03</pdfrwt>
<pdfrwt beam="2">  1       -2 0.14172198E+00 0.68911584E+03</pdfrwt>
<totfact> 0.13097520E+01</totfact>
</mgrwt>
</event>
<event>
 4    2  0.3747163E-007  0.8274603E+03  0.7818608E-02  0.9654294E-01
          2   -1    0    0  501    0  0.00000000000E+00  0.00000000000E+00  0.22470271904E+04  0.22470271904E+04  0.25500000000E-02 0. -1.
         -2   -1    0    0    0  501 -0.00000000000E+00 -0.00000000000E+00 -0.45214155131E+03  0.45214155131E+03  0.25500000000E-02 0.  1.
    8880023    1    1    2    0    0  0.47721598834E+03 -0.15213556803E+03  0.19782128432E+04  0.21442986242E+04  0.65864270000E+03 0.  0.
    8880022    1    1    2    0    0 -0.47721598834E+03  0.15213556803E+03 -0.18332720404E+03  0.55487011755E+03  0.15294330000E+03 0.  0.
<mgrwt>
<rscale>  0 0.73804536E+03</rscale>
<asrwt>0</asrwt>
<pdfrwt beam="1">  1        2 0.34569648E+00 0.82746029E+03</pdfrwt>
<pdfrwt beam="2">  1       -2 0.69560240E-01 0.82746029E+03</pdfrwt>
<totfact> 0.94262033E+00</totfact>
</mgrwt>
</event>
<event>
 4    2  0.3747163E-007  0.6757757E+03  0.7818608E-02  0.1011822E+00
         -2   -1    0    0    0  501 -0.00000000000E+00  0.00000000000E+00  0.64377701308E+03  0.64377701308E+03  0.25500000000E-02 0.  1.
          2   -1    0    0  501    0  0.00000000000E+00 -0.00000000000E+00 -0.39089226659E+03  0.39089226660E+03  0.25500000000E-02 0. -1.
    8880023    1    1    2    0    0 -0.13476302601E+03  0.68567878370E+02 -0.33399887808E+02  0.67660061033E+03  0.65864270000E+03 0. -1.
    8880022    1    1    2    0    0  0.13476302601E+03 -0.68567878370E+02  0.28628463430E+03  0.35806866936E+03  0.15294330000E+03 0.  0.
<mgrwt>
<rscale>  0 0.50756998E+03</rscale>
<asrwt>0</asrwt>
<pdfrwt beam="1">  1        2 0.60137272E-01 0.67577573E+03</pdfrwt>
<pdfrwt beam="2">  1       -2 0.99042617E-01 0.67577573E+03</pdfrwt>
<totfact> 0.70011758E+01</totfact>
</mgrwt>
</event>
<event>
 4    2  0.3747163E-007  0.6839542E+03  0.7818608E-02  0.1007170E+00
          2   -1    0    0  501    0  0.00000000000E+00  0.00000000000E+00  0.19370955108E+04  0.19370955108E+04  0.25500000000E-02 0. -1.
         -2   -1    0    0    0  501 -0.00000000000E+00 -0.00000000000E+00 -0.24421203086E+03  0.24421203087E+03  0.25500000000E-02 0.  1.
    8880023    1    1    2    0    0  0.14626961805E+03  0.11219787274E+03  0.17950212733E+04  0.19209098734E+04  0.65864270000E+03 0. -1.
    8880022    1    1    2    0    0 -0.14626961805E+03 -0.11219787274E+03 -0.10213779335E+03  0.26039766830E+03  0.15294330000E+03 0.  0.
<mgrwt>
<rscale>  0 0.52615105E+03</rscale>
<asrwt>0</asrwt>
<pdfrwt beam="1">  1        2 0.29801470E+00 0.68395422E+03</pdfrwt>
<pdfrwt beam="2">  1       -2 0.37571081E-01 0.68395422E+03</pdfrwt>
<totfact> 0.50193813E+01</totfact>
</mgrwt>
</event>
<event>
 4    2  0.3747163E-007  0.6689669E+03  0.7818608E-02  0.1016415E+00
          2   -1    0    0  501    0  0.00000000000E+00  0.00000000000E+00  0.12768907704E+04  0.12768907704E+04  0.25500000000E-02 0. -1.
         -2   -1    0    0    0  501 -0.00000000000E+00 -0.00000000000E+00 -0.14732572589E+03  0.14732572591E+03  0.25500000000E-02 0.  1.
    8880023    1    1    2    0    0  0.55007068178E+02 -0.10334759833E+03  0.80366647939E+03  0.10456560237E+04  0.65864270000E+03 0.  0.
    8880022    1    1    2    0    0 -0.55007068178E+02  0.10334759833E+03  0.32589856515E+03  0.37856047259E+03  0.15294330000E+03 0.  0.
<mgrwt>
<rscale>  0 0.49002982E+03</rscale>
<asrwt>0</asrwt>
<pdfrwt beam="1">  1        2 0.19644473E+00 0.66896690E+03</pdfrwt>
<pdfrwt beam="2">  1       -2 0.22665497E-01 0.66896690E+03</pdfrwt>
<totfact> 0.29613828E+02</totfact>
</mgrwt>
</event>
<event>
 4    2  0.3747163E-007  0.7726998E+03  0.7818608E-02  0.9773273E-01
          2   -1    0    0  501    0  0.00000000000E+00  0.00000000000E+00  0.12414553749E+04  0.12414553749E+04  0.25500000000E-02 0. -1.
         -2   -1    0    0    0  501 -0.00000000000E+00 -0.00000000000E+00 -0.47205137477E+03  0.47205137478E+03  0.25500000000E-02 0.  1.
    8880023    1    1    2    0    0 -0.40328773712E+03 -0.24775129289E+02  0.96753066110E+03  0.12382166985E+04  0.65864270000E+03 0.  0.
    8880022    1    1    2    0    0  0.40328773712E+03  0.24775129289E+02 -0.19812666099E+03  0.47529005119E+03  0.15294330000E+03 0.  0.
<mgrwt>
<rscale>  0 0.66816785E+03</rscale>
<asrwt>0</asrwt>
<pdfrwt beam="1">  1        2 0.19099313E+00 0.77269982E+03</pdfrwt>
<pdfrwt beam="2">  1       -2 0.72623290E-01 0.77269982E+03</pdfrwt>
<totfact> 0.31199757E+01</totfact>
</mgrwt>
</event>
<event>
 4    2  0.3747163E-007  0.7258367E+03  0.7818608E-02  0.9903310E-01
          2   -1    0    0  501    0  0.00000000000E+00  0.00000000000E+00  0.13979298772E+04  0.13979298772E+04  0.25500000000E-02 0. -1.
         -2   -1    0    0    0  501 -0.00000000000E+00 -0.00000000000E+00 -0.34573336586E+03  0.34573336587E+03  0.25500000000E-02 0.  1.
    8880023    1    1    2    0    0 -0.30215338235E+03  0.41617650366E+02  0.11749351326E+04  0.13810544766E+04  0.65864270000E+03 0.  0.
    8880022    1    1    2    0    0  0.30215338235E+03 -0.41617650366E+02 -0.12273862134E+03  0.36260876640E+03  0.15294330000E+03 0.  0.
<mgrwt>
<rscale>  0 0.60101153E+03</rscale>
<asrwt>0</asrwt>
<pdfrwt beam="1">  1        2 0.21506614E+00 0.72583669E+03</pdfrwt>
<pdfrwt beam="2">  1       -2 0.53189748E-01 0.72583669E+03</pdfrwt>
<totfact> 0.49460476E+01</totfact>
</mgrwt>
</event>
<event>
 4    2  0.3747163E-007  0.6878151E+03  0.7818608E-02  0.1005209E+00
          2   -1    0    0  501    0  0.00000000000E+00  0.00000000000E+00  0.28520360687E+04  0.28520360687E+04  0.25500000000E-02 0. -1.
         -2   -1    0    0    0  501 -0.00000000000E+00 -0.00000000000E+00 -0.13554726783E+03  0.13554726786E+03  0.25500000000E-02 0.  1.
    8880023    1    1    2    0    0  0.17116799116E+03 -0.99904759372E+02  0.26365458353E+04  0.27247868889E+04  0.65864270000E+03 0. -1.
    8880022    1    1    2    0    0 -0.17116799116E+03  0.99904759372E+02  0.79942965602E+02  0.26279644767E+03  0.15294330000E+03 0.  0.
<mgrwt>
<rscale>  0 0.53424099E+03</rscale>
<asrwt>0</asrwt>
<pdfrwt beam="1">  1        2 0.43877472E+00 0.68781513E+03</pdfrwt>
<pdfrwt beam="2">  1       -2 0.20853429E-01 0.68781513E+03</pdfrwt>
<totfact> 0.45223204E+01</totfact>
</mgrwt>
</event>
<event>
 4    2  0.3747163E-007  0.7818546E+03  0.7818608E-02  0.9751498E-01
         -2   -1    0    0    0  501 -0.00000000000E+00  0.00000000000E+00  0.31758440516E+03  0.31758440517E+03  0.25500000000E-02 0.  1.
          2   -1    0    0  501    0  0.00000000000E+00 -0.00000000000E+00 -0.14378163700E+04  0.14378163700E+04  0.25500000000E-02 0. -1.
    8880023    1    1    2    0    0 -0.23097579377E+02 -0.42065778602E+03 -0.10383388624E+04  0.12997862403E+04  0.65864270000E+03 0.  1.
    8880022    1    1    2    0    0  0.23097579377E+02  0.42065778602E+03 -0.81893102440E+02  0.45561453484E+03  0.15294330000E+03 0.  0.
<mgrwt>
<rscale>  0 0.68031664E+03</rscale>
<asrwt>0</asrwt>
<pdfrwt beam="1">  1        2 0.22120251E+00 0.78185464E+03</pdfrwt>
<pdfrwt beam="2">  1       -2 0.48859140E-01 0.78185464E+03</pdfrwt>
<totfact> 0.55553853E+01</totfact>
</mgrwt>
</event>
<event>
 4    2  0.3747163E-007  0.6914024E+03  0.7818608E-02  0.1003493E+00
          2   -1    0    0  501    0  0.00000000000E+00  0.00000000000E+00  0.26014268400E+04  0.26014268400E+04  0.25500000000E-02 0. -1.
         -2   -1    0    0    0  501 -0.00000000000E+00 -0.00000000000E+00 -0.26084490902E+03  0.26084490904E+03  0.25500000000E-02 0.  1.
    8880023    1    1    2    0    0  0.19984575044E+03  0.65488868304E+02  0.24748517415E+04  0.25696164041E+04  0.65864270000E+03 0. -1.
    8880022    1    1    2    0    0 -0.19984575044E+03 -0.65488868304E+02 -0.13426981054E+03  0.29265534487E+03  0.15294330000E+03 0.  0.
<mgrwt>
<rscale>  0 0.54144779E+03</rscale>
<asrwt>0</asrwt>
<pdfrwt beam="1">  1        2 0.40021952E+00 0.69140243E+03</pdfrwt>
<pdfrwt beam="2">  1       -2 0.40129985E-01 0.69140243E+03</pdfrwt>
<totfact> 0.18898481E+01</totfact>
</mgrwt>
</event>
<event>
 4    2  0.3747163E-007  0.7138058E+03  0.7818608E-02  0.9944131E-01
         -2   -1    0    0    0  501 -0.00000000000E+00  0.00000000000E+00  0.53685246340E+03  0.53685246341E+03  0.25500000000E-02 0.  1.
          2   -1    0    0  501    0  0.00000000000E+00 -0.00000000000E+00 -0.17998052150E+04  0.17998052150E+04  0.25500000000E-02 0. -1.
    8880023    1    1    2    0    0 -0.21950930674E+03 -0.16590399265E+03 -0.16734624709E+04  0.18193392532E+04  0.65864270000E+03 0. -1.
    8880022    1    1    2    0    0  0.21950930674E+03  0.16590399265E+03  0.41050971922E+03  0.51731842526E+03  0.15294330000E+03 0.  0.
<mgrwt>
<rscale>  0 0.58169364E+03</rscale>
<asrwt>0</asrwt>
<pdfrwt beam="1">  1        2 0.27689311E+00 0.71380577E+03</pdfrwt>
<pdfrwt beam="2">  1       -2 0.82592688E-01 0.71380577E+03</pdfrwt>
<totfact> 0.11501557E+01</totfact>
</mgrwt>
</event>
<event>
 4    2  0.3747163E-007  0.1145852E+04  0.7818608E-02  0.9211644E-01
         -2   -1    0    0    0  501 -0.00000000000E+00  0.00000000000E+00  0.19684387840E+04  0.19684387840E+04  0.25500000000E-02 0.  1.
          2   -1    0    0  501    0  0.00000000000E+00 -0.00000000000E+00 -0.11019544257E+04  0.11019544257E+04  0.25500000000E-02 0. -1.
    8880023    1    1    2    0    0  0.64354184260E+03  0.68192452164E+03 -0.62259007445E+03  0.13040689259E+04  0.65864270000E+03 0.  0.
    8880022    1    1    2    0    0 -0.64354184260E+03 -0.68192452164E+03  0.14890744327E+04  0.17663242838E+04  0.15294330000E+03 0.  0.
<mgrwt>
<rscale>  0 0.10934046E+04</rscale>
<asrwt>0</asrwt>
<pdfrwt beam="1">  1        2 0.16953145E+00 0.11458522E+04</pdfrwt>
<pdfrwt beam="2">  1       -2 0.30283674E+00 0.11458522E+04</pdfrwt>
<totfact> 0.65297748E-01</totfact>
</mgrwt>
</event>
<event>
 4    2  0.3747163E-007  0.7592052E+03  0.7818608E-02  0.9807169E-01
         -2   -1    0    0    0  501 -0.00000000000E+00  0.00000000000E+00  0.18635584344E+04  0.18635584344E+04  0.25500000000E-02 0.  1.
          2   -1    0    0  501    0  0.00000000000E+00 -0.00000000000E+00 -0.34102666280E+03  0.34102666281E+03  0.25500000000E-02 0. -1.
    8880023    1    1    2    0    0  0.30124003068E+03  0.22767694593E+03  0.15132825987E+03  0.77414003662E+03  0.65864270000E+03 0. -1.
    8880022    1    1    2    0    0 -0.30124003068E+03 -0.22767694593E+03  0.13712035117E+04  0.14304450606E+04  0.15294330000E+03 0.  0.
<mgrwt>
<rscale>  0 0.64979205E+03</rscale>
<asrwt>0</asrwt>
<pdfrwt beam="1">  1        2 0.52465641E-01 0.75920521E+03</pdfrwt>
<pdfrwt beam="2">  1       -2 0.28670130E+00 0.75920521E+03</pdfrwt>
<totfact> 0.37755199E+00</totfact>
</mgrwt>
</event>
<event>
 4    2  0.3747163E-007  0.8263897E+03  0.7818608E-02  0.9656398E-01
          2   -1    0    0  501    0  0.00000000000E+00  0.00000000000E+00  0.15461547600E+04  0.15461547600E+04  0.25500000000E-02 0. -1.
         -2   -1    0    0    0  501 -0.00000000000E+00 -0.00000000000E+00 -0.60788067584E+03  0.60788067585E+03  0.25500000000E-02 0.  1.
    8880023    1    1    2    0    0 -0.36170157246E+02 -0.49779661070E+03  0.12846919993E+04  0.15275318279E+04  0.65864270000E+03 0. -1.
    8880022    1    1    2    0    0  0.36170157246E+02  0.49779661070E+03 -0.34641791510E+03  0.62650360799E+03  0.15294330000E+03 0.  0.
<mgrwt>
<rscale>  0 0.73673240E+03</rscale>
<asrwt>0</asrwt>
<pdfrwt beam="1">  1        2 0.23786996E+00 0.82638971E+03</pdfrwt>
<pdfrwt beam="2">  1       -2 0.93520105E-01 0.82638971E+03</pdfrwt>
<totfact> 0.11737318E+01</totfact>
</mgrwt>
</event>
<event>
 4    2  0.3747163E-007  0.6670748E+03  0.7818608E-02  0.1017853E+00
         -2   -1    0    0    0  501 -0.00000000000E+00  0.00000000000E+00  0.29501203304E+03  0.29501203305E+03  0.25500000000E-02 0.  1.
          2   -1    0    0  501    0  0.00000000000E+00 -0.00000000000E+00 -0.80032319619E+03  0.80032319620E+03  0.25500000000E-02 0. -1.
    8880023    1    1    2    0    0 -0.95208631507E+02 -0.45976440766E+02 -0.59043639104E+03  0.89084446159E+03  0.65864270000E+03 0. -1.
    8880022    1    1    2    0    0  0.95208631507E+02  0.45976440766E+02  0.85125227892E+02  0.20449076766E+03  0.15294330000E+03 0.  0.
<mgrwt>
<rscale>  0 0.48469503E+03</rscale>
<asrwt>0</asrwt>
<pdfrwt beam="1">  1        2 0.12312664E+00 0.66707475E+03</pdfrwt>
<pdfrwt beam="2">  1       -2 0.45386467E-01 0.66707475E+03</pdfrwt>
<totfact> 0.16096388E+02</totfact>
</mgrwt>
</event>
<event>
 4    2  0.3747163E-007  0.6749892E+03  0.7818608E-02  0.1012313E+00
          2   -1    0    0  501    0  0.00000000000E+00  0.00000000000E+00  0.87877173763E+03  0.87877173764E+03  0.25500000000E-02 0. -1.
         -2   -1    0    0    0  501 -0.00000000000E+00 -0.00000000000E+00 -0.55709412615E+03  0.55709412616E+03  0.25500000000E-02 0.  1.
    8880023    1    1    2    0    0  0.36600977456E+02 -0.14304055313E+03  0.71841451702E+03  0.98576359028E+03  0.65864270000E+03 0. -1.
    8880022    1    1    2    0    0 -0.36600977456E+02  0.14304055313E+03 -0.39673690554E+03  0.45010227352E+03  0.15294330000E+03 0.  0.
<mgrwt>
<rscale>  0 0.50565602E+03</rscale>
<asrwt>0</asrwt>
<pdfrwt beam="1">  1        2 0.13519565E+00 0.67498921E+03</pdfrwt>
<pdfrwt beam="2">  1       -2 0.85706789E-01 0.67498921E+03</pdfrwt>
<totfact> 0.36625005E+01</totfact>
</mgrwt>
</event>
<event>
 4    2  0.3747163E-007  0.6943435E+03  0.7818608E-02  0.1002153E+00
         -2   -1    0    0    0  501 -0.00000000000E+00  0.00000000000E+00  0.50486734235E+03  0.50486734236E+03  0.25500000000E-02 0.  1.
          2   -1    0    0  501    0  0.00000000000E+00 -0.00000000000E+00 -0.60561938909E+03  0.60561938910E+03  0.25500000000E-02 0. -1.
    8880023    1    1    2    0    0  0.11432048832E+03 -0.18770583211E+03 -0.31988878448E+03  0.76448786397E+03  0.65864270000E+03 0. -1.
    8880022    1    1    2    0    0 -0.11432048832E+03  0.18770583211E+03  0.21913673774E+03  0.34599886748E+03  0.15294330000E+03 0.  0.
<mgrwt>
<rscale>  0 0.54716253E+03</rscale>
<asrwt>0</asrwt>
<pdfrwt beam="1">  1        2 0.93172214E-01 0.69434347E+03</pdfrwt>
<pdfrwt beam="2">  1       -2 0.77671898E-01 0.69434347E+03</pdfrwt>
<totfact> 0.73563720E+01</totfact>
</mgrwt>
</event>
<event>
 4    2  0.3747163E-007  0.8305023E+03  0.7818608E-02  0.9648356E-01
          2   -1    0    0  501    0  0.00000000000E+00  0.00000000000E+00  0.98662746921E+03  0.98662746921E+03  0.25500000000E-02 0. -1.
         -2   -1    0    0    0  501 -0.00000000000E+00 -0.00000000000E+00 -0.98319007952E+03  0.98319007953E+03  0.25500000000E-02 0.  1.
    8880023    1    1    2    0    0  0.16724808088E+03 -0.47744321155E+03  0.70643708531E+03  0.10903153225E+04  0.65864270000E+03 0.  0.
    8880022    1    1    2    0    0 -0.16724808088E+03  0.47744321155E+03 -0.70299969563E+03  0.87950222619E+03  0.15294330000E+03 0.  0.
<mgrwt>
<rscale>  0 0.74176706E+03</rscale>
<asrwt>0</asrwt>
<pdfrwt beam="1">  1        2 0.15178884E+00 0.83050235E+03</pdfrwt>
<pdfrwt beam="2">  1       -2 0.15126001E+00 0.83050235E+03</pdfrwt>
<totfact> 0.75944385E+00</totfact>
</mgrwt>
</event>
<event>
 4    2  0.3747163E-007  0.7379653E+03  0.7818608E-02  0.9865914E-01
         -2   -1    0    0    0  501 -0.00000000000E+00  0.00000000000E+00  0.12618940214E+04  0.12618940214E+04  0.25500000000E-02 0.  1.
          2   -1    0    0  501    0  0.00000000000E+00 -0.00000000000E+00 -0.42391936441E+03  0.42391936441E+03  0.25500000000E-02 0. -1.
    8880023    1    1    2    0    0 -0.24888873888E+03 -0.22099072850E+03 -0.35318746240E+02  0.73880993938E+03  0.65864270000E+03 0.  0.
    8880022    1    1    2    0    0  0.24888873888E+03  0.22099072850E+03  0.87329340321E+03  0.94700344642E+03  0.15294330000E+03 0.  0.
<mgrwt>
<rscale>  0 0.61942046E+03</rscale>
<asrwt>0</asrwt>
<pdfrwt beam="1">  1        2 0.65218365E-01 0.73796525E+03</pdfrwt>
<pdfrwt beam="2">  1       -2 0.19413754E+00 0.73796525E+03</pdfrwt>
<totfact> 0.11034598E+01</totfact>
</mgrwt>
</event>
<event>
 4    2  0.3747163E-007  0.6754954E+03  0.7818608E-02  0.1011996E+00
         -2   -1    0    0    0  501 -0.00000000000E+00  0.00000000000E+00  0.28743235672E+03  0.28743235673E+03  0.25500000000E-02 0.  1.
          2   -1    0    0  501    0  0.00000000000E+00 -0.00000000000E+00 -0.16887566301E+04  0.16887566301E+04  0.25500000000E-02 0. -1.
    8880023    1    1    2    0    0  0.14968971635E+03  0.87616435174E+01 -0.15663529586E+04  0.17058005671E+04  0.65864270000E+03 0. -1.
    8880022    1    1    2    0    0 -0.14968971635E+03 -0.87616435174E+01  0.16502868520E+03  0.27038841975E+03  0.15294330000E+03 0.  0.
<mgrwt>
<rscale>  0 0.50689067E+03</rscale>
<asrwt>0</asrwt>
<pdfrwt beam="1">  1        2 0.25980871E+00 0.67549536E+03</pdfrwt>
<pdfrwt beam="2">  1       -2 0.44220364E-01 0.67549536E+03</pdfrwt>
<totfact> 0.49873004E+01</totfact>
</mgrwt>
</event>
<event>
 4    2  0.3747163E-007  0.1266660E+04  0.7818608E-02  0.9094899E-01
         -2   -1    0    0    0  501 -0.00000000000E+00  0.00000000000E+00  0.11956083631E+04  0.11956083631E+04  0.25500000000E-02 0.  1.
          2   -1    0    0  501    0  0.00000000000E+00 -0.00000000000E+00 -0.17769978727E+04  0.17769978727E+04  0.25500000000E-02 0. -1.
    8880023    1    1    2    0    0  0.47766226598E+03 -0.97080164202E+03 -0.11761569396E+04  0.17285174056E+04  0.65864270000E+03 0. -1.
    8880022    1    1    2    0    0 -0.47766226598E+03  0.97080164202E+03  0.59476743008E+03  0.12440888302E+04  0.15294330000E+03 0.  0.
<mgrwt>
<rscale>  0 0.12207337E+04</rscale>
<asrwt>0</asrwt>
<pdfrwt beam="1">  1        2 0.27338429E+00 0.12666599E+04</pdfrwt>
<pdfrwt beam="2">  1       -2 0.18393975E+00 0.12666599E+04</pdfrwt>
<totfact> 0.14585256E+00</totfact>
</mgrwt>
</event>
<event>
 4    2  0.3747163E-007  0.6910102E+03  0.7818608E-02  0.1003676E+00
         -2   -1    0    0    0  501 -0.00000000000E+00  0.00000000000E+00  0.18867614124E+03  0.18867614126E+03  0.25500000000E-02 0.  1.
          2   -1    0    0  501    0  0.00000000000E+00 -0.00000000000E+00 -0.12935322977E+04  0.12935322977E+04  0.25500000000E-02 0. -1.
    8880023    1    1    2    0    0  0.20807111524E+03  0.19781264619E+02 -0.60150424635E+03  0.91613451636E+03  0.65864270000E+03 0.  1.
    8880022    1    1    2    0    0 -0.20807111524E+03 -0.19781264619E+02 -0.50335191011E+03  0.56607392260E+03  0.15294330000E+03 0. -1.
<mgrwt>
<rscale>  0 0.54067299E+03</rscale>
<asrwt>0</asrwt>
<pdfrwt beam="1">  1        2 0.19900496E+00 0.69101020E+03</pdfrwt>
<pdfrwt beam="2">  1       -2 0.29027099E-01 0.69101020E+03</pdfrwt>
<totfact> 0.18487221E+02</totfact>
</mgrwt>
</event>
<event>
 4    2  0.3747163E-007  0.1125847E+04  0.7818608E-02  0.9232811E-01
          2   -1    0    0  501    0  0.00000000000E+00  0.00000000000E+00  0.18570540894E+04  0.18570540894E+04  0.25500000000E-02 0. -1.
         -2   -1    0    0    0  501 -0.00000000000E+00 -0.00000000000E+00 -0.10183090972E+04  0.10183090972E+04  0.25500000000E-02 0.  1.
    8880023    1    1    2    0    0  0.68683223199E+03  0.60164914272E+03  0.13970578165E+04  0.17942410526E+04  0.65864270000E+03 0. -1.
    8880022    1    1    2    0    0 -0.68683223199E+03 -0.60164914272E+03 -0.55831282426E+03  0.10811221340E+04  0.15294330000E+03 0.  0.
<mgrwt>
<rscale>  0 0.10721094E+04</rscale>
<asrwt>0</asrwt>
<pdfrwt beam="1">  1        2 0.28570063E+00 0.11258465E+04</pdfrwt>
<pdfrwt beam="2">  1       -2 0.15666294E+00 0.11258465E+04</pdfrwt>
<totfact> 0.20976655E+00</totfact>
</mgrwt>
</event>
<event>
 4    2  0.3747163E-007  0.1387186E+04  0.7818608E-02  0.8993704E-01
          2   -1    0    0  501    0  0.00000000000E+00  0.00000000000E+00  0.28282311381E+04  0.28282311381E+04  0.25500000000E-02 0. -1.
         -2   -1    0    0    0  501 -0.00000000000E+00 -0.00000000000E+00 -0.13182646537E+04  0.13182646537E+04  0.25500000000E-02 0.  1.
    8880023    1    1    2    0    0 -0.10027640185E+04  0.69637577968E+03  0.22988231916E+04  0.26849344826E+04  0.65864270000E+03 0.  0.
    8880022    1    1    2    0    0  0.10027640185E+04 -0.69637577968E+03 -0.78885670719E+03  0.14615613093E+04  0.15294330000E+03 0.  0.
<mgrwt>
<rscale>  0 0.13462074E+04</rscale>
<asrwt>0</asrwt>
<pdfrwt beam="1">  1        2 0.43511248E+00 0.13871860E+04</pdfrwt>
<pdfrwt beam="2">  1       -2 0.20280995E+00 0.13871860E+04</pdfrwt>
<totfact> 0.27051742E-01</totfact>
</mgrwt>
</event>
<event>
 4    2  0.3747163E-007  0.7098088E+03  0.7818608E-02  0.9958712E-01
         -2   -1    0    0    0  501 -0.00000000000E+00  0.00000000000E+00  0.19908915823E+03  0.19908915825E+03  0.25500000000E-02 0.  1.
          2   -1    0    0  501    0  0.00000000000E+00 -0.00000000000E+00 -0.13504883379E+04  0.13504883379E+04  0.25500000000E-02 0. -1.
    8880023    1    1    2    0    0  0.24145172470E+03 -0.10825587947E+03 -0.65049505011E+03  0.96279400044E+03  0.65864270000E+03 0.  0.
    8880022    1    1    2    0    0 -0.24145172470E+03  0.10825587947E+03 -0.50090412951E+03  0.58678349566E+03  0.15294330000E+03 0.  0.
<mgrwt>
<rscale>  0 0.57498318E+03</rscale>
<asrwt>0</asrwt>
<pdfrwt beam="1">  1        2 0.20776743E+00 0.70980876E+03</pdfrwt>
<pdfrwt beam="2">  1       -2 0.30629102E-01 0.70980876E+03</pdfrwt>
<totfact> 0.15502351E+02</totfact>
</mgrwt>
</event>
<event>
 4    2  0.3747163E-007  0.7762418E+03  0.7818608E-02  0.9764740E-01
         -2   -1    0    0    0  501 -0.00000000000E+00  0.00000000000E+00  0.27116125720E+03  0.27116125722E+03  0.25500000000E-02 0.  1.
          2   -1    0    0  501    0  0.00000000000E+00 -0.00000000000E+00 -0.40194959994E+04  0.40194959994E+04  0.25500000000E-02 0. -1.
    8880023    1    1    2    0    0  0.40839931901E+03  0.44171631748E+02 -0.37726246286E+04  0.38516552197E+04  0.65864270000E+03 0.  0.
    8880022    1    1    2    0    0 -0.40839931901E+03 -0.44171631748E+02  0.24289886409E+02  0.43900203691E+03  0.15294330000E+03 0.  0.
<mgrwt>
<rscale>  0 0.67289602E+03</rscale>
<asrwt>0</asrwt>
<pdfrwt beam="1">  1        2 0.61838396E+00 0.77624181E+03</pdfrwt>
<pdfrwt beam="2">  1       -2 0.41717119E-01 0.77624181E+03</pdfrwt>
<totfact> 0.19825266E+00</totfact>
</mgrwt>
</event>
<event>
 4    2  0.3747163E-007  0.7794520E+03  0.7818608E-02  0.9757126E-01
         -2   -1    0    0    0  501 -0.00000000000E+00  0.00000000000E+00  0.32238489339E+03  0.32238489340E+03  0.25500000000E-02 0.  1.
          2   -1    0    0  501    0  0.00000000000E+00 -0.00000000000E+00 -0.33434703129E+04  0.33434703129E+04  0.25500000000E-02 0. -1.
    8880023    1    1    2    0    0  0.18800733738E+03  0.37200603446E+03 -0.31158512219E+04  0.32118646129E+04  0.65864270000E+03 0. -1.
    8880022    1    1    2    0    0 -0.18800733738E+03 -0.37200603446E+03  0.94765802341E+02  0.45399059340E+03  0.15294330000E+03 0.  0.
<mgrwt>
<rscale>  0 0.67715062E+03</rscale>
<asrwt>0</asrwt>
<pdfrwt beam="1">  1        2 0.51438002E+00 0.77945202E+03</pdfrwt>
<pdfrwt beam="2">  1       -2 0.49597678E-01 0.77945202E+03</pdfrwt>
<totfact> 0.42969419E+00</totfact>
</mgrwt>
</event>
<event>
 4    2  0.3747163E-007  0.6661681E+03  0.7818608E-02  0.1018573E+00
         -2   -1    0    0    0  501 -0.00000000000E+00  0.00000000000E+00  0.19385624010E+03  0.19385624012E+03  0.25500000000E-02 0.  1.
          2   -1    0    0  501    0  0.00000000000E+00 -0.00000000000E+00 -0.21530439374E+04  0.21530439374E+04  0.25500000000E-02 0. -1.
    8880023    1    1    2    0    0  0.99664912897E+02  0.60518326560E+01 -0.20408514803E+04  0.21468243269E+04  0.65864270000E+03 0.  0.
    8880022    1    1    2    0    0 -0.99664912897E+02 -0.60518326560E+01  0.81663783011E+02  0.20007585065E+03  0.15294330000E+03 0.  1.
<mgrwt>
<rscale>  0 0.48205141E+03</rscale>
<asrwt>0</asrwt>
<pdfrwt beam="1">  1        2 0.33123751E+00 0.66616809E+03</pdfrwt>
<pdfrwt beam="2">  1       -2 0.29824039E-01 0.66616809E+03</pdfrwt>
<totfact> 0.59327601E+01</totfact>
</mgrwt>
</event>
<event>
 4    2  0.3747163E-007  0.1147665E+04  0.7818608E-02  0.9209755E-01
         -2   -1    0    0    0  501 -0.00000000000E+00  0.00000000000E+00  0.17940097110E+04  0.17940097110E+04  0.25500000000E-02 0.  1.
          2   -1    0    0  501    0  0.00000000000E+00 -0.00000000000E+00 -0.14966040540E+04  0.14966040540E+04  0.25500000000E-02 0. -1.
    8880023    1    1    2    0    0 -0.59740139512E+03 -0.72555856086E+03 -0.11065291777E+04  0.15942210259E+04  0.65864270000E+03 0. -1.
    8880022    1    1    2    0    0  0.59740139512E+03  0.72555856086E+03  0.14039348347E+04  0.16963927391E+04  0.15294330000E+03 0.  0.
<mgrwt>
<rscale>  0 0.10953303E+04</rscale>
<asrwt>0</asrwt>
<pdfrwt beam="1">  1        2 0.23024678E+00 0.11476645E+04</pdfrwt>
<pdfrwt beam="2">  1       -2 0.27600149E+00 0.11476645E+04</pdfrwt>
<totfact> 0.55680198E-01</totfact>
</mgrwt>
</event>
<event>
 4    2  0.3747163E-007  0.6763948E+03  0.7818608E-02  0.1011441E+00
         -2   -1    0    0    0  501 -0.00000000000E+00  0.00000000000E+00  0.10727826391E+04  0.10727826391E+04  0.25500000000E-02 0.  1.
          2   -1    0    0  501    0  0.00000000000E+00 -0.00000000000E+00 -0.50969113864E+03  0.50969113865E+03  0.25500000000E-02 0. -1.
    8880023    1    1    2    0    0  0.12614950008E+03 -0.88238366819E+02 -0.26497525268E+03  0.72644462731E+03  0.65864270000E+03 0. -1.
    8880022    1    1    2    0    0 -0.12614950008E+03  0.88238366819E+02  0.82806675313E+03  0.85602915044E+03  0.15294330000E+03 0.  0.
<mgrwt>
<rscale>  0 0.50905868E+03</rscale>
<asrwt>0</asrwt>
<pdfrwt beam="1">  1        2 0.78414022E-01 0.67639479E+03</pdfrwt>
<pdfrwt beam="2">  1       -2 0.16504348E+00 0.67639479E+03</pdfrwt>
<totfact> 0.14245448E+01</totfact>
</mgrwt>
</event>
<event>
 4    2  0.3747163E-007  0.8728584E+03  0.7818608E-02  0.9571088E-01
          2   -1    0    0  501    0  0.00000000000E+00  0.00000000000E+00  0.18214740640E+04  0.18214740640E+04  0.25500000000E-02 0. -1.
         -2   -1    0    0    0  501 -0.00000000000E+00 -0.00000000000E+00 -0.53442591623E+03  0.53442591623E+03  0.25500000000E-02 0.  1.
    8880023    1    1    2    0    0 -0.50691834363E+03  0.26665578612E+03  0.14920519583E+04  0.17286123822E+04  0.65864270000E+03 0.  0.
    8880022    1    1    2    0    0  0.50691834363E+03 -0.26665578612E+03 -0.20500381048E+03  0.62728759808E+03  0.15294330000E+03 0.  0.
<mgrwt>
<rscale>  0 0.79239698E+03</rscale>
<asrwt>0</asrwt>
<pdfrwt beam="1">  1        2 0.28022678E+00 0.87285836E+03</pdfrwt>
<pdfrwt beam="2">  1       -2 0.82219372E-01 0.87285836E+03</pdfrwt>
<totfact> 0.11066364E+01</totfact>
</mgrwt>
</event>
<event>
 4    2  0.3747163E-007  0.7117375E+03  0.7818608E-02  0.9951605E-01
         -2   -1    0    0    0  501 -0.00000000000E+00  0.00000000000E+00  0.26483828224E+03  0.26483828225E+03  0.25500000000E-02 0.  1.
          2   -1    0    0  501    0  0.00000000000E+00 -0.00000000000E+00 -0.24205265085E+04  0.24205265085E+04  0.25500000000E-02 0. -1.
    8880023    1    1    2    0    0 -0.43216677202E+02 -0.26625619002E+03 -0.22510982399E+04  0.23609348852E+04  0.65864270000E+03 0. -1.
    8880022    1    1    2    0    0  0.43216677202E+02  0.26625619002E+03  0.95410013670E+02  0.32442990558E+03  0.15294330000E+03 0.  0.
<mgrwt>
<rscale>  0 0.57824182E+03</rscale>
<asrwt>0</asrwt>
<pdfrwt beam="1">  1        2 0.37238868E+00 0.71173748E+03</pdfrwt>
<pdfrwt beam="2">  1       -2 0.40744353E-01 0.71173748E+03</pdfrwt>
<totfact> 0.23152684E+01</totfact>
</mgrwt>
</event>
<event>
 4    2  0.3747163E-007  0.8238689E+03  0.7818608E-02  0.9661381E-01
          2   -1    0    0  501    0  0.00000000000E+00  0.00000000000E+00  0.84242743467E+03  0.84242743468E+03  0.25500000000E-02 0. -1.
         -2   -1    0    0    0  501 -0.00000000000E+00 -0.00000000000E+00 -0.70462379809E+03  0.70462379810E+03  0.25500000000E-02 0.  1.
    8880023    1    1    2    0    0  0.15718832633E+03 -0.46929904468E+03  0.45347937788E+03  0.94042730485E+03  0.65864270000E+03 0. -1.
    8880022    1    1    2    0    0 -0.15718832633E+03  0.46929904468E+03 -0.31567574130E+03  0.60662392793E+03  0.15294330000E+03 0.  0.
<mgrwt>
<rscale>  0 0.73363416E+03</rscale>
<asrwt>0</asrwt>
<pdfrwt beam="1">  1        2 0.12960422E+00 0.82386890E+03</pdfrwt>
<pdfrwt beam="2">  1       -2 0.10840366E+00 0.82386890E+03</pdfrwt>
<totfact> 0.22043338E+01</totfact>
</mgrwt>
</event>
<event>
 4    2  0.3747163E-007  0.7406150E+03  0.7818608E-02  0.9858159E-01
         -2   -1    0    0    0  501 -0.00000000000E+00  0.00000000000E+00  0.71330387021E+03  0.71330387021E+03  0.25500000000E-02 0.  1.
          2   -1    0    0  501    0  0.00000000000E+00 -0.00000000000E+00 -0.82469789906E+03  0.82469789906E+03  0.25500000000E-02 0. -1.
    8880023    1    1    2    0    0 -0.33799141785E+03  0.21498100527E+02 -0.57945588816E+03  0.94036147276E+03  0.65864270000E+03 0. -1.
    8880022    1    1    2    0    0  0.33799141785E+03 -0.21498100527E+02  0.46806185931E+03  0.59764029652E+03  0.15294330000E+03 0.  0.
<mgrwt>
<rscale>  0 0.62332630E+03</rscale>
<asrwt>0</asrwt>
<pdfrwt beam="1">  1        2 0.12687660E+00 0.74061500E+03</pdfrwt>
<pdfrwt beam="2">  1       -2 0.10973906E+00 0.74061500E+03</pdfrwt>
<totfact> 0.22193496E+01</totfact>
</mgrwt>
</event>
<event>
 4    2  0.3747163E-007  0.7266945E+03  0.7818608E-02  0.9900552E-01
         -2   -1    0    0    0  501 -0.00000000000E+00  0.00000000000E+00  0.12978868128E+04  0.12978868128E+04  0.25500000000E-02 0.  1.
          2   -1    0    0  501    0  0.00000000000E+00 -0.00000000000E+00 -0.11094435163E+04  0.11094435163E+04  0.25500000000E-02 0. -1.
    8880023    1    1    2    0    0  0.53397122800E+02  0.30236314000E+03 -0.96269024798E+03  0.12061747141E+04  0.65864270000E+03 0. -1.
    8880022    1    1    2    0    0 -0.53397122800E+02 -0.30236314000E+03  0.11511335445E+04  0.12011556150E+04  0.15294330000E+03 0.  0.
<mgrwt>
<rscale>  0 0.60234521E+03</rscale>
<asrwt>0</asrwt>
<pdfrwt beam="1">  1        2 0.17068362E+00 0.72669452E+03</pdfrwt>
<pdfrwt beam="2">  1       -2 0.19967489E+00 0.72669452E+03</pdfrwt>
<totfact> 0.29574709E+00</totfact>
</mgrwt>
</event>
<event>
 4    2  0.3747163E-007  0.8545181E+03  0.7818608E-02  0.9603390E-01
          2   -1    0    0  501    0  0.00000000000E+00  0.00000000000E+00  0.14035407089E+04  0.14035407089E+04  0.25500000000E-02 0. -1.
         -2   -1    0    0    0  501 -0.00000000000E+00 -0.00000000000E+00 -0.86144727861E+03  0.86144727862E+03  0.25500000000E-02 0.  1.
    8880023    1    1    2    0    0  0.37433628161E+03  0.39530166040E+03  0.11513039156E+04  0.14337719368E+04  0.65864270000E+03 0. -1.
    8880022    1    1    2    0    0 -0.37433628161E+03 -0.39530166040E+03 -0.60921048535E+03  0.83121605068E+03  0.15294330000E+03 0.  0.
<mgrwt>
<rscale>  0 0.77072215E+03</rscale>
<asrwt>0</asrwt>
<pdfrwt beam="1">  1        2 0.21592934E+00 0.85451815E+03</pdfrwt>
<pdfrwt beam="2">  1       -2 0.13253035E+00 0.85451815E+03</pdfrwt>
<totfact> 0.60130026E+00</totfact>
</mgrwt>
</event>
<event>
 4    2  0.3747163E-007  0.1201440E+04  0.7818608E-02  0.9155724E-01
         -2   -1    0    0    0  501 -0.00000000000E+00  0.00000000000E+00  0.20692664142E+04  0.20692664142E+04  0.25500000000E-02 0.  1.
          2   -1    0    0  501    0  0.00000000000E+00 -0.00000000000E+00 -0.88735473551E+03  0.88735473552E+03  0.25500000000E-02 0. -1.
    8880023    1    1    2    0    0  0.99967224985E+03  0.10150887811E+03 -0.22364737501E+03  0.12220789721E+04  0.65864270000E+03 0. -1.
    8880022    1    1    2    0    0 -0.99967224985E+03 -0.10150887811E+03  0.14055590537E+04  0.17345421776E+04  0.15294330000E+03 0.  0.
<mgrwt>
<rscale>  0 0.11522357E+04</rscale>
<asrwt>0</asrwt>
<pdfrwt beam="1">  1        2 0.13651611E+00 0.12014403E+04</pdfrwt>
<pdfrwt beam="2">  1       -2 0.31834868E+00 0.12014403E+04</pdfrwt>
<totfact> 0.71919370E-01</totfact>
</mgrwt>
</event>
<event>
 4    2  0.3747163E-007  0.8559192E+03  0.7818608E-02  0.9600864E-01
         -2   -1    0    0    0  501 -0.00000000000E+00  0.00000000000E+00  0.26905958345E+03  0.26905958346E+03  0.25500000000E-02 0.  1.
          2   -1    0    0  501    0  0.00000000000E+00 -0.00000000000E+00 -0.19110872190E+04  0.19110872190E+04  0.25500000000E-02 0. -1.
    8880023    1    1    2    0    0 -0.94440169728E+02  0.53839436777E+03 -0.85511844840E+03  0.12098864442E+04  0.65864270000E+03 0. -1.
    8880022    1    1    2    0    0  0.94440169728E+02 -0.53839436777E+03 -0.78690918720E+03  0.97026035827E+03  0.15294330000E+03 0.  0.
<mgrwt>
<rscale>  0 0.77239017E+03</rscale>
<asrwt>0</asrwt>
<pdfrwt beam="1">  1        2 0.29401341E+00 0.85591918E+03</pdfrwt>
<pdfrwt beam="2">  1       -2 0.41393783E-01 0.85591918E+03</pdfrwt>
<totfact> 0.42094719E+01</totfact>
</mgrwt>
</event>
<event>
 4    2  0.3747163E-007  0.9278320E+03  0.7818608E-02  0.9482753E-01
         -2   -1    0    0    0  501 -0.00000000000E+00  0.00000000000E+00  0.31278721156E+03  0.31278721157E+03  0.25500000000E-02 0.  1.
          2   -1    0    0  501    0  0.00000000000E+00 -0.00000000000E+00 -0.24716800952E+04  0.24716800952E+04  0.25500000000E-02 0. -1.
    8880023    1    1    2    0    0 -0.53201083904E+03 -0.37950824415E+03 -0.17959434214E+04  0.20214561631E+04  0.65864270000E+03 0.  0.
    8880022    1    1    2    0    0  0.53201083904E+03  0.37950824415E+03 -0.36294946228E+03  0.76301114370E+03  0.15294330000E+03 0.  0.
<mgrwt>
<rscale>  0 0.85567390E+03</rscale>
<asrwt>0</asrwt>
<pdfrwt beam="1">  1        2 0.38025846E+00 0.92783201E+03</pdfrwt>
<pdfrwt beam="2">  1       -2 0.48121111E-01 0.92783201E+03</pdfrwt>
<totfact> 0.15093156E+01</totfact>
</mgrwt>
</event>
<event>
 4    2  0.3747163E-007  0.8879121E+03  0.7818608E-02  0.9545722E-01
          2   -1    0    0  501    0  0.00000000000E+00  0.00000000000E+00  0.14888065292E+04  0.14888065292E+04  0.25500000000E-02 0. -1.
         -2   -1    0    0    0  501 -0.00000000000E+00 -0.00000000000E+00 -0.79959880426E+03  0.79959880426E+03  0.25500000000E-02 0.  1.
    8880023    1    1    2    0    0  0.57327841992E+03 -0.16102673667E+03  0.11974530910E+04  0.14907319907E+04  0.65864270000E+03 0. -1.
    8880022    1    1    2    0    0 -0.57327841992E+03  0.16102673667E+03 -0.50824536605E+03  0.79767334278E+03  0.15294330000E+03 0.  0.
<mgrwt>
<rscale>  0 0.80995255E+03</rscale>
<asrwt>0</asrwt>
<pdfrwt beam="1">  1        2 0.22904716E+00 0.88791214E+03</pdfrwt>
<pdfrwt beam="2">  1       -2 0.12301520E+00 0.88791214E+03</pdfrwt>
<totfact> 0.64704000E+00</totfact>
</mgrwt>
</event>
<event>
 4    2  0.3747163E-007  0.7361697E+03  0.7818608E-02  0.9871248E-01
         -2   -1    0    0    0  501 -0.00000000000E+00  0.00000000000E+00  0.24887955090E+03  0.24887955092E+03  0.25500000000E-02 0.  1.
          2   -1    0    0  501    0  0.00000000000E+00 -0.00000000000E+00 -0.22321421944E+04  0.22321421944E+04  0.25500000000E-02 0. -1.
    8880023    1    1    2    0    0  0.31138488614E+03 -0.10571223480E+03 -0.19863099460E+04  0.21183420478E+04  0.65864270000E+03 0.  0.
    8880022    1    1    2    0    0 -0.31138488614E+03  0.10571223480E+03  0.30473024694E+01  0.36267969748E+03  0.15294330000E+03 0.  0.
<mgrwt>
<rscale>  0 0.61675181E+03</rscale>
<asrwt>0</asrwt>
<pdfrwt beam="1">  1        2 0.34340648E+00 0.73616970E+03</pdfrwt>
<pdfrwt beam="2">  1       -2 0.38289163E-01 0.73616970E+03</pdfrwt>
<totfact> 0.33139633E+01</totfact>
</mgrwt>
</event>
<event>
 4    2  0.3747163E-007  0.6784243E+03  0.7818608E-02  0.1010229E+00
         -2   -1    0    0    0  501 -0.00000000000E+00  0.00000000000E+00  0.14911999337E+03  0.14911999340E+03  0.25500000000E-02 0.  1.
          2   -1    0    0  501    0  0.00000000000E+00 -0.00000000000E+00 -0.26631175328E+04  0.26631175328E+04  0.25500000000E-02 0. -1.
    8880023    1    1    2    0    0  0.40856469917E+02  0.15741681743E+03 -0.24979188269E+04  0.25884083870E+04  0.65864270000E+03 0. -1.
    8880022    1    1    2    0    0 -0.40856469917E+02 -0.15741681743E+03 -0.16078712462E+02  0.22382913919E+03  0.15294330000E+03 0.  0.
<mgrwt>
<rscale>  0 0.51383577E+03</rscale>
<asrwt>0</asrwt>
<pdfrwt beam="1">  1        2 0.40971035E+00 0.67842429E+03</pdfrwt>
<pdfrwt beam="2">  1       -2 0.22941539E-01 0.67842429E+03</pdfrwt>
<totfact> 0.49357916E+01</totfact>
</mgrwt>
</event>
<event>
 4    2  0.3747163E-007  0.7138603E+03  0.7818608E-02  0.9943936E-01
         -2   -1    0    0    0  501 -0.00000000000E+00  0.00000000000E+00  0.19963438691E+03  0.19963438693E+03  0.25500000000E-02 0.  1.
          2   -1    0    0  501    0  0.00000000000E+00 -0.00000000000E+00 -0.21041608275E+04  0.21041608275E+04  0.25500000000E-02 0. -1.
    8880023    1    1    2    0    0  0.13000435076E+02 -0.27498614553E+03 -0.18516117476E+04  0.19844552556E+04  0.65864270000E+03 0.  0.
    8880022    1    1    2    0    0 -0.13000435076E+02  0.27498614553E+03 -0.52914693016E+02  0.31933995882E+03  0.15294330000E+03 0.  1.
<mgrwt>
<rscale>  0 0.58178415E+03</rscale>
<asrwt>0</asrwt>
<pdfrwt beam="1">  1        2 0.32371703E+00 0.71386035E+03</pdfrwt>
<pdfrwt beam="2">  1       -2 0.30712984E-01 0.71386035E+03</pdfrwt>
<totfact> 0.59375570E+01</totfact>
</mgrwt>
</event>
<event>
 4    2  0.4097362E-007  0.7029444E+03  0.7818608E-02  0.9985199E-01
         -2   -1    0    0    0  501 -0.00000000000E+00  0.00000000000E+00  0.67363679566E+03  0.67363679567E+03  0.25500000000E-02 0.  1.
          2   -1    0    0  501    0  0.00000000000E+00 -0.00000000000E+00 -0.30600299758E+04  0.30600299758E+04  0.25500000000E-02 0. -1.
    8880023    1    1    2    0    0 -0.23588035944E+03 -0.68418401807E+02 -0.29861483367E+04  0.30677699908E+04  0.65864270000E+03 0. -1.
    8880022    1    1    2    0    0  0.23588035944E+03  0.68418401807E+02  0.59975515653E+03  0.66589678065E+03  0.15294330000E+03 0.  0.
<mgrwt>
<rscale>  0 0.56304016E+03</rscale>
<asrwt>0</asrwt>
<pdfrwt beam="1">  1        2 0.47077383E+00 0.70294440E+03</pdfrwt>
<pdfrwt beam="2">  1       -2 0.10363643E+00 0.70294440E+03</pdfrwt>
<totfact> 0.13093477E+00</totfact>
</mgrwt>
</event>
<event>
 4    2  0.3747163E-007  0.7415547E+03  0.7818608E-02  0.9855441E-01
          2   -1    0    0  501    0  0.00000000000E+00  0.00000000000E+00  0.18744429501E+04  0.18744429501E+04  0.25500000000E-02 0. -1.
         -2   -1    0    0    0  501 -0.00000000000E+00 -0.00000000000E+00 -0.25204061526E+03  0.25204061527E+03  0.25500000000E-02 0.  1.
    8880023    1    1    2    0    0 -0.55776275092E+02  0.33612818942E+03  0.15865403033E+04  0.17512890946E+04  0.65864270000E+03 0. -1.
    8880022    1    1    2    0    0  0.55776275092E+02 -0.33612818942E+03  0.35862031540E+02  0.37519447078E+03  0.15294330000E+03 0.  0.
<mgrwt>
<rscale>  0 0.62470251E+03</rscale>
<asrwt>0</asrwt>
<pdfrwt beam="1">  1        2 0.28837585E+00 0.74155469E+03</pdfrwt>
<pdfrwt beam="2">  1       -2 0.38775477E-01 0.74155469E+03</pdfrwt>
<totfact> 0.50718722E+01</totfact>
</mgrwt>
</event>
<event>
 4    2  0.3747163E-007  0.7300063E+03  0.7818608E-02  0.9890077E-01
         -2   -1    0    0    0  501 -0.00000000000E+00  0.00000000000E+00  0.55759607750E+03  0.55759607751E+03  0.25500000000E-02 0.  1.
          2   -1    0    0  501    0  0.00000000000E+00 -0.00000000000E+00 -0.72058114383E+03  0.72058114384E+03  0.25500000000E-02 0. -1.
    8880023    1    1    2    0    0  0.29996894917E+03  0.95486220489E+02 -0.42160357078E+03  0.84300579234E+03  0.65864270000E+03 0.  0.
    8880022    1    1    2    0    0 -0.29996894917E+03 -0.95486220489E+02  0.25861850445E+03  0.43517142901E+03  0.15294330000E+03 0.  0.
<mgrwt>
<rscale>  0 0.60744620E+03</rscale>
<asrwt>0</asrwt>
<pdfrwt beam="1">  1        2 0.11085864E+00 0.73000630E+03</pdfrwt>
<pdfrwt beam="2">  1       -2 0.85784012E-01 0.73000630E+03</pdfrwt>
<totfact> 0.47276939E+01</totfact>
</mgrwt>
</event>
<event>
 4    2  0.3747163E-007  0.9310291E+03  0.7818608E-02  0.9477951E-01
          2   -1    0    0  501    0  0.00000000000E+00  0.00000000000E+00  0.18759410629E+04  0.18759410629E+04  0.25500000000E-02 0. -1.
         -2   -1    0    0    0  501 -0.00000000000E+00 -0.00000000000E+00 -0.56523898218E+03  0.56523898219E+03  0.25500000000E-02 0.  1.
    8880023    1    1    2    0    0  0.27925387668E+03  0.59583751334E+03  0.14765306820E+04  0.17455538179E+04  0.65864270000E+03 0.  0.
    8880022    1    1    2    0    0 -0.27925387668E+03 -0.59583751334E+03 -0.16582860130E+03  0.69562622720E+03  0.15294330000E+03 0.  0.
<mgrwt>
<rscale>  0 0.85929102E+03</rscale>
<asrwt>0</asrwt>
<pdfrwt beam="1">  1        2 0.28860632E+00 0.93102915E+03</pdfrwt>
<pdfrwt beam="2">  1       -2 0.86959843E-01 0.93102915E+03</pdfrwt>
<totfact> 0.90276966E+00</totfact>
</mgrwt>
</event>
<event>
 4    2  0.3747163E-007  0.7563664E+03  0.7818608E-02  0.9814607E-01
          2   -1    0    0  501    0  0.00000000000E+00  0.00000000000E+00  0.19951781565E+04  0.19951781565E+04  0.25500000000E-02 0. -1.
         -2   -1    0    0    0  501 -0.00000000000E+00 -0.00000000000E+00 -0.28187944551E+03  0.28187944552E+03  0.25500000000E-02 0.  1.
    8880023    1    1    2    0    0 -0.20082893198E+03  0.31296587234E+03  0.17156370173E+04  0.18749667940E+04  0.65864270000E+03 0.  0.
    8880022    1    1    2    0    0  0.20082893198E+03 -0.31296587234E+03 -0.23383063501E+01  0.40209080798E+03  0.15294330000E+03 0.  0.
<mgrwt>
<rscale>  0 0.64584509E+03</rscale>
<asrwt>0</asrwt>
<pdfrwt beam="1">  1        2 0.30695049E+00 0.75636638E+03</pdfrwt>
<pdfrwt beam="2">  1       -2 0.43366067E-01 0.75636638E+03</pdfrwt>
<totfact> 0.34943052E+01</totfact>
</mgrwt>
</event>
<event>
 4    2  0.3747163E-007  0.6922129E+03  0.7818608E-02  0.1003118E+00
         -2   -1    0    0    0  501 -0.00000000000E+00  0.00000000000E+00  0.51296983120E+03  0.51296983120E+03  0.25500000000E-02 0.  1.
          2   -1    0    0  501    0  0.00000000000E+00 -0.00000000000E+00 -0.67532358440E+03  0.67532358440E+03  0.25500000000E-02 0. -1.
    8880023    1    1    2    0    0 -0.19451466768E+03 -0.86674526022E+02 -0.42897615946E+03  0.81435814054E+03  0.65864270000E+03 0.  0.
    8880022    1    1    2    0    0  0.19451466768E+03  0.86674526022E+02  0.26662240626E+03  0.37393527507E+03  0.15294330000E+03 0.  0.
<mgrwt>
<rscale>  0 0.54303898E+03</rscale>
<asrwt>0</asrwt>
<pdfrwt beam="1">  1        2 0.10389594E+00 0.69221285E+03</pdfrwt>
<pdfrwt beam="2">  1       -2 0.78918435E-01 0.69221285E+03</pdfrwt>
<totfact> 0.62126767E+01</totfact>
</mgrwt>
</event>
<event>
 4    2  0.3747163E-007  0.7763888E+03  0.7818608E-02  0.9764389E-01
         -2   -1    0    0    0  501 -0.00000000000E+00  0.00000000000E+00  0.29250009192E+03  0.29250009193E+03  0.25500000000E-02 0.  1.
          2   -1    0    0  501    0  0.00000000000E+00 -0.00000000000E+00 -0.22273929610E+04  0.22273929610E+04  0.25500000000E-02 0. -1.
    8880023    1    1    2    0    0 -0.11619439884E+03  0.39429456329E+03 -0.19310551212E+04  0.20812864840E+04  0.65864270000E+03 0. -1.
    8880022    1    1    2    0    0  0.11619439884E+03 -0.39429456329E+03 -0.38377478201E+01  0.43860656890E+03  0.15294330000E+03 0.  0.
<mgrwt>
<rscale>  0 0.67309144E+03</rscale>
<asrwt>0</asrwt>
<pdfrwt beam="1">  1        2 0.34267583E+00 0.77638879E+03</pdfrwt>
<pdfrwt beam="2">  1       -2 0.45000016E-01 0.77638879E+03</pdfrwt>
<totfact> 0.24145366E+01</totfact>
</mgrwt>
</event>
<event>
 4    2  0.3747163E-007  0.9351977E+03  0.7818608E-02  0.9471739E-01
         -2   -1    0    0    0  501 -0.00000000000E+00  0.00000000000E+00  0.45611216152E+03  0.45611216153E+03  0.25500000000E-02 0.  1.
          2   -1    0    0  501    0  0.00000000000E+00 -0.00000000000E+00 -0.20674933936E+04  0.20674933936E+04  0.25500000000E-02 0. -1.
    8880023    1    1    2    0    0  0.32201538938E+02 -0.66313469902E+03 -0.19993814799E+03  0.95633155204E+03  0.65864270000E+03 0.  0.
    8880022    1    1    2    0    0 -0.32201538938E+02  0.66313469902E+03 -0.14114430841E+04  0.15672740031E+04  0.15294330000E+03 0.  0.
<mgrwt>
<rscale>  0 0.86399840E+03</rscale>
<asrwt>0</asrwt>
<pdfrwt beam="1">  1        2 0.31807590E+00 0.93519772E+03</pdfrwt>
<pdfrwt beam="2">  1       -2 0.70171103E-01 0.93519772E+03</pdfrwt>
<totfact> 0.11457970E+01</totfact>
</mgrwt>
</event>
<event>
 4    2  0.3747163E-007  0.6991784E+03  0.7818608E-02  0.1000063E+00
         -2   -1    0    0    0  501 -0.00000000000E+00  0.00000000000E+00  0.17923830076E+03  0.17923830078E+03  0.25500000000E-02 0.  1.
          2   -1    0    0  501    0  0.00000000000E+00 -0.00000000000E+00 -0.17795355012E+04  0.17795355012E+04  0.25500000000E-02 0. -1.
    8880023    1    1    2    0    0 -0.18303448160E+03  0.14676054597E+03 -0.15108361086E+04  0.16647751298E+04  0.65864270000E+03 0. -1.
    8880022    1    1    2    0    0  0.18303448160E+03 -0.14676054597E+03 -0.89461091842E+02  0.29399867223E+03  0.15294330000E+03 0.  0.
<mgrwt>
<rscale>  0 0.55622773E+03</rscale>
<asrwt>0</asrwt>
<pdfrwt beam="1">  1        2 0.27377468E+00 0.69917844E+03</pdfrwt>
<pdfrwt beam="2">  1       -2 0.27575124E-01 0.69917844E+03</pdfrwt>
<totfact> 0.10902753E+02</totfact>
</mgrwt>
</event>
<event>
 4    2  0.3747163E-007  0.1029176E+04  0.7818608E-02  0.9344344E-01
         -2   -1    0    0    0  501 -0.00000000000E+00  0.00000000000E+00  0.34427330451E+03  0.34427330452E+03  0.25500000000E-02 0.  1.
          2   -1    0    0  501    0  0.00000000000E+00 -0.00000000000E+00 -0.58668812922E+04  0.58668812922E+04  0.25500000000E-02 0. -1.
    8880023    1    1    2    0    0 -0.67828883431E+03 -0.40659171925E+03 -0.52662478450E+04  0.53658707718E+04  0.65864270000E+03 0.  0.
    8880022    1    1    2    0    0  0.67828883431E+03  0.40659171925E+03 -0.25636014276E+03  0.84528382495E+03  0.15294330000E+03 0.  0.
<mgrwt>
<rscale>  0 0.96800968E+03</rscale>
<asrwt>0</asrwt>
<pdfrwt beam="1">  1        2 0.90259705E+00 0.10291758E+04</pdfrwt>
<pdfrwt beam="2">  1       -2 0.52965128E-01 0.10291758E+04</pdfrwt>
<totfact> 0.35031183E-03</totfact>
</mgrwt>
</event>
<event>
 4    2  0.3747163E-007  0.1590888E+04  0.7818608E-02  0.8847987E-01
         -2   -1    0    0    0  501 -0.00000000000E+00  0.00000000000E+00  0.18345251731E+04  0.18345251731E+04  0.25500000000E-02 0.  1.
          2   -1    0    0  501    0  0.00000000000E+00 -0.00000000000E+00 -0.13646632339E+04  0.13646632339E+04  0.25500000000E-02 0. -1.
    8880023    1    1    2    0    0 -0.36314789795E+03 -0.14018691824E+04  0.67585064427E+03  0.17284958490E+04  0.65864270000E+03 0.  0.
    8880022    1    1    2    0    0  0.36314789795E+03  0.14018691824E+04 -0.20598870509E+03  0.14706925580E+04  0.15294330000E+03 0.  0.
<mgrwt>
<rscale>  0 0.15560895E+04</rscale>
<asrwt>0</asrwt>
<pdfrwt beam="1">  1        2 0.20994819E+00 0.15908877E+04</pdfrwt>
<pdfrwt beam="2">  1       -2 0.28223464E+00 0.15908877E+04</pdfrwt>
<totfact> 0.57786504E-01</totfact>
</mgrwt>
</event>
<event>
 4    2  0.3747163E-007  0.6754716E+03  0.7818608E-02  0.1012011E+00
          2   -1    0    0  501    0  0.00000000000E+00  0.00000000000E+00  0.30272191266E+04  0.30272191266E+04  0.25500000000E-02 0. -1.
         -2   -1    0    0    0  501 -0.00000000000E+00 -0.00000000000E+00 -0.19846663108E+03  0.19846663110E+03  0.25500000000E-02 0.  1.
    8880023    1    1    2    0    0  0.10222361891E+03  0.10955355966E+03  0.29169380620E+04  0.29941258348E+04  0.65864270000E+03 0. -1.
    8880022    1    1    2    0    0 -0.10222361891E+03 -0.10955355966E+03 -0.88185566560E+02  0.23155992284E+03  0.15294330000E+03 0.  0.
<mgrwt>
<rscale>  0 0.50683290E+03</rscale>
<asrwt>0</asrwt>
<pdfrwt beam="1">  1        2 0.46572602E+00 0.67547158E+03</pdfrwt>
<pdfrwt beam="2">  1       -2 0.30533328E-01 0.67547158E+03</pdfrwt>
<totfact> 0.17848748E+01</totfact>
</mgrwt>
</event>
<event>
 4    2  0.3747163E-007  0.9011443E+03  0.7818608E-02  0.9524197E-01
         -2   -1    0    0    0  501 -0.00000000000E+00  0.00000000000E+00  0.10758160532E+04  0.10758160532E+04  0.25500000000E-02 0.  1.
          2   -1    0    0  501    0  0.00000000000E+00 -0.00000000000E+00 -0.80698492529E+03  0.80698492529E+03  0.25500000000E-02 0. -1.
    8880023    1    1    2    0    0 -0.11074299086E+03 -0.60496848438E+03 -0.37802843135E+03  0.97722391410E+03  0.65864270000E+03 0. -1.
    8880022    1    1    2    0    0  0.11074299086E+03  0.60496848438E+03  0.64685955926E+03  0.90557706438E+03  0.15294330000E+03 0.  0.
<mgrwt>
<rscale>  0 0.82523136E+03</rscale>
<asrwt>0</asrwt>
<pdfrwt beam="1">  1        2 0.12415153E+00 0.90114432E+03</pdfrwt>
<pdfrwt beam="2">  1       -2 0.16551016E+00 0.90114432E+03</pdfrwt>
<totfact> 0.78239410E+00</totfact>
</mgrwt>
</event>
<event>
 4    2  0.3747163E-007  0.9164427E+03  0.7818608E-02  0.9500135E-01
          2   -1    0    0  501    0  0.00000000000E+00  0.00000000000E+00  0.13257648762E+04  0.13257648762E+04  0.25500000000E-02 0. -1.
         -2   -1    0    0    0  501 -0.00000000000E+00 -0.00000000000E+00 -0.83877174247E+03  0.83877174248E+03  0.25500000000E-02 0.  1.
    8880023    1    1    2    0    0  0.63470284033E+03 -0.56650665714E+02 -0.45012277769E+03  0.10210179796E+04  0.65864270000E+03 0.  1.
    8880022    1    1    2    0    0 -0.63470284033E+03  0.56650665714E+02  0.93711591145E+03  0.11435186391E+04  0.15294330000E+03 0.  0.
<mgrwt>
<rscale>  0 0.84273860E+03</rscale>
<asrwt>0</asrwt>
<pdfrwt beam="1">  1        2 0.20396383E+00 0.91644269E+03</pdfrwt>
<pdfrwt beam="2">  1       -2 0.12904181E+00 0.91644269E+03</pdfrwt>
<totfact> 0.70770982E+00</totfact>
</mgrwt>
</event>
<event>
 4    2  0.3747163E-007  0.1107247E+04  0.7818608E-02  0.9253030E-01
         -2   -1    0    0    0  501 -0.00000000000E+00  0.00000000000E+00  0.21904085575E+04  0.21904085575E+04  0.25500000000E-02 0.  1.
          2   -1    0    0  501    0  0.00000000000E+00 -0.00000000000E+00 -0.10864542293E+04  0.10864542294E+04  0.25500000000E-02 0. -1.
    8880023    1    1    2    0    0  0.87525579909E+03 -0.16159524881E+03  0.18159255489E+04  0.21268713040E+04  0.65864270000E+03 0.  1.
    8880022    1    1    2    0    0 -0.87525579909E+03  0.16159524881E+03 -0.71197122081E+03  0.11499914828E+04  0.15294330000E+03 0.  0.
<mgrwt>
<rscale>  0 0.10522442E+04</rscale>
<asrwt>0</asrwt>
<pdfrwt beam="1">  1        2 0.16714680E+00 0.11072470E+04</pdfrwt>
<pdfrwt beam="2">  1       -2 0.33698593E+00 0.11072470E+04</pdfrwt>
<totfact> 0.41431266E-01</totfact>
</mgrwt>
</event>
<event>
 4    2  0.3747163E-007  0.7787413E+03  0.7818608E-02  0.9758802E-01
          2   -1    0    0  501    0  0.00000000000E+00  0.00000000000E+00  0.18595349910E+04  0.18595349910E+04  0.25500000000E-02 0. -1.
         -2   -1    0    0    0  501 -0.00000000000E+00 -0.00000000000E+00 -0.68941630505E+03  0.68941630505E+03  0.25500000000E-02 0.  1.
    8880023    1    1    2    0    0 -0.35458552948E+03  0.21655685365E+03  0.16931741676E+04  0.18636729157E+04  0.65864270000E+03 0. -1.
    8880022    1    1    2    0    0  0.35458552948E+03 -0.21655685365E+03 -0.52305548170E+03  0.68527838032E+03  0.15294330000E+03 0.  0.
<mgrwt>
<rscale>  0 0.67621108E+03</rscale>
<asrwt>0</asrwt>
<pdfrwt beam="1">  1        2 0.28608231E+00 0.77874128E+03</pdfrwt>
<pdfrwt beam="2">  1       -2 0.10606405E+00 0.77874128E+03</pdfrwt>
<totfact> 0.58982500E+00</totfact>
</mgrwt>
</event>
<event>
 4    2  0.3747163E-007  0.1281247E+04  0.7818608E-02  0.9081926E-01
         -2   -1    0    0    0  501 -0.00000000000E+00  0.00000000000E+00  0.12014263716E+04  0.12014263716E+04  0.25500000000E-02 0.  1.
          2   -1    0    0  501    0  0.00000000000E+00 -0.00000000000E+00 -0.17023994666E+04  0.17023994666E+04  0.25500000000E-02 0. -1.
    8880023    1    1    2    0    0 -0.67619650291E+03  0.86633796033E+03 -0.10586078866E+04  0.16620000108E+04  0.65864270000E+03 0. -1.
    8880022    1    1    2    0    0  0.67619650291E+03 -0.86633796033E+03  0.55763479157E+03  0.12418258275E+04  0.15294330000E+03 0.  0.
<mgrwt>
<rscale>  0 0.12359889E+04</rscale>
<asrwt>0</asrwt>
<pdfrwt beam="1">  1        2 0.26190761E+00 0.12812468E+04</pdfrwt>
<pdfrwt beam="2">  1       -2 0.18483483E+00 0.12812468E+04</pdfrwt>
<totfact> 0.15797593E+00</totfact>
</mgrwt>
</event>
<event>
 4    2  0.3747163E-007  0.9391388E+03  0.7818608E-02  0.9465916E-01
          2   -1    0    0  501    0  0.00000000000E+00  0.00000000000E+00  0.24489493745E+04  0.24489493745E+04  0.25500000000E-02 0. -1.
         -2   -1    0    0    0  501 -0.00000000000E+00 -0.00000000000E+00 -0.46929670025E+03  0.46929670026E+03  0.25500000000E-02 0.  1.
    8880023    1    1    2    0    0  0.57675919612E+03  0.33988273945E+03  0.20228079019E+04  0.22301868668E+04  0.65864270000E+03 0. -1.
    8880022    1    1    2    0    0 -0.57675919612E+03 -0.33988273945E+03 -0.43155227644E+02  0.68805920789E+03  0.15294330000E+03 0.  0.
<mgrwt>
<rscale>  0 0.86843998E+03</rscale>
<asrwt>0</asrwt>
<pdfrwt beam="1">  1        2 0.37676143E+00 0.93913878E+03</pdfrwt>
<pdfrwt beam="2">  1       -2 0.72199494E-01 0.93913878E+03</pdfrwt>
<totfact> 0.65888737E+00</totfact>
</mgrwt>
</event>
<event>
 4    2  0.3747163E-007  0.7861372E+03  0.7818608E-02  0.9741613E-01
         -2   -1    0    0    0  501 -0.00000000000E+00  0.00000000000E+00  0.18335923178E+03  0.18335923180E+03  0.25500000000E-02 0.  1.
          2   -1    0    0  501    0  0.00000000000E+00 -0.00000000000E+00 -0.36062553171E+04  0.36062553171E+04  0.25500000000E-02 0. -1.
    8880023    1    1    2    0    0  0.42499213761E+03 -0.59859719948E+02 -0.31750840293E+04  0.32709586213E+04  0.65864270000E+03 0. -1.
    8880022    1    1    2    0    0 -0.42499213761E+03  0.59859719948E+02 -0.24781205608E+03  0.51865592762E+03  0.15294330000E+03 0.  0.
<mgrwt>
<rscale>  0 0.68592304E+03</rscale>
<asrwt>0</asrwt>
<pdfrwt beam="1">  1        2 0.55480846E+00 0.78613721E+03</pdfrwt>
<pdfrwt beam="2">  1       -2 0.28209115E-01 0.78613721E+03</pdfrwt>
<totfact> 0.84593203E+00</totfact>
</mgrwt>
</event>
<event>
 4    2  0.3747163E-007  0.6675419E+03  0.7818608E-02  0.1017490E+00
         -2   -1    0    0    0  501 -0.00000000000E+00  0.00000000000E+00  0.13916206926E+04  0.13916206926E+04  0.25500000000E-02 0.  1.
          2   -1    0    0  501    0  0.00000000000E+00 -0.00000000000E+00 -0.19224741702E+03  0.19224741704E+03  0.25500000000E-02 0. -1.
    8880023    1    1    2    0    0 -0.23322419579E+02  0.10610370550E+03  0.43489756260E+03  0.79671075542E+03  0.65864270000E+03 0. -1.
    8880022    1    1    2    0    0  0.23322419579E+02 -0.10610370550E+03  0.76447571302E+03  0.78715735427E+03  0.15294330000E+03 0.  0.
<mgrwt>
<rscale>  0 0.48603419E+03</rscale>
<asrwt>0</asrwt>
<pdfrwt beam="1">  1        2 0.29576527E-01 0.66754186E+03</pdfrwt>
<pdfrwt beam="2">  1       -2 0.21409548E+00 0.66754186E+03</pdfrwt>
<totfact> 0.20001448E+01</totfact>
</mgrwt>
</event>
<event>
 4    2  0.3747163E-007  0.9077311E+03  0.7818608E-02  0.9513733E-01
         -2   -1    0    0    0  501 -0.00000000000E+00  0.00000000000E+00  0.54040342742E+03  0.54040342742E+03  0.25500000000E-02 0.  1.
          2   -1    0    0  501    0  0.00000000000E+00 -0.00000000000E+00 -0.20455359910E+04  0.20455359910E+04  0.25500000000E-02 0. -1.
    8880023    1    1    2    0    0  0.52604540945E+03  0.33681115404E+03 -0.16886667390E+04  0.19171778968E+04  0.65864270000E+03 0.  0.
    8880022    1    1    2    0    0 -0.52604540945E+03 -0.33681115404E+03  0.18353417539E+03  0.66876152165E+03  0.15294330000E+03 0.  0.
<mgrwt>
<rscale>  0 0.83278876E+03</rscale>
<asrwt>0</asrwt>
<pdfrwt beam="1">  1        2 0.31469784E+00 0.90773109E+03</pdfrwt>
<pdfrwt beam="2">  1       -2 0.83138990E-01 0.90773109E+03</pdfrwt>
<totfact> 0.80960084E+00</totfact>
</mgrwt>
</event>
<event>
 4    2  0.3747163E-007  0.7741720E+03  0.7818608E-02  0.9769710E-01
         -2   -1    0    0    0  501 -0.00000000000E+00  0.00000000000E+00  0.69263469278E+03  0.69263469279E+03  0.25500000000E-02 0.  1.
          2   -1    0    0  501    0  0.00000000000E+00 -0.00000000000E+00 -0.16639096357E+04  0.16639096357E+04  0.25500000000E-02 0. -1.
    8880023    1    1    2    0    0 -0.63738472618E+02 -0.40183261007E+03 -0.14904040680E+04  0.16794780534E+04  0.65864270000E+03 0.  0.
    8880022    1    1    2    0    0  0.63738472618E+02  0.40183261007E+03  0.51912912510E+03  0.67706627515E+03  0.15294330000E+03 0.  0.
<mgrwt>
<rscale>  0 0.67013745E+03</rscale>
<asrwt>0</asrwt>
<pdfrwt beam="1">  1        2 0.25598610E+00 0.77417197E+03</pdfrwt>
<pdfrwt beam="2">  1       -2 0.10655918E+00 0.77417197E+03</pdfrwt>
<totfact> 0.74665425E+00</totfact>
</mgrwt>
</event>
<event>
 4    2  0.3747163E-007  0.7653484E+03  0.7818608E-02  0.9791453E-01
         -2   -1    0    0    0  501 -0.00000000000E+00  0.00000000000E+00  0.22407632792E+03  0.22407632793E+03  0.25500000000E-02 0.  1.
          2   -1    0    0  501    0  0.00000000000E+00 -0.00000000000E+00 -0.20466039805E+04  0.20466039805E+04  0.25500000000E-02 0. -1.
    8880023    1    1    2    0    0 -0.19804628165E+03  0.33574634821E+03 -0.16479643269E+04  0.18170152914E+04  0.65864270000E+03 0. -1.
    8880022    1    1    2    0    0  0.19804628165E+03 -0.33574634821E+03 -0.17456332563E+03  0.45366501704E+03  0.15294330000E+03 0.  0.
<mgrwt>
<rscale>  0 0.65823258E+03</rscale>
<asrwt>0</asrwt>
<pdfrwt beam="1">  1        2 0.31486214E+00 0.76534838E+03</pdfrwt>
<pdfrwt beam="2">  1       -2 0.34473283E-01 0.76534838E+03</pdfrwt>
<totfact> 0.51056891E+01</totfact>
</mgrwt>
</event>
<event>
 4    2  0.6575167E-007  0.7304762E+03  0.7818608E-02  0.9888612E-01
         -2   -1    0    0    0  501 -0.00000000000E+00  0.00000000000E+00  0.13274273574E+04  0.13274273574E+04  0.25500000000E-02 0.  1.
          2   -1    0    0  501    0  0.00000000000E+00 -0.00000000000E+00 -0.16451025396E+04  0.16451025396E+04  0.25500000000E-02 0. -1.
    8880023    1    1    2    0    0  0.31477977793E+03  0.26436616866E+02 -0.15380440861E+04  0.17026963970E+04  0.65864270000E+03 0. -1.
    8880022    1    1    2    0    0 -0.31477977793E+03 -0.26436616866E+02  0.12203689039E+04  0.12698335001E+04  0.15294330000E+03 0.  0.
<mgrwt>
<rscale>  0 0.60816395E+03</rscale>
<asrwt>0</asrwt>
<pdfrwt beam="1">  1        2 0.25309270E+00 0.73047615E+03</pdfrwt>
<pdfrwt beam="2">  1       -2 0.20421959E+00 0.73047615E+03</pdfrwt>
<totfact> 0.13658096E+00</totfact>
</mgrwt>
</event>
<event>
 4    2  0.3747163E-007  0.8397686E+03  0.7818608E-02  0.9630617E-01
          2   -1    0    0  501    0  0.00000000000E+00  0.00000000000E+00  0.69608950090E+03  0.69608950091E+03  0.25500000000E-02 0. -1.
         -2   -1    0    0    0  501 -0.00000000000E+00 -0.00000000000E+00 -0.82889184861E+03  0.82889184861E+03  0.25500000000E-02 0.  1.
    8880023    1    1    2    0    0  0.19349442061E+03  0.48369518617E+03  0.23155628035E+03  0.87110828326E+03  0.65864270000E+03 0. -1.
    8880022    1    1    2    0    0 -0.19349442061E+03 -0.48369518617E+03 -0.36435862805E+03  0.65387306626E+03  0.15294330000E+03 0.  1.
<mgrwt>
<rscale>  0 0.75302490E+03</rscale>
<asrwt>0</asrwt>
<pdfrwt beam="1">  1        2 0.10709069E+00 0.83976862E+03</pdfrwt>
<pdfrwt beam="2">  1       -2 0.12752182E+00 0.83976862E+03</pdfrwt>
<totfact> 0.18926175E+01</totfact>
</mgrwt>
</event>
<event>
 4    2  0.3747163E-007  0.8045768E+03  0.7818608E-02  0.9700986E-01
          2   -1    0    0  501    0  0.00000000000E+00  0.00000000000E+00  0.10536527653E+04  0.10536527653E+04  0.25500000000E-02 0. -1.
         -2   -1    0    0    0  501 -0.00000000000E+00 -0.00000000000E+00 -0.88358144926E+03  0.88358144927E+03  0.25500000000E-02 0.  1.
    8880023    1    1    2    0    0  0.97214614028E+02  0.45175540744E+03  0.80436971876E+03  0.11376970071E+04  0.65864270000E+03 0. -1.
    8880022    1    1    2    0    0 -0.97214614028E+02 -0.45175540744E+03 -0.63429840273E+03  0.79953720742E+03  0.15294330000E+03 0.  0.
<mgrwt>
<rscale>  0 0.70958113E+03</rscale>
<asrwt>0</asrwt>
<pdfrwt beam="1">  1        2 0.16210043E+00 0.80457681E+03</pdfrwt>
<pdfrwt beam="2">  1       -2 0.13593561E+00 0.80457681E+03</pdfrwt>
<totfact> 0.91309249E+00</totfact>
</mgrwt>
</event>
<event>
 4    2  0.3747163E-007  0.6679148E+03  0.7818608E-02  0.1017204E+00
          2   -1    0    0  501    0  0.00000000000E+00  0.00000000000E+00  0.27553966823E+04  0.27553966823E+04  0.25500000000E-02 0. -1.
         -2   -1    0    0    0  501 -0.00000000000E+00 -0.00000000000E+00 -0.80149191819E+02  0.80149191859E+02  0.25500000000E-02 0.  1.
    8880023    1    1    2    0    0  0.10050617138E+03 -0.46888407013E+02  0.24604133687E+04  0.25494595828E+04  0.65864270000E+03 0. -1.
    8880022    1    1    2    0    0 -0.10050617138E+03  0.46888407013E+02  0.21483412171E+03  0.28608629129E+03  0.15294330000E+03 0.  0.
<mgrwt>
<rscale>  0 0.48709275E+03</rscale>
<asrwt>0</asrwt>
<pdfrwt beam="1">  1        2 0.42390720E+00 0.66791483E+03</pdfrwt>
<pdfrwt beam="2">  1       -2 0.12330644E-01 0.66791483E+03</pdfrwt>
<totfact> 0.12651950E+02</totfact>
</mgrwt>
</event>
<event>
 4    2  0.3747163E-007  0.6776947E+03  0.7818608E-02  0.1010659E+00
          2   -1    0    0  501    0  0.00000000000E+00  0.00000000000E+00  0.94382475024E+03  0.94382475024E+03  0.25500000000E-02 0. -1.
         -2   -1    0    0    0  501 -0.00000000000E+00 -0.00000000000E+00 -0.14973997046E+04  0.14973997046E+04  0.25500000000E-02 0.  1.
    8880023    1    1    2    0    0 -0.15616790039E+03  0.32732635973E+02  0.81213267239E+03  0.10577473812E+04  0.65864270000E+03 0. -1.
    8880022    1    1    2    0    0  0.15616790039E+03 -0.32732635973E+02 -0.13657076268E+04  0.13834770737E+04  0.15294330000E+03 0.  0.
<mgrwt>
<rscale>  0 0.51213596E+03</rscale>
<asrwt>0</asrwt>
<pdfrwt beam="1">  1        2 0.14520381E+00 0.67769465E+03</pdfrwt>
<pdfrwt beam="2">  1       -2 0.23036918E+00 0.67769465E+03</pdfrwt>
<totfact> 0.24275556E+00</totfact>
</mgrwt>
</event>
<event>
 4    2  0.3747163E-007  0.8596018E+03  0.7818608E-02  0.9594272E-01
         -2   -1    0    0    0  501 -0.00000000000E+00  0.00000000000E+00  0.56757674210E+03  0.56757674210E+03  0.25500000000E-02 0.  1.
          2   -1    0    0  501    0  0.00000000000E+00 -0.00000000000E+00 -0.25960874001E+04  0.25960874001E+04  0.25500000000E-02 0. -1.
    8880023    1    1    2    0    0 -0.25408575284E+03 -0.49045436422E+03 -0.23529560743E+04  0.25050583919E+04  0.65864270000E+03 0. -1.
    8880022    1    1    2    0    0  0.25408575284E+03  0.49045436422E+03  0.32444541626E+03  0.65860575030E+03  0.15294330000E+03 0.  0.
<mgrwt>
<rscale>  0 0.77676449E+03</rscale>
<asrwt>0</asrwt>
<pdfrwt beam="1">  1        2 0.39939806E+00 0.85960180E+03</pdfrwt>
<pdfrwt beam="2">  1       -2 0.87319500E-01 0.85960180E+03</pdfrwt>
<totfact> 0.35808547E+00</totfact>
</mgrwt>
</event>
<event>
 4    2  0.3747163E-007  0.7150829E+03  0.7818608E-02  0.9939589E-01
          2   -1    0    0  501    0  0.00000000000E+00  0.00000000000E+00  0.10681082313E+04  0.10681082314E+04  0.25500000000E-02 0. -1.
         -2   -1    0    0    0  501 -0.00000000000E+00 -0.00000000000E+00 -0.69784473718E+03  0.69784473718E+03  0.25500000000E-02 0.  1.
    8880023    1    1    2    0    0  0.27782887774E+03 -0.18558860833E+02  0.89924525032E+03  0.11489062377E+04  0.65864270000E+03 0.  0.
    8880022    1    1    2    0    0 -0.27782887774E+03  0.18558860833E+02 -0.52898175615E+03  0.61704673079E+03  0.15294330000E+03 0.  0.
<mgrwt>
<rscale>  0 0.58380406E+03</rscale>
<asrwt>0</asrwt>
<pdfrwt beam="1">  1        2 0.16432434E+00 0.71508288E+03</pdfrwt>
<pdfrwt beam="2">  1       -2 0.10736073E+00 0.71508288E+03</pdfrwt>
<totfact> 0.16232102E+01</totfact>
</mgrwt>
</event>
<event>
 4    2  0.3747163E-007  0.7602019E+03  0.7818608E-02  0.9804585E-01
         -2   -1    0    0    0  501 -0.00000000000E+00  0.00000000000E+00  0.15876422362E+03  0.15876422364E+03  0.25500000000E-02 0.  1.
          2   -1    0    0  501    0  0.00000000000E+00 -0.00000000000E+00 -0.33297113099E+04  0.33297113099E+04  0.25500000000E-02 0. -1.
    8880023    1    1    2    0    0 -0.20854095025E+03 -0.31718673896E+03 -0.28992171221E+04  0.29972265318E+04  0.65864270000E+03 0. -1.
    8880022    1    1    2    0    0  0.20854095025E+03  0.31718673896E+03 -0.27172996418E+03  0.49124900178E+03  0.15294330000E+03 0.  0.
<mgrwt>
<rscale>  0 0.65117065E+03</rscale>
<asrwt>0</asrwt>
<pdfrwt beam="1">  1        2 0.51226323E+00 0.76020192E+03</pdfrwt>
<pdfrwt beam="2">  1       -2 0.24425268E-01 0.76020192E+03</pdfrwt>
<totfact> 0.17004463E+01</totfact>
</mgrwt>
</event>
<event>
 4    2  0.3747163E-007  0.7426037E+03  0.7818608E-02  0.9852427E-01
          2   -1    0    0  501    0  0.00000000000E+00  0.00000000000E+00  0.86586252160E+03  0.86586252160E+03  0.25500000000E-02 0. -1.
         -2   -1    0    0    0  501 -0.00000000000E+00 -0.00000000000E+00 -0.11239223055E+04  0.11239223055E+04  0.25500000000E-02 0.  1.
    8880023    1    1    2    0    0 -0.16813138843E+03 -0.29896808844E+03  0.66274746773E+03  0.99533637225E+03  0.65864270000E+03 0. -1.
    8880022    1    1    2    0    0  0.16813138843E+03  0.29896808844E+03 -0.92080725163E+03  0.99444845485E+03  0.15294330000E+03 0.  0.
<mgrwt>
<rscale>  0 0.62623350E+03</rscale>
<asrwt>0</asrwt>
<pdfrwt beam="1">  1        2 0.13320962E+00 0.74260372E+03</pdfrwt>
<pdfrwt beam="2">  1       -2 0.17291112E+00 0.74260372E+03</pdfrwt>
<totfact> 0.64142448E+00</totfact>
</mgrwt>
</event>
<event>
 4    2  0.3747163E-007  0.8232935E+03  0.7818608E-02  0.9662525E-01
          2   -1    0    0  501    0  0.00000000000E+00  0.00000000000E+00  0.81148117182E+03  0.81148117182E+03  0.25500000000E-02 0. -1.
         -2   -1    0    0    0  501 -0.00000000000E+00 -0.00000000000E+00 -0.86541637557E+03  0.86541637557E+03  0.25500000000E-02 0.  1.
    8880023    1    1    2    0    0  0.63192852883E+02 -0.48990683602E+03  0.46397661605E+03  0.94503256618E+03  0.65864270000E+03 0.  0.
    8880022    1    1    2    0    0 -0.63192852883E+02  0.48990683602E+03 -0.51791181980E+03  0.73186498122E+03  0.15294330000E+03 0.  0.
<mgrwt>
<rscale>  0 0.73292566E+03</rscale>
<asrwt>0</asrwt>
<pdfrwt beam="1">  1        2 0.12484326E+00 0.82329354E+03</pdfrwt>
<pdfrwt beam="2">  1       -2 0.13314098E+00 0.82329354E+03</pdfrwt>
<totfact> 0.13921823E+01</totfact>
</mgrwt>
</event>
<event>
 4    2  0.3747163E-007  0.8361038E+03  0.7818608E-02  0.9637571E-01
         -2   -1    0    0    0  501 -0.00000000000E+00  0.00000000000E+00  0.28545271308E+03  0.28545271309E+03  0.25500000000E-02 0.  1.
          2   -1    0    0  501    0  0.00000000000E+00 -0.00000000000E+00 -0.20730829339E+04  0.20730829339E+04  0.25500000000E-02 0. -1.
    8880023    1    1    2    0    0 -0.11674776836E+03 -0.50162663975E+03 -0.15702237807E+04  0.17789525724E+04  0.65864270000E+03 0.  0.
    8880022    1    1    2    0    0  0.11674776836E+03  0.50162663975E+03 -0.21740644012E+03  0.57958307459E+03  0.15294330000E+03 0.  0.
<mgrwt>
<rscale>  0 0.74858612E+03</rscale>
<asrwt>0</asrwt>
<pdfrwt beam="1">  1        2 0.31893583E+00 0.83610378E+03</pdfrwt>
<pdfrwt beam="2">  1       -2 0.43915803E-01 0.83610378E+03</pdfrwt>
<totfact> 0.30593758E+01</totfact>
</mgrwt>
</event>
<event>
 4    2  0.3747163E-007  0.7404759E+03  0.7818608E-02  0.9858563E-01
          2   -1    0    0  501    0  0.00000000000E+00  0.00000000000E+00  0.26475622173E+04  0.26475622173E+04  0.25500000000E-02 0. -1.
         -2   -1    0    0    0  501 -0.00000000000E+00 -0.00000000000E+00 -0.19435633604E+03  0.19435633606E+03  0.25500000000E-02 0.  1.
    8880023    1    1    2    0    0 -0.73192971072E+01  0.33829090706E+03  0.23390179084E+04  0.24534280695E+04  0.65864270000E+03 0. -1.
    8880022    1    1    2    0    0  0.73192971072E+01 -0.33829090706E+03  0.11418797283E+03  0.38849048388E+03  0.15294330000E+03 0.  0.
<mgrwt>
<rscale>  0 0.62312215E+03</rscale>
<asrwt>0</asrwt>
<pdfrwt beam="1">  1        2 0.40731722E+00 0.74047587E+03</pdfrwt>
<pdfrwt beam="2">  1       -2 0.29900978E-01 0.74047587E+03</pdfrwt>
<totfact> 0.30854535E+01</totfact>
</mgrwt>
</event>
<event>
 4    2  0.3747163E-007  0.7288175E+03  0.7818608E-02  0.9893807E-01
          2   -1    0    0  501    0  0.00000000000E+00  0.00000000000E+00  0.27627763441E+04  0.27627763441E+04  0.25500000000E-02 0. -1.
         -2   -1    0    0    0  501 -0.00000000000E+00 -0.00000000000E+00 -0.32469944398E+03  0.32469944399E+03  0.25500000000E-02 0.  1.
    8880023    1    1    2    0    0 -0.21614950638E+03  0.22504259041E+03  0.26027979628E+04  0.27029118036E+04  0.65864270000E+03 0. -1.
    8880022    1    1    2    0    0  0.21614950638E+03 -0.22504259041E+03 -0.16472106273E+03  0.38456398444E+03  0.15294330000E+03 0.  0.
<mgrwt>
<rscale>  0 0.60562374E+03</rscale>
<asrwt>0</asrwt>
<pdfrwt beam="1">  1        2 0.42504250E+00 0.72881752E+03</pdfrwt>
<pdfrwt beam="2">  1       -2 0.49953762E-01 0.72881752E+03</pdfrwt>
<totfact> 0.97880215E+00</totfact>
</mgrwt>
</event>
<event>
 4    2  0.3747163E-007  0.7611854E+03  0.7818608E-02  0.9802048E-01
          2   -1    0    0  501    0  0.00000000000E+00  0.00000000000E+00  0.22619960358E+04  0.22619960358E+04  0.25500000000E-02 0. -1.
         -2   -1    0    0    0  501 -0.00000000000E+00 -0.00000000000E+00 -0.26192574319E+03  0.26192574320E+03  0.25500000000E-02 0.  1.
    8880023    1    1    2    0    0  0.30204363190E+03 -0.23315807958E+03  0.19697707379E+04  0.21117291521E+04  0.65864270000E+03 0. -1.
    8880022    1    1    2    0    0 -0.30204363190E+03  0.23315807958E+03  0.30299554702E+02  0.41219262690E+03  0.15294330000E+03 0.  0.
<mgrwt>
<rscale>  0 0.65252743E+03</rscale>
<asrwt>0</asrwt>
<pdfrwt beam="1">  1        2 0.34799939E+00 0.76118543E+03</pdfrwt>
<pdfrwt beam="2">  1       -2 0.40296268E-01 0.76118543E+03</pdfrwt>
<totfact> 0.28789155E+01</totfact>
</mgrwt>
</event>
<event>
 4    2  0.3747163E-007  0.7076599E+03  0.7818608E-02  0.9966795E-01
          2   -1    0    0  501    0  0.00000000000E+00  0.00000000000E+00  0.28436267398E+04  0.28436267398E+04  0.25500000000E-02 0. -1.
         -2   -1    0    0    0  501 -0.00000000000E+00 -0.00000000000E+00 -0.35010352064E+03  0.35010352065E+03  0.25500000000E-02 0.  1.
    8880023    1    1    2    0    0  0.20467698485E+03 -0.15836569504E+03  0.27243287221E+04  0.28147379192E+04  0.65864270000E+03 0. -1.
    8880022    1    1    2    0    0 -0.20467698485E+03  0.15836569504E+03 -0.23080550296E+03  0.37899234122E+03  0.15294330000E+03 0.  0.
<mgrwt>
<rscale>  0 0.57130482E+03</rscale>
<asrwt>0</asrwt>
<pdfrwt beam="1">  1        2 0.43748102E+00 0.70765992E+03</pdfrwt>
<pdfrwt beam="2">  1       -2 0.53862082E-01 0.70765992E+03</pdfrwt>
<totfact> 0.75441412E+00</totfact>
</mgrwt>
</event>
<event>
 4    2  0.3747163E-007  0.8911808E+03  0.7818608E-02  0.9540340E-01
         -2   -1    0    0    0  501 -0.00000000000E+00  0.00000000000E+00  0.14840343669E+04  0.14840343669E+04  0.25500000000E-02 0.  1.
          2   -1    0    0  501    0  0.00000000000E+00 -0.00000000000E+00 -0.70133888947E+03  0.70133888948E+03  0.25500000000E-02 0. -1.
    8880023    1    1    2    0    0  0.49903864621E+03  0.33369664210E+03 -0.29801786803E+03  0.93969030818E+03  0.65864270000E+03 0.  0.
    8880022    1    1    2    0    0 -0.49903864621E+03 -0.33369664210E+03  0.10807133455E+04  0.12456829482E+04  0.15294330000E+03 0.  0.
<mgrwt>
<rscale>  0 0.81373936E+03</rscale>
<asrwt>0</asrwt>
<pdfrwt beam="1">  1        2 0.10789829E+00 0.89118080E+03</pdfrwt>
<pdfrwt beam="2">  1       -2 0.22831298E+00 0.89118080E+03</pdfrwt>
<totfact> 0.36084904E+00</totfact>
</mgrwt>
</event>
<event>
 4    2  0.3747163E-007  0.6611610E+03  0.7818608E-02  0.1022997E+00
          2   -1    0    0  501    0  0.00000000000E+00  0.00000000000E+00  0.26573044548E+04  0.26573044548E+04  0.25500000000E-02 0. -1.
         -2   -1    0    0    0  501 -0.00000000000E+00 -0.00000000000E+00 -0.12443361534E+03  0.12443361537E+03  0.25500000000E-02 0.  1.
    8880023    1    1    2    0    0  0.20884425919E+02  0.53735104306E+02  0.25334370977E+04  0.26182890129E+04  0.65864270000E+03 0. -1.
    8880022    1    1    2    0    0 -0.20884425919E+02 -0.53735104306E+02 -0.56625819720E+00  0.16344905734E+03  0.15294330000E+03 0.  0.
<mgrwt>
<rscale>  0 0.46620332E+03</rscale>
<asrwt>0</asrwt>
<pdfrwt beam="1">  1        2 0.40881609E+00 0.66116097E+03</pdfrwt>
<pdfrwt beam="2">  1       -2 0.19143632E-01 0.66116097E+03</pdfrwt>
<totfact> 0.68548400E+01</totfact>
</mgrwt>
</event>
<event>
 4    2  0.3747163E-007  0.6784305E+03  0.7818608E-02  0.1010226E+00
          2   -1    0    0  501    0  0.00000000000E+00  0.00000000000E+00  0.54375824350E+03  0.54375824350E+03  0.25500000000E-02 0. -1.
         -2   -1    0    0    0  501 -0.00000000000E+00 -0.00000000000E+00 -0.60695354756E+03  0.60695354757E+03  0.25500000000E-02 0.  1.
    8880023    1    1    2    0    0 -0.37286866378E+02 -0.15832708167E+03  0.28599199640E+03  0.73624683596E+03  0.65864270000E+03 0. -1.
    8880022    1    1    2    0    0  0.37286866378E+02  0.15832708167E+03 -0.34918730046E+03  0.41446495511E+03  0.15294330000E+03 0.  0.
<mgrwt>
<rscale>  0 0.51385023E+03</rscale>
<asrwt>0</asrwt>
<pdfrwt beam="1">  1        2 0.83655114E-01 0.67843053E+03</pdfrwt>
<pdfrwt beam="2">  1       -2 0.93377469E-01 0.67843053E+03</pdfrwt>
<totfact> 0.55059974E+01</totfact>
</mgrwt>
</event>
<event>
 4    2  0.3747163E-007  0.1114962E+04  0.7818608E-02  0.9244578E-01
         -2   -1    0    0    0  501 -0.00000000000E+00  0.00000000000E+00  0.67288075515E+03  0.67288075516E+03  0.25500000000E-02 0.  1.
          2   -1    0    0  501    0  0.00000000000E+00 -0.00000000000E+00 -0.18098988441E+04  0.18098988441E+04  0.25500000000E-02 0. -1.
    8880023    1    1    2    0    0  0.82961508005E+03 -0.34794998468E+03 -0.12793859843E+03  0.11222784254E+04  0.65864270000E+03 0. -1.
    8880022    1    1    2    0    0 -0.82961508005E+03  0.34794998468E+03 -0.10090794905E+04  0.13605011739E+04  0.15294330000E+03 0.  1.
<mgrwt>
<rscale>  0 0.10604925E+04</rscale>
<asrwt>0</asrwt>
<pdfrwt beam="1">  1        2 0.27844597E+00 0.11149621E+04</pdfrwt>
<pdfrwt beam="2">  1       -2 0.10352012E+00 0.11149621E+04</pdfrwt>
<totfact> 0.63874796E+00</totfact>
</mgrwt>
</event>
<event>
 4    2  0.3747163E-007  0.7411758E+03  0.7818608E-02  0.9856535E-01
          2   -1    0    0  501    0  0.00000000000E+00  0.00000000000E+00  0.10877191703E+04  0.10877191703E+04  0.25500000000E-02 0. -1.
         -2   -1    0    0    0  501 -0.00000000000E+00 -0.00000000000E+00 -0.43488502381E+03  0.43488502382E+03  0.25500000000E-02 0.  1.
    8880023    1    1    2    0    0  0.24068955326E+03  0.23999965525E+03  0.82757232235E+03  0.11109533971E+04  0.65864270000E+03 0. -1.
    8880022    1    1    2    0    0 -0.24068955326E+03 -0.23999965525E+03 -0.17473817585E+03  0.41165079702E+03  0.15294330000E+03 0.  0.
<mgrwt>
<rscale>  0 0.62414810E+03</rscale>
<asrwt>0</asrwt>
<pdfrwt beam="1">  1        2 0.16734141E+00 0.74117576E+03</pdfrwt>
<pdfrwt beam="2">  1       -2 0.66905388E-01 0.74117576E+03</pdfrwt>
<totfact> 0.46266467E+01</totfact>
</mgrwt>
</event>
<event>
 4    2  0.3747163E-007  0.6800653E+03  0.7818608E-02  0.1009287E+00
          2   -1    0    0  501    0  0.00000000000E+00  0.00000000000E+00  0.26404165346E+04  0.26404165346E+04  0.25500000000E-02 0. -1.
         -2   -1    0    0    0  501 -0.00000000000E+00 -0.00000000000E+00 -0.48344735307E+03  0.48344735308E+03  0.25500000000E-02 0.  1.
    8880023    1    1    2    0    0 -0.16408649077E+03  0.41883555935E+02  0.25664880724E+04  0.26550611746E+04  0.65864270000E+03 0. -1.
    8880022    1    1    2    0    0  0.16408649077E+03 -0.41883555935E+02 -0.40951889093E+03  0.46880271304E+03  0.15294330000E+03 0.  0.
<mgrwt>
<rscale>  0 0.51759096E+03</rscale>
<asrwt>0</asrwt>
<pdfrwt beam="1">  1        2 0.40621792E+00 0.68006530E+03</pdfrwt>
<pdfrwt beam="2">  1       -2 0.74376518E-01 0.68006530E+03</pdfrwt>
<totfact> 0.50074724E+00</totfact>
</mgrwt>
</event>
<event>
 4    2  0.3747163E-007  0.7783215E+03  0.7818608E-02  0.9759795E-01
          2   -1    0    0  501    0  0.00000000000E+00  0.00000000000E+00  0.58907930388E+03  0.58907930389E+03  0.25500000000E-02 0. -1.
         -2   -1    0    0    0  501 -0.00000000000E+00 -0.00000000000E+00 -0.77515769720E+03  0.77515769721E+03  0.25500000000E-02 0.  1.
    8880023    1    1    2    0    0 -0.41449400539E+03  0.12996421052E+02  0.16997245044E+03  0.79666494063E+03  0.65864270000E+03 0.  0.
    8880022    1    1    2    0    0  0.41449400539E+03 -0.12996421052E+02 -0.35605084376E+03  0.56757206046E+03  0.15294330000E+03 0.  0.
<mgrwt>
<rscale>  0 0.67565557E+03</rscale>
<asrwt>0</asrwt>
<pdfrwt beam="1">  1        2 0.90627585E-01 0.77832152E+03</pdfrwt>
<pdfrwt beam="2">  1       -2 0.11925503E+00 0.77832152E+03</pdfrwt>
<totfact> 0.27634380E+01</totfact>
</mgrwt>
</event>
<event>
 4    2  0.3747163E-007  0.1081965E+04  0.7818608E-02  0.9281407E-01
          2   -1    0    0  501    0  0.00000000000E+00  0.00000000000E+00  0.14305040171E+04  0.14305040171E+04  0.25500000000E-02 0. -1.
         -2   -1    0    0    0  501 -0.00000000000E+00 -0.00000000000E+00 -0.16435725702E+04  0.16435725702E+04  0.25500000000E-02 0.  1.
    8880023    1    1    2    0    0  0.11087369363E+03  0.85120205276E+03 -0.12930831257E+04  0.16860344263E+04  0.65864270000E+03 0.  0.
    8880022    1    1    2    0    0 -0.11087369363E+03 -0.85120205276E+03  0.10800145726E+04  0.13880421610E+04  0.15294330000E+03 0.  0.
<mgrwt>
<rscale>  0 0.10251277E+04</rscale>
<asrwt>0</asrwt>
<pdfrwt beam="1">  1        2 0.22007754E+00 0.10819649E+04</pdfrwt>
<pdfrwt beam="2">  1       -2 0.25285732E+00 0.10819649E+04</pdfrwt>
<totfact> 0.84648511E-01</totfact>
</mgrwt>
</event>
<event>
 4    2  0.3747163E-007  0.8989727E+03  0.7818608E-02  0.9527683E-01
         -2   -1    0    0    0  501 -0.00000000000E+00  0.00000000000E+00  0.18387695402E+03  0.18387695403E+03  0.25500000000E-02 0.  1.
          2   -1    0    0  501    0  0.00000000000E+00 -0.00000000000E+00 -0.34682398436E+04  0.34682398436E+04  0.25500000000E-02 0. -1.
    8880023    1    1    2    0    0 -0.55344256039E+03  0.26085060407E+03 -0.24242779983E+04  0.25855900147E+04  0.65864270000E+03 0.  0.
    8880022    1    1    2    0    0  0.55344256039E+03 -0.26085060407E+03 -0.86008489134E+03  0.10665267829E+04  0.15294330000E+03 0.  0.
<mgrwt>
<rscale>  0 0.82273293E+03</rscale>
<asrwt>0</asrwt>
<pdfrwt beam="1">  1        2 0.53357531E+00 0.89897270E+03</pdfrwt>
<pdfrwt beam="2">  1       -2 0.28288765E-01 0.89897270E+03</pdfrwt>
<totfact> 0.10280643E+01</totfact>
</mgrwt>
</event>
<event>
 4    2  0.3747163E-007  0.8085844E+03  0.7818608E-02  0.9692533E-01
         -2   -1    0    0    0  501 -0.00000000000E+00  0.00000000000E+00  0.29251540926E+03  0.29251540927E+03  0.25500000000E-02 0.  1.
          2   -1    0    0  501    0  0.00000000000E+00 -0.00000000000E+00 -0.18252742687E+04  0.18252742687E+04  0.25500000000E-02 0. -1.
    8880023    1    1    2    0    0 -0.24569992389E+03  0.39953730566E+03 -0.13833230327E+04  0.16023081259E+04  0.65864270000E+03 0. -1.
    8880022    1    1    2    0    0  0.24569992389E+03 -0.39953730566E+03 -0.14943582675E+03  0.51548155209E+03  0.15294330000E+03 0.  0.
<mgrwt>
<rscale>  0 0.71463107E+03</rscale>
<asrwt>0</asrwt>
<pdfrwt beam="1">  1        2 0.28081142E+00 0.80858439E+03</pdfrwt>
<pdfrwt beam="2">  1       -2 0.45002372E-01 0.80858439E+03</pdfrwt>
<totfact> 0.39944335E+01</totfact>
</mgrwt>
</event>
<event>
 4    2  0.3747163E-007  0.7266928E+03  0.7818608E-02  0.9900558E-01
          2   -1    0    0  501    0  0.00000000000E+00  0.00000000000E+00  0.51016189391E+03  0.51016189391E+03  0.25500000000E-02 0. -1.
         -2   -1    0    0    0  501 -0.00000000000E+00 -0.00000000000E+00 -0.73499685870E+03  0.73499685870E+03  0.25500000000E-02 0.  1.
    8880023    1    1    2    0    0 -0.11810189336E+03 -0.28341526910E+03  0.14469695700E+03  0.74095862746E+03  0.65864270000E+03 0.  0.
    8880022    1    1    2    0    0  0.11810189336E+03  0.28341526910E+03 -0.36953192179E+03  0.50420012516E+03  0.15294330000E+03 0. -1.
<mgrwt>
<rscale>  0 0.60234259E+03</rscale>
<asrwt>0</asrwt>
<pdfrwt beam="1">  1        2 0.78486445E-01 0.72669284E+03</pdfrwt>
<pdfrwt beam="2">  1       -2 0.11307644E+00 0.72669284E+03</pdfrwt>
<totfact> 0.37468959E+01</totfact>
</mgrwt>
</event>
<event>
 4    2  0.3747163E-007  0.1027590E+04  0.7818608E-02  0.9346319E-01
         -2   -1    0    0    0  501 -0.00000000000E+00  0.00000000000E+00  0.15926553456E+04  0.15926553456E+04  0.25500000000E-02 0.  1.
          2   -1    0    0  501    0  0.00000000000E+00 -0.00000000000E+00 -0.10392549020E+04  0.10392549020E+04  0.25500000000E-02 0. -1.
    8880023    1    1    2    0    0 -0.72275296124E+03 -0.31584656544E+03 -0.62718380985E+03  0.12038690267E+04  0.65864270000E+03 0. -1.
    8880022    1    1    2    0    0  0.72275296124E+03  0.31584656544E+03  0.11805842535E+04  0.14280412208E+04  0.15294330000E+03 0.  0.
<mgrwt>
<rscale>  0 0.96628183E+03</rscale>
<asrwt>0</asrwt>
<pdfrwt beam="1">  1        2 0.15988537E+00 0.10275899E+04</pdfrwt>
<pdfrwt beam="2">  1       -2 0.24502390E+00 0.10275899E+04</pdfrwt>
<totfact> 0.16278405E+00</totfact>
</mgrwt>
</event>
<event>
 4    2  0.3747163E-007  0.6636804E+03  0.7818608E-02  0.1020667E+00
          2   -1    0    0  501    0  0.00000000000E+00  0.00000000000E+00  0.14385498570E+04  0.14385498570E+04  0.25500000000E-02 0. -1.
         -2   -1    0    0    0  501 -0.00000000000E+00 -0.00000000000E+00 -0.22862304016E+03  0.22862304017E+03  0.25500000000E-02 0.  1.
    8880023    1    1    2    0    0 -0.64501025332E+02  0.50011127808E+02  0.13089038022E+04  0.14675492717E+04  0.65864270000E+03 0. -1.
    8880022    1    1    2    0    0  0.64501025332E+02 -0.50011127808E+02 -0.98976985413E+02  0.19962362543E+03  0.15294330000E+03 0.  0.
<mgrwt>
<rscale>  0 0.47446644E+03</rscale>
<asrwt>0</asrwt>
<pdfrwt beam="1">  1        2 0.22131536E+00 0.66368042E+03</pdfrwt>
<pdfrwt beam="2">  1       -2 0.35172776E-01 0.66368042E+03</pdfrwt>
<totfact> 0.10702685E+02</totfact>
</mgrwt>
</event>
<event>
 4    2  0.3747163E-007  0.7411805E+03  0.7818608E-02  0.9856522E-01
          2   -1    0    0  501    0  0.00000000000E+00  0.00000000000E+00  0.20076589039E+04  0.20076589039E+04  0.25500000000E-02 0. -1.
         -2   -1    0    0    0  501 -0.00000000000E+00 -0.00000000000E+00 -0.35386101164E+03  0.35386101165E+03  0.25500000000E-02 0.  1.
    8880023    1    1    2    0    0 -0.42743686117E+02  0.33721110818E+03  0.18111457500E+04  0.19569357395E+04  0.65864270000E+03 0. -1.
    8880022    1    1    2    0    0  0.42743686117E+02 -0.33721110818E+03 -0.15734785779E+03  0.40458417610E+03  0.15294330000E+03 0.  0.
<mgrwt>
<rscale>  0 0.62415507E+03</rscale>
<asrwt>0</asrwt>
<pdfrwt beam="1">  1        2 0.30887060E+00 0.74118052E+03</pdfrwt>
<pdfrwt beam="2">  1       -2 0.54440156E-01 0.74118052E+03</pdfrwt>
<totfact> 0.21750292E+01</totfact>
</mgrwt>
</event>
<event>
 4    2  0.3747163E-007  0.6659627E+03  0.7818608E-02  0.1018739E+00
          2   -1    0    0  501    0  0.00000000000E+00  0.00000000000E+00  0.15979943593E+04  0.15979943593E+04  0.25500000000E-02 0. -1.
         -2   -1    0    0    0  501 -0.00000000000E+00 -0.00000000000E+00 -0.27406638435E+03  0.27406638436E+03  0.25500000000E-02 0.  1.
    8880023    1    1    2    0    0  0.88462065778E+01 -0.98070462802E+02  0.14860170918E+04  0.16284204231E+04  0.65864270000E+03 0.  0.
    8880022    1    1    2    0    0 -0.88462065778E+01  0.98070462802E+02 -0.16208911676E+03  0.24364032062E+03  0.15294330000E+03 0.  0.
<mgrwt>
<rscale>  0 0.48144400E+03</rscale>
<asrwt>0</asrwt>
<pdfrwt beam="1">  1        2 0.24584529E+00 0.66596267E+03</pdfrwt>
<pdfrwt beam="2">  1       -2 0.42164058E-01 0.66596267E+03</pdfrwt>
<totfact> 0.61499707E+01</totfact>
</mgrwt>
</event>
<event>
 4    2  0.3747163E-007  0.8789471E+03  0.7818608E-02  0.9560710E-01
         -2   -1    0    0    0  501 -0.00000000000E+00  0.00000000000E+00  0.97722466558E+03  0.97722466559E+03  0.25500000000E-02 0.  1.
          2   -1    0    0  501    0  0.00000000000E+00 -0.00000000000E+00 -0.23192222582E+04  0.23192222582E+04  0.25500000000E-02 0. -1.
    8880023    1    1    2    0    0 -0.54030284847E+03 -0.21635753451E+03 -0.21304190759E+04  0.23046113330E+04  0.65864270000E+03 0. -1.
    8880022    1    1    2    0    0  0.54030284847E+03  0.21635753451E+03  0.78842148331E+03  0.99183559079E+03  0.15294330000E+03 0.  0.
<mgrwt>
<rscale>  0 0.79952126E+03</rscale>
<asrwt>0</asrwt>
<pdfrwt beam="1">  1        2 0.35680342E+00 0.87894707E+03</pdfrwt>
<pdfrwt beam="2">  1       -2 0.15034226E+00 0.87894707E+03</pdfrwt>
<totfact> 0.13456345E+00</totfact>
</mgrwt>
</event>
<event>
 4    2  0.3747163E-007  0.7832726E+03  0.7818608E-02  0.9748205E-01
         -2   -1    0    0    0  501 -0.00000000000E+00  0.00000000000E+00  0.46153228563E+03  0.46153228564E+03  0.25500000000E-02 0.  1.
          2   -1    0    0  501    0  0.00000000000E+00 -0.00000000000E+00 -0.99732751855E+03  0.99732751855E+03  0.25500000000E-02 0. -1.
    8880023    1    1    2    0    0  0.32427631543E+03  0.27303969901E+03 -0.62178470795E+03  0.10000661155E+04  0.65864270000E+03 0. -1.
    8880022    1    1    2    0    0 -0.32427631543E+03 -0.27303969901E+03  0.85989475029E+02  0.45879368873E+03  0.15294330000E+03 0.  0.
<mgrwt>
<rscale>  0 0.68217810E+03</rscale>
<asrwt>0</asrwt>
<pdfrwt beam="1">  1        2 0.15343500E+00 0.78327263E+03</pdfrwt>
<pdfrwt beam="2">  1       -2 0.71004967E-01 0.78327263E+03</pdfrwt>
<totfact> 0.46141484E+01</totfact>
</mgrwt>
</event>
<event>
 4    2  0.3747163E-007  0.9672963E+03  0.7818608E-02  0.9425653E-01
         -2   -1    0    0    0  501 -0.00000000000E+00  0.00000000000E+00  0.27770663954E+03  0.27770663956E+03  0.25500000000E-02 0.  1.
          2   -1    0    0  501    0  0.00000000000E+00 -0.00000000000E+00 -0.29404801790E+04  0.29404801790E+04  0.25500000000E-02 0. -1.
    8880023    1    1    2    0    0 -0.36223673721E+03  0.60879924601E+03 -0.93832095925E+03  0.13476306633E+04  0.65864270000E+03 0.  0.
    8880022    1    1    2    0    0  0.36223673721E+03 -0.60879924601E+03 -0.17244525802E+04  0.18705561553E+04  0.15294330000E+03 0.  0.
<mgrwt>
<rscale>  0 0.89994248E+03</rscale>
<asrwt>0</asrwt>
<pdfrwt beam="1">  1        2 0.45238154E+00 0.96729633E+03</pdfrwt>
<pdfrwt beam="2">  1       -2 0.42724100E-01 0.96729633E+03</pdfrwt>
<totfact> 0.10107715E+01</totfact>
</mgrwt>
</event>
<event>
 4    2  0.3747163E-007  0.7731860E+03  0.7818608E-02  0.9772094E-01
         -2   -1    0    0    0  501 -0.00000000000E+00  0.00000000000E+00  0.46053706864E+03  0.46053706864E+03  0.25500000000E-02 0.  1.
          2   -1    0    0  501    0  0.00000000000E+00 -0.00000000000E+00 -0.13775785504E+04  0.13775785504E+04  0.25500000000E-02 0. -1.
    8880023    1    1    2    0    0 -0.35956839017E+03 -0.18632485913E+03  0.53879256451E+02  0.77506100462E+03  0.65864270000E+03 0.  0.
    8880022    1    1    2    0    0  0.35956839017E+03  0.18632485913E+03 -0.97092073820E+03  0.10630546144E+04  0.15294330000E+03 0.  0.
<mgrwt>
<rscale>  0 0.66881902E+03</rscale>
<asrwt>0</asrwt>
<pdfrwt beam="1">  1        2 0.21193516E+00 0.77318600E+03</pdfrwt>
<pdfrwt beam="2">  1       -2 0.70851857E-01 0.77318600E+03</pdfrwt>
<totfact> 0.27493062E+01</totfact>
</mgrwt>
</event>
<event>
 4    2  0.3747163E-007  0.7568399E+03  0.7818608E-02  0.9813358E-01
         -2   -1    0    0    0  501 -0.00000000000E+00  0.00000000000E+00  0.30120464542E+03  0.30120464543E+03  0.25500000000E-02 0.  1.
          2   -1    0    0  501    0  0.00000000000E+00 -0.00000000000E+00 -0.11717338149E+04  0.11717338149E+04  0.25500000000E-02 0. -1.
    8880023    1    1    2    0    0  0.36966507432E+03 -0.48416266601E+02 -0.71446021089E+03  0.10407977715E+04  0.65864270000E+03 0.  0.
    8880022    1    1    2    0    0 -0.36966507432E+03  0.48416266601E+02 -0.15606895855E+03  0.43214068876E+03  0.15294330000E+03 0.  0.
<mgrwt>
<rscale>  0 0.64650556E+03</rscale>
<asrwt>0</asrwt>
<pdfrwt beam="1">  1        2 0.18026674E+00 0.75683988E+03</pdfrwt>
<pdfrwt beam="2">  1       -2 0.46339177E-01 0.75683988E+03</pdfrwt>
<totfact> 0.88260182E+01</totfact>
</mgrwt>
</event>
<event>
 4    2  0.3747163E-007  0.1113722E+04  0.7818608E-02  0.9245930E-01
         -2   -1    0    0    0  501 -0.00000000000E+00  0.00000000000E+00  0.17796952314E+04  0.17796952314E+04  0.25500000000E-02 0.  1.
          2   -1    0    0  501    0  0.00000000000E+00 -0.00000000000E+00 -0.81760037410E+03  0.81760037410E+03  0.25500000000E-02 0. -1.
    8880023    1    1    2    0    0  0.33058099845E+03 -0.83503456628E+03  0.12185861588E+04  0.16508570369E+04  0.65864270000E+03 0.  0.
    8880022    1    1    2    0    0 -0.33058099845E+03  0.83503456628E+03 -0.25649130153E+03  0.94643856863E+03  0.15294330000E+03 0.  0.
<mgrwt>
<rscale>  0 0.10591675E+04</rscale>
<asrwt>0</asrwt>
<pdfrwt beam="1">  1        2 0.12578467E+00 0.11137220E+04</pdfrwt>
<pdfrwt beam="2">  1       -2 0.27379926E+00 0.11137220E+04</pdfrwt>
<totfact> 0.15175416E+00</totfact>
</mgrwt>
</event>
<event>
 4    2  0.3747163E-007  0.8477136E+03  0.7818608E-02  0.9615804E-01
         -2   -1    0    0    0  501 -0.00000000000E+00  0.00000000000E+00  0.31974833022E+03  0.31974833023E+03  0.25500000000E-02 0.  1.
          2   -1    0    0  501    0  0.00000000000E+00 -0.00000000000E+00 -0.25062081880E+04  0.25062081880E+04  0.25500000000E-02 0. -1.
    8880023    1    1    2    0    0  0.42919832482E+03  0.31717024649E+03 -0.20993031351E+04  0.22639991225E+04  0.65864270000E+03 0.  0.
    8880022    1    1    2    0    0 -0.42919832482E+03 -0.31717024649E+03 -0.87156722647E+02  0.56195739572E+03  0.15294330000E+03 0.  0.
<mgrwt>
<rscale>  0 0.76258967E+03</rscale>
<asrwt>0</asrwt>
<pdfrwt beam="1">  1        2 0.38557048E+00 0.84771362E+03</pdfrwt>
<pdfrwt beam="2">  1       -2 0.49192052E-01 0.84771362E+03</pdfrwt>
<totfact> 0.13942211E+01</totfact>
</mgrwt>
</event>
<event>
 4    2  0.3747163E-007  0.1290395E+04  0.7818608E-02  0.9073899E-01
          2   -1    0    0  501    0  0.00000000000E+00  0.00000000000E+00  0.98679814564E+03  0.98679814564E+03  0.25500000000E-02 0. -1.
         -2   -1    0    0    0  501 -0.00000000000E+00 -0.00000000000E+00 -0.25315802366E+04  0.25315802366E+04  0.25500000000E-02 0.  1.
    8880023    1    1    2    0    0 -0.88134097185E+03 -0.67420069148E+03 -0.19405193072E+04  0.23303935009E+04  0.65864270000E+03 0.  0.
    8880022    1    1    2    0    0  0.88134097185E+03  0.67420069148E+03  0.39573721623E+03  0.11879848814E+04  0.15294330000E+03 0.  0.
<mgrwt>
<rscale>  0 0.12455451E+04</rscale>
<asrwt>0</asrwt>
<pdfrwt beam="1">  1        2 0.15181510E+00 0.12903948E+04</pdfrwt>
<pdfrwt beam="2">  1       -2 0.38947388E+00 0.12903948E+04</pdfrwt>
<totfact> 0.21746098E-01</totfact>
</mgrwt>
</event>
<event>
 4    2  0.3747163E-007  0.6868857E+03  0.7818608E-02  0.1005669E+00
         -2   -1    0    0    0  501 -0.00000000000E+00  0.00000000000E+00  0.30586174752E+03  0.30586174754E+03  0.25500000000E-02 0.  1.
          2   -1    0    0  501    0  0.00000000000E+00 -0.00000000000E+00 -0.16203521007E+04  0.16203521007E+04  0.25500000000E-02 0. -1.
    8880023    1    1    2    0    0  0.11224160514E+03  0.15938497087E+03 -0.14776803488E+04  0.16295248284E+04  0.65864270000E+03 0. -1.
    8880022    1    1    2    0    0 -0.11224160514E+03 -0.15938497087E+03  0.16318999556E+03  0.29668901990E+03  0.15294330000E+03 0.  0.
<mgrwt>
<rscale>  0 0.53232708E+03</rscale>
<asrwt>0</asrwt>
<pdfrwt beam="1">  1        2 0.24928493E+00 0.68688569E+03</pdfrwt>
<pdfrwt beam="2">  1       -2 0.47055654E-01 0.68688569E+03</pdfrwt>
<totfact> 0.47951897E+01</totfact>
</mgrwt>
</event>
<event>
 4    2  0.3747163E-007  0.8966381E+03  0.7818608E-02  0.9531450E-01
         -2   -1    0    0    0  501 -0.00000000000E+00  0.00000000000E+00  0.98451174747E+03  0.98451174748E+03  0.25500000000E-02 0.  1.
          2   -1    0    0  501    0  0.00000000000E+00 -0.00000000000E+00 -0.11292241361E+04  0.11292241361E+04  0.25500000000E-02 0. -1.
    8880023    1    1    2    0    0  0.58756332928E+03 -0.15785775907E+03 -0.80354343369E+03  0.12040107948E+04  0.65864270000E+03 0.  0.
    8880022    1    1    2    0    0 -0.58756332928E+03  0.15785775907E+03  0.65883104509E+03  0.90972508870E+03  0.15294330000E+03 0.  0.
<mgrwt>
<rscale>  0 0.82004315E+03</rscale>
<asrwt>0</asrwt>
<pdfrwt beam="1">  1        2 0.17372679E+00 0.89663813E+03</pdfrwt>
<pdfrwt beam="2">  1       -2 0.15146335E+00 0.89663813E+03</pdfrwt>
<totfact> 0.61164800E+00</totfact>
</mgrwt>
</event>
<event>
 4    2  0.3747163E-007  0.1023717E+04  0.7818608E-02  0.9351166E-01
          2   -1    0    0  501    0  0.00000000000E+00  0.00000000000E+00  0.17208770309E+04  0.17208770309E+04  0.25500000000E-02 0. -1.
         -2   -1    0    0    0  501 -0.00000000000E+00 -0.00000000000E+00 -0.73422782458E+03  0.73422782459E+03  0.25500000000E-02 0.  1.
    8880023    1    1    2    0    0 -0.80727956962E+02 -0.77953082681E+03  0.12487204824E+04  0.16147130898E+04  0.65864270000E+03 0. -1.
    8880022    1    1    2    0    0  0.80727956962E+02  0.77953082681E+03 -0.26207127612E+03  0.84039176564E+03  0.15294330000E+03 0.  0.
<mgrwt>
<rscale>  0 0.96205824E+03</rscale>
<asrwt>0</asrwt>
<pdfrwt beam="1">  1        2 0.26475031E+00 0.10237165E+04</pdfrwt>
<pdfrwt beam="2">  1       -2 0.11295813E+00 0.10237165E+04</pdfrwt>
<totfact> 0.58442834E+00</totfact>
</mgrwt>
</event>
<event>
 4    2  0.3747163E-007  0.8501552E+03  0.7818608E-02  0.9611321E-01
          2   -1    0    0  501    0  0.00000000000E+00  0.00000000000E+00  0.13121499741E+04  0.13121499741E+04  0.25500000000E-02 0. -1.
         -2   -1    0    0    0  501 -0.00000000000E+00 -0.00000000000E+00 -0.52248280248E+03  0.52248280249E+03  0.25500000000E-02 0.  1.
    8880023    1    1    2    0    0  0.53331775166E+03 -0.67274826293E+02  0.92834630147E+03  0.12588053019E+04  0.65864270000E+03 0. -1.
    8880022    1    1    2    0    0 -0.53331775166E+03  0.67274826293E+02 -0.13867912985E+03  0.57582747465E+03  0.15294330000E+03 0.  0.
<mgrwt>
<rscale>  0 0.76551387E+03</rscale>
<asrwt>0</asrwt>
<pdfrwt beam="1">  1        2 0.20186922E+00 0.85015524E+03</pdfrwt>
<pdfrwt beam="2">  1       -2 0.80381971E-01 0.85015524E+03</pdfrwt>
<totfact> 0.22460719E+01</totfact>
</mgrwt>
</event>
<event>
 4    2  0.3747163E-007  0.1129730E+04  0.7818608E-02  0.9228656E-01
          2   -1    0    0  501    0  0.00000000000E+00  0.00000000000E+00  0.27622305083E+04  0.27622305083E+04  0.25500000000E-02 0. -1.
         -2   -1    0    0    0  501 -0.00000000000E+00 -0.00000000000E+00 -0.45564638399E+03  0.45564638400E+03  0.25500000000E-02 0.  1.
    8880023    1    1    2    0    0  0.68503898179E+03 -0.61090134909E+03  0.61257106748E+03  0.12851195991E+04  0.65864270000E+03 0.  0.
    8880022    1    1    2    0    0 -0.68503898179E+03  0.61090134909E+03  0.16940130568E+04  0.19327572933E+04  0.15294330000E+03 0.  0.
<mgrwt>
<rscale>  0 0.10762484E+04</rscale>
<asrwt>0</asrwt>
<pdfrwt beam="1">  1        2 0.42495855E+00 0.11297296E+04</pdfrwt>
<pdfrwt beam="2">  1       -2 0.70099441E-01 0.11297296E+04</pdfrwt>
<totfact> 0.45141522E+00</totfact>
</mgrwt>
</event>
<event>
 4    2  0.3747163E-007  0.6980034E+03  0.7818608E-02  0.1000559E+00
          2   -1    0    0  501    0  0.00000000000E+00  0.00000000000E+00  0.21329294353E+04  0.21329294353E+04  0.25500000000E-02 0. -1.
         -2   -1    0    0    0  501 -0.00000000000E+00 -0.00000000000E+00 -0.69557393074E+03  0.69557393075E+03  0.25500000000E-02 0.  1.
    8880023    1    1    2    0    0  0.15068926279E+03  0.17518920919E+03  0.20448995849E+04  0.21607459433E+04  0.65864270000E+03 0. -1.
    8880022    1    1    2    0    0 -0.15068926279E+03 -0.17518920919E+03 -0.60754408039E+03  0.66775742270E+03  0.15294330000E+03 0.  0.
<mgrwt>
<rscale>  0 0.55405942E+03</rscale>
<asrwt>0</asrwt>
<pdfrwt beam="1">  1        2 0.32814299E+00 0.69800338E+03</pdfrwt>
<pdfrwt beam="2">  1       -2 0.10701138E+00 0.69800338E+03</pdfrwt>
<totfact> 0.41503765E+00</totfact>
</mgrwt>
</event>
<event>
 4    2  0.3747163E-007  0.7877773E+03  0.7818608E-02  0.9737875E-01
         -2   -1    0    0    0  501 -0.00000000000E+00  0.00000000000E+00  0.59046898782E+03  0.59046898782E+03  0.25500000000E-02 0.  1.
          2   -1    0    0  501    0  0.00000000000E+00 -0.00000000000E+00 -0.67916943997E+03  0.67916943998E+03  0.25500000000E-02 0. -1.
    8880023    1    1    2    0    0 -0.37216799782E+03  0.21971313324E+03  0.53640665292E+02  0.78960142272E+03  0.65864270000E+03 0.  0.
    8880022    1    1    2    0    0  0.37216799782E+03 -0.21971313324E+03 -0.14234111745E+03  0.48003700508E+03  0.15294330000E+03 0.  1.
<mgrwt>
<rscale>  0 0.68805810E+03</rscale>
<asrwt>0</asrwt>
<pdfrwt beam="1">  1        2 0.10448761E+00 0.78777731E+03</pdfrwt>
<pdfrwt beam="2">  1       -2 0.90841383E-01 0.78777731E+03</pdfrwt>
<totfact> 0.44468613E+01</totfact>
</mgrwt>
</event>
<event>
 4    2  0.3747163E-007  0.8035037E+03  0.7818608E-02  0.9703271E-01
          2   -1    0    0  501    0  0.00000000000E+00  0.00000000000E+00  0.29845886452E+03  0.29845886453E+03  0.25500000000E-02 0. -1.
         -2   -1    0    0    0  501 -0.00000000000E+00 -0.00000000000E+00 -0.20513319730E+04  0.20513319730E+04  0.25500000000E-02 0.  1.
    8880023    1    1    2    0    0  0.40887905323E+03  0.21124864190E+03 -0.37049085067E+03  0.88480604969E+03  0.65864270000E+03 0.  0.
    8880022    1    1    2    0    0 -0.40887905323E+03 -0.21124864190E+03 -0.13823822578E+04  0.14649847879E+04  0.15294330000E+03 0.  0.
<mgrwt>
<rscale>  0 0.70822382E+03</rscale>
<asrwt>0</asrwt>
<pdfrwt beam="1">  1        2 0.45916750E-01 0.80350375E+03</pdfrwt>
<pdfrwt beam="2">  1       -2 0.31558953E+00 0.80350375E+03</pdfrwt>
<totfact> 0.29160419E+00</totfact>
</mgrwt>
</event>
<event>
 4    2  0.3747163E-007  0.8150478E+03  0.7818608E-02  0.9679157E-01
         -2   -1    0    0    0  501 -0.00000000000E+00  0.00000000000E+00  0.82971938773E+03  0.82971938773E+03  0.25500000000E-02 0.  1.
          2   -1    0    0  501    0  0.00000000000E+00 -0.00000000000E+00 -0.13027799853E+04  0.13027799853E+04  0.25500000000E-02 0. -1.
    8880023    1    1    2    0    0 -0.33851501282E+03  0.34044123873E+03 -0.10740139301E+04  0.13482613913E+04  0.65864270000E+03 0. -1.
    8880022    1    1    2    0    0  0.33851501282E+03 -0.34044123873E+03  0.60095333260E+03  0.78423798168E+03  0.15294330000E+03 0.  0.
<mgrwt>
<rscale>  0 0.72271451E+03</rscale>
<asrwt>0</asrwt>
<pdfrwt beam="1">  1        2 0.20042769E+00 0.81504776E+03</pdfrwt>
<pdfrwt beam="2">  1       -2 0.12764914E+00 0.81504776E+03</pdfrwt>
<totfact> 0.75896164E+00</totfact>
</mgrwt>
</event>
<event>
 4    2  0.3747163E-007  0.8306484E+03  0.7818608E-02  0.9648072E-01
         -2   -1    0    0    0  501 -0.00000000000E+00  0.00000000000E+00  0.69267827720E+03  0.69267827721E+03  0.25500000000E-02 0.  1.
          2   -1    0    0  501    0  0.00000000000E+00 -0.00000000000E+00 -0.71730376809E+03  0.71730376809E+03  0.25500000000E-02 0. -1.
    8880023    1    1    2    0    0 -0.12318343527E+03  0.49090975558E+03 -0.19731600495E+03  0.85376247219E+03  0.65864270000E+03 0. -1.
    8880022    1    1    2    0    0  0.12318343527E+03 -0.49090975558E+03  0.17269051406E+03  0.55621957311E+03  0.15294330000E+03 0.  1.
<mgrwt>
<rscale>  0 0.74194541E+03</rscale>
<asrwt>0</asrwt>
<pdfrwt beam="1">  1        2 0.11035443E+00 0.83064839E+03</pdfrwt>
<pdfrwt beam="2">  1       -2 0.10656589E+00 0.83064839E+03</pdfrwt>
<totfact> 0.28367840E+01</totfact>
</mgrwt>
</event>
<event>
 4    2  0.3747163E-007  0.7363290E+03  0.7818608E-02  0.9870772E-01
          2   -1    0    0  501    0  0.00000000000E+00  0.00000000000E+00  0.10178743785E+04  0.10178743785E+04  0.25500000000E-02 0. -1.
         -2   -1    0    0    0  501 -0.00000000000E+00 -0.00000000000E+00 -0.52209668034E+03  0.52209668034E+03  0.25500000000E-02 0.  1.
    8880023    1    1    2    0    0 -0.30773174852E+03  0.11692446464E+03  0.78467043682E+03  0.10760520713E+04  0.65864270000E+03 0. -1.
    8880022    1    1    2    0    0  0.30773174852E+03 -0.11692446464E+03 -0.28889273870E+03  0.46391898750E+03  0.15294330000E+03 0.  0.
<mgrwt>
<rscale>  0 0.61698928E+03</rscale>
<asrwt>0</asrwt>
<pdfrwt beam="1">  1        2 0.15659606E+00 0.73632898E+03</pdfrwt>
<pdfrwt beam="2">  1       -2 0.80322567E-01 0.73632898E+03</pdfrwt>
<totfact> 0.34194551E+01</totfact>
</mgrwt>
</event>
<event>
 4    2  0.3747163E-007  0.6794959E+03  0.7818608E-02  0.1009610E+00
          2   -1    0    0  501    0  0.00000000000E+00  0.00000000000E+00  0.16105770353E+04  0.16105770353E+04  0.25500000000E-02 0. -1.
         -2   -1    0    0    0  501 -0.00000000000E+00 -0.00000000000E+00 -0.26560715591E+03  0.26560715592E+03  0.25500000000E-02 0.  1.
    8880023    1    1    2    0    0  0.13210480667E+03 -0.10223884725E+03  0.14685812448E+04  0.16181611602E+04  0.65864270000E+03 0. -1.
    8880022    1    1    2    0    0 -0.13210480667E+03  0.10223884725E+03 -0.12361136538E+03  0.25802303095E+03  0.15294330000E+03 0.  0.
<mgrwt>
<rscale>  0 0.51629829E+03</rscale>
<asrwt>0</asrwt>
<pdfrwt beam="1">  1        2 0.24778108E+00 0.67949589E+03</pdfrwt>
<pdfrwt beam="2">  1       -2 0.40862640E-01 0.67949589E+03</pdfrwt>
<totfact> 0.64265756E+01</totfact>
</mgrwt>
</event>
<event>
 4    2  0.3747163E-007  0.1084038E+04  0.7818608E-02  0.9279039E-01
          2   -1    0    0  501    0  0.00000000000E+00  0.00000000000E+00  0.24370860571E+04  0.24370860571E+04  0.25500000000E-02 0. -1.
         -2   -1    0    0    0  501 -0.00000000000E+00 -0.00000000000E+00 -0.40885072394E+03  0.40885072395E+03  0.25500000000E-02 0.  1.
    8880023    1    1    2    0    0 -0.83832733059E+03  0.19630431532E+03  0.84418732282E+03  0.13739689006E+04  0.65864270000E+03 0. -1.
    8880022    1    1    2    0    0  0.83832733059E+03 -0.19630431532E+03  0.11840480104E+04  0.14719678805E+04  0.15294330000E+03 0.  1.
<mgrwt>
<rscale>  0 0.10273565E+04</rscale>
<asrwt>0</asrwt>
<pdfrwt beam="1">  1        2 0.37493631E+00 0.10840380E+04</pdfrwt>
<pdfrwt beam="2">  1       -2 0.62900112E-01 0.10840380E+04</pdfrwt>
<totfact> 0.88706829E+00</totfact>
</mgrwt>
</event>
<event>
 4    2  0.3747163E-007  0.6810522E+03  0.7818608E-02  0.1008735E+00
         -2   -1    0    0    0  501 -0.00000000000E+00  0.00000000000E+00  0.17974417905E+03  0.17974417906E+03  0.25500000000E-02 0.  1.
          2   -1    0    0  501    0  0.00000000000E+00 -0.00000000000E+00 -0.15426077270E+04  0.15426077270E+04  0.25500000000E-02 0. -1.
    8880023    1    1    2    0    0  0.66686561101E+02  0.15992117153E+03 -0.13227491804E+04  0.14877827392E+04  0.65864270000E+03 0.  0.
    8880022    1    1    2    0    0 -0.66686561101E+02 -0.15992117153E+03 -0.40114367515E+02  0.23456916683E+03  0.15294330000E+03 0.  0.
<mgrwt>
<rscale>  0 0.51980650E+03</rscale>
<asrwt>0</asrwt>
<pdfrwt beam="1">  1        2 0.23732426E+00 0.68105219E+03</pdfrwt>
<pdfrwt beam="2">  1       -2 0.27652952E-01 0.68105219E+03</pdfrwt>
<totfact> 0.14648321E+02</totfact>
</mgrwt>
</event>
<event>
 4    2  0.3747163E-007  0.9284889E+03  0.7818608E-02  0.9481764E-01
         -2   -1    0    0    0  501 -0.00000000000E+00  0.00000000000E+00  0.15871569229E+04  0.15871569229E+04  0.25500000000E-02 0.  1.
          2   -1    0    0  501    0  0.00000000000E+00 -0.00000000000E+00 -0.68977674760E+03  0.68977674760E+03  0.25500000000E-02 0. -1.
    8880023    1    1    2    0    0  0.12722816955E+03 -0.64194580184E+03 -0.23714068780E+03  0.95829396935E+03  0.65864270000E+03 0.  0.
    8880022    1    1    2    0    0 -0.12722816955E+03  0.64194580184E+03  0.11345208631E+04  0.13186397011E+04  0.15294330000E+03 0.  0.
<mgrwt>
<rscale>  0 0.85641755E+03</rscale>
<asrwt>0</asrwt>
<pdfrwt beam="1">  1        2 0.10611950E+00 0.92848889E+03</pdfrwt>
<pdfrwt beam="2">  1       -2 0.24417799E+00 0.92848889E+03</pdfrwt>
<totfact> 0.29299465E+00</totfact>
</mgrwt>
</event>
<event>
 4    2  0.3747163E-007  0.8144332E+03  0.7818608E-02  0.9680416E-01
          2   -1    0    0  501    0  0.00000000000E+00  0.00000000000E+00  0.78591442684E+03  0.78591442685E+03  0.25500000000E-02 0. -1.
         -2   -1    0    0    0  501 -0.00000000000E+00 -0.00000000000E+00 -0.72549189411E+03  0.72549189412E+03  0.25500000000E-02 0.  1.
    8880023    1    1    2    0    0 -0.45388180954E+03  0.15324023035E+03  0.39724895703E+03  0.90615021125E+03  0.65864270000E+03 0.  0.
    8880022    1    1    2    0    0  0.45388180954E+03 -0.15324023035E+03 -0.33682642430E+03  0.60525610971E+03  0.15294330000E+03 0.  0.
<mgrwt>
<rscale>  0 0.72194905E+03</rscale>
<asrwt>0</asrwt>
<pdfrwt beam="1">  1        2 0.12090991E+00 0.81443322E+03</pdfrwt>
<pdfrwt beam="2">  1       -2 0.11161414E+00 0.81443322E+03</pdfrwt>
<totfact> 0.22556199E+01</totfact>
</mgrwt>
</event>
<event>
 4    2  0.3747163E-007  0.1133800E+04  0.7818608E-02  0.9224325E-01
         -2   -1    0    0    0  501 -0.00000000000E+00  0.00000000000E+00  0.60003207420E+03  0.60003207420E+03  0.25500000000E-02 0.  1.
          2   -1    0    0  501    0  0.00000000000E+00 -0.00000000000E+00 -0.42960457599E+04  0.42960457599E+04  0.25500000000E-02 0. -1.
    8880023    1    1    2    0    0 -0.22110774837E+03  0.89599344028E+03 -0.53175273557E+02  0.11350465618E+04  0.65864270000E+03 0.  1.
    8880022    1    1    2    0    0  0.22110774837E+03 -0.89599344028E+03 -0.36428384121E+04  0.37610312723E+04  0.15294330000E+03 0.  0.
<mgrwt>
<rscale>  0 0.10805843E+04</rscale>
<asrwt>0</asrwt>
<pdfrwt beam="1">  1        2 0.66093010E+00 0.11338003E+04</pdfrwt>
<pdfrwt beam="2">  1       -2 0.92312630E-01 0.11338003E+04</pdfrwt>
<totfact> 0.19746480E-01</totfact>
</mgrwt>
</event>
<event>
 4    2  0.3747163E-007  0.1058033E+04  0.7818608E-02  0.9309287E-01
          2   -1    0    0  501    0  0.00000000000E+00  0.00000000000E+00  0.26358662712E+04  0.26358662712E+04  0.25500000000E-02 0. -1.
         -2   -1    0    0    0  501 -0.00000000000E+00 -0.00000000000E+00 -0.45643621604E+03  0.45643621605E+03  0.25500000000E-02 0.  1.
    8880023    1    1    2    0    0 -0.44372336999E+03  0.69909443839E+03  0.19516722606E+04  0.22200131265E+04  0.65864270000E+03 0.  0.
    8880022    1    1    2    0    0  0.44372336999E+03 -0.69909443839E+03  0.22775779458E+03  0.87228936074E+03  0.15294330000E+03 0.  0.
<mgrwt>
<rscale>  0 0.99932401E+03</rscale>
<asrwt>0</asrwt>
<pdfrwt beam="1">  1        2 0.40551788E+00 0.10580329E+04</pdfrwt>
<pdfrwt beam="2">  1       -2 0.70220957E-01 0.10580329E+04</pdfrwt>
<totfact> 0.53841654E+00</totfact>
</mgrwt>
</event>
<event>
 4    2  0.3747163E-007  0.7806626E+03  0.7818608E-02  0.9754283E-01
          2   -1    0    0  501    0  0.00000000000E+00  0.00000000000E+00  0.57233624150E+03  0.57233624151E+03  0.25500000000E-02 0. -1.
         -2   -1    0    0    0  501 -0.00000000000E+00 -0.00000000000E+00 -0.97309706147E+03  0.97309706147E+03  0.25500000000E-02 0.  1.
    8880023    1    1    2    0    0  0.22619932385E+02 -0.41846413798E+03  0.19164337787E+03  0.80384158058E+03  0.65864270000E+03 0.  0.
    8880022    1    1    2    0    0 -0.22619932385E+02  0.41846413798E+03 -0.59240419784E+03  0.74159172241E+03  0.15294330000E+03 0.  0.
<mgrwt>
<rscale>  0 0.67874776E+03</rscale>
<asrwt>0</asrwt>
<pdfrwt beam="1">  1        2 0.88051729E-01 0.78066260E+03</pdfrwt>
<pdfrwt beam="2">  1       -2 0.14970724E+00 0.78066260E+03</pdfrwt>
<totfact> 0.15990450E+01</totfact>
</mgrwt>
</event>
<event>
 4    2  0.3747163E-007  0.7494506E+03  0.7818608E-02  0.9833227E-01
          2   -1    0    0  501    0  0.00000000000E+00  0.00000000000E+00  0.11427085064E+04  0.11427085064E+04  0.25500000000E-02 0. -1.
         -2   -1    0    0    0  501 -0.00000000000E+00 -0.00000000000E+00 -0.77325945053E+03  0.77325945053E+03  0.25500000000E-02 0.  1.
    8880023    1    1    2    0    0 -0.35626969284E+03 -0.30625987759E+02  0.95442257058E+03  0.12135067757E+04  0.65864270000E+03 0. -1.
    8880022    1    1    2    0    0  0.35626969284E+03  0.30625987759E+02 -0.58497351473E+03  0.70246118122E+03  0.15294330000E+03 0.  0.
<mgrwt>
<rscale>  0 0.63609497E+03</rscale>
<asrwt>0</asrwt>
<pdfrwt beam="1">  1        2 0.17580131E+00 0.74945063E+03</pdfrwt>
<pdfrwt beam="2">  1       -2 0.11896299E+00 0.74945063E+03</pdfrwt>
<totfact> 0.11339629E+01</totfact>
</mgrwt>
</event>
<event>
 4    2  0.3747163E-007  0.6636461E+03  0.7818608E-02  0.1020697E+00
          2   -1    0    0  501    0  0.00000000000E+00  0.00000000000E+00  0.23334888322E+04  0.23334888322E+04  0.25500000000E-02 0. -1.
         -2   -1    0    0    0  501 -0.00000000000E+00 -0.00000000000E+00 -0.20561921006E+03  0.20561921007E+03  0.25500000000E-02 0.  1.
    8880023    1    1    2    0    0 -0.80055975476E+02 -0.14387025018E+02  0.22376737855E+04  0.23340115943E+04  0.65864270000E+03 0. -1.
    8880022    1    1    2    0    0  0.80055975476E+02  0.14387025018E+02 -0.10980416331E+03  0.20509644803E+03  0.15294330000E+03 0.  0.
<mgrwt>
<rscale>  0 0.47435810E+03</rscale>
<asrwt>0</asrwt>
<pdfrwt beam="1">  1        2 0.35899826E+00 0.66364610E+03</pdfrwt>
<pdfrwt beam="2">  1       -2 0.31633726E-01 0.66364610E+03</pdfrwt>
<totfact> 0.42307636E+01</totfact>
</mgrwt>
</event>
<event>
 4    2  0.3747163E-007  0.6678753E+03  0.7818608E-02  0.1017234E+00
         -2   -1    0    0    0  501 -0.00000000000E+00  0.00000000000E+00  0.14227186282E+04  0.14227186282E+04  0.25500000000E-02 0.  1.
          2   -1    0    0  501    0  0.00000000000E+00 -0.00000000000E+00 -0.25919575447E+03  0.25919575449E+03  0.25500000000E-02 0. -1.
    8880023    1    1    2    0    0  0.64230958132E+02 -0.90120079634E+02  0.19585046307E+03  0.69599917736E+03  0.65864270000E+03 0.  0.
    8880022    1    1    2    0    0 -0.64230958132E+02  0.90120079634E+02  0.96767241064E+03  0.98591520531E+03  0.15294330000E+03 0.  0.
<mgrwt>
<rscale>  0 0.48698107E+03</rscale>
<asrwt>0</asrwt>
<pdfrwt beam="1">  1        2 0.39876270E-01 0.66787533E+03</pdfrwt>
<pdfrwt beam="2">  1       -2 0.21887979E+00 0.66787533E+03</pdfrwt>
<totfact> 0.13356060E+01</totfact>
</mgrwt>
</event>
<event>
 4    2  0.3747163E-007  0.8057004E+03  0.7818608E-02  0.9698604E-01
          2   -1    0    0  501    0  0.00000000000E+00  0.00000000000E+00  0.37522444974E+03  0.37522444975E+03  0.25500000000E-02 0. -1.
         -2   -1    0    0    0  501 -0.00000000000E+00 -0.00000000000E+00 -0.15034870110E+04  0.15034870110E+04  0.25500000000E-02 0.  1.
    8880023    1    1    2    0    0  0.40783350825E+03  0.22139261136E+03 -0.20068887973E+03  0.83031866866E+03  0.65864270000E+03 0. -1.
    8880022    1    1    2    0    0 -0.40783350825E+03 -0.22139261136E+03 -0.92757368151E+03  0.10483927921E+04  0.15294330000E+03 0.  0.
<mgrwt>
<rscale>  0 0.71099995E+03</rscale>
<asrwt>0</asrwt>
<pdfrwt beam="1">  1        2 0.57726839E-01 0.80570036E+03</pdfrwt>
<pdfrwt beam="2">  1       -2 0.23130569E+00 0.80570036E+03</pdfrwt>
<totfact> 0.72987559E+00</totfact>
</mgrwt>
</event>
<event>
 4    2  0.3747163E-007  0.6862966E+03  0.7818608E-02  0.1005965E+00
         -2   -1    0    0    0  501 -0.00000000000E+00  0.00000000000E+00  0.57485471692E+03  0.57485471692E+03  0.25500000000E-02 0.  1.
          2   -1    0    0  501    0  0.00000000000E+00 -0.00000000000E+00 -0.41940196003E+03  0.41940196003E+03  0.25500000000E-02 0. -1.
    8880023    1    1    2    0    0 -0.11464133179E+03 -0.15508115968E+03 -0.28633060948E+02  0.68689363040E+03  0.65864270000E+03 0.  0.
    8880022    1    1    2    0    0  0.11464133179E+03  0.15508115968E+03  0.18408581784E+03  0.30736304655E+03  0.15294330000E+03 0.  0.
<mgrwt>
<rscale>  0 0.53110334E+03</rscale>
<asrwt>0</asrwt>
<pdfrwt beam="1">  1        2 0.64523379E-01 0.68629659E+03</pdfrwt>
<pdfrwt beam="2">  1       -2 0.88439187E-01 0.68629659E+03</pdfrwt>
<totfact> 0.84114648E+01</totfact>
</mgrwt>
</event>
<event>
 4    2  0.3747163E-007  0.6754519E+03  0.7818608E-02  0.1012023E+00
         -2   -1    0    0    0  501 -0.00000000000E+00  0.00000000000E+00  0.87384801982E+03  0.87384801982E+03  0.25500000000E-02 0.  1.
          2   -1    0    0  501    0  0.00000000000E+00 -0.00000000000E+00 -0.49358033604E+03  0.49358033605E+03  0.25500000000E-02 0. -1.
    8880023    1    1    2    0    0  0.42420032031E+02  0.14361625819E+03 -0.23564870253E+03  0.71537794626E+03  0.65864270000E+03 0. -1.
    8880022    1    1    2    0    0 -0.42420032031E+02 -0.14361625819E+03  0.61591638630E+03  0.65205040961E+03  0.15294330000E+03 0.  0.
<mgrwt>
<rscale>  0 0.50678512E+03</rscale>
<asrwt>0</asrwt>
<pdfrwt beam="1">  1        2 0.75935437E-01 0.67545192E+03</pdfrwt>
<pdfrwt beam="2">  1       -2 0.13443815E+00 0.67545192E+03</pdfrwt>
<totfact> 0.25403842E+01</totfact>
</mgrwt>
</event>
<event>
 4    2  0.3747163E-007  0.8896542E+03  0.7818608E-02  0.9542848E-01
         -2   -1    0    0    0  501 -0.00000000000E+00  0.00000000000E+00  0.42244379966E+03  0.42244379967E+03  0.25500000000E-02 0.  1.
          2   -1    0    0  501    0  0.00000000000E+00 -0.00000000000E+00 -0.23000942444E+04  0.23000942444E+04  0.25500000000E-02 0. -1.
    8880023    1    1    2    0    0 -0.19028519739E+03  0.56697964162E+03 -0.19072329206E+04  0.21045241719E+04  0.65864270000E+03 0. -1.
    8880022    1    1    2    0    0  0.19028519739E+03 -0.56697964162E+03  0.29582475833E+02  0.61801387222E+03  0.15294330000E+03 0.  0.
<mgrwt>
<rscale>  0 0.81197181E+03</rscale>
<asrwt>0</asrwt>
<pdfrwt beam="1">  1        2 0.35386065E+00 0.88965419E+03</pdfrwt>
<pdfrwt beam="2">  1       -2 0.64991355E-01 0.88965419E+03</pdfrwt>
<totfact> 0.10115939E+01</totfact>
</mgrwt>
</event>
<event>
 4    2  0.3747163E-007  0.7336990E+03  0.7818608E-02  0.9878697E-01
         -2   -1    0    0    0  501 -0.00000000000E+00  0.00000000000E+00  0.55037628175E+03  0.55037628176E+03  0.25500000000E-02 0.  1.
          2   -1    0    0  501    0  0.00000000000E+00 -0.00000000000E+00 -0.10319630956E+04  0.10319630956E+04  0.25500000000E-02 0. -1.
    8880023    1    1    2    0    0 -0.16436772543E+03 -0.27836531931E+03 -0.81275067667E+03  0.10949328148E+04  0.65864270000E+03 0. -1.
    8880022    1    1    2    0    0  0.16436772543E+03  0.27836531931E+03  0.33116386285E+03  0.48740656257E+03  0.15294330000E+03 0.  0.
<mgrwt>
<rscale>  0 0.61304932E+03</rscale>
<asrwt>0</asrwt>
<pdfrwt beam="1">  1        2 0.15876355E+00 0.73369899E+03</pdfrwt>
<pdfrwt beam="2">  1       -2 0.84673274E-01 0.73369899E+03</pdfrwt>
<totfact> 0.29740985E+01</totfact>
</mgrwt>
</event>
<event>
 4    2  0.3747163E-007  0.2200435E+04  0.7818608E-02  0.8528397E-01
          2   -1    0    0  501    0  0.00000000000E+00  0.00000000000E+00  0.25171723781E+04  0.25171723781E+04  0.25500000000E-02 0. -1.
         -2   -1    0    0    0  501 -0.00000000000E+00 -0.00000000000E+00 -0.25841756613E+04  0.25841756613E+04  0.25500000000E-02 0.  1.
    8880023    1    1    2    0    0  0.20933829920E+04 -0.16078352748E+03  0.13334683721E+04  0.25729461322E+04  0.65864270000E+03 0.  0.
    8880022    1    1    2    0    0 -0.20933829920E+04  0.16078352748E+03 -0.14004716553E+04  0.25284019071E+04  0.15294330000E+03 0.  0.
<mgrwt>
<rscale>  0 0.21762069E+04</rscale>
<asrwt>0</asrwt>
<pdfrwt beam="1">  1        2 0.38725729E+00 0.22004349E+04</pdfrwt>
<pdfrwt beam="2">  1       -2 0.39756549E+00 0.22004349E+04</pdfrwt>
<totfact> 0.22615491E-02</totfact>
</mgrwt>
</event>
<event>
 4    2  0.3747163E-007  0.7435466E+03  0.7818608E-02  0.9849734E-01
         -2   -1    0    0    0  501 -0.00000000000E+00  0.00000000000E+00  0.40044760072E+03  0.40044760073E+03  0.25500000000E-02 0.  1.
          2   -1    0    0  501    0  0.00000000000E+00 -0.00000000000E+00 -0.13084488196E+04  0.13084488196E+04  0.25500000000E-02 0. -1.
    8880023    1    1    2    0    0 -0.14710623441E+03  0.31210754939E+03 -0.10660363317E+04  0.12997288307E+04  0.65864270000E+03 0. -1.
    8880022    1    1    2    0    0  0.14710623441E+03 -0.31210754939E+03  0.15803511275E+03  0.40916758970E+03  0.15294330000E+03 0.  0.
<mgrwt>
<rscale>  0 0.62760486E+03</rscale>
<asrwt>0</asrwt>
<pdfrwt beam="1">  1        2 0.20129982E+00 0.74354662E+03</pdfrwt>
<pdfrwt beam="2">  1       -2 0.61607324E-01 0.74354662E+03</pdfrwt>
<totfact> 0.40834195E+01</totfact>
</mgrwt>
</event>
<event>
 4    2  0.3747163E-007  0.6665059E+03  0.7818608E-02  0.1018302E+00
         -2   -1    0    0    0  501 -0.00000000000E+00  0.00000000000E+00  0.80169168295E+02  0.80169168336E+02  0.25500000000E-02 0.  1.
          2   -1    0    0  501    0  0.00000000000E+00 -0.00000000000E+00 -0.24238458683E+04  0.24238458683E+04  0.25500000000E-02 0. -1.
    8880023    1    1    2    0    0 -0.69486748856E+02  0.74776259297E+02 -0.15141375709E+04  0.16543405596E+04  0.65864270000E+03 0.  1.
    8880022    1    1    2    0    0  0.69486748856E+02 -0.74776259297E+02 -0.82953912909E+03  0.84967447704E+03  0.15294330000E+03 0.  0.
<mgrwt>
<rscale>  0 0.48304337E+03</rscale>
<asrwt>0</asrwt>
<pdfrwt beam="1">  1        2 0.37289931E+00 0.66650589E+03</pdfrwt>
<pdfrwt beam="2">  1       -2 0.12333720E-01 0.66650589E+03</pdfrwt>
<totfact> 0.19570128E+02</totfact>
</mgrwt>
</event>
<event>
 4    2  0.3747163E-007  0.9050519E+03  0.7818608E-02  0.9517970E-01
          2   -1    0    0  501    0  0.00000000000E+00  0.00000000000E+00  0.20975039174E+04  0.20975039174E+04  0.25500000000E-02 0. -1.
         -2   -1    0    0    0  501 -0.00000000000E+00 -0.00000000000E+00 -0.45405935130E+03  0.45405935130E+03  0.25500000000E-02 0.  1.
    8880023    1    1    2    0    0 -0.20228379739E+02 -0.62040265807E+03  0.16831336066E+04  0.19110357374E+04  0.65864270000E+03 0. -1.
    8880022    1    1    2    0    0  0.20228379739E+02  0.62040265807E+03 -0.39689040489E+02  0.64052753137E+03  0.15294330000E+03 0.  0.
<mgrwt>
<rscale>  0 0.82971839E+03</rscale>
<asrwt>0</asrwt>
<pdfrwt beam="1">  1        2 0.32269291E+00 0.90505185E+03</pdfrwt>
<pdfrwt beam="2">  1       -2 0.69855285E-01 0.90505185E+03</pdfrwt>
<totfact> 0.11180228E+01</totfact>
</mgrwt>
</event>
<event>
 4    2  0.3747163E-007  0.6654826E+03  0.7818608E-02  0.1019132E+00
         -2   -1    0    0    0  501 -0.00000000000E+00  0.00000000000E+00  0.15695269907E+03  0.15695269909E+03  0.25500000000E-02 0.  1.
          2   -1    0    0  501    0  0.00000000000E+00 -0.00000000000E+00 -0.25274289076E+04  0.25274289076E+04  0.25500000000E-02 0. -1.
    8880023    1    1    2    0    0  0.82920330694E+02  0.46701914448E+02 -0.24098034206E+04  0.25000039164E+04  0.65864270000E+03 0. -1.
    8880022    1    1    2    0    0 -0.82920330694E+02 -0.46701914448E+02  0.39327212025E+02  0.18437769029E+03  0.15294330000E+03 0.  0.
<mgrwt>
<rscale>  0 0.48001173E+03</rscale>
<asrwt>0</asrwt>
<pdfrwt beam="1">  1        2 0.38883519E+00 0.66548257E+03</pdfrwt>
<pdfrwt beam="2">  1       -2 0.24146571E-01 0.66548257E+03</pdfrwt>
<totfact> 0.53964726E+01</totfact>
</mgrwt>
</event>
<event>
 4    2  0.3747163E-007  0.6957171E+03  0.7818608E-02  0.1001545E+00
         -2   -1    0    0    0  501 -0.00000000000E+00  0.00000000000E+00  0.44714643142E+03  0.44714643143E+03  0.25500000000E-02 0.  1.
          2   -1    0    0  501    0  0.00000000000E+00 -0.00000000000E+00 -0.19594764821E+04  0.19594764821E+04  0.25500000000E-02 0. -1.
    8880023    1    1    2    0    0 -0.10798187486E+03  0.19634650665E+03 -0.18482351756E+04  0.19748406281E+04  0.65864270000E+03 0.  0.
    8880022    1    1    2    0    0  0.10798187486E+03 -0.19634650665E+03  0.33590512495E+03  0.43178228536E+03  0.15294330000E+03 0.  0.
<mgrwt>
<rscale>  0 0.54977748E+03</rscale>
<asrwt>0</asrwt>
<pdfrwt beam="1">  1        2 0.30145792E+00 0.69571707E+03</pdfrwt>
<pdfrwt beam="2">  1       -2 0.68791760E-01 0.69571707E+03</pdfrwt>
<totfact> 0.14163849E+01</totfact>
</mgrwt>
</event>
<event>
 4    2  0.3747163E-007  0.1105693E+04  0.7818608E-02  0.9254744E-01
          2   -1    0    0  501    0  0.00000000000E+00  0.00000000000E+00  0.21383712627E+04  0.21383712627E+04  0.25500000000E-02 0. -1.
         -2   -1    0    0    0  501 -0.00000000000E+00 -0.00000000000E+00 -0.52057832748E+03  0.52057832748E+03  0.25500000000E-02 0.  1.
    8880023    1    1    2    0    0  0.75186033277E+03  0.47270730072E+03  0.47456103505E+03  0.12032308733E+04  0.65864270000E+03 0.  0.
    8880022    1    1    2    0    0 -0.75186033277E+03 -0.47270730072E+03  0.11432319001E+04  0.14557187169E+04  0.15294330000E+03 0.  0.
<mgrwt>
<rscale>  0 0.10505810E+04</rscale>
<asrwt>0</asrwt>
<pdfrwt beam="1">  1        2 0.32898019E+00 0.11056927E+04</pdfrwt>
<pdfrwt beam="2">  1       -2 0.80088976E-01 0.11056927E+04</pdfrwt>
<totfact> 0.76512078E+00</totfact>
</mgrwt>
</event>
<event>
 4    2  0.3747163E-007  0.7170253E+03  0.7818608E-02  0.9932783E-01
          2   -1    0    0  501    0  0.00000000000E+00  0.00000000000E+00  0.13729061107E+04  0.13729061107E+04  0.25500000000E-02 0. -1.
         -2   -1    0    0    0  501 -0.00000000000E+00 -0.00000000000E+00 -0.29299254526E+03  0.29299254527E+03  0.25500000000E-02 0.  1.
    8880023    1    1    2    0    0 -0.22067116419E+03 -0.17781833611E+03  0.11316983248E+04  0.13397262511E+04  0.65864270000E+03 0. -1.
    8880022    1    1    2    0    0  0.22067116419E+03  0.17781833611E+03 -0.51784759358E+02  0.32617240484E+03  0.15294330000E+03 0.  0.
<mgrwt>
<rscale>  0 0.58698468E+03</rscale>
<asrwt>0</asrwt>
<pdfrwt beam="1">  1        2 0.21121633E+00 0.71702533E+03</pdfrwt>
<pdfrwt beam="2">  1       -2 0.45075776E-01 0.71702533E+03</pdfrwt>
<totfact> 0.71525114E+01</totfact>
</mgrwt>
</event>
<event>
 4    2  0.3747163E-007  0.9683257E+03  0.7818608E-02  0.9424224E-01
          2   -1    0    0  501    0  0.00000000000E+00  0.00000000000E+00  0.17043754033E+04  0.17043754033E+04  0.25500000000E-02 0. -1.
         -2   -1    0    0    0  501 -0.00000000000E+00 -0.00000000000E+00 -0.63138513179E+03  0.63138513180E+03  0.25500000000E-02 0.  1.
    8880023    1    1    2    0    0 -0.39878735990E+03  0.58720785359E+03  0.12569711105E+04  0.15867044466E+04  0.65864270000E+03 0. -1.
    8880022    1    1    2    0    0  0.39878735990E+03 -0.58720785359E+03 -0.18398083898E+03  0.74905608859E+03  0.15294330000E+03 0.  0.
<mgrwt>
<rscale>  0 0.90108701E+03</rscale>
<asrwt>0</asrwt>
<pdfrwt beam="1">  1        2 0.26221160E+00 0.96832568E+03</pdfrwt>
<pdfrwt beam="2">  1       -2 0.97136174E-01 0.96832568E+03</pdfrwt>
<totfact> 0.86342711E+00</totfact>
</mgrwt>
</event>
<event>
 4    2  0.3747163E-007  0.6655645E+03  0.7818608E-02  0.1019064E+00
         -2   -1    0    0    0  501 -0.00000000000E+00  0.00000000000E+00  0.66061083006E+02  0.66061083055E+02  0.25500000000E-02 0.  1.
          2   -1    0    0  501    0  0.00000000000E+00 -0.00000000000E+00 -0.27868069104E+04  0.27868069104E+04  0.25500000000E-02 0. -1.
    8880023    1    1    2    0    0 -0.77015241972E+02 -0.56873506365E+02 -0.23157242548E+04  0.24094719284E+04  0.65864270000E+03 0.  0.
    8880022    1    1    2    0    0  0.77015241972E+02  0.56873506365E+02 -0.40502157254E+03  0.44339606501E+03  0.15294330000E+03 0.  0.
<mgrwt>
<rscale>  0 0.48025752E+03</rscale>
<asrwt>0</asrwt>
<pdfrwt beam="1">  1        2 0.42873943E+00 0.66556453E+03</pdfrwt>
<pdfrwt beam="2">  1       -2 0.10163246E-01 0.66556453E+03</pdfrwt>
<totfact> 0.16657664E+02</totfact>
</mgrwt>
</event>
<event>
 4    2  0.3747163E-007  0.1010323E+04  0.7818608E-02  0.9368175E-01
         -2   -1    0    0    0  501 -0.00000000000E+00  0.00000000000E+00  0.69628107453E+03  0.69628107453E+03  0.25500000000E-02 0.  1.
          2   -1    0    0  501    0  0.00000000000E+00 -0.00000000000E+00 -0.19515103459E+04  0.19515103459E+04  0.25500000000E-02 0. -1.
    8880023    1    1    2    0    0 -0.75545617784E+03  0.12739089676E+03 -0.15180568594E+04  0.18235266140E+04  0.65864270000E+03 0. -1.
    8880022    1    1    2    0    0  0.75545617784E+03 -0.12739089676E+03  0.26282758799E+03  0.82426480650E+03  0.15294330000E+03 0.  0.
<mgrwt>
<rscale>  0 0.94741696E+03</rscale>
<asrwt>0</asrwt>
<pdfrwt beam="1">  1        2 0.30023236E+00 0.10103231E+04</pdfrwt>
<pdfrwt beam="2">  1       -2 0.10712017E+00 0.10103231E+04</pdfrwt>
<totfact> 0.49708753E+00</totfact>
</mgrwt>
</event>
<event>
 4    2  0.3747163E-007  0.6814507E+03  0.7818608E-02  0.1008515E+00
         -2   -1    0    0    0  501 -0.00000000000E+00  0.00000000000E+00  0.92497742704E+03  0.92497742704E+03  0.25500000000E-02 0.  1.
          2   -1    0    0  501    0  0.00000000000E+00 -0.00000000000E+00 -0.32324357013E+03  0.32324357014E+03  0.25500000000E-02 0. -1.
    8880023    1    1    2    0    0 -0.95660097674E+02  0.14633505620E+03  0.91455500732E+02  0.68756026488E+03  0.65864270000E+03 0.  0.
    8880022    1    1    2    0    0  0.95660097674E+02 -0.14633505620E+03  0.51027835617E+03  0.56066073231E+03  0.15294330000E+03 0.  1.
<mgrwt>
<rscale>  0 0.52069240E+03</rscale>
<asrwt>0</asrwt>
<pdfrwt beam="1">  1        2 0.49729781E-01 0.68145067E+03</pdfrwt>
<pdfrwt beam="2">  1       -2 0.14230422E+00 0.68145067E+03</pdfrwt>
<totfact> 0.35340710E+01</totfact>
</mgrwt>
</event>
<event>
 4    2  0.3747163E-007  0.6845258E+03  0.7818608E-02  0.1006871E+00
         -2   -1    0    0    0  501 -0.00000000000E+00  0.00000000000E+00  0.86112517976E+03  0.86112517976E+03  0.25500000000E-02 0.  1.
          2   -1    0    0  501    0  0.00000000000E+00 -0.00000000000E+00 -0.50459394805E+03  0.50459394806E+03  0.25500000000E-02 0. -1.
    8880023    1    1    2    0    0  0.25039841419E+02  0.18476588570E+03 -0.23753701915E+03  0.72456847013E+03  0.65864270000E+03 0. -1.
    8880022    1    1    2    0    0 -0.25039841419E+02 -0.18476588570E+03  0.59406825085E+03  0.64115065769E+03  0.15294330000E+03 0.  0.
<mgrwt>
<rscale>  0 0.52737278E+03</rscale>
<asrwt>0</asrwt>
<pdfrwt beam="1">  1        2 0.77629838E-01 0.68452584E+03</pdfrwt>
<pdfrwt beam="2">  1       -2 0.13248080E+00 0.68452584E+03</pdfrwt>
<totfact> 0.25682207E+01</totfact>
</mgrwt>
</event>
<event>
 4    2  0.3747163E-007  0.6610767E+03  0.7818608E-02  0.1023079E+00
          2   -1    0    0  501    0  0.00000000000E+00  0.00000000000E+00  0.94488378263E+03  0.94488378263E+03  0.25500000000E-02 0. -1.
         -2   -1    0    0    0  501 -0.00000000000E+00 -0.00000000000E+00 -0.28347628237E+03  0.28347628238E+03  0.25500000000E-02 0.  1.
    8880023    1    1    2    0    0  0.42239037436E+02 -0.37790114581E+02  0.78312385366E+03  0.10248440884E+04  0.65864270000E+03 0. -1.
    8880022    1    1    2    0    0 -0.42239037436E+02  0.37790114581E+02 -0.12171635340E+03  0.20351597663E+03  0.15294330000E+03 0.  0.
<mgrwt>
<rscale>  0 0.46591536E+03</rscale>
<asrwt>0</asrwt>
<pdfrwt beam="1">  1        2 0.14536674E+00 0.66107672E+03</pdfrwt>
<pdfrwt beam="2">  1       -2 0.43611736E-01 0.66107672E+03</pdfrwt>
<totfact> 0.13887506E+02</totfact>
</mgrwt>
</event>
<event>
 4    2  0.3747163E-007  0.1088102E+04  0.7818608E-02  0.9274421E-01
         -2   -1    0    0    0  501 -0.00000000000E+00  0.00000000000E+00  0.60797216280E+03  0.60797216280E+03  0.25500000000E-02 0.  1.
          2   -1    0    0  501    0  0.00000000000E+00 -0.00000000000E+00 -0.23336878798E+04  0.23336878798E+04  0.25500000000E-02 0. -1.
    8880023    1    1    2    0    0 -0.77451847974E+03 -0.38765422788E+03 -0.17512702101E+04  0.20617740495E+04  0.65864270000E+03 0. -1.
    8880022    1    1    2    0    0  0.77451847974E+03  0.38765422788E+03  0.25554493102E+02  0.87988599317E+03  0.15294330000E+03 0.  0.
<mgrwt>
<rscale>  0 0.10317224E+04</rscale>
<asrwt>0</asrwt>
<pdfrwt beam="1">  1        2 0.35902890E+00 0.10881015E+04</pdfrwt>
<pdfrwt beam="2">  1       -2 0.93534180E-01 0.10881015E+04</pdfrwt>
<totfact> 0.41718099E+00</totfact>
</mgrwt>
</event>
<event>
 4    2  0.3747163E-007  0.1064752E+04  0.7818608E-02  0.9301354E-01
          2   -1    0    0  501    0  0.00000000000E+00  0.00000000000E+00  0.28331412188E+04  0.28331412188E+04  0.25500000000E-02 0. -1.
         -2   -1    0    0    0  501 -0.00000000000E+00 -0.00000000000E+00 -0.32372107215E+03  0.32372107216E+03  0.25500000000E-02 0.  1.
    8880023    1    1    2    0    0  0.79656871337E+03  0.25566694744E+03  0.14144433414E+04  0.17704088441E+04  0.65864270000E+03 0. -1.
    8880022    1    1    2    0    0 -0.79656871337E+03 -0.25566694744E+03  0.10949768053E+04  0.13864534469E+04  0.15294330000E+03 0.  1.
<mgrwt>
<rscale>  0 0.10065832E+04</rscale>
<asrwt>0</asrwt>
<pdfrwt beam="1">  1        2 0.43586789E+00 0.10647523E+04</pdfrwt>
<pdfrwt beam="2">  1       -2 0.49803241E-01 0.10647523E+04</pdfrwt>
<totfact> 0.85128808E+00</totfact>
</mgrwt>
</event>
<event>
 4    2  0.3747163E-007  0.1235652E+04  0.7818608E-02  0.9123222E-01
         -2   -1    0    0    0  501 -0.00000000000E+00  0.00000000000E+00  0.15120555582E+04  0.15120555582E+04  0.25500000000E-02 0.  1.
          2   -1    0    0  501    0  0.00000000000E+00 -0.00000000000E+00 -0.10859339169E+04  0.10859339169E+04  0.25500000000E-02 0. -1.
    8880023    1    1    2    0    0 -0.91836437842E+03  0.49963295975E+03 -0.35311743950E+03  0.12851180328E+04  0.65864270000E+03 0.  0.
    8880022    1    1    2    0    0  0.91836437842E+03 -0.49963295975E+03  0.77923908079E+03  0.13128714423E+04  0.15294330000E+03 0.  0.
<mgrwt>
<rscale>  0 0.11882301E+04</rscale>
<asrwt>0</asrwt>
<pdfrwt beam="1">  1        2 0.16706676E+00 0.12356522E+04</pdfrwt>
<pdfrwt beam="2">  1       -2 0.23262393E+00 0.12356522E+04</pdfrwt>
<totfact> 0.17733185E+00</totfact>
</mgrwt>
</event>
<event>
 4    2  0.3747163E-007  0.6686769E+03  0.7818608E-02  0.1016630E+00
         -2   -1    0    0    0  501 -0.00000000000E+00  0.00000000000E+00  0.73585781865E+03  0.73585781865E+03  0.25500000000E-02 0.  1.
          2   -1    0    0  501    0  0.00000000000E+00 -0.00000000000E+00 -0.28609375187E+03  0.28609375188E+03  0.25500000000E-02 0. -1.
    8880023    1    1    2    0    0  0.45734379835E+02 -0.10595741525E+03  0.18255397064E+03  0.69314844428E+03  0.65864270000E+03 0. -1.
    8880022    1    1    2    0    0 -0.45734379835E+02  0.10595741525E+03  0.26721009614E+03  0.32880312626E+03  0.15294330000E+03 0.  1.
<mgrwt>
<rscale>  0 0.48922730E+03</rscale>
<asrwt>0</asrwt>
<pdfrwt beam="1">  1        2 0.44014423E-01 0.66867691E+03</pdfrwt>
<pdfrwt beam="2">  1       -2 0.11320890E+00 0.66867691E+03</pdfrwt>
<totfact> 0.71937798E+01</totfact>
</mgrwt>
</event>
<event>
 4    2  0.3747163E-007  0.6714572E+03  0.7818608E-02  0.1014639E+00
          2   -1    0    0  501    0  0.00000000000E+00  0.00000000000E+00  0.77396697914E+03  0.77396697914E+03  0.25500000000E-02 0. -1.
         -2   -1    0    0    0  501 -0.00000000000E+00 -0.00000000000E+00 -0.58839363828E+03  0.58839363829E+03  0.25500000000E-02 0.  1.
    8880023    1    1    2    0    0  0.74220109483E+02 -0.10740558648E+03  0.60079779616E+03  0.90100653871E+03  0.65864270000E+03 0. -1.
    8880022    1    1    2    0    0 -0.74220109483E+02  0.10740558648E+03 -0.41522445530E+03  0.46135407872E+03  0.15294330000E+03 0.  0.
<mgrwt>
<rscale>  0 0.49671823E+03</rscale>
<asrwt>0</asrwt>
<pdfrwt beam="1">  1        2 0.11907184E+00 0.67145721E+03</pdfrwt>
<pdfrwt beam="2">  1       -2 0.90522099E-01 0.67145721E+03</pdfrwt>
<totfact> 0.38307817E+01</totfact>
</mgrwt>
</event>
<event>
 4    2  0.3747163E-007  0.7060854E+03  0.7818608E-02  0.9972835E-01
          2   -1    0    0  501    0  0.00000000000E+00  0.00000000000E+00  0.26586400327E+03  0.26586400328E+03  0.25500000000E-02 0. -1.
         -2   -1    0    0    0  501 -0.00000000000E+00 -0.00000000000E+00 -0.94616087909E+03  0.94616087909E+03  0.25500000000E-02 0.  1.
    8880023    1    1    2    0    0 -0.14623461966E+03  0.20823510768E+03 -0.48777982916E+03  0.85818750402E+03  0.65864270000E+03 0. -1.
    8880022    1    1    2    0    0  0.14623461966E+03 -0.20823510768E+03 -0.19251704666E+03  0.35383737836E+03  0.15294330000E+03 0.  0.
<mgrwt>
<rscale>  0 0.56857581E+03</rscale>
<asrwt>0</asrwt>
<pdfrwt beam="1">  1        2 0.40902155E-01 0.70608543E+03</pdfrwt>
<pdfrwt beam="2">  1       -2 0.14556321E+00 0.70608543E+03</pdfrwt>
<totfact> 0.41314892E+01</totfact>
</mgrwt>
</event>
<event>
 4    2  0.3747163E-007  0.7881452E+03  0.7818608E-02  0.9737040E-01
         -2   -1    0    0    0  501 -0.00000000000E+00  0.00000000000E+00  0.22437956571E+03  0.22437956573E+03  0.25500000000E-02 0.  1.
          2   -1    0    0  501    0  0.00000000000E+00 -0.00000000000E+00 -0.23293585547E+04  0.23293585547E+04  0.25500000000E-02 0. -1.
    8880023    1    1    2    0    0  0.27748829212E+03 -0.33220905061E+03 -0.18881250303E+04  0.20460178254E+04  0.65864270000E+03 0. -1.
    8880022    1    1    2    0    0 -0.27748829212E+03  0.33220905061E+03 -0.21685395870E+03  0.50772029504E+03  0.15294330000E+03 0.  1.
<mgrwt>
<rscale>  0 0.68853609E+03</rscale>
<asrwt>0</asrwt>
<pdfrwt beam="1">  1        2 0.35836284E+00 0.78814517E+03</pdfrwt>
<pdfrwt beam="2">  1       -2 0.34519935E-01 0.78814517E+03</pdfrwt>
<totfact> 0.35457625E+01</totfact>
</mgrwt>
</event>
<event>
 4    2  0.3747163E-007  0.1232555E+04  0.7818608E-02  0.9126108E-01
          2   -1    0    0  501    0  0.00000000000E+00  0.00000000000E+00  0.15080773741E+04  0.15080773741E+04  0.25500000000E-02 0. -1.
         -2   -1    0    0    0  501 -0.00000000000E+00 -0.00000000000E+00 -0.10031420594E+04  0.10031420594E+04  0.25500000000E-02 0.  1.
    8880023    1    1    2    0    0  0.29617363830E+03 -0.99883097855E+03 -0.19351000113E+03  0.12476531868E+04  0.65864270000E+03 0.  0.
    8880022    1    1    2    0    0 -0.29617363830E+03  0.99883097855E+03  0.69844531575E+03  0.12635662467E+04  0.15294330000E+03 0.  0.
<mgrwt>
<rscale>  0 0.11849776E+04</rscale>
<asrwt>0</asrwt>
<pdfrwt beam="1">  1        2 0.23201190E+00 0.12325552E+04</pdfrwt>
<pdfrwt beam="2">  1       -2 0.15432955E+00 0.12325552E+04</pdfrwt>
<totfact> 0.33793150E+00</totfact>
</mgrwt>
</event>
<event>
 4    2  0.3747163E-007  0.8235392E+03  0.7818608E-02  0.9662036E-01
          2   -1    0    0  501    0  0.00000000000E+00  0.00000000000E+00  0.51776370800E+03  0.51776370801E+03  0.25500000000E-02 0. -1.
         -2   -1    0    0    0  501 -0.00000000000E+00 -0.00000000000E+00 -0.14328048536E+04  0.14328048536E+04  0.25500000000E-02 0.  1.
    8880023    1    1    2    0    0  0.31340967339E+03  0.38233632448E+03  0.81613233559E+02  0.82757332880E+03  0.65864270000E+03 0.  0.
    8880022    1    1    2    0    0 -0.31340967339E+03 -0.38233632448E+03 -0.99665437911E+03  0.11229952328E+04  0.15294330000E+03 0.  0.
<mgrwt>
<rscale>  0 0.73322829E+03</rscale>
<asrwt>0</asrwt>
<pdfrwt beam="1">  1        2 0.79655956E-01 0.82353925E+03</pdfrwt>
<pdfrwt beam="2">  1       -2 0.22043151E+00 0.82353925E+03</pdfrwt>
<totfact> 0.58898774E+00</totfact>
</mgrwt>
</event>
<event>
 4    2  0.3747163E-007  0.8561957E+03  0.7818608E-02  0.9600367E-01
         -2   -1    0    0    0  501 -0.00000000000E+00  0.00000000000E+00  0.23033173266E+03  0.23033173267E+03  0.25500000000E-02 0.  1.
          2   -1    0    0  501    0  0.00000000000E+00 -0.00000000000E+00 -0.37952460788E+04  0.37952460788E+04  0.25500000000E-02 0. -1.
    8880023    1    1    2    0    0  0.42903713664E+03 -0.33939357294E+03 -0.32803761515E+04  0.33902711933E+04  0.65864270000E+03 0.  0.
    8880022    1    1    2    0    0 -0.42903713664E+03  0.33939357294E+03 -0.28453819462E+03  0.63530661824E+03  0.15294330000E+03 0.  0.
<mgrwt>
<rscale>  0 0.77271913E+03</rscale>
<asrwt>0</asrwt>
<pdfrwt beam="1">  1        2 0.58388397E+00 0.85619570E+03</pdfrwt>
<pdfrwt beam="2">  1       -2 0.35435654E-01 0.85619570E+03</pdfrwt>
<totfact> 0.39758334E+00</totfact>
</mgrwt>
</event>
<event>
 4    2  0.3747163E-007  0.6899257E+03  0.7818608E-02  0.1004188E+00
         -2   -1    0    0    0  501 -0.00000000000E+00  0.00000000000E+00  0.55829043378E+03  0.55829043379E+03  0.25500000000E-02 0.  1.
          2   -1    0    0  501    0  0.00000000000E+00 -0.00000000000E+00 -0.72986571950E+03  0.72986571951E+03  0.25500000000E-02 0. -1.
    8880023    1    1    2    0    0  0.15748494190E+03  0.13185514630E+03 -0.51415781191E+03  0.86043927638E+03  0.65864270000E+03 0.  0.
    8880022    1    1    2    0    0 -0.15748494190E+03 -0.13185514630E+03  0.34258252619E+03  0.42771687691E+03  0.15294330000E+03 0.  0.
<mgrwt>
<rscale>  0 0.53851437E+03</rscale>
<asrwt>0</asrwt>
<pdfrwt beam="1">  1        2 0.11228703E+00 0.68992572E+03</pdfrwt>
<pdfrwt beam="2">  1       -2 0.85890835E-01 0.68992572E+03</pdfrwt>
<totfact> 0.46531646E+01</totfact>
</mgrwt>
</event>
<event>
 4    2  0.3747163E-007  0.7115237E+03  0.7818608E-02  0.9952386E-01
         -2   -1    0    0    0  501 -0.00000000000E+00  0.00000000000E+00  0.69172535922E+03  0.69172535922E+03  0.25500000000E-02 0.  1.
          2   -1    0    0  501    0  0.00000000000E+00 -0.00000000000E+00 -0.63270366897E+03  0.63270366898E+03  0.25500000000E-02 0. -1.
    8880023    1    1    2    0    0  0.74533648532E+01 -0.26907284167E+03 -0.36478736483E+03  0.79958475134E+03  0.65864270000E+03 0. -1.
    8880022    1    1    2    0    0 -0.74533648532E+01  0.26907284167E+03  0.42380905508E+03  0.52484427686E+03  0.15294330000E+03 0.  0.
<mgrwt>
<rscale>  0 0.57788253E+03</rscale>
<asrwt>0</asrwt>
<pdfrwt beam="1">  1        2 0.97339026E-01 0.71152368E+03</pdfrwt>
<pdfrwt beam="2">  1       -2 0.10641929E+00 0.71152368E+03</pdfrwt>
<totfact> 0.33616250E+01</totfact>
</mgrwt>
</event>
<event>
 4    2  0.3747163E-007  0.7091106E+03  0.7818608E-02  0.9961319E-01
         -2   -1    0    0    0  501 -0.00000000000E+00  0.00000000000E+00  0.94530047695E+03  0.94530047695E+03  0.25500000000E-02 0.  1.
          2   -1    0    0  501    0  0.00000000000E+00 -0.00000000000E+00 -0.34480960199E+03  0.34480960200E+03  0.25500000000E-02 0. -1.
    8880023    1    1    2    0    0 -0.25756787060E+03  0.51830313612E+02  0.11657896550E+03  0.71862956441E+03  0.65864270000E+03 0.  0.
    8880022    1    1    2    0    0  0.25756787060E+03 -0.51830313612E+02  0.48391190946E+03  0.57148051455E+03  0.15294330000E+03 0.  0.
<mgrwt>
<rscale>  0 0.57379369E+03</rscale>
<asrwt>0</asrwt>
<pdfrwt beam="1">  1        2 0.53047631E-01 0.70911057E+03</pdfrwt>
<pdfrwt beam="2">  1       -2 0.14543084E+00 0.70911057E+03</pdfrwt>
<totfact> 0.31012317E+01</totfact>
</mgrwt>
</event>
<event>
 4    2  0.3747163E-007  0.7427737E+03  0.7818608E-02  0.9851940E-01
          2   -1    0    0  501    0  0.00000000000E+00  0.00000000000E+00  0.20567621008E+04  0.20567621008E+04  0.25500000000E-02 0. -1.
         -2   -1    0    0    0  501 -0.00000000000E+00 -0.00000000000E+00 -0.46223232735E+03  0.46223232736E+03  0.25500000000E-02 0.  1.
    8880023    1    1    2    0    0  0.54276315030E+02 -0.33905259089E+03  0.18965411508E+04  0.20368065988E+04  0.65864270000E+03 0. -1.
    8880022    1    1    2    0    0 -0.54276315030E+02  0.33905259089E+03 -0.30201137735E+03  0.48218782941E+03  0.15294330000E+03 0.  0.
<mgrwt>
<rscale>  0 0.62648106E+03</rscale>
<asrwt>0</asrwt>
<pdfrwt beam="1">  1        2 0.31642493E+00 0.74277371E+03</pdfrwt>
<pdfrwt beam="2">  1       -2 0.71112667E-01 0.74277371E+03</pdfrwt>
<totfact> 0.11575898E+01</totfact>
</mgrwt>
</event>
<event>
 4    2  0.3747163E-007  0.7068848E+03  0.7818608E-02  0.9969756E-01
          2   -1    0    0  501    0  0.00000000000E+00  0.00000000000E+00  0.10201740155E+04  0.10201740155E+04  0.25500000000E-02 0. -1.
         -2   -1    0    0    0  501 -0.00000000000E+00 -0.00000000000E+00 -0.66389875557E+03  0.66389875557E+03  0.25500000000E-02 0.  1.
    8880023    1    1    2    0    0  0.21052776303E+03 -0.14681259398E+03  0.85089770474E+03  0.11062156150E+04  0.65864270000E+03 0. -1.
    8880022    1    1    2    0    0 -0.21052776303E+03  0.14681259398E+03 -0.49462244486E+03  0.57785715599E+03  0.15294330000E+03 0.  0.
<mgrwt>
<rscale>  0 0.56996496E+03</rscale>
<asrwt>0</asrwt>
<pdfrwt beam="1">  1        2 0.15694985E+00 0.70688477E+03</pdfrwt>
<pdfrwt beam="2">  1       -2 0.10213827E+00 0.70688477E+03</pdfrwt>
<totfact> 0.19616957E+01</totfact>
</mgrwt>
</event>
<event>
 4    2  0.3747163E-007  0.6912945E+03  0.7818608E-02  0.1003543E+00
         -2   -1    0    0    0  501 -0.00000000000E+00  0.00000000000E+00  0.74758876982E+03  0.74758876983E+03  0.25500000000E-02 0.  1.
          2   -1    0    0  501    0  0.00000000000E+00 -0.00000000000E+00 -0.12289609775E+04  0.12289609775E+04  0.25500000000E-02 0. -1.
    8880023    1    1    2    0    0  0.19308018504E+03  0.82449281725E+02 -0.11036254933E+04  0.13022585295E+04  0.65864270000E+03 0. -1.
    8880022    1    1    2    0    0 -0.19308018504E+03 -0.82449281725E+02  0.62225328565E+03  0.67429121782E+03  0.15294330000E+03 0.  0.
<mgrwt>
<rscale>  0 0.54123484E+03</rscale>
<asrwt>0</asrwt>
<pdfrwt beam="1">  1        2 0.18907092E+00 0.69129447E+03</pdfrwt>
<pdfrwt beam="2">  1       -2 0.11501366E+00 0.69129447E+03</pdfrwt>
<totfact> 0.11030030E+01</totfact>
</mgrwt>
</event>
<event>
 4    2  0.3747163E-007  0.8643333E+03  0.7818608E-02  0.9585901E-01
          2   -1    0    0  501    0  0.00000000000E+00  0.00000000000E+00  0.19376444243E+04  0.19376444243E+04  0.25500000000E-02 0. -1.
         -2   -1    0    0    0  501 -0.00000000000E+00 -0.00000000000E+00 -0.35941149143E+03  0.35941149144E+03  0.25500000000E-02 0.  1.
    8880023    1    1    2    0    0  0.41116026887E+03  0.37974865642E+03  0.14722789873E+04  0.17072426399E+04  0.65864270000E+03 0.  0.
    8880022    1    1    2    0    0 -0.41116026887E+03 -0.37974865642E+03  0.10595394556E+03  0.58981327584E+03  0.15294330000E+03 0.  0.
<mgrwt>
<rscale>  0 0.78236391E+03</rscale>
<asrwt>0</asrwt>
<pdfrwt beam="1">  1        2 0.29809915E+00 0.86433328E+03</pdfrwt>
<pdfrwt beam="2">  1       -2 0.55294075E-01 0.86433328E+03</pdfrwt>
<totfact> 0.22643119E+01</totfact>
</mgrwt>
</event>
<event>
 4    2  0.3747163E-007  0.9236987E+03  0.7818608E-02  0.9489011E-01
         -2   -1    0    0    0  501 -0.00000000000E+00  0.00000000000E+00  0.58157563143E+03  0.58157563143E+03  0.25500000000E-02 0.  1.
          2   -1    0    0  501    0  0.00000000000E+00 -0.00000000000E+00 -0.23824187441E+04  0.23824187441E+04  0.25500000000E-02 0. -1.
    8880023    1    1    2    0    0 -0.50484797423E+03  0.40563229716E+03 -0.20539154130E+04  0.22520630026E+04  0.65864270000E+03 0. -1.
    8880022    1    1    2    0    0  0.50484797423E+03 -0.40563229716E+03  0.25307230032E+03  0.71193137295E+03  0.15294330000E+03 0.  0.
<mgrwt>
<rscale>  0 0.85098867E+03</rscale>
<asrwt>0</asrwt>
<pdfrwt beam="1">  1        2 0.36652596E+00 0.92369868E+03</pdfrwt>
<pdfrwt beam="2">  1       -2 0.89473175E-01 0.92369868E+03</pdfrwt>
<totfact> 0.44366277E+00</totfact>
</mgrwt>
</event>
<event>
 4    2  0.4357086E-007  0.1002140E+04  0.7818608E-02  0.9378763E-01
         -2   -1    0    0    0  501 -0.00000000000E+00  0.00000000000E+00  0.14687123886E+04  0.14687123886E+04  0.25500000000E-02 0.  1.
          2   -1    0    0  501    0  0.00000000000E+00 -0.00000000000E+00 -0.15613809929E+04  0.15613809929E+04  0.25500000000E-02 0. -1.
    8880023    1    1    2    0    0 -0.41276031066E+03 -0.63253710995E+03 -0.12732087486E+04  0.16202916383E+04  0.65864270000E+03 0. -1.
    8880022    1    1    2    0    0  0.41276031066E+03  0.63253710995E+03  0.11805401443E+04  0.14098017431E+04  0.15294330000E+03 0.  0.
<mgrwt>
<rscale>  0 0.93844177E+03</rscale>
<asrwt>0</asrwt>
<pdfrwt beam="1">  1        2 0.24021246E+00 0.10021399E+04</pdfrwt>
<pdfrwt beam="2">  1       -2 0.22595575E+00 0.10021399E+04</pdfrwt>
<totfact> 0.10579880E+00</totfact>
</mgrwt>
</event>
<event>
 4    2  0.3747163E-007  0.6675560E+03  0.7818608E-02  0.1017479E+00
          2   -1    0    0  501    0  0.00000000000E+00  0.00000000000E+00  0.30715213784E+04  0.30715213784E+04  0.25500000000E-02 0. -1.
         -2   -1    0    0    0  501 -0.00000000000E+00 -0.00000000000E+00 -0.46086581117E+03  0.46086581118E+03  0.25500000000E-02 0.  1.
    8880023    1    1    2    0    0  0.87081403511E+02 -0.65097142147E+02  0.30142585017E+04  0.30872941762E+04  0.65864270000E+03 0. -1.
    8880022    1    1    2    0    0 -0.87081403511E+02  0.65097142147E+02 -0.40360293455E+03  0.44509301336E+03  0.15294330000E+03 0.  0.
<mgrwt>
<rscale>  0 0.48607449E+03</rscale>
<asrwt>0</asrwt>
<pdfrwt beam="1">  1        2 0.47254174E+00 0.66755600E+03</pdfrwt>
<pdfrwt beam="2">  1       -2 0.70902434E-01 0.66755600E+03</pdfrwt>
<totfact> 0.30889170E+00</totfact>
</mgrwt>
</event>
<event>
 4    2  0.3747163E-007  0.6622223E+03  0.7818608E-02  0.1021987E+00
         -2   -1    0    0    0  501 -0.00000000000E+00  0.00000000000E+00  0.10328776604E+03  0.10328776607E+03  0.25500000000E-02 0.  1.
          2   -1    0    0  501    0  0.00000000000E+00 -0.00000000000E+00 -0.23329138763E+04  0.23329138763E+04  0.25500000000E-02 0. -1.
    8880023    1    1    2    0    0  0.29223310003E+02 -0.62242981413E+02 -0.21516814171E+04  0.22512821497E+04  0.65864270000E+03 0. -1.
    8880022    1    1    2    0    0 -0.29223310003E+02  0.62242981413E+02 -0.77944693237E+02  0.18491949276E+03  0.15294330000E+03 0.  0.
<mgrwt>
<rscale>  0 0.46976372E+03</rscale>
<asrwt>0</asrwt>
<pdfrwt beam="1">  1        2 0.35890979E+00 0.66222232E+03</pdfrwt>
<pdfrwt beam="2">  1       -2 0.15890427E-01 0.66222232E+03</pdfrwt>
<totfact> 0.14389430E+02</totfact>
</mgrwt>
</event>
<event>
 4    2  0.3747163E-007  0.7151393E+03  0.7818608E-02  0.9939390E-01
          2   -1    0    0  501    0  0.00000000000E+00  0.00000000000E+00  0.15342738918E+04  0.15342738918E+04  0.25500000000E-02 0. -1.
         -2   -1    0    0    0  501 -0.00000000000E+00 -0.00000000000E+00 -0.57519267382E+03  0.57519267383E+03  0.25500000000E-02 0.  1.
    8880023    1    1    2    0    0 -0.14655718307E+03 -0.23692821487E+03  0.13963944937E+04  0.15688663981E+04  0.65864270000E+03 0. -1.
    8880022    1    1    2    0    0  0.14655718307E+03  0.23692821487E+03 -0.43731327574E+03  0.54060016747E+03  0.15294330000E+03 0.  0.
<mgrwt>
<rscale>  0 0.58389691E+03</rscale>
<asrwt>0</asrwt>
<pdfrwt beam="1">  1        2 0.23604213E+00 0.71513928E+03</pdfrwt>
<pdfrwt beam="2">  1       -2 0.88491182E-01 0.71513928E+03</pdfrwt>
<totfact> 0.13738155E+01</totfact>
</mgrwt>
</event>
<event>
 4    2  0.3747163E-007  0.7364207E+03  0.7818608E-02  0.9870498E-01
          2   -1    0    0  501    0  0.00000000000E+00  0.00000000000E+00  0.27283324831E+04  0.27283324831E+04  0.25500000000E-02 0. -1.
         -2   -1    0    0    0  501 -0.00000000000E+00 -0.00000000000E+00 -0.13957769444E+03  0.13957769446E+03  0.25500000000E-02 0.  1.
    8880023    1    1    2    0    0 -0.24739446606E+03  0.21748858992E+03  0.22638340187E+04  0.23806007601E+04  0.65864270000E+03 0. -1.
    8880022    1    1    2    0    0  0.24739446606E+03 -0.21748858992E+03  0.32492077003E+03  0.48730941751E+03  0.15294330000E+03 0.  0.
<mgrwt>
<rscale>  0 0.61712602E+03</rscale>
<asrwt>0</asrwt>
<pdfrwt beam="1">  1        2 0.41974346E+00 0.73642075E+03</pdfrwt>
<pdfrwt beam="2">  1       -2 0.21473491E-01 0.73642075E+03</pdfrwt>
<totfact> 0.50429818E+01</totfact>
</mgrwt>
</event>
<event>
 4    2  0.3747163E-007  0.1204068E+04  0.7818608E-02  0.9153178E-01
         -2   -1    0    0    0  501 -0.00000000000E+00  0.00000000000E+00  0.21115436934E+04  0.21115436934E+04  0.25500000000E-02 0.  1.
          2   -1    0    0  501    0  0.00000000000E+00 -0.00000000000E+00 -0.85459621620E+03  0.85459621620E+03  0.25500000000E-02 0. -1.
    8880023    1    1    2    0    0  0.77301025497E+03  0.64685741912E+03 -0.16622567835E+03  0.12154877858E+04  0.65864270000E+03 0.  0.
    8880022    1    1    2    0    0 -0.77301025497E+03 -0.64685741912E+03  0.14231731555E+04  0.17506521238E+04  0.15294330000E+03 0.  0.
<mgrwt>
<rscale>  0 0.11550055E+04</rscale>
<asrwt>0</asrwt>
<pdfrwt beam="1">  1        2 0.13147634E+00 0.12040679E+04</pdfrwt>
<pdfrwt beam="2">  1       -2 0.32485288E+00 0.12040679E+04</pdfrwt>
<totfact> 0.69106361E-01</totfact>
</mgrwt>
</event>
<event>
 4    2  0.3747163E-007  0.7530010E+03  0.7818608E-02  0.9823576E-01
          2   -1    0    0  501    0  0.00000000000E+00  0.00000000000E+00  0.41620376488E+04  0.41620376488E+04  0.25500000000E-02 0. -1.
         -2   -1    0    0    0  501 -0.00000000000E+00 -0.00000000000E+00 -0.17565825742E+03  0.17565825744E+03  0.25500000000E-02 0.  1.
    8880023    1    1    2    0    0  0.10049956826E+03  0.35085636341E+03  0.38441331496E+04  0.39171890724E+04  0.65864270000E+03 0. -1.
    8880022    1    1    2    0    0 -0.10049956826E+03 -0.35085636341E+03  0.14224624178E+03  0.42050683381E+03  0.15294330000E+03 0.  0.
<mgrwt>
<rscale>  0 0.64112524E+03</rscale>
<asrwt>0</asrwt>
<pdfrwt beam="1">  1        2 0.64031343E+00 0.75300103E+03</pdfrwt>
<pdfrwt beam="2">  1       -2 0.27024350E-01 0.75300103E+03</pdfrwt>
<totfact> 0.34714492E+00</totfact>
</mgrwt>
</event>
<event>
 4    2  0.3747163E-007  0.6874262E+03  0.7818608E-02  0.1005401E+00
         -2   -1    0    0    0  501 -0.00000000000E+00  0.00000000000E+00  0.43566343718E+03  0.43566343718E+03  0.25500000000E-02 0.  1.
          2   -1    0    0  501    0  0.00000000000E+00 -0.00000000000E+00 -0.54544092956E+03  0.54544092957E+03  0.25500000000E-02 0. -1.
    8880023    1    1    2    0    0 -0.18650912077E+03  0.62919856465E+02  0.42948398708E+02  0.68876652915E+03  0.65864270000E+03 0.  1.
    8880022    1    1    2    0    0  0.18650912077E+03 -0.62919856465E+02 -0.15272589109E+03  0.29233783760E+03  0.15294330000E+03 0.  0.
<mgrwt>
<rscale>  0 0.53344255E+03</rscale>
<asrwt>0</asrwt>
<pdfrwt beam="1">  1        2 0.83913990E-01 0.68742619E+03</pdfrwt>
<pdfrwt beam="2">  1       -2 0.67025144E-01 0.68742619E+03</pdfrwt>
<totfact> 0.11523657E+02</totfact>
</mgrwt>
</event>
<event>
 4    2  0.3747163E-007  0.1063656E+04  0.7818608E-02  0.9302642E-01
          2   -1    0    0  501    0  0.00000000000E+00  0.00000000000E+00  0.50300392719E+03  0.50300392719E+03  0.25500000000E-02 0. -1.
         -2   -1    0    0    0  501 -0.00000000000E+00 -0.00000000000E+00 -0.18934069413E+04  0.18934069413E+04  0.25500000000E-02 0.  1.
    8880023    1    1    2    0    0  0.79029192130E+03 -0.27017143308E+03 -0.10071925412E+04  0.14648552643E+04  0.65864270000E+03 0.  1.
    8880022    1    1    2    0    0 -0.79029192130E+03  0.27017143308E+03 -0.38321047297E+03  0.93155560421E+03  0.15294330000E+03 0.  0.
<mgrwt>
<rscale>  0 0.10053996E+04</rscale>
<asrwt>0</asrwt>
<pdfrwt beam="1">  1        2 0.77385221E-01 0.10636560E+04</pdfrwt>
<pdfrwt beam="2">  1       -2 0.29129337E+00 0.10636560E+04</pdfrwt>
<totfact> 0.21943698E+00</totfact>
</mgrwt>
</event>
<event>
 4    2  0.3747163E-007  0.7328577E+03  0.7818608E-02  0.9881263E-01
         -2   -1    0    0    0  501 -0.00000000000E+00  0.00000000000E+00  0.15827434072E+04  0.15827434072E+04  0.25500000000E-02 0.  1.
          2   -1    0    0  501    0  0.00000000000E+00 -0.00000000000E+00 -0.12433358178E+04  0.12433358178E+04  0.25500000000E-02 0. -1.
    8880023    1    1    2    0    0 -0.11963313046E+03 -0.29825851183E+03 -0.11119443320E+04  0.13317284368E+04  0.65864270000E+03 0. -1.
    8880022    1    1    2    0    0  0.11963313046E+03  0.29825851183E+03  0.14513519213E+04  0.14943507883E+04  0.15294330000E+03 0.  0.
<mgrwt>
<rscale>  0 0.61178030E+03</rscale>
<asrwt>0</asrwt>
<pdfrwt beam="1">  1        2 0.19128243E+00 0.73285772E+03</pdfrwt>
<pdfrwt beam="2">  1       -2 0.24349899E+00 0.73285772E+03</pdfrwt>
<totfact> 0.13074977E+00</totfact>
</mgrwt>
</event>
<event>
 4    2  0.3747163E-007  0.7936553E+03  0.7818608E-02  0.9724686E-01
         -2   -1    0    0    0  501 -0.00000000000E+00  0.00000000000E+00  0.17190007747E+03  0.17190007748E+03  0.25500000000E-02 0.  1.
          2   -1    0    0  501    0  0.00000000000E+00 -0.00000000000E+00 -0.24755797415E+04  0.24755797415E+04  0.25500000000E-02 0. -1.
    8880023    1    1    2    0    0  0.43147526402E+03  0.99537196102E+02 -0.17543069372E+04  0.19254821716E+04  0.65864270000E+03 0. -1.
    8880022    1    1    2    0    0 -0.43147526402E+03 -0.99537196102E+02 -0.54937272685E+03  0.72199764743E+03  0.15294330000E+03 0.  0.
<mgrwt>
<rscale>  0 0.69565818E+03</rscale>
<asrwt>0</asrwt>
<pdfrwt beam="1">  1        2 0.38085840E+00 0.79365532E+03</pdfrwt>
<pdfrwt beam="2">  1       -2 0.26446167E-01 0.79365532E+03</pdfrwt>
<totfact> 0.48139690E+01</totfact>
</mgrwt>
</event>
<event>
 4    2  0.3747163E-007  0.1013128E+04  0.7818608E-02  0.9364580E-01
          2   -1    0    0  501    0  0.00000000000E+00  0.00000000000E+00  0.12119214937E+04  0.12119214937E+04  0.25500000000E-02 0. -1.
         -2   -1    0    0    0  501 -0.00000000000E+00 -0.00000000000E+00 -0.12866284929E+04  0.12866284929E+04  0.25500000000E-02 0.  1.
    8880023    1    1    2    0    0 -0.52435493341E+03  0.56362306612E+03  0.82360666393E+03  0.13056635095E+04  0.65864270000E+03 0. -1.
    8880022    1    1    2    0    0  0.52435493341E+03 -0.56362306612E+03 -0.89831366316E+03  0.11928864771E+04  0.15294330000E+03 0.  0.
<mgrwt>
<rscale>  0 0.95048861E+03</rscale>
<asrwt>0</asrwt>
<pdfrwt beam="1">  1        2 0.18644946E+00 0.10131285E+04</pdfrwt>
<pdfrwt beam="2">  1       -2 0.19794284E+00 0.10131285E+04</pdfrwt>
<totfact> 0.25327714E+00</totfact>
</mgrwt>
</event>
<event>
 4    2  0.3747163E-007  0.6645129E+03  0.7818608E-02  0.1019946E+00
         -2   -1    0    0    0  501 -0.00000000000E+00  0.00000000000E+00  0.54684517500E+03  0.54684517501E+03  0.25500000000E-02 0.  1.
          2   -1    0    0  501    0  0.00000000000E+00 -0.00000000000E+00 -0.67764820655E+03  0.67764820655E+03  0.25500000000E-02 0. -1.
    8880023    1    1    2    0    0 -0.15518921071E+02  0.86754507291E+02 -0.48908027512E+03  0.82509205742E+03  0.65864270000E+03 0. -1.
    8880022    1    1    2    0    0  0.15518921071E+02 -0.86754507291E+02  0.35827724357E+03  0.39940132414E+03  0.15294330000E+03 0.  0.
<mgrwt>
<rscale>  0 0.47706242E+03</rscale>
<asrwt>0</asrwt>
<pdfrwt beam="1">  1        2 0.10425357E+00 0.66451290E+03</pdfrwt>
<pdfrwt beam="2">  1       -2 0.84130027E-01 0.66451290E+03</pdfrwt>
<totfact> 0.53674111E+01</totfact>
</mgrwt>
</event>
<event>
 4    2  0.3747163E-007  0.7853932E+03  0.7818608E-02  0.9743317E-01
          2   -1    0    0  501    0  0.00000000000E+00  0.00000000000E+00  0.33378812648E+04  0.33378812648E+04  0.25500000000E-02 0. -1.
         -2   -1    0    0    0  501 -0.00000000000E+00 -0.00000000000E+00 -0.12967698461E+03  0.12967698463E+03  0.25500000000E-02 0.  1.
    8880023    1    1    2    0    0 -0.21347653129E+03 -0.37075610111E+03  0.25466905089E+04  0.26650469171E+04  0.65864270000E+03 0. -1.
    8880022    1    1    2    0    0  0.21347653129E+03  0.37075610111E+03  0.66151377135E+03  0.80251133239E+03  0.15294330000E+03 0.  0.
<mgrwt>
<rscale>  0 0.68495238E+03</rscale>
<asrwt>0</asrwt>
<pdfrwt beam="1">  1        2 0.51352017E+00 0.78539323E+03</pdfrwt>
<pdfrwt beam="2">  1       -2 0.19950306E-01 0.78539323E+03</pdfrwt>
<totfact> 0.23951394E+01</totfact>
</mgrwt>
</event>
<event>
 4    2  0.3747163E-007  0.6718285E+03  0.7818608E-02  0.1014385E+00
          2   -1    0    0  501    0  0.00000000000E+00  0.00000000000E+00  0.19367745327E+04  0.19367745327E+04  0.25500000000E-02 0. -1.
         -2   -1    0    0    0  501 -0.00000000000E+00 -0.00000000000E+00 -0.37776000964E+03  0.37776000965E+03  0.25500000000E-02 0.  1.
    8880023    1    1    2    0    0  0.83983713006E+02 -0.10242090990E+03  0.18454013371E+04  0.19638888991E+04  0.65864270000E+03 0. -1.
    8880022    1    1    2    0    0 -0.83983713006E+02  0.10242090990E+03 -0.28638681406E+03  0.35064564323E+03  0.15294330000E+03 0.  0.
<mgrwt>
<rscale>  0 0.49768621E+03</rscale>
<asrwt>0</asrwt>
<pdfrwt beam="1">  1        2 0.29796531E+00 0.67182848E+03</pdfrwt>
<pdfrwt beam="2">  1       -2 0.58116924E-01 0.67182848E+03</pdfrwt>
<totfact> 0.20956666E+01</totfact>
</mgrwt>
</event>
<event>
 4    2  0.3747163E-007  0.1145735E+04  0.7818608E-02  0.9211766E-01
          2   -1    0    0  501    0  0.00000000000E+00  0.00000000000E+00  0.33405109679E+04  0.33405109679E+04  0.25500000000E-02 0. -1.
         -2   -1    0    0    0  501 -0.00000000000E+00 -0.00000000000E+00 -0.99489838244E+03  0.99489838245E+03  0.25500000000E-02 0.  1.
    8880023    1    1    2    0    0 -0.80996000625E+03  0.47208437669E+03  0.29803312660E+04  0.31929740888E+04  0.65864270000E+03 0. -1.
    8880022    1    1    2    0    0  0.80996000625E+03 -0.47208437669E+03 -0.63471868052E+03  0.11424352616E+04  0.15294330000E+03 0.  0.
<mgrwt>
<rscale>  0 0.10932802E+04</rscale>
<asrwt>0</asrwt>
<pdfrwt beam="1">  1        2 0.51392476E+00 0.11457352E+04</pdfrwt>
<pdfrwt beam="2">  1       -2 0.15306129E+00 0.11457352E+04</pdfrwt>
<totfact> 0.29700354E-01</totfact>
</mgrwt>
</event>
<event>
 4    2  0.3747163E-007  0.7858175E+03  0.7818608E-02  0.9742345E-01
          2   -1    0    0  501    0  0.00000000000E+00  0.00000000000E+00  0.17189042387E+04  0.17189042387E+04  0.25500000000E-02 0. -1.
         -2   -1    0    0    0  501 -0.00000000000E+00 -0.00000000000E+00 -0.54331571986E+03  0.54331571986E+03  0.25500000000E-02 0.  1.
    8880023    1    1    2    0    0 -0.42860106579E+03  0.13601574927E+00  0.15067857744E+04  0.16993859091E+04  0.65864270000E+03 0. -1.
    8880022    1    1    2    0    0  0.42860106579E+03 -0.13601574927E+00 -0.33119725553E+03  0.56283404942E+03  0.15294330000E+03 0.  0.
<mgrwt>
<rscale>  0 0.68550605E+03</rscale>
<asrwt>0</asrwt>
<pdfrwt beam="1">  1        2 0.26444680E+00 0.78581747E+03</pdfrwt>
<pdfrwt beam="2">  1       -2 0.83587036E-01 0.78581747E+03</pdfrwt>
<totfact> 0.12267569E+01</totfact>
</mgrwt>
</event>
<event>
 4    2  0.3747163E-007  0.8145361E+03  0.7818608E-02  0.9680205E-01
          2   -1    0    0  501    0  0.00000000000E+00  0.00000000000E+00  0.70367627785E+03  0.70367627786E+03  0.25500000000E-02 0. -1.
         -2   -1    0    0    0  501 -0.00000000000E+00 -0.00000000000E+00 -0.81386356727E+03  0.81386356728E+03  0.25500000000E-02 0.  1.
    8880023    1    1    2    0    0  0.10733357676E+03  0.46705279706E+03  0.30044428223E+03  0.86817958104E+03  0.65864270000E+03 0. -1.
    8880022    1    1    2    0    0 -0.10733357676E+03 -0.46705279706E+03 -0.41063157165E+03  0.64936026410E+03  0.15294330000E+03 0.  0.
<mgrwt>
<rscale>  0 0.72207721E+03</rscale>
<asrwt>0</asrwt>
<pdfrwt beam="1">  1        2 0.10825789E+00 0.81453608E+03</pdfrwt>
<pdfrwt beam="2">  1       -2 0.12520978E+00 0.81453608E+03</pdfrwt>
<totfact> 0.19590468E+01</totfact>
</mgrwt>
</event>
<event>
 4    2  0.3747163E-007  0.7420299E+03  0.7818608E-02  0.9854073E-01
          2   -1    0    0  501    0  0.00000000000E+00  0.00000000000E+00  0.13011623512E+04  0.13011623512E+04  0.25500000000E-02 0. -1.
         -2   -1    0    0    0  501 -0.00000000000E+00 -0.00000000000E+00 -0.38219343800E+03  0.38219343800E+03  0.25500000000E-02 0.  1.
    8880023    1    1    2    0    0 -0.32824356771E+03  0.95153944344E+02  0.10508173278E+04  0.12864001615E+04  0.65864270000E+03 0.  0.
    8880022    1    1    2    0    0  0.32824356771E+03 -0.95153944344E+02 -0.13184841465E+03  0.39695562765E+03  0.15294330000E+03 0.  0.
<mgrwt>
<rscale>  0 0.62539669E+03</rscale>
<asrwt>0</asrwt>
<pdfrwt beam="1">  1        2 0.20017882E+00 0.74202986E+03</pdfrwt>
<pdfrwt beam="2">  1       -2 0.58798991E-01 0.74202986E+03</pdfrwt>
<totfact> 0.45509344E+01</totfact>
</mgrwt>
</event>
<event>
 4    2  0.3747163E-007  0.6790943E+03  0.7818608E-02  0.1009841E+00
         -2   -1    0    0    0  501 -0.00000000000E+00  0.00000000000E+00  0.23622542807E+03  0.23622542808E+03  0.25500000000E-02 0.  1.
          2   -1    0    0  501    0  0.00000000000E+00 -0.00000000000E+00 -0.89327684154E+03  0.89327684154E+03  0.25500000000E-02 0. -1.
    8880023    1    1    2    0    0 -0.14114588101E+03 -0.86236117740E+02 -0.57473046259E+03  0.88965394319E+03  0.65864270000E+03 0.  0.
    8880022    1    1    2    0    0  0.14114588101E+03  0.86236117740E+02 -0.82320950874E+02  0.23984832644E+03  0.15294330000E+03 0.  0.
<mgrwt>
<rscale>  0 0.51538001E+03</rscale>
<asrwt>0</asrwt>
<pdfrwt beam="1">  1        2 0.13742720E+00 0.67909427E+03</pdfrwt>
<pdfrwt beam="2">  1       -2 0.36342374E-01 0.67909427E+03</pdfrwt>
<totfact> 0.21398667E+02</totfact>
</mgrwt>
</event>
<event>
 4    2  0.3747163E-007  0.7406487E+03  0.7818608E-02  0.9858061E-01
         -2   -1    0    0    0  501 -0.00000000000E+00  0.00000000000E+00  0.27793306699E+03  0.27793306700E+03  0.25500000000E-02 0.  1.
          2   -1    0    0  501    0  0.00000000000E+00 -0.00000000000E+00 -0.12048007409E+04  0.12048007409E+04  0.25500000000E-02 0. -1.
    8880023    1    1    2    0    0 -0.27288501403E+03  0.20070897042E+03 -0.41138228585E+03  0.84722837126E+03  0.65864270000E+03 0. -1.
    8880022    1    1    2    0    0  0.27288501403E+03 -0.20070897042E+03 -0.51548538805E+03  0.63550543663E+03  0.15294330000E+03 0.  1.
<mgrwt>
<rscale>  0 0.62337577E+03</rscale>
<asrwt>0</asrwt>
<pdfrwt beam="1">  1        2 0.18535396E+00 0.74064872E+03</pdfrwt>
<pdfrwt beam="2">  1       -2 0.42758934E-01 0.74064872E+03</pdfrwt>
<totfact> 0.99125112E+01</totfact>
</mgrwt>
</event>
<event>
 4    2  0.3747163E-007  0.6861046E+03  0.7818608E-02  0.1006062E+00
          2   -1    0    0  501    0  0.00000000000E+00  0.00000000000E+00  0.13945073029E+04  0.13945073029E+04  0.25500000000E-02 0. -1.
         -2   -1    0    0    0  501 -0.00000000000E+00 -0.00000000000E+00 -0.39735747417E+03  0.39735747417E+03  0.25500000000E-02 0.  1.
    8880023    1    1    2    0    0 -0.17499073088E+03 -0.79420468230E+02  0.12584049678E+04  0.14332908414E+04  0.65864270000E+03 0.  0.
    8880022    1    1    2    0    0  0.17499073088E+03  0.79420468230E+02 -0.26125513907E+03  0.35857393572E+03  0.15294330000E+03 0.  1.
<mgrwt>
<rscale>  0 0.53070276E+03</rscale>
<asrwt>0</asrwt>
<pdfrwt beam="1">  1        2 0.21453958E+00 0.68610464E+03</pdfrwt>
<pdfrwt beam="2">  1       -2 0.61131920E-01 0.68610464E+03</pdfrwt>
<totfact> 0.37314759E+01</totfact>
</mgrwt>
</event>
<event>
 4    2  0.3747163E-007  0.6766668E+03  0.7818608E-02  0.1011276E+00
         -2   -1    0    0    0  501 -0.00000000000E+00  0.00000000000E+00  0.14186825719E+03  0.14186825721E+03  0.25500000000E-02 0.  1.
          2   -1    0    0  501    0  0.00000000000E+00 -0.00000000000E+00 -0.23069083403E+04  0.23069083403E+04  0.25500000000E-02 0. -1.
    8880023    1    1    2    0    0 -0.13988748073E+03  0.67076360371E+02 -0.21212566712E+04  0.22265686194E+04  0.65864270000E+03 0. -1.
    8880022    1    1    2    0    0  0.13988748073E+03 -0.67076360371E+02 -0.43783411930E+02  0.22220797817E+03  0.15294330000E+03 0.  1.
<mgrwt>
<rscale>  0 0.50970797E+03</rscale>
<asrwt>0</asrwt>
<pdfrwt beam="1">  1        2 0.35490895E+00 0.67666680E+03</pdfrwt>
<pdfrwt beam="2">  1       -2 0.21825887E-01 0.67666680E+03</pdfrwt>
<totfact> 0.85705368E+01</totfact>
</mgrwt>
</event>
<event>
 4    2  0.3747163E-007  0.7386812E+03  0.7818608E-02  0.9863805E-01
         -2   -1    0    0    0  501 -0.00000000000E+00  0.00000000000E+00  0.64570536435E+03  0.64570536435E+03  0.25500000000E-02 0.  1.
          2   -1    0    0  501    0  0.00000000000E+00 -0.00000000000E+00 -0.49116751639E+03  0.49116751640E+03  0.25500000000E-02 0. -1.
    8880023    1    1    2    0    0  0.28681656861E+03 -0.17197664648E+03  0.18176178895E+01  0.73868343758E+03  0.65864270000E+03 0. -1.
    8880022    1    1    2    0    0 -0.28681656861E+03  0.17197664648E+03  0.15272023007E+03  0.39818944317E+03  0.15294330000E+03 0.  1.
<mgrwt>
<rscale>  0 0.62047954E+03</rscale>
<asrwt>0</asrwt>
<pdfrwt beam="1">  1        2 0.75564233E-01 0.73868120E+03</pdfrwt>
<pdfrwt beam="2">  1       -2 0.99339287E-01 0.73868120E+03</pdfrwt>
<totfact> 0.53404724E+01</totfact>
</mgrwt>
</event>
<event>
 4    2  0.3747163E-007  0.7170934E+03  0.7818608E-02  0.9932546E-01
         -2   -1    0    0    0  501 -0.00000000000E+00  0.00000000000E+00  0.25863340195E+03  0.25863340196E+03  0.25500000000E-02 0.  1.
          2   -1    0    0  501    0  0.00000000000E+00 -0.00000000000E+00 -0.11342780819E+04  0.11342780819E+04  0.25500000000E-02 0. -1.
    8880023    1    1    2    0    0 -0.62762786560E+02 -0.27653860778E+03 -0.77386439565E+03  0.10550303683E+04  0.65864270000E+03 0. -1.
    8880022    1    1    2    0    0  0.62762786560E+02  0.27653860778E+03 -0.10178028434E+03  0.33788111558E+03  0.15294330000E+03 0.  0.
<mgrwt>
<rscale>  0 0.58709555E+03</rscale>
<asrwt>0</asrwt>
<pdfrwt beam="1">  1        2 0.17450432E+00 0.71709342E+03</pdfrwt>
<pdfrwt beam="2">  1       -2 0.39789755E-01 0.71709342E+03</pdfrwt>
<totfact> 0.12600053E+02</totfact>
</mgrwt>
</event>
<event>
 4    2  0.3747163E-007  0.6707272E+03  0.7818608E-02  0.1015147E+00
         -2   -1    0    0    0  501 -0.00000000000E+00  0.00000000000E+00  0.60970029577E+02  0.60970029630E+02  0.25500000000E-02 0.  1.
          2   -1    0    0  501    0  0.00000000000E+00 -0.00000000000E+00 -0.31509520921E+04  0.31509520921E+04  0.25500000000E-02 0. -1.
    8880023    1    1    2    0    0  0.46669257069E+02 -0.11784221798E+03 -0.25438392656E+04  0.26307780643E+04  0.65864270000E+03 0.  0.
    8880022    1    1    2    0    0 -0.46669257069E+02  0.11784221798E+03 -0.54614279689E+03  0.58114405745E+03  0.15294330000E+03 0.  0.
<mgrwt>
<rscale>  0 0.49479377E+03</rscale>
<asrwt>0</asrwt>
<pdfrwt beam="1">  1        2 0.48476173E+00 0.67072723E+03</pdfrwt>
<pdfrwt beam="2">  1       -2 0.93800070E-02 0.67072723E+03</pdfrwt>
<totfact> 0.11398267E+02</totfact>
</mgrwt>
</event>
<event>
 4    2  0.3747163E-007  0.6794879E+03  0.7818608E-02  0.1009615E+00
         -2   -1    0    0    0  501 -0.00000000000E+00  0.00000000000E+00  0.12538471140E+04  0.12538471140E+04  0.25500000000E-02 0.  1.
          2   -1    0    0  501    0  0.00000000000E+00 -0.00000000000E+00 -0.33267527187E+03  0.33267527188E+03  0.25500000000E-02 0. -1.
    8880023    1    1    2    0    0 -0.11695834913E+03  0.11922419337E+03  0.44356792047E+02  0.68093420753E+03  0.65864270000E+03 0. -1.
    8880022    1    1    2    0    0  0.11695834913E+03 -0.11922419337E+03  0.87681505005E+03  0.90558817833E+03  0.15294330000E+03 0.  0.
<mgrwt>
<rscale>  0 0.51628017E+03</rscale>
<asrwt>0</asrwt>
<pdfrwt beam="1">  1        2 0.51180812E-01 0.67948795E+03</pdfrwt>
<pdfrwt beam="2">  1       -2 0.19289955E+00 0.67948795E+03</pdfrwt>
<totfact> 0.14841672E+01</totfact>
</mgrwt>
</event>
<event>
 4    2  0.8089369E-007  0.9135014E+03  0.7818608E-02  0.9504696E-01
          2   -1    0    0  501    0  0.00000000000E+00  0.00000000000E+00  0.32693922327E+04  0.32693922327E+04  0.25500000000E-02 0. -1.
         -2   -1    0    0    0  501 -0.00000000000E+00 -0.00000000000E+00 -0.13320808856E+04  0.13320808856E+04  0.25500000000E-02 0.  1.
    8880023    1    1    2    0    0  0.62176957480E+03  0.11864706106E+03  0.31202031864E+04  0.32511771191E+04  0.65864270000E+03 0. -1.
    8880022    1    1    2    0    0 -0.62176957480E+03 -0.11864706106E+03 -0.11828918392E+04  0.13502959992E+04  0.15294330000E+03 0.  0.
<mgrwt>
<rscale>  0 0.83938481E+03</rscale>
<asrwt>0</asrwt>
<pdfrwt beam="1">  1        2 0.50298341E+00 0.91350136E+03</pdfrwt>
<pdfrwt beam="2">  1       -2 0.20493552E+00 0.91350136E+03</pdfrwt>
<totfact> 0.15051385E-01</totfact>
</mgrwt>
</event>
<event>
 4    2  0.3747163E-007  0.7716241E+03  0.7818608E-02  0.9775893E-01
         -2   -1    0    0    0  501 -0.00000000000E+00  0.00000000000E+00  0.75327515372E+03  0.75327515373E+03  0.25500000000E-02 0.  1.
          2   -1    0    0  501    0  0.00000000000E+00 -0.00000000000E+00 -0.98143495535E+03  0.98143495536E+03  0.25500000000E-02 0. -1.
    8880023    1    1    2    0    0 -0.65671001887E+02 -0.39658654923E+03 -0.73796907200E+03  0.10677088222E+04  0.65864270000E+03 0.  0.
    8880022    1    1    2    0    0  0.65671001887E+02  0.39658654923E+03  0.50980927037E+03  0.66700128688E+03  0.15294330000E+03 0.  0.
<mgrwt>
<rscale>  0 0.66672459E+03</rscale>
<asrwt>0</asrwt>
<pdfrwt beam="1">  1        2 0.15098999E+00 0.77162412E+03</pdfrwt>
<pdfrwt beam="2">  1       -2 0.11588849E+00 0.77162412E+03</pdfrwt>
<totfact> 0.15196962E+01</totfact>
</mgrwt>
</event>
<event>
 4    2  0.3747163E-007  0.8255852E+03  0.7818608E-02  0.9657984E-01
          2   -1    0    0  501    0  0.00000000000E+00  0.00000000000E+00  0.21997558705E+04  0.21997558705E+04  0.25500000000E-02 0. -1.
         -2   -1    0    0    0  501 -0.00000000000E+00 -0.00000000000E+00 -0.38087885743E+03  0.38087885744E+03  0.25500000000E-02 0.  1.
    8880023    1    1    2    0    0 -0.49093385172E+03 -0.82247852796E+02  0.18829271874E+04  0.20559683254E+04  0.65864270000E+03 0. -1.
    8880022    1    1    2    0    0  0.49093385172E+03  0.82247852796E+02 -0.64050174299E+02  0.52466640249E+03  0.15294330000E+03 0.  0.
<mgrwt>
<rscale>  0 0.73574466E+03</rscale>
<asrwt>0</asrwt>
<pdfrwt beam="1">  1        2 0.33842398E+00 0.82558522E+03</pdfrwt>
<pdfrwt beam="2">  1       -2 0.58596747E-01 0.82558522E+03</pdfrwt>
<totfact> 0.14463325E+01</totfact>
</mgrwt>
</event>
<event>
 4    2  0.3747163E-007  0.7754680E+03  0.7818608E-02  0.9766593E-01
         -2   -1    0    0    0  501 -0.00000000000E+00  0.00000000000E+00  0.78847737810E+03  0.78847737810E+03  0.25500000000E-02 0.  1.
          2   -1    0    0  501    0  0.00000000000E+00 -0.00000000000E+00 -0.51553029232E+03  0.51553029233E+03  0.25500000000E-02 0. -1.
    8880023    1    1    2    0    0  0.12168891741E+03 -0.39080960104E+03  0.36560851004E+03  0.85733314748E+03  0.65864270000E+03 0.  1.
    8880022    1    1    2    0    0 -0.12168891741E+03  0.39080960104E+03 -0.92661424269E+02  0.44667452295E+03  0.15294330000E+03 0.  0.
<mgrwt>
<rscale>  0 0.67186610E+03</rscale>
<asrwt>0</asrwt>
<pdfrwt beam="1">  1        2 0.79312353E-01 0.77546795E+03</pdfrwt>
<pdfrwt beam="2">  1       -2 0.12130421E+00 0.77546795E+03</pdfrwt>
<totfact> 0.31031155E+01</totfact>
</mgrwt>
</event>
<event>
 4    2  0.3747163E-007  0.8720135E+03  0.7818608E-02  0.9572541E-01
          2   -1    0    0  501    0  0.00000000000E+00  0.00000000000E+00  0.20531980785E+04  0.20531980785E+04  0.25500000000E-02 0. -1.
         -2   -1    0    0    0  501 -0.00000000000E+00 -0.00000000000E+00 -0.51300209459E+03  0.51300209460E+03  0.25500000000E-02 0.  1.
    8880023    1    1    2    0    0  0.39892122590E+03 -0.40921777683E+03  0.17362774038E+04  0.19429531036E+04  0.65864270000E+03 0. -1.
    8880022    1    1    2    0    0 -0.39892122590E+03  0.40921777683E+03 -0.19608141998E+03  0.62324706949E+03  0.15294330000E+03 0.  0.
<mgrwt>
<rscale>  0 0.79140575E+03</rscale>
<asrwt>0</asrwt>
<pdfrwt beam="1">  1        2 0.31587664E+00 0.87201350E+03</pdfrwt>
<pdfrwt beam="2">  1       -2 0.78923397E-01 0.87201350E+03</pdfrwt>
<totfact> 0.90603058E+00</totfact>
</mgrwt>
</event>
<event>
 4    2  0.3747163E-007  0.6772234E+03  0.7818608E-02  0.1010940E+00
         -2   -1    0    0    0  501 -0.00000000000E+00  0.00000000000E+00  0.57874710014E+03  0.57874710014E+03  0.25500000000E-02 0.  1.
          2   -1    0    0  501    0  0.00000000000E+00 -0.00000000000E+00 -0.16772986390E+04  0.16772986390E+04  0.25500000000E-02 0. -1.
    8880023    1    1    2    0    0 -0.15725820962E+03  0.95478676725E+01 -0.15843007102E+04  0.17229742461E+04  0.65864270000E+03 0. -1.
    8880022    1    1    2    0    0  0.15725820962E+03 -0.95478676725E+01  0.48574917129E+03  0.53307149304E+03  0.15294330000E+03 0.  0.
<mgrwt>
<rscale>  0 0.51102769E+03</rscale>
<asrwt>0</asrwt>
<pdfrwt beam="1">  1        2 0.25804594E+00 0.67722338E+03</pdfrwt>
<pdfrwt beam="2">  1       -2 0.89038016E-01 0.67722338E+03</pdfrwt>
<totfact> 0.11365488E+01</totfact>
</mgrwt>
</event>
<event>
 4    2  0.3747163E-007  0.8428743E+03  0.7818608E-02  0.9624784E-01
         -2   -1    0    0    0  501 -0.00000000000E+00  0.00000000000E+00  0.27802149088E+03  0.27802149090E+03  0.25500000000E-02 0.  1.
          2   -1    0    0  501    0  0.00000000000E+00 -0.00000000000E+00 -0.30297349242E+04  0.30297349242E+04  0.25500000000E-02 0. -1.
    8880023    1    1    2    0    0  0.24871861869E+03  0.46342843373E+03 -0.47796131891E+03  0.96896031555E+03  0.65864270000E+03 0.  0.
    8880022    1    1    2    0    0 -0.24871861869E+03 -0.46342843373E+03 -0.22737521144E+04  0.23387960995E+04  0.15294330000E+03 0.  0.
<mgrwt>
<rscale>  0 0.75677297E+03</rscale>
<asrwt>0</asrwt>
<pdfrwt beam="1">  1        2 0.46611304E+00 0.84287429E+03</pdfrwt>
<pdfrwt beam="2">  1       -2 0.42772539E-01 0.84287429E+03</pdfrwt>
<totfact> 0.90549408E+00</totfact>
</mgrwt>
</event>
<event>
 4    2  0.3747163E-007  0.1291172E+04  0.7818608E-02  0.9073221E-01
          2   -1    0    0  501    0  0.00000000000E+00  0.00000000000E+00  0.17890591183E+04  0.17890591183E+04  0.25500000000E-02 0. -1.
         -2   -1    0    0    0  501 -0.00000000000E+00 -0.00000000000E+00 -0.12246807844E+04  0.12246807844E+04  0.25500000000E-02 0.  1.
    8880023    1    1    2    0    0  0.48798308602E+03 -0.99759124163E+03  0.11675208777E+04  0.17407558656E+04  0.65864270000E+03 0.  0.
    8880022    1    1    2    0    0 -0.48798308602E+03  0.99759124163E+03 -0.60314254375E+03  0.12729840371E+04  0.15294330000E+03 0.  0.
<mgrwt>
<rscale>  0 0.12463569E+04</rscale>
<asrwt>0</asrwt>
<pdfrwt beam="1">  1        2 0.27523986E+00 0.12911723E+04</pdfrwt>
<pdfrwt beam="2">  1       -2 0.18841243E+00 0.12911723E+04</pdfrwt>
<totfact> 0.13354864E+00</totfact>
</mgrwt>
</event>
<event>
 4    2  0.3747163E-007  0.8301238E+03  0.7818608E-02  0.9649091E-01
         -2   -1    0    0    0  501 -0.00000000000E+00  0.00000000000E+00  0.47422347987E+03  0.47422347988E+03  0.25500000000E-02 0.  1.
          2   -1    0    0  501    0  0.00000000000E+00 -0.00000000000E+00 -0.10091738525E+04  0.10091738525E+04  0.25500000000E-02 0. -1.
    8880023    1    1    2    0    0  0.11805173994E+03  0.49128319317E+03 -0.18637028570E+03  0.85078756388E+03  0.65864270000E+03 0.  0.
    8880022    1    1    2    0    0 -0.11805173994E+03 -0.49128319317E+03 -0.34858008694E+03  0.63260976852E+03  0.15294330000E+03 0.  0.
<mgrwt>
<rscale>  0 0.74130472E+03</rscale>
<asrwt>0</asrwt>
<pdfrwt beam="1">  1        2 0.15525752E+00 0.83012384E+03</pdfrwt>
<pdfrwt beam="2">  1       -2 0.72957459E-01 0.83012384E+03</pdfrwt>
<totfact> 0.42553247E+01</totfact>
</mgrwt>
</event>
<event>
 4    2  0.3747163E-007  0.7183484E+03  0.7818608E-02  0.9928214E-01
         -2   -1    0    0    0  501 -0.00000000000E+00  0.00000000000E+00  0.90800928557E+03  0.90800928557E+03  0.25500000000E-02 0.  1.
          2   -1    0    0  501    0  0.00000000000E+00 -0.00000000000E+00 -0.42813202860E+03  0.42813202861E+03  0.25500000000E-02 0. -1.
    8880023    1    1    2    0    0 -0.19476013438E+03  0.21043464965E+03 -0.43958279611E+02  0.71969214830E+03  0.65864270000E+03 0. -1.
    8880022    1    1    2    0    0  0.19476013438E+03 -0.21043464965E+03  0.52383553658E+03  0.61644916588E+03  0.15294330000E+03 0.  0.
<mgrwt>
<rscale>  0 0.58913169E+03</rscale>
<asrwt>0</asrwt>
<pdfrwt beam="1">  1        2 0.65866466E-01 0.71834842E+03</pdfrwt>
<pdfrwt beam="2">  1       -2 0.13969374E+00 0.71834842E+03</pdfrwt>
<totfact> 0.26990511E+01</totfact>
</mgrwt>
</event>
<event>
 4    2  0.3747163E-007  0.7022212E+03  0.7818608E-02  0.9988109E-01
         -2   -1    0    0    0  501 -0.00000000000E+00  0.00000000000E+00  0.71154724485E+03  0.71154724485E+03  0.25500000000E-02 0.  1.
          2   -1    0    0  501    0  0.00000000000E+00 -0.00000000000E+00 -0.11971094722E+04  0.11971094722E+04  0.25500000000E-02 0. -1.
    8880023    1    1    2    0    0 -0.18410273537E+03 -0.15940693922E+03 -0.10569647883E+04  0.12689716937E+04  0.65864270000E+03 0. -1.
    8880022    1    1    2    0    0  0.18410273537E+03  0.15940693922E+03  0.57140256094E+03  0.63968502335E+03  0.15294330000E+03 0.  0.
<mgrwt>
<rscale>  0 0.56174736E+03</rscale>
<asrwt>0</asrwt>
<pdfrwt beam="1">  1        2 0.18417069E+00 0.70222119E+03</pdfrwt>
<pdfrwt beam="2">  1       -2 0.10946881E+00 0.70222119E+03</pdfrwt>
<totfact> 0.12965039E+01</totfact>
</mgrwt>
</event>
<event>
 4    2  0.3747163E-007  0.1611363E+04  0.7818608E-02  0.8834755E-01
          2   -1    0    0  501    0  0.00000000000E+00  0.00000000000E+00  0.30677083738E+04  0.30677083738E+04  0.25500000000E-02 0. -1.
         -2   -1    0    0    0  501 -0.00000000000E+00 -0.00000000000E+00 -0.12144723670E+04  0.12144723670E+04  0.25500000000E-02 0.  1.
    8880023    1    1    2    0    0 -0.14694191455E+04 -0.59061456911E+02  0.22348541783E+04  0.27551886116E+04  0.65864270000E+03 0.  0.
    8880022    1    1    2    0    0  0.14694191455E+04  0.59061456911E+02 -0.38161817148E+03  0.15269921293E+04  0.15294330000E+03 0.  0.
<mgrwt>
<rscale>  0 0.15770779E+04</rscale>
<asrwt>0</asrwt>
<pdfrwt beam="1">  1        2 0.47195512E+00 0.16113631E+04</pdfrwt>
<pdfrwt beam="2">  1       -2 0.18684191E+00 0.16113631E+04</pdfrwt>
<totfact> 0.23936395E-01</totfact>
</mgrwt>
</event>
<event>
 4    2  0.3747163E-007  0.1107440E+04  0.7818608E-02  0.9252818E-01
         -2   -1    0    0    0  501 -0.00000000000E+00  0.00000000000E+00  0.45134822022E+03  0.45134822023E+03  0.25500000000E-02 0.  1.
          2   -1    0    0  501    0  0.00000000000E+00 -0.00000000000E+00 -0.24904251473E+04  0.24904251473E+04  0.25500000000E-02 0. -1.
    8880023    1    1    2    0    0  0.87037430678E+03 -0.18724612772E+03 -0.15773171612E+04  0.19272654668E+04  0.65864270000E+03 0.  0.
    8880022    1    1    2    0    0 -0.87037430678E+03  0.18724612772E+03 -0.46175976589E+03  0.10145079007E+04  0.15294330000E+03 0.  0.
<mgrwt>
<rscale>  0 0.10524504E+04</rscale>
<asrwt>0</asrwt>
<pdfrwt beam="1">  1        2 0.38314232E+00 0.11074397E+04</pdfrwt>
<pdfrwt beam="2">  1       -2 0.69438189E-01 0.11074397E+04</pdfrwt>
<totfact> 0.66567612E+00</totfact>
</mgrwt>
</event>
<event>
 4    2  0.3747163E-007  0.1543562E+04  0.7818608E-02  0.8879472E-01
          2   -1    0    0  501    0  0.00000000000E+00  0.00000000000E+00  0.20299020791E+04  0.20299020791E+04  0.25500000000E-02 0. -1.
         -2   -1    0    0    0  501 -0.00000000000E+00 -0.00000000000E+00 -0.13733393231E+04  0.13733393231E+04  0.25500000000E-02 0.  1.
    8880023    1    1    2    0    0  0.19467742139E+03  0.13823437209E+04  0.11390429241E+04  0.19183332480E+04  0.65864270000E+03 0.  0.
    8880022    1    1    2    0    0 -0.19467742139E+03 -0.13823437209E+04 -0.48248016810E+03  0.14849081543E+04  0.15294330000E+03 0.  0.
<mgrwt>
<rscale>  0 0.15075127E+04</rscale>
<asrwt>0</asrwt>
<pdfrwt beam="1">  1        2 0.31229263E+00 0.15435620E+04</pdfrwt>
<pdfrwt beam="2">  1       -2 0.21128297E+00 0.15435620E+04</pdfrwt>
<totfact> 0.67510667E-01</totfact>
</mgrwt>
</event>
<event>
 4    2  0.3747163E-007  0.7314157E+03  0.7818608E-02  0.9885697E-01
         -2   -1    0    0    0  501 -0.00000000000E+00  0.00000000000E+00  0.21538867019E+03  0.21538867020E+03  0.25500000000E-02 0.  1.
          2   -1    0    0  501    0  0.00000000000E+00 -0.00000000000E+00 -0.22387869988E+04  0.22387869988E+04  0.25500000000E-02 0. -1.
    8880023    1    1    2    0    0 -0.31063036396E+03  0.68318831988E+02 -0.19646760875E+04  0.20964066926E+04  0.65864270000E+03 0. -1.
    8880022    1    1    2    0    0  0.31063036396E+03 -0.68318831988E+02 -0.58722241070E+02  0.35776897634E+03  0.15294330000E+03 0.  0.
<mgrwt>
<rscale>  0 0.60959488E+03</rscale>
<asrwt>0</asrwt>
<pdfrwt beam="1">  1        2 0.34442875E+00 0.73141568E+03</pdfrwt>
<pdfrwt beam="2">  1       -2 0.33136720E-01 0.73141568E+03</pdfrwt>
<totfact> 0.43333204E+01</totfact>
</mgrwt>
</event>
<event>
 4    2  0.3747163E-007  0.7681348E+03  0.7818608E-02  0.9784485E-01
          2   -1    0    0  501    0  0.00000000000E+00  0.00000000000E+00  0.40993401069E+03  0.40993401070E+03  0.25500000000E-02 0. -1.
         -2   -1    0    0    0  501 -0.00000000000E+00 -0.00000000000E+00 -0.87788303673E+03  0.87788303674E+03  0.25500000000E-02 0.  1.
    8880023    1    1    2    0    0  0.36771030019E+03 -0.14494831015E+03 -0.37111963967E+03  0.85308901686E+03  0.65864270000E+03 0.  0.
    8880022    1    1    2    0    0 -0.36771030019E+03  0.14494831015E+03 -0.96829386377E+02  0.43472803057E+03  0.15294330000E+03 0. -1.
<mgrwt>
<rscale>  0 0.66201856E+03</rscale>
<asrwt>0</asrwt>
<pdfrwt beam="1">  1        2 0.63066771E-01 0.76813481E+03</pdfrwt>
<pdfrwt beam="2">  1       -2 0.13505893E+00 0.76813481E+03</pdfrwt>
<totfact> 0.30804990E+01</totfact>
</mgrwt>
</event>
<event>
 4    2  0.3747163E-007  0.8313053E+03  0.7818608E-02  0.9646798E-01
         -2   -1    0    0    0  501 -0.00000000000E+00  0.00000000000E+00  0.43261386626E+03  0.43261386627E+03  0.25500000000E-02 0.  1.
          2   -1    0    0  501    0  0.00000000000E+00 -0.00000000000E+00 -0.16986906852E+04  0.16986906852E+04  0.25500000000E-02 0. -1.
    8880023    1    1    2    0    0 -0.41298625314E+03  0.29444969304E+03 -0.13593492315E+04  0.15933922324E+04  0.65864270000E+03 0. -1.
    8880022    1    1    2    0    0  0.41298625314E+03 -0.29444969304E+03  0.93272412536E+02  0.53791231904E+03  0.15294330000E+03 0.  0.
<mgrwt>
<rscale>  0 0.74274720E+03</rscale>
<asrwt>0</asrwt>
<pdfrwt beam="1">  1        2 0.26133702E+00 0.83130528E+03</pdfrwt>
<pdfrwt beam="2">  1       -2 0.66555980E-01 0.83130528E+03</pdfrwt>
<totfact> 0.20736230E+01</totfact>
</mgrwt>
</event>
<event>
 4    2  0.3747163E-007  0.7191119E+03  0.7818608E-02  0.9925603E-01
         -2   -1    0    0    0  501 -0.00000000000E+00  0.00000000000E+00  0.69430016729E+03  0.69430016730E+03  0.25500000000E-02 0.  1.
          2   -1    0    0  501    0  0.00000000000E+00 -0.00000000000E+00 -0.19413740470E+04  0.19413740470E+04  0.25500000000E-02 0. -1.
    8880023    1    1    2    0    0  0.24012179317E+03 -0.16016619973E+03 -0.18306892138E+04  0.19668616858E+04  0.65864270000E+03 0. -1.
    8880022    1    1    2    0    0 -0.24012179317E+03  0.16016619973E+03  0.58361533411E+03  0.66881252853E+03  0.15294330000E+03 0.  0.
<mgrwt>
<rscale>  0 0.59036364E+03</rscale>
<asrwt>0</asrwt>
<pdfrwt beam="1">  1        2 0.29867293E+00 0.71911188E+03</pdfrwt>
<pdfrwt beam="2">  1       -2 0.10681541E+00 0.71911188E+03</pdfrwt>
<totfact> 0.52829727E+00</totfact>
</mgrwt>
</event>
<event>
 4    2  0.3747163E-007  0.7708304E+03  0.7818608E-02  0.9777835E-01
          2   -1    0    0  501    0  0.00000000000E+00  0.00000000000E+00  0.11226686301E+04  0.11226686301E+04  0.25500000000E-02 0. -1.
         -2   -1    0    0    0  501 -0.00000000000E+00 -0.00000000000E+00 -0.48484406591E+03  0.48484406592E+03  0.25500000000E-02 0.  1.
    8880023    1    1    2    0    0 -0.30688577271E+03  0.25727505141E+03  0.83436314893E+03  0.11359319522E+04  0.65864270000E+03 0.  0.
    8880022    1    1    2    0    0  0.30688577271E+03 -0.25727505141E+03 -0.19653858477E+03  0.47158074376E+03  0.15294330000E+03 0. -1.
<mgrwt>
<rscale>  0 0.66565745E+03</rscale>
<asrwt>0</asrwt>
<pdfrwt beam="1">  1        2 0.17271825E+00 0.77083042E+03</pdfrwt>
<pdfrwt beam="2">  1       -2 0.74591395E-01 0.77083042E+03</pdfrwt>
<totfact> 0.34624242E+01</totfact>
</mgrwt>
</event>
<event>
 4    2  0.3747163E-007  0.9489471E+03  0.7818608E-02  0.9451631E-01
         -2   -1    0    0    0  501 -0.00000000000E+00  0.00000000000E+00  0.49023608344E+03  0.49023608345E+03  0.25500000000E-02 0.  1.
          2   -1    0    0  501    0  0.00000000000E+00 -0.00000000000E+00 -0.36730417944E+04  0.36730417944E+04  0.25500000000E-02 0. -1.
    8880023    1    1    2    0    0 -0.25960085683E+03  0.63190008158E+03 -0.33173500703E+04  0.34504075141E+04  0.65864270000E+03 0. -1.
    8880022    1    1    2    0    0  0.25960085683E+03 -0.63190008158E+03  0.13454435931E+03  0.71287036381E+03  0.15294330000E+03 0.  0.
<mgrwt>
<rscale>  0 0.87945795E+03</rscale>
<asrwt>0</asrwt>
<pdfrwt beam="1">  1        2 0.56508334E+00 0.94894706E+03</pdfrwt>
<pdfrwt beam="2">  1       -2 0.75420938E-01 0.94894706E+03</pdfrwt>
<totfact> 0.10127847E+00</totfact>
</mgrwt>
</event>
<event>
 4    2  0.3747163E-007  0.6923213E+03  0.7818608E-02  0.1003068E+00
         -2   -1    0    0    0  501 -0.00000000000E+00  0.00000000000E+00  0.42782171932E+03  0.42782171933E+03  0.25500000000E-02 0.  1.
          2   -1    0    0  501    0  0.00000000000E+00 -0.00000000000E+00 -0.97123688905E+03  0.97123688906E+03  0.25500000000E-02 0. -1.
    8880023    1    1    2    0    0 -0.52999071979E+02 -0.20661478659E+03 -0.78194934205E+03  0.10443914742E+04  0.65864270000E+03 0. -1.
    8880022    1    1    2    0    0  0.52999071979E+02  0.20661478659E+03  0.23853417232E+03  0.35466713415E+03  0.15294330000E+03 0.  0.
<mgrwt>
<rscale>  0 0.54325092E+03</rscale>
<asrwt>0</asrwt>
<pdfrwt beam="1">  1        2 0.14942106E+00 0.69232130E+03</pdfrwt>
<pdfrwt beam="2">  1       -2 0.65818726E-01 0.69232130E+03</pdfrwt>
<totfact> 0.56993381E+01</totfact>
</mgrwt>
</event>
<event>
 4    2  0.3747163E-007  0.7282066E+03  0.7818608E-02  0.9895737E-01
         -2   -1    0    0    0  501 -0.00000000000E+00  0.00000000000E+00  0.16930820268E+03  0.16930820270E+03  0.25500000000E-02 0.  1.
          2   -1    0    0  501    0  0.00000000000E+00 -0.00000000000E+00 -0.22536957555E+04  0.22536957555E+04  0.25500000000E-02 0. -1.
    8880023    1    1    2    0    0  0.31059607176E+03  0.21691396219E+01 -0.18911565409E+04  0.20265137289E+04  0.65864270000E+03 0. -1.
    8880022    1    1    2    0    0 -0.31059607176E+03 -0.21691396219E+01 -0.19323101195E+03  0.39649022932E+03  0.15294330000E+03 0.  1.
<mgrwt>
<rscale>  0 0.60468345E+03</rscale>
<asrwt>0</asrwt>
<pdfrwt beam="1">  1        2 0.34672240E+00 0.72820659E+03</pdfrwt>
<pdfrwt beam="2">  1       -2 0.26047417E-01 0.72820659E+03</pdfrwt>
<totfact> 0.66392212E+01</totfact>
</mgrwt>
</event>
<event>
 4    2  0.3747163E-007  0.7104709E+03  0.7818608E-02  0.9956256E-01
         -2   -1    0    0    0  501 -0.00000000000E+00  0.00000000000E+00  0.58131390797E+03  0.58131390798E+03  0.25500000000E-02 0.  1.
          2   -1    0    0  501    0  0.00000000000E+00 -0.00000000000E+00 -0.20266767666E+04  0.20266767666E+04  0.25500000000E-02 0. -1.
    8880023    1    1    2    0    0 -0.24336985830E+03  0.10830440574E+03 -0.19174092553E+04  0.20448049273E+04  0.65864270000E+03 0. -1.
    8880022    1    1    2    0    0  0.24336985830E+03 -0.10830440574E+03  0.47204639670E+03  0.56318574723E+03  0.15294330000E+03 0.  0.
<mgrwt>
<rscale>  0 0.57610639E+03</rscale>
<asrwt>0</asrwt>
<pdfrwt beam="1">  1        2 0.31179642E+00 0.71047093E+03</pdfrwt>
<pdfrwt beam="2">  1       -2 0.89432910E-01 0.71047093E+03</pdfrwt>
<totfact> 0.72219915E+00</totfact>
</mgrwt>
</event>
<event>
 4    2  0.3747163E-007  0.1425585E+04  0.7818608E-02  0.8964054E-01
          2   -1    0    0  501    0  0.00000000000E+00  0.00000000000E+00  0.22146391212E+04  0.22146391212E+04  0.25500000000E-02 0. -1.
         -2   -1    0    0    0  501 -0.00000000000E+00 -0.00000000000E+00 -0.17096320772E+04  0.17096320772E+04  0.25500000000E-02 0.  1.
    8880023    1    1    2    0    0 -0.83327395973E+03 -0.95086044142E+03 -0.11530822741E+04  0.18335457475E+04  0.65864270000E+03 0.  1.
    8880022    1    1    2    0    0  0.83327395973E+03  0.95086044142E+03  0.16580893181E+04  0.20907254509E+04  0.15294330000E+03 0.  0.
<mgrwt>
<rscale>  0 0.13859477E+04</rscale>
<asrwt>0</asrwt>
<pdfrwt beam="1">  1        2 0.34071371E+00 0.14255845E+04</pdfrwt>
<pdfrwt beam="2">  1       -2 0.26302032E+00 0.14255845E+04</pdfrwt>
<totfact> 0.25623576E-01</totfact>
</mgrwt>
</event>
<event>
 4    2  0.3747163E-007  0.7189788E+03  0.7818608E-02  0.9926057E-01
          2   -1    0    0  501    0  0.00000000000E+00  0.00000000000E+00  0.16051524698E+04  0.16051524698E+04  0.25500000000E-02 0. -1.
         -2   -1    0    0    0  501 -0.00000000000E+00 -0.00000000000E+00 -0.28432810424E+03  0.28432810425E+03  0.25500000000E-02 0.  1.
    8880023    1    1    2    0    0 -0.67755813060E+02 -0.28023101860E+03  0.13816248974E+04  0.15575037199E+04  0.65864270000E+03 0. -1.
    8880022    1    1    2    0    0  0.67755813060E+02  0.28023101860E+03 -0.60800531901E+02  0.33197685414E+03  0.15294330000E+03 0.  0.
<mgrwt>
<rscale>  0 0.59014921E+03</rscale>
<asrwt>0</asrwt>
<pdfrwt beam="1">  1        2 0.24694654E+00 0.71897878E+03</pdfrwt>
<pdfrwt beam="2">  1       -2 0.43742784E-01 0.71897878E+03</pdfrwt>
<totfact> 0.56338038E+01</totfact>
</mgrwt>
</event>
<event>
 4    2  0.3747163E-007  0.7795520E+03  0.7818608E-02  0.9756891E-01
          2   -1    0    0  501    0  0.00000000000E+00  0.00000000000E+00  0.22143413801E+04  0.22143413801E+04  0.25500000000E-02 0. -1.
         -2   -1    0    0    0  501 -0.00000000000E+00 -0.00000000000E+00 -0.33097792743E+03  0.33097792744E+03  0.25500000000E-02 0.  1.
    8880023    1    1    2    0    0  0.36645779369E+03  0.19899681820E+03  0.19463978989E+04  0.20967036117E+04  0.65864270000E+03 0. -1.
    8880022    1    1    2    0    0 -0.36645779369E+03 -0.19899681820E+03 -0.63034446157E+02  0.44861569592E+03  0.15294330000E+03 0.  0.
<mgrwt>
<rscale>  0 0.67728261E+03</rscale>
<asrwt>0</asrwt>
<pdfrwt beam="1">  1        2 0.34066790E+00 0.77955196E+03</pdfrwt>
<pdfrwt beam="2">  1       -2 0.50919682E-01 0.77955196E+03</pdfrwt>
<totfact> 0.19119498E+01</totfact>
</mgrwt>
</event>
<event>
 4    2  0.3747163E-007  0.1116267E+04  0.7818608E-02  0.9243157E-01
         -2   -1    0    0    0  501 -0.00000000000E+00  0.00000000000E+00  0.95926016895E+03  0.95926016896E+03  0.25500000000E-02 0.  1.
          2   -1    0    0  501    0  0.00000000000E+00 -0.00000000000E+00 -0.33197487488E+04  0.33197487488E+04  0.25500000000E-02 0. -1.
    8880023    1    1    2    0    0 -0.80236232336E+03  0.41043586397E+03 -0.29750010595E+04  0.31775280340E+04  0.65864270000E+03 0.  0.
    8880022    1    1    2    0    0  0.80236232336E+03 -0.41043586397E+03  0.61451247974E+03  0.11014808837E+04  0.15294330000E+03 0.  0.
<mgrwt>
<rscale>  0 0.10618869E+04</rscale>
<asrwt>0</asrwt>
<pdfrwt beam="1">  1        2 0.51073057E+00 0.11162675E+04</pdfrwt>
<pdfrwt beam="2">  1       -2 0.14757849E+00 0.11162675E+04</pdfrwt>
<totfact> 0.33949864E-01</totfact>
</mgrwt>
</event>
<event>
 4    2  0.3747163E-007  0.7502890E+03  0.7818608E-02  0.9830930E-01
          2   -1    0    0  501    0  0.00000000000E+00  0.00000000000E+00  0.14716507348E+04  0.14716507348E+04  0.25500000000E-02 0. -1.
         -2   -1    0    0    0  501 -0.00000000000E+00 -0.00000000000E+00 -0.10267320003E+04  0.10267320003E+04  0.25500000000E-02 0.  1.
    8880023    1    1    2    0    0 -0.30331669528E+03  0.19267160800E+03  0.13322044169E+04  0.15289546039E+04  0.65864270000E+03 0.  0.
    8880022    1    1    2    0    0  0.30331669528E+03 -0.19267160800E+03 -0.88728568247E+03  0.96942813117E+03  0.15294330000E+03 0.  0.
<mgrwt>
<rscale>  0 0.63728766E+03</rscale>
<asrwt>0</asrwt>
<pdfrwt beam="1">  1        2 0.22640780E+00 0.75028899E+03</pdfrwt>
<pdfrwt beam="2">  1       -2 0.15795877E+00 0.75028899E+03</pdfrwt>
<totfact> 0.35272656E+00</totfact>
</mgrwt>
</event>
<event>
 4    2  0.3747163E-007  0.9283298E+03  0.7818608E-02  0.9482003E-01
          2   -1    0    0  501    0  0.00000000000E+00  0.00000000000E+00  0.46846696969E+03  0.46846696970E+03  0.25500000000E-02 0. -1.
         -2   -1    0    0    0  501 -0.00000000000E+00 -0.00000000000E+00 -0.17544760523E+04  0.17544760523E+04  0.25500000000E-02 0.  1.
    8880023    1    1    2    0    0 -0.64236438356E+03 -0.12391112052E+03 -0.20583369143E+03  0.95087521886E+03  0.65864270000E+03 0.  0.
    8880022    1    1    2    0    0  0.64236438356E+03  0.12391112052E+03 -0.10801753912E+04  0.12720678031E+04  0.15294330000E+03 0.  0.
<mgrwt>
<rscale>  0 0.85623744E+03</rscale>
<asrwt>0</asrwt>
<pdfrwt beam="1">  1        2 0.72071842E-01 0.92832978E+03</pdfrwt>
<pdfrwt beam="2">  1       -2 0.26991939E+00 0.92832978E+03</pdfrwt>
<totfact> 0.32571490E+00</totfact>
</mgrwt>
</event>
<event>
 4    2  0.3747163E-007  0.8515018E+03  0.7818608E-02  0.9608862E-01
          2   -1    0    0  501    0  0.00000000000E+00  0.00000000000E+00  0.37314713939E+04  0.37314713939E+04  0.25500000000E-02 0. -1.
         -2   -1    0    0    0  501 -0.00000000000E+00 -0.00000000000E+00 -0.14812471012E+03  0.14812471014E+03  0.25500000000E-02 0.  1.
    8880023    1    1    2    0    0  0.16580860974E+03  0.51356858948E+03  0.27188179692E+04  0.28490395833E+04  0.65864270000E+03 0. -1.
    8880022    1    1    2    0    0 -0.16580860974E+03 -0.51356858948E+03  0.86452871462E+03  0.10305565208E+04  0.15294330000E+03 0.  0.
<mgrwt>
<rscale>  0 0.76712369E+03</rscale>
<asrwt>0</asrwt>
<pdfrwt beam="1">  1        2 0.57407257E+00 0.85150185E+03</pdfrwt>
<pdfrwt beam="2">  1       -2 0.22788415E-01 0.85150185E+03</pdfrwt>
<totfact> 0.10011717E+01</totfact>
</mgrwt>
</event>
<event>
 4    2  0.3747163E-007  0.7712409E+03  0.7818608E-02  0.9776830E-01
          2   -1    0    0  501    0  0.00000000000E+00  0.00000000000E+00  0.17660336735E+04  0.17660336735E+04  0.25500000000E-02 0. -1.
         -2   -1    0    0    0  501 -0.00000000000E+00 -0.00000000000E+00 -0.35137635840E+03  0.35137635840E+03  0.25500000000E-02 0.  1.
    8880023    1    1    2    0    0  0.30621920538E+03 -0.25929150760E+03  0.14934454623E+04  0.16808307002E+04  0.65864270000E+03 0. -1.
    8880022    1    1    2    0    0 -0.30621920538E+03  0.25929150760E+03 -0.78788147248E+02  0.43657933164E+03  0.15294330000E+03 0.  0.
<mgrwt>
<rscale>  0 0.66620956E+03</rscale>
<asrwt>0</asrwt>
<pdfrwt beam="1">  1        2 0.27169748E+00 0.77124088E+03</pdfrwt>
<pdfrwt beam="2">  1       -2 0.54057902E-01 0.77124088E+03</pdfrwt>
<totfact> 0.29778431E+01</totfact>
</mgrwt>
</event>
<event>
 4    2  0.3747163E-007  0.7617710E+03  0.7818608E-02  0.9800544E-01
         -2   -1    0    0    0  501 -0.00000000000E+00  0.00000000000E+00  0.19799570218E+03  0.19799570219E+03  0.25500000000E-02 0.  1.
          2   -1    0    0  501    0  0.00000000000E+00 -0.00000000000E+00 -0.21121975000E+04  0.21121975000E+04  0.25500000000E-02 0. -1.
    8880023    1    1    2    0    0  0.12882204707E+03 -0.36040210353E+03 -0.16587022486E+04  0.18252638582E+04  0.65864270000E+03 0. -1.
    8880022    1    1    2    0    0 -0.12882204707E+03  0.36040210353E+03 -0.25549954917E+03  0.48492934401E+03  0.15294330000E+03 0.  1.
<mgrwt>
<rscale>  0 0.65333355E+03</rscale>
<asrwt>0</asrwt>
<pdfrwt beam="1">  1        2 0.32495345E+00 0.76177096E+03</pdfrwt>
<pdfrwt beam="2">  1       -2 0.30460879E-01 0.76177096E+03</pdfrwt>
<totfact> 0.59341596E+01</totfact>
</mgrwt>
</event>
<event>
 4    2  0.3747163E-007  0.6729582E+03  0.7818608E-02  0.1013625E+00
         -2   -1    0    0    0  501 -0.00000000000E+00  0.00000000000E+00  0.88259662811E+03  0.88259662811E+03  0.25500000000E-02 0.  1.
          2   -1    0    0  501    0  0.00000000000E+00 -0.00000000000E+00 -0.21009527734E+04  0.21009527734E+04  0.25500000000E-02 0. -1.
    8880023    1    1    2    0    0  0.10078355976E+02  0.13769892137E+03 -0.20339206750E+04  0.21423599335E+04  0.65864270000E+03 0. -1.
    8880022    1    1    2    0    0 -0.10078355976E+02 -0.13769892137E+03  0.81556452964E+03  0.84118946809E+03  0.15294330000E+03 0.  0.
<mgrwt>
<rscale>  0 0.50058887E+03</rscale>
<asrwt>0</asrwt>
<pdfrwt beam="1">  1        2 0.32322350E+00 0.67295822E+03</pdfrwt>
<pdfrwt beam="2">  1       -2 0.13578410E+00 0.67295822E+03</pdfrwt>
<totfact> 0.24078029E+00</totfact>
</mgrwt>
</event>
<event>
 4    2  0.3747163E-007  0.8292634E+03  0.7818608E-02  0.9650767E-01
         -2   -1    0    0    0  501 -0.00000000000E+00  0.00000000000E+00  0.28588639348E+03  0.28588639349E+03  0.25500000000E-02 0.  1.
          2   -1    0    0  501    0  0.00000000000E+00 -0.00000000000E+00 -0.28968718302E+04  0.28968718302E+04  0.25500000000E-02 0. -1.
    8880023    1    1    2    0    0 -0.31110022733E+03  0.39633847679E+03 -0.25141404170E+04  0.26473722409E+04  0.65864270000E+03 0. -1.
    8880022    1    1    2    0    0  0.31110022733E+03 -0.39633847679E+03 -0.96845019720E+02  0.53538598272E+03  0.15294330000E+03 0.  0.
<mgrwt>
<rscale>  0 0.74025288E+03</rscale>
<asrwt>0</asrwt>
<pdfrwt beam="1">  1        2 0.44567257E+00 0.82926338E+03</pdfrwt>
<pdfrwt beam="2">  1       -2 0.43982524E-01 0.82926338E+03</pdfrwt>
<totfact> 0.10347024E+01</totfact>
</mgrwt>
</event>
<event>
 4    2  0.3747163E-007  0.6708344E+03  0.7818608E-02  0.1015072E+00
         -2   -1    0    0    0  501 -0.00000000000E+00  0.00000000000E+00  0.24090382684E+03  0.24090382685E+03  0.25500000000E-02 0.  1.
          2   -1    0    0  501    0  0.00000000000E+00 -0.00000000000E+00 -0.90583764050E+03  0.90583764051E+03  0.25500000000E-02 0. -1.
    8880023    1    1    2    0    0 -0.12618895463E+03  0.16880435773E+02 -0.66940527636E+03  0.94769311048E+03  0.65864270000E+03 0. -1.
    8880022    1    1    2    0    0  0.12618895463E+03 -0.16880435773E+02  0.44714626907E+01  0.19904835688E+03  0.15294330000E+03 0.  0.
<mgrwt>
<rscale>  0 0.49507813E+03</rscale>
<asrwt>0</asrwt>
<pdfrwt beam="1">  1        2 0.13935964E+00 0.67083441E+03</pdfrwt>
<pdfrwt beam="2">  1       -2 0.37062128E-01 0.67083441E+03</pdfrwt>
<totfact> 0.20223280E+02</totfact>
</mgrwt>
</event>
<event>
 4    2  0.3747163E-007  0.6769698E+03  0.7818608E-02  0.1011092E+00
          2   -1    0    0  501    0  0.00000000000E+00  0.00000000000E+00  0.95658683073E+03  0.95658683073E+03  0.25500000000E-02 0. -1.
         -2   -1    0    0    0  501 -0.00000000000E+00 -0.00000000000E+00 -0.34537323947E+03  0.34537323948E+03  0.25500000000E-02 0.  1.
    8880023    1    1    2    0    0  0.15481265268E+03  0.22605243133E+02  0.77471898318E+03  0.10288234366E+04  0.65864270000E+03 0. -1.
    8880022    1    1    2    0    0 -0.15481265268E+03 -0.22605243133E+02 -0.16350539192E+03  0.27313663366E+03  0.15294330000E+03 0.  0.
<mgrwt>
<rscale>  0 0.51042798E+03</rscale>
<asrwt>0</asrwt>
<pdfrwt beam="1">  1        2 0.14716720E+00 0.67696984E+03</pdfrwt>
<pdfrwt beam="2">  1       -2 0.53134345E-01 0.67696984E+03</pdfrwt>
<totfact> 0.91506493E+01</totfact>
</mgrwt>
</event>
<event>
 4    2  0.3747163E-007  0.6884699E+03  0.7818608E-02  0.1004888E+00
         -2   -1    0    0    0  501 -0.00000000000E+00  0.00000000000E+00  0.76095917252E+03  0.76095917252E+03  0.25500000000E-02 0.  1.
          2   -1    0    0  501    0  0.00000000000E+00 -0.00000000000E+00 -0.40685131976E+03  0.40685131977E+03  0.25500000000E-02 0. -1.
    8880023    1    1    2    0    0 -0.93446789977E+02 -0.17733657998E+03 -0.51315389309E+02  0.69037963513E+03  0.65864270000E+03 0. -1.
    8880022    1    1    2    0    0  0.93446789977E+02  0.17733657998E+03  0.40542324207E+03  0.47743085717E+03  0.15294330000E+03 0.  0.
<mgrwt>
<rscale>  0 0.53557726E+03</rscale>
<asrwt>0</asrwt>
<pdfrwt beam="1">  1        2 0.62592511E-01 0.68846988E+03</pdfrwt>
<pdfrwt beam="2">  1       -2 0.11707064E+00 0.68846988E+03</pdfrwt>
<totfact> 0.44716014E+01</totfact>
</mgrwt>
</event>
<event>
 4    2  0.3747163E-007  0.6842574E+03  0.7818608E-02  0.1007011E+00
         -2   -1    0    0    0  501 -0.00000000000E+00  0.00000000000E+00  0.78841013518E+03  0.78841013518E+03  0.25500000000E-02 0.  1.
          2   -1    0    0  501    0  0.00000000000E+00 -0.00000000000E+00 -0.76348116080E+03  0.76348116080E+03  0.25500000000E-02 0. -1.
    8880023    1    1    2    0    0 -0.50032668712E+02 -0.17859080632E+03 -0.58250309323E+03  0.89862005537E+03  0.65864270000E+03 0. -1.
    8880022    1    1    2    0    0  0.50032668712E+02  0.17859080632E+03  0.60743206761E+03  0.65327124061E+03  0.15294330000E+03 0.  0.
<mgrwt>
<rscale>  0 0.52680007E+03</rscale>
<asrwt>0</asrwt>
<pdfrwt beam="1">  1        2 0.11745864E+00 0.68425737E+03</pdfrwt>
<pdfrwt beam="2">  1       -2 0.12129387E+00 0.68425737E+03</pdfrwt>
<totfact> 0.19343020E+01</totfact>
</mgrwt>
</event>
<event>
 4    2  0.3747163E-007  0.7846672E+03  0.7818608E-02  0.9744986E-01
         -2   -1    0    0    0  501 -0.00000000000E+00  0.00000000000E+00  0.72185636947E+03  0.72185636947E+03  0.25500000000E-02 0.  1.
          2   -1    0    0  501    0  0.00000000000E+00 -0.00000000000E+00 -0.73101207406E+03  0.73101207406E+03  0.25500000000E-02 0. -1.
    8880023    1    1    2    0    0 -0.39818166623E+03  0.15278650387E+03  0.36486782063E+03  0.86535026890E+03  0.65864270000E+03 0.  1.
    8880022    1    1    2    0    0  0.39818166623E+03 -0.15278650387E+03 -0.37402352523E+03  0.58751817463E+03  0.15294330000E+03 0.  0.
<mgrwt>
<rscale>  0 0.68400378E+03</rscale>
<asrwt>0</asrwt>
<pdfrwt beam="1">  1        2 0.11246340E+00 0.78466717E+03</pdfrwt>
<pdfrwt beam="2">  1       -2 0.11105483E+00 0.78466717E+03</pdfrwt>
<totfact> 0.25153283E+01</totfact>
</mgrwt>
</event>
<event>
 4    2  0.3747163E-007  0.7395153E+03  0.7818608E-02  0.9861361E-01
          2   -1    0    0  501    0  0.00000000000E+00  0.00000000000E+00  0.18542795727E+04  0.18542795727E+04  0.25500000000E-02 0. -1.
         -2   -1    0    0    0  501 -0.00000000000E+00 -0.00000000000E+00 -0.63243931111E+03  0.63243931112E+03  0.25500000000E-02 0.  1.
    8880023    1    1    2    0    0  0.18302759726E+03  0.28208800455E+03  0.17166849557E+04  0.18691950640E+04  0.65864270000E+03 0.  0.
    8880022    1    1    2    0    0 -0.18302759726E+03 -0.28208800455E+03 -0.49484469418E+03  0.61752381982E+03  0.15294330000E+03 0.  0.
<mgrwt>
<rscale>  0 0.62170994E+03</rscale>
<asrwt>0</asrwt>
<pdfrwt beam="1">  1        2 0.28527378E+00 0.73951535E+03</pdfrwt>
<pdfrwt beam="2">  1       -2 0.97298357E-01 0.73951535E+03</pdfrwt>
<totfact> 0.73346189E+00</totfact>
</mgrwt>
</event>
<event>
 4    2  0.3747163E-007  0.6614548E+03  0.7818608E-02  0.1022713E+00
          2   -1    0    0  501    0  0.00000000000E+00  0.00000000000E+00  0.70750582622E+03  0.70750582622E+03  0.25500000000E-02 0. -1.
         -2   -1    0    0    0  501 -0.00000000000E+00 -0.00000000000E+00 -0.48175833470E+03  0.48175833470E+03  0.25500000000E-02 0.  1.
    8880023    1    1    2    0    0 -0.21569287119E+02 -0.56982151224E+02  0.52715713560E+03  0.84582329809E+03  0.65864270000E+03 0. -1.
    8880022    1    1    2    0    0  0.21569287119E+02  0.56982151224E+02 -0.30140964408E+03  0.34344086284E+03  0.15294330000E+03 0.  0.
<mgrwt>
<rscale>  0 0.46720124E+03</rscale>
<asrwt>0</asrwt>
<pdfrwt beam="1">  1        2 0.10884705E+00 0.66145476E+03</pdfrwt>
<pdfrwt beam="2">  1       -2 0.74116667E-01 0.66145476E+03</pdfrwt>
<totfact> 0.67541115E+01</totfact>
</mgrwt>
</event>
<event>
 4    2  0.3747163E-007  0.1279706E+04  0.7818608E-02  0.9083286E-01
          2   -1    0    0  501    0  0.00000000000E+00  0.00000000000E+00  0.21919427527E+04  0.21919427527E+04  0.25500000000E-02 0. -1.
         -2   -1    0    0    0  501 -0.00000000000E+00 -0.00000000000E+00 -0.74073995966E+03  0.74073995966E+03  0.25500000000E-02 0.  1.
    8880023    1    1    2    0    0 -0.63478404787E+03  0.89492259281E+03  0.12831327323E+04  0.18122022650E+04  0.65864270000E+03 0.  0.
    8880022    1    1    2    0    0  0.63478404787E+03 -0.89492259281E+03  0.16807006081E+03  0.11204804474E+04  0.15294330000E+03 0.  0.
<mgrwt>
<rscale>  0 0.12343785E+04</rscale>
<asrwt>0</asrwt>
<pdfrwt beam="1">  1        2 0.33722196E+00 0.12797060E+04</pdfrwt>
<pdfrwt beam="2">  1       -2 0.11395999E+00 0.12797060E+04</pdfrwt>
<totfact> 0.30520081E+00</totfact>
</mgrwt>
</event>
<event>
 4    2  0.3747163E-007  0.8027438E+03  0.7818608E-02  0.9704894E-01
          2   -1    0    0  501    0  0.00000000000E+00  0.00000000000E+00  0.19964267686E+04  0.19964267686E+04  0.25500000000E-02 0. -1.
         -2   -1    0    0    0  501 -0.00000000000E+00 -0.00000000000E+00 -0.21658347221E+03  0.21658347223E+03  0.25500000000E-02 0.  1.
    8880023    1    1    2    0    0 -0.27648537251E+01 -0.45888971049E+03  0.13240316211E+04  0.15483724845E+04  0.65864270000E+03 0.  0.
    8880022    1    1    2    0    0  0.27648537251E+01  0.45888971049E+03  0.45581167534E+03  0.66463775638E+03  0.15294330000E+03 0. -1.
<mgrwt>
<rscale>  0 0.70726122E+03</rscale>
<asrwt>0</asrwt>
<pdfrwt beam="1">  1        2 0.30714259E+00 0.80274381E+03</pdfrwt>
<pdfrwt beam="2">  1       -2 0.33320533E-01 0.80274381E+03</pdfrwt>
<totfact> 0.57763944E+01</totfact>
</mgrwt>
</event>
<event>
 4    2  0.3747163E-007  0.7189935E+03  0.7818608E-02  0.9926006E-01
          2   -1    0    0  501    0  0.00000000000E+00  0.00000000000E+00  0.85081883831E+03  0.85081883831E+03  0.25500000000E-02 0. -1.
         -2   -1    0    0    0  501 -0.00000000000E+00 -0.00000000000E+00 -0.49157820260E+03  0.49157820260E+03  0.25500000000E-02 0.  1.
    8880023    1    1    2    0    0  0.91122730308E+02  0.27356556509E+03  0.60028857648E+03  0.93664190153E+03  0.65864270000E+03 0. -1.
    8880022    1    1    2    0    0 -0.91122730308E+02 -0.27356556509E+03 -0.24104794076E+03  0.40575513939E+03  0.15294330000E+03 0.  0.
<mgrwt>
<rscale>  0 0.59017297E+03</rscale>
<asrwt>0</asrwt>
<pdfrwt beam="1">  1        2 0.13089521E+00 0.71899352E+03</pdfrwt>
<pdfrwt beam="2">  1       -2 0.75627415E-01 0.71899352E+03</pdfrwt>
<totfact> 0.50513923E+01</totfact>
</mgrwt>
</event>
<event>
 4    2  0.3747163E-007  0.8967620E+03  0.7818608E-02  0.9531250E-01
          2   -1    0    0  501    0  0.00000000000E+00  0.00000000000E+00  0.13727086893E+04  0.13727086893E+04  0.25500000000E-02 0. -1.
         -2   -1    0    0    0  501 -0.00000000000E+00 -0.00000000000E+00 -0.52982578908E+03  0.52982578909E+03  0.25500000000E-02 0.  1.
    8880023    1    1    2    0    0 -0.60059073292E+03 -0.98298556122E+02  0.90240825979E+03  0.12722117387E+04  0.65864270000E+03 0.  1.
    8880022    1    1    2    0    0  0.60059073292E+03  0.98298556122E+02 -0.59525359609E+02  0.63032273960E+03  0.15294330000E+03 0.  0.
<mgrwt>
<rscale>  0 0.82018594E+03</rscale>
<asrwt>0</asrwt>
<pdfrwt beam="1">  1        2 0.21118595E+00 0.89676198E+03</pdfrwt>
<pdfrwt beam="2">  1       -2 0.81511661E-01 0.89676198E+03</pdfrwt>
<totfact> 0.19995920E+01</totfact>
</mgrwt>
</event>
<event>
 4    2  0.3747163E-007  0.7452160E+03  0.7818608E-02  0.9845006E-01
          2   -1    0    0  501    0  0.00000000000E+00  0.00000000000E+00  0.23334973896E+04  0.23334973896E+04  0.25500000000E-02 0. -1.
         -2   -1    0    0    0  501 -0.00000000000E+00 -0.00000000000E+00 -0.14239400870E+03  0.14239400872E+03  0.25500000000E-02 0.  1.
    8880023    1    1    2    0    0  0.15585163346E+03 -0.31184434302E+03  0.16863380365E+04  0.18436601655E+04  0.65864270000E+03 0. -1.
    8880022    1    1    2    0    0 -0.15585163346E+03  0.31184434302E+03  0.50476534431E+03  0.63223123282E+03  0.15294330000E+03 0.  1.
<mgrwt>
<rscale>  0 0.63002206E+03</rscale>
<asrwt>0</asrwt>
<pdfrwt beam="1">  1        2 0.35899959E+00 0.74521596E+03</pdfrwt>
<pdfrwt beam="2">  1       -2 0.21906771E-01 0.74521596E+03</pdfrwt>
<totfact> 0.81601394E+01</totfact>
</mgrwt>
</event>
<event>
 4    2  0.3747163E-007  0.1022889E+04  0.7818608E-02  0.9352206E-01
          2   -1    0    0  501    0  0.00000000000E+00  0.00000000000E+00  0.14689919904E+04  0.14689919904E+04  0.25500000000E-02 0. -1.
         -2   -1    0    0    0  501 -0.00000000000E+00 -0.00000000000E+00 -0.73605796695E+03  0.73605796695E+03  0.25500000000E-02 0.  1.
    8880023    1    1    2    0    0 -0.65600951846E+03 -0.42678317285E+03  0.93128570191E+03  0.13833277377E+04  0.65864270000E+03 0. -1.
    8880022    1    1    2    0    0  0.65600951846E+03  0.42678317285E+03 -0.19835167848E+03  0.82172221967E+03  0.15294330000E+03 0.  0.
<mgrwt>
<rscale>  0 0.96115565E+03</rscale>
<asrwt>0</asrwt>
<pdfrwt beam="1">  1        2 0.22599876E+00 0.10228893E+04</pdfrwt>
<pdfrwt beam="2">  1       -2 0.11323969E+00 0.10228893E+04</pdfrwt>
<totfact> 0.80276946E+00</totfact>
</mgrwt>
</event>
<event>
 4    2  0.3747163E-007  0.7194603E+03  0.7818608E-02  0.9924416E-01
          2   -1    0    0  501    0  0.00000000000E+00  0.00000000000E+00  0.11780506027E+04  0.11780506027E+04  0.25500000000E-02 0. -1.
         -2   -1    0    0    0  501 -0.00000000000E+00 -0.00000000000E+00 -0.38413699499E+03  0.38413699500E+03  0.25500000000E-02 0.  1.
    8880023    1    1    2    0    0 -0.64836948871E+02 -0.28215082518E+03  0.95629391410E+03  0.11967126533E+04  0.65864270000E+03 0. -1.
    8880022    1    1    2    0    0  0.64836948871E+02  0.28215082518E+03 -0.16238030639E+03  0.36547494443E+03  0.15294330000E+03 0.  0.
<mgrwt>
<rscale>  0 0.59092422E+03</rscale>
<asrwt>0</asrwt>
<pdfrwt beam="1">  1        2 0.18123855E+00 0.71946030E+03</pdfrwt>
<pdfrwt beam="2">  1       -2 0.59097999E-01 0.71946030E+03</pdfrwt>
<totfact> 0.53267825E+01</totfact>
</mgrwt>
</event>
<event>
 4    2  0.3747163E-007  0.7004817E+03  0.7818608E-02  0.9995209E-01
          2   -1    0    0  501    0  0.00000000000E+00  0.00000000000E+00  0.14799036810E+04  0.14799036810E+04  0.25500000000E-02 0. -1.
         -2   -1    0    0    0  501 -0.00000000000E+00 -0.00000000000E+00 -0.31952242100E+03  0.31952242101E+03  0.25500000000E-02 0.  1.
    8880023    1    1    2    0    0 -0.33947100360E+01  0.23843845083E+03  0.13051784728E+04  0.14812715723E+04  0.65864270000E+03 0.  0.
    8880022    1    1    2    0    0  0.33947100360E+01 -0.23843845083E+03 -0.14479721281E+03  0.31815452966E+03  0.15294330000E+03 0.  0.
<mgrwt>
<rscale>  0 0.55860824E+03</rscale>
<asrwt>0</asrwt>
<pdfrwt beam="1">  1        2 0.22767748E+00 0.70048171E+03</pdfrwt>
<pdfrwt beam="2">  1       -2 0.49157297E-01 0.70048171E+03</pdfrwt>
<totfact> 0.52411991E+01</totfact>
</mgrwt>
</event>
<event>
 4    2  0.3747163E-007  0.6852114E+03  0.7818608E-02  0.1006517E+00
         -2   -1    0    0    0  501 -0.00000000000E+00  0.00000000000E+00  0.43064245007E+03  0.43064245007E+03  0.25500000000E-02 0.  1.
          2   -1    0    0  501    0  0.00000000000E+00 -0.00000000000E+00 -0.51346122095E+03  0.51346122095E+03  0.25500000000E-02 0. -1.
    8880023    1    1    2    0    0  0.78950971450E+02  0.17167162841E+03 -0.12739578028E+03  0.69695358166E+03  0.65864270000E+03 0. -1.
    8880022    1    1    2    0    0 -0.78950971450E+02 -0.17167162841E+03  0.44577009393E+02  0.24715008937E+03  0.15294330000E+03 0.  0.
<mgrwt>
<rscale>  0 0.52882652E+03</rscale>
<asrwt>0</asrwt>
<pdfrwt beam="1">  1        2 0.78994034E-01 0.68521136E+03</pdfrwt>
<pdfrwt beam="2">  1       -2 0.66252684E-01 0.68521136E+03</pdfrwt>
<totfact> 0.12683111E+02</totfact>
</mgrwt>
</event>
<event>
 4    2  0.3747163E-007  0.6810889E+03  0.7818608E-02  0.1008714E+00
          2   -1    0    0  501    0  0.00000000000E+00  0.00000000000E+00  0.25207558857E+04  0.25207558857E+04  0.25500000000E-02 0. -1.
         -2   -1    0    0    0  501 -0.00000000000E+00 -0.00000000000E+00 -0.11982399956E+03  0.11982399959E+03  0.25500000000E-02 0.  1.
    8880023    1    1    2    0    0  0.11742345189E+03  0.12760711517E+03  0.22801779222E+04  0.23797254896E+04  0.65864270000E+03 0. -1.
    8880022    1    1    2    0    0 -0.11742345189E+03 -0.12760711517E+03  0.12075396391E+03  0.26085439561E+03  0.15294330000E+03 0.  0.
<mgrwt>
<rscale>  0 0.51988826E+03</rscale>
<asrwt>0</asrwt>
<pdfrwt beam="1">  1        2 0.38780857E+00 0.68108887E+03</pdfrwt>
<pdfrwt beam="2">  1       -2 0.18434463E-01 0.68108887E+03</pdfrwt>
<totfact> 0.87338423E+01</totfact>
</mgrwt>
</event>
<event>
 4    2  0.3747163E-007  0.7754191E+03  0.7818608E-02  0.9766710E-01
          2   -1    0    0  501    0  0.00000000000E+00  0.00000000000E+00  0.84093181444E+03  0.84093181445E+03  0.25500000000E-02 0. -1.
         -2   -1    0    0    0  501 -0.00000000000E+00 -0.00000000000E+00 -0.53908906237E+03  0.53908906238E+03  0.25500000000E-02 0.  1.
    8880023    1    1    2    0    0 -0.40656209152E+03  0.46603606321E+02  0.47583491396E+03  0.90977673194E+03  0.65864270000E+03 0. -1.
    8880022    1    1    2    0    0  0.40656209152E+03 -0.46603606321E+02 -0.17399216189E+03  0.47024414488E+03  0.15294330000E+03 0.  0.
<mgrwt>
<rscale>  0 0.67180107E+03</rscale>
<asrwt>0</asrwt>
<pdfrwt beam="1">  1        2 0.12937412E+00 0.77541914E+03</pdfrwt>
<pdfrwt beam="2">  1       -2 0.82936779E-01 0.77541914E+03</pdfrwt>
<totfact> 0.41530943E+01</totfact>
</mgrwt>
</event>
<event>
 4    2  0.3747163E-007  0.7607695E+03  0.7818608E-02  0.9803119E-01
          2   -1    0    0  501    0  0.00000000000E+00  0.00000000000E+00  0.29674784213E+04  0.29674784213E+04  0.25500000000E-02 0. -1.
         -2   -1    0    0    0  501 -0.00000000000E+00 -0.00000000000E+00 -0.57651143020E+03  0.57651143020E+03  0.25500000000E-02 0.  1.
    8880023    1    1    2    0    0 -0.37509119540E+03  0.65318969421E+02  0.28374149303E+04  0.29376340252E+04  0.65864270000E+03 0. -1.
    8880022    1    1    2    0    0  0.37509119540E+03 -0.65318969421E+02 -0.44644793925E+03  0.60635582632E+03  0.15294330000E+03 0.  0.
<mgrwt>
<rscale>  0 0.65195402E+03</rscale>
<asrwt>0</asrwt>
<pdfrwt beam="1">  1        2 0.45653515E+00 0.76076947E+03</pdfrwt>
<pdfrwt beam="2">  1       -2 0.88694065E-01 0.76076947E+03</pdfrwt>
<totfact> 0.21218958E+00</totfact>
</mgrwt>
</event>
<event>
 4    2  0.3747163E-007  0.8575823E+03  0.7818608E-02  0.9597879E-01
          2   -1    0    0  501    0  0.00000000000E+00  0.00000000000E+00  0.10350654151E+04  0.10350654151E+04  0.25500000000E-02 0. -1.
         -2   -1    0    0    0  501 -0.00000000000E+00 -0.00000000000E+00 -0.56386143869E+03  0.56386143869E+03  0.25500000000E-02 0.  1.
    8880023    1    1    2    0    0 -0.54897305137E+03  0.16303828816E+02  0.55671328839E+03  0.10224368527E+04  0.65864270000E+03 0.  0.
    8880022    1    1    2    0    0  0.54897305137E+03 -0.16303828816E+02 -0.85509311965E+02  0.57649000114E+03  0.15294330000E+03 0.  0.
<mgrwt>
<rscale>  0 0.77436748E+03</rscale>
<asrwt>0</asrwt>
<pdfrwt beam="1">  1        2 0.15924083E+00 0.85758232E+03</pdfrwt>
<pdfrwt beam="2">  1       -2 0.86747914E-01 0.85758232E+03</pdfrwt>
<totfact> 0.27693906E+01</totfact>
</mgrwt>
</event>
<event>
 4    2  0.3747163E-007  0.8678192E+03  0.7818608E-02  0.9579803E-01
          2   -1    0    0  501    0  0.00000000000E+00  0.00000000000E+00  0.14813963614E+04  0.14813963614E+04  0.25500000000E-02 0. -1.
         -2   -1    0    0    0  501 -0.00000000000E+00 -0.00000000000E+00 -0.57326513478E+03  0.57326513479E+03  0.25500000000E-02 0.  1.
    8880023    1    1    2    0    0 -0.11997728617E+03  0.55218236325E+03  0.11333420488E+04  0.14274362744E+04  0.65864270000E+03 0.  0.
    8880022    1    1    2    0    0  0.11997728617E+03 -0.55218236325E+03 -0.22521082218E+03  0.62722522185E+03  0.15294330000E+03 0.  0.
<mgrwt>
<rscale>  0 0.78647488E+03</rscale>
<asrwt>0</asrwt>
<pdfrwt beam="1">  1        2 0.22790713E+00 0.86781917E+03</pdfrwt>
<pdfrwt beam="2">  1       -2 0.88194637E-01 0.86781917E+03</pdfrwt>
<totfact> 0.14542028E+01</totfact>
</mgrwt>
</event>
<event>
 4    2  0.3747163E-007  0.7085092E+03  0.7818608E-02  0.9963579E-01
         -2   -1    0    0    0  501 -0.00000000000E+00  0.00000000000E+00  0.16848539173E+03  0.16848539175E+03  0.25500000000E-02 0.  1.
          2   -1    0    0  501    0  0.00000000000E+00 -0.00000000000E+00 -0.20533229328E+04  0.20533229328E+04  0.25500000000E-02 0. -1.
    8880023    1    1    2    0    0  0.77715621601E+02  0.24926962141E+03 -0.17548303453E+04  0.18924626308E+04  0.65864270000E+03 0. -1.
    8880022    1    1    2    0    0 -0.77715621601E+02 -0.24926962141E+03 -0.13000719575E+03  0.32934569370E+03  0.15294330000E+03 0.  0.
<mgrwt>
<rscale>  0 0.57276480E+03</rscale>
<asrwt>0</asrwt>
<pdfrwt beam="1">  1        2 0.31589582E+00 0.70850919E+03</pdfrwt>
<pdfrwt beam="2">  1       -2 0.25920831E-01 0.70850919E+03</pdfrwt>
<totfact> 0.86494781E+01</totfact>
</mgrwt>
</event>
<event>
 4    2  0.3747163E-007  0.8224585E+03  0.7818608E-02  0.9664188E-01
         -2   -1    0    0    0  501 -0.00000000000E+00  0.00000000000E+00  0.29648656619E+03  0.29648656620E+03  0.25500000000E-02 0.  1.
          2   -1    0    0  501    0  0.00000000000E+00 -0.00000000000E+00 -0.27546462100E+04  0.27546462100E+04  0.25500000000E-02 0. -1.
    8880023    1    1    2    0    0  0.31111375384E+03 -0.38188482915E+03 -0.23940588512E+04  0.25313940388E+04  0.65864270000E+03 0.  0.
    8880022    1    1    2    0    0 -0.31111375384E+03  0.38188482915E+03 -0.64100792698E+02  0.51973873745E+03  0.15294330000E+03 0.  0.
<mgrwt>
<rscale>  0 0.73189650E+03</rscale>
<asrwt>0</asrwt>
<pdfrwt beam="1">  1        2 0.42379171E+00 0.82245851E+03</pdfrwt>
<pdfrwt beam="2">  1       -2 0.45613320E-01 0.82245851E+03</pdfrwt>
<totfact> 0.11705771E+01</totfact>
</mgrwt>
</event>
<event>
 4    2  0.3747163E-007  0.8376258E+03  0.7818608E-02  0.9634673E-01
          2   -1    0    0  501    0  0.00000000000E+00  0.00000000000E+00  0.18750676366E+04  0.18750676366E+04  0.25500000000E-02 0. -1.
         -2   -1    0    0    0  501 -0.00000000000E+00 -0.00000000000E+00 -0.49315700551E+03  0.49315700552E+03  0.25500000000E-02 0.  1.
    8880023    1    1    2    0    0 -0.50831532843E+03 -0.97068315827E+02  0.15841309896E+04  0.17919508725E+04  0.65864270000E+03 0. -1.
    8880022    1    1    2    0    0  0.50831532843E+03  0.97068315827E+02 -0.20222035856E+03  0.57627376956E+03  0.15294330000E+03 0.  0.
<mgrwt>
<rscale>  0 0.75043165E+03</rscale>
<asrwt>0</asrwt>
<pdfrwt beam="1">  1        2 0.28847194E+00 0.83762577E+03</pdfrwt>
<pdfrwt beam="2">  1       -2 0.75870309E-01 0.83762577E+03</pdfrwt>
<totfact> 0.12445298E+01</totfact>
</mgrwt>
</event>
<event>
 4    2  0.3747163E-007  0.6625774E+03  0.7818608E-02  0.1021659E+00
          2   -1    0    0  501    0  0.00000000000E+00  0.00000000000E+00  0.11678217191E+04  0.11678217191E+04  0.25500000000E-02 0. -1.
         -2   -1    0    0    0  501 -0.00000000000E+00 -0.00000000000E+00 -0.30409938115E+03  0.30409938116E+03  0.25500000000E-02 0.  1.
    8880023    1    1    2    0    0 -0.71388589108E+02  0.10113131250E+02  0.10364956539E+04  0.12301756187E+04  0.65864270000E+03 0. -1.
    8880022    1    1    2    0    0  0.71388589108E+02 -0.10113131250E+02 -0.17277331601E+03  0.24174548148E+03  0.15294330000E+03 0.  0.
<mgrwt>
<rscale>  0 0.47092823E+03</rscale>
<asrwt>0</asrwt>
<pdfrwt beam="1">  1        2 0.17966488E+00 0.66257740E+03</pdfrwt>
<pdfrwt beam="2">  1       -2 0.46784520E-01 0.66257740E+03</pdfrwt>
<totfact> 0.87765126E+01</totfact>
</mgrwt>
</event>
<event>
 4    2  0.3747163E-007  0.7155271E+03  0.7818608E-02  0.9938022E-01
         -2   -1    0    0    0  501 -0.00000000000E+00  0.00000000000E+00  0.65942674257E+03  0.65942674257E+03  0.25500000000E-02 0.  1.
          2   -1    0    0  501    0  0.00000000000E+00 -0.00000000000E+00 -0.10030901769E+04  0.10030901770E+04  0.25500000000E-02 0. -1.
    8880023    1    1    2    0    0  0.27662177140E+03  0.40610661339E+02 -0.82070250680E+03  0.10888212163E+04  0.65864270000E+03 0. -1.
    8880022    1    1    2    0    0 -0.27662177140E+03 -0.40610661339E+02  0.47703907242E+03  0.57369570319E+03  0.15294330000E+03 0.  0.
<mgrwt>
<rscale>  0 0.58453452E+03</rscale>
<asrwt>0</asrwt>
<pdfrwt beam="1">  1        2 0.15432157E+00 0.71552710E+03</pdfrwt>
<pdfrwt beam="2">  1       -2 0.10145027E+00 0.71552710E+03</pdfrwt>
<totfact> 0.20418841E+01</totfact>
</mgrwt>
</event>
<event>
 4    2  0.3747163E-007  0.8750343E+03  0.7818608E-02  0.9567360E-01
         -2   -1    0    0    0  501 -0.00000000000E+00  0.00000000000E+00  0.67382382239E+03  0.67382382239E+03  0.25500000000E-02 0.  1.
          2   -1    0    0  501    0  0.00000000000E+00 -0.00000000000E+00 -0.98491852667E+03  0.98491852667E+03  0.25500000000E-02 0. -1.
    8880023    1    1    2    0    0 -0.24476482979E+03 -0.52150257006E+03  0.17167227582E+03  0.89171538567E+03  0.65864270000E+03 0.  1.
    8880022    1    1    2    0    0  0.24476482979E+03  0.52150257006E+03 -0.48276698010E+03  0.76702696340E+03  0.15294330000E+03 0.  0.
<mgrwt>
<rscale>  0 0.79494679E+03</rscale>
<asrwt>0</asrwt>
<pdfrwt beam="1">  1        2 0.15152593E+00 0.87503426E+03</pdfrwt>
<pdfrwt beam="2">  1       -2 0.10366520E+00 0.87503426E+03</pdfrwt>
<totfact> 0.19607617E+01</totfact>
</mgrwt>
</event>
<event>
 4    2  0.3747163E-007  0.1138122E+04  0.7818608E-02  0.9219753E-01
          2   -1    0    0  501    0  0.00000000000E+00  0.00000000000E+00  0.12601888418E+04  0.12601888418E+04  0.25500000000E-02 0. -1.
         -2   -1    0    0    0  501 -0.00000000000E+00 -0.00000000000E+00 -0.12991590344E+04  0.12991590344E+04  0.25500000000E-02 0.  1.
    8880023    1    1    2    0    0 -0.69804902902E+03  0.61175094491E+03  0.72335816175E+03  0.13485432518E+04  0.65864270000E+03 0.  0.
    8880022    1    1    2    0    0  0.69804902902E+03 -0.61175094491E+03 -0.76232835441E+03  0.12108046244E+04  0.15294330000E+03 0.  0.
<mgrwt>
<rscale>  0 0.10851846E+04</rscale>
<asrwt>0</asrwt>
<pdfrwt beam="1">  1        2 0.19387521E+00 0.11381221E+04</pdfrwt>
<pdfrwt beam="2">  1       -2 0.19987062E+00 0.11381221E+04</pdfrwt>
<totfact> 0.22711910E+00</totfact>
</mgrwt>
</event>
<event>
 4    2  0.3747163E-007  0.9361398E+03  0.7818608E-02  0.9470343E-01
          2   -1    0    0  501    0  0.00000000000E+00  0.00000000000E+00  0.22758495767E+04  0.22758495767E+04  0.25500000000E-02 0. -1.
         -2   -1    0    0    0  501 -0.00000000000E+00 -0.00000000000E+00 -0.32442735597E+03  0.32442735598E+03  0.25500000000E-02 0.  1.
    8880023    1    1    2    0    0  0.59103850841E+03  0.30532127687E+03  0.67945841494E+03  0.11567288120E+04  0.65864270000E+03 0.  0.
    8880022    1    1    2    0    0 -0.59103850841E+03 -0.30532127687E+03  0.12719638057E+04  0.14435481207E+04  0.15294330000E+03 0.  0.
<mgrwt>
<rscale>  0 0.86506095E+03</rscale>
<asrwt>0</asrwt>
<pdfrwt beam="1">  1        2 0.35013071E+00 0.93613984E+03</pdfrwt>
<pdfrwt beam="2">  1       -2 0.49911900E-01 0.93613984E+03</pdfrwt>
<totfact> 0.18045071E+01</totfact>
</mgrwt>
</event>
<event>
 4    2  0.3747163E-007  0.8472059E+03  0.7818608E-02  0.9616740E-01
          2   -1    0    0  501    0  0.00000000000E+00  0.00000000000E+00  0.12740285560E+04  0.12740285560E+04  0.25500000000E-02 0. -1.
         -2   -1    0    0    0  501 -0.00000000000E+00 -0.00000000000E+00 -0.47665529667E+03  0.47665529667E+03  0.25500000000E-02 0.  1.
    8880023    1    1    2    0    0  0.15259459366E+03  0.51055114290E+03  0.84206892433E+03  0.11945031851E+04  0.65864270000E+03 0.  0.
    8880022    1    1    2    0    0 -0.15259459366E+03 -0.51055114290E+03 -0.44695665004E+02  0.55618066761E+03  0.15294330000E+03 0.  0.
<mgrwt>
<rscale>  0 0.76198069E+03</rscale>
<asrwt>0</asrwt>
<pdfrwt beam="1">  1        2 0.19600439E+00 0.84720587E+03</pdfrwt>
<pdfrwt beam="2">  1       -2 0.73331585E-01 0.84720587E+03</pdfrwt>
<totfact> 0.29016893E+01</totfact>
</mgrwt>
</event>
<event>
 4    2  0.3747163E-007  0.1156468E+04  0.7818608E-02  0.9200646E-01
          2   -1    0    0  501    0  0.00000000000E+00  0.00000000000E+00  0.30486758376E+04  0.30486758376E+04  0.25500000000E-02 0. -1.
         -2   -1    0    0    0  501 -0.00000000000E+00 -0.00000000000E+00 -0.39047658336E+03  0.39047658336E+03  0.25500000000E-02 0.  1.
    8880023    1    1    2    0    0 -0.52275012750E+03 -0.79393978935E+03  0.18518209367E+04  0.21832679801E+04  0.65864270000E+03 0. -1.
    8880022    1    1    2    0    0  0.52275012750E+03  0.79393978935E+03  0.80637831760E+03  0.12558844410E+04  0.15294330000E+03 0.  1.
<mgrwt>
<rscale>  0 0.11046766E+04</rscale>
<asrwt>0</asrwt>
<pdfrwt beam="1">  1        2 0.46902706E+00 0.11564680E+04</pdfrwt>
<pdfrwt beam="2">  1       -2 0.60073320E-01 0.11564680E+04</pdfrwt>
<totfact> 0.42024348E+00</totfact>
</mgrwt>
</event>
<event>
 4    2  0.8289039E-007  0.7439156E+03  0.7818608E-02  0.9848684E-01
         -2   -1    0    0    0  501 -0.00000000000E+00  0.00000000000E+00  0.17811856040E+04  0.17811856040E+04  0.25500000000E-02 0.  1.
          2   -1    0    0  501    0  0.00000000000E+00 -0.00000000000E+00 -0.17469926060E+04  0.17469926060E+04  0.25500000000E-02 0. -1.
    8880023    1    1    2    0    0 -0.10814924703E+02 -0.34566355590E+03 -0.16458180636E+04  0.18061360861E+04  0.65864270000E+03 0. -1.
    8880022    1    1    2    0    0  0.10814924703E+02  0.34566355590E+03  0.16800110616E+04  0.17220421239E+04  0.15294330000E+03 0.  0.
<mgrwt>
<rscale>  0 0.62814035E+03</rscale>
<asrwt>0</asrwt>
<pdfrwt beam="1">  1        2 0.26876809E+00 0.74391563E+03</pdfrwt>
<pdfrwt beam="2">  1       -2 0.27402855E+00 0.74391563E+03</pdfrwt>
<totfact> 0.44612912E-01</totfact>
</mgrwt>
</event>
<event>
 4    2  0.3747163E-007  0.7275408E+03  0.7818608E-02  0.9897850E-01
          2   -1    0    0  501    0  0.00000000000E+00  0.00000000000E+00  0.92457022163E+03  0.92457022164E+03  0.25500000000E-02 0. -1.
         -2   -1    0    0    0  501 -0.00000000000E+00 -0.00000000000E+00 -0.36043012953E+03  0.36043012954E+03  0.25500000000E-02 0.  1.
    8880023    1    1    2    0    0 -0.16852204694E+03  0.25904772835E+03  0.59353486508E+03  0.93893516720E+03  0.65864270000E+03 0.  0.
    8880022    1    1    2    0    0  0.16852204694E+03 -0.25904772835E+03 -0.29394772978E+02  0.34606518398E+03  0.15294330000E+03 0.  0.
<mgrwt>
<rscale>  0 0.60365583E+03</rscale>
<asrwt>0</asrwt>
<pdfrwt beam="1">  1        2 0.14224157E+00 0.72754080E+03</pdfrwt>
<pdfrwt beam="2">  1       -2 0.55450790E-01 0.72754080E+03</pdfrwt>
<totfact> 0.87583308E+01</totfact>
</mgrwt>
</event>
<event>
 4    2  0.3747163E-007  0.8391326E+03  0.7818608E-02  0.9631818E-01
          2   -1    0    0  501    0  0.00000000000E+00  0.00000000000E+00  0.81863277259E+03  0.81863277260E+03  0.25500000000E-02 0. -1.
         -2   -1    0    0    0  501 -0.00000000000E+00 -0.00000000000E+00 -0.22509308106E+04  0.22509308106E+04  0.25500000000E-02 0.  1.
    8880023    1    1    2    0    0  0.22019849681E+03 -0.47100532211E+03  0.55738864359E+03  0.10073855755E+04  0.65864270000E+03 0.  0.
    8880022    1    1    2    0    0 -0.22019849681E+03  0.47100532211E+03 -0.19896866816E+04  0.20621780077E+04  0.15294330000E+03 0.  0.
<mgrwt>
<rscale>  0 0.75225587E+03</rscale>
<asrwt>0</asrwt>
<pdfrwt beam="1">  1        2 0.12594350E+00 0.83913265E+03</pdfrwt>
<pdfrwt beam="2">  1       -2 0.34629705E+00 0.83913265E+03</pdfrwt>
<totfact> 0.56929382E-01</totfact>
</mgrwt>
</event>
<event>
 4    2  0.3747163E-007  0.7829971E+03  0.7818608E-02  0.9748843E-01
          2   -1    0    0  501    0  0.00000000000E+00  0.00000000000E+00  0.28476119619E+04  0.28476119619E+04  0.25500000000E-02 0. -1.
         -2   -1    0    0    0  501 -0.00000000000E+00 -0.00000000000E+00 -0.14733540881E+03  0.14733540883E+03  0.25500000000E-02 0.  1.
    8880023    1    1    2    0    0  0.17009678357E+03 -0.38773867200E+03  0.21236473310E+04  0.22633962062E+04  0.65864270000E+03 0.  1.
    8880022    1    1    2    0    0 -0.17009678357E+03  0.38773867200E+03  0.57662922213E+03  0.73155116456E+03  0.15294330000E+03 0.  0.
<mgrwt>
<rscale>  0 0.68181676E+03</rscale>
<asrwt>0</asrwt>
<pdfrwt beam="1">  1        2 0.43809413E+00 0.78299706E+03</pdfrwt>
<pdfrwt beam="2">  1       -2 0.22666987E-01 0.78299706E+03</pdfrwt>
<totfact> 0.38707943E+01</totfact>
</mgrwt>
</event>
<event>
 4    2  0.3747163E-007  0.8005526E+03  0.7818608E-02  0.9709602E-01
          2   -1    0    0  501    0  0.00000000000E+00  0.00000000000E+00  0.22601165414E+04  0.22601165414E+04  0.25500000000E-02 0. -1.
         -2   -1    0    0    0  501 -0.00000000000E+00 -0.00000000000E+00 -0.21316232451E+03  0.21316232453E+03  0.25500000000E-02 0.  1.
    8880023    1    1    2    0    0 -0.44801027812E+03 -0.79756613019E+02  0.17058723112E+04  0.18843791749E+04  0.65864270000E+03 0.  0.
    8880022    1    1    2    0    0  0.44801027812E+03  0.79756613019E+02  0.34108190569E+03  0.58889969097E+03  0.15294330000E+03 0.  0.
<mgrwt>
<rscale>  0 0.70447936E+03</rscale>
<asrwt>0</asrwt>
<pdfrwt beam="1">  1        2 0.34771027E+00 0.80055264E+03</pdfrwt>
<pdfrwt beam="2">  1       -2 0.32794201E-01 0.80055264E+03</pdfrwt>
<totfact> 0.42630680E+01</totfact>
</mgrwt>
</event>
<event>
 4    2  0.3747163E-007  0.8225444E+03  0.7818608E-02  0.9664017E-01
          2   -1    0    0  501    0  0.00000000000E+00  0.00000000000E+00  0.14376461331E+04  0.14376461331E+04  0.25500000000E-02 0. -1.
         -2   -1    0    0    0  501 -0.00000000000E+00 -0.00000000000E+00 -0.74772536344E+03  0.74772536344E+03  0.25500000000E-02 0.  1.
    8880023    1    1    2    0    0 -0.35691929864E+03 -0.33967293909E+03  0.12032892743E+04  0.14575611051E+04  0.65864270000E+03 0. -1.
    8880022    1    1    2    0    0  0.35691929864E+03  0.33967293909E+03 -0.51336850463E+03  0.72781039141E+03  0.15294330000E+03 0.  0.
<mgrwt>
<rscale>  0 0.73200242E+03</rscale>
<asrwt>0</asrwt>
<pdfrwt beam="1">  1        2 0.22117632E+00 0.82254440E+03</pdfrwt>
<pdfrwt beam="2">  1       -2 0.11503467E+00 0.82254440E+03</pdfrwt>
<totfact> 0.82284382E+00</totfact>
</mgrwt>
</event>
<event>
 4    2  0.3747163E-007  0.7098901E+03  0.7818608E-02  0.9958409E-01
          2   -1    0    0  501    0  0.00000000000E+00  0.00000000000E+00  0.22528797796E+04  0.22528797796E+04  0.25500000000E-02 0. -1.
         -2   -1    0    0    0  501 -0.00000000000E+00 -0.00000000000E+00 -0.23333888980E+03  0.23333888982E+03  0.25500000000E-02 0.  1.
    8880023    1    1    2    0    0  0.59839062766E+02  0.25797862027E+03  0.20589290777E+04  0.21778734663E+04  0.65864270000E+03 0. -1.
    8880022    1    1    2    0    0 -0.59839062766E+02 -0.25797862027E+03 -0.39388187871E+02  0.30834520315E+03  0.15294330000E+03 0.  0.
<mgrwt>
<rscale>  0 0.57512133E+03</rscale>
<asrwt>0</asrwt>
<pdfrwt beam="1">  1        2 0.34659691E+00 0.70989005E+03</pdfrwt>
<pdfrwt beam="2">  1       -2 0.35898289E-01 0.70989005E+03</pdfrwt>
<totfact> 0.36670598E+01</totfact>
</mgrwt>
</event>
<event>
 4    2  0.3747163E-007  0.7541623E+03  0.7818608E-02  0.9820462E-01
          2   -1    0    0  501    0  0.00000000000E+00  0.00000000000E+00  0.18908034873E+04  0.18908034873E+04  0.25500000000E-02 0. -1.
         -2   -1    0    0    0  501 -0.00000000000E+00 -0.00000000000E+00 -0.22362680495E+03  0.22362680497E+03  0.25500000000E-02 0.  1.
    8880023    1    1    2    0    0 -0.11237433713E+02  0.36718433631E+03  0.15075866096E+04  0.16856981369E+04  0.65864270000E+03 0.  0.
    8880022    1    1    2    0    0  0.11237433713E+02 -0.36718433631E+03  0.15959007266E+03  0.42873215537E+03  0.15294330000E+03 0.  0.
<mgrwt>
<rscale>  0 0.64275910E+03</rscale>
<asrwt>0</asrwt>
<pdfrwt beam="1">  1        2 0.29089284E+00 0.75416233E+03</pdfrwt>
<pdfrwt beam="2">  1       -2 0.34404124E-01 0.75416233E+03</pdfrwt>
<totfact> 0.62416305E+01</totfact>
</mgrwt>
</event>
<event>
 4    2  0.5192319E-007  0.7326268E+03  0.7818608E-02  0.9881970E-01
         -2   -1    0    0    0  501 -0.00000000000E+00  0.00000000000E+00  0.12577939206E+04  0.12577939206E+04  0.25500000000E-02 0.  1.
          2   -1    0    0  501    0  0.00000000000E+00 -0.00000000000E+00 -0.16224449781E+04  0.16224449781E+04  0.25500000000E-02 0. -1.
    8880023    1    1    2    0    0  0.31634336272E+03  0.53467057669E+02 -0.15114372205E+04  0.16796382132E+04  0.65864270000E+03 0. -1.
    8880022    1    1    2    0    0 -0.31634336272E+03 -0.53467057669E+02  0.11467861630E+04  0.12006006856E+04  0.15294330000E+03 0.  0.
<mgrwt>
<rscale>  0 0.61143125E+03</rscale>
<asrwt>0</asrwt>
<pdfrwt beam="1">  1        2 0.24960692E+00 0.73262682E+03</pdfrwt>
<pdfrwt beam="2">  1       -2 0.19350676E+00 0.73262682E+03</pdfrwt>
<totfact> 0.16501022E+00</totfact>
</mgrwt>
</event>
<event>
 4    2  0.3747163E-007  0.8455287E+03  0.7818608E-02  0.9619842E-01
          2   -1    0    0  501    0  0.00000000000E+00  0.00000000000E+00  0.18094534437E+04  0.18094534437E+04  0.25500000000E-02 0. -1.
         -2   -1    0    0    0  501 -0.00000000000E+00 -0.00000000000E+00 -0.28436535539E+03  0.28436535540E+03  0.25500000000E-02 0.  1.
    8880023    1    1    2    0    0  0.47962574813E+03 -0.22598180934E+03  0.68247364923E+03  0.10865951981E+04  0.65864270000E+03 0.  1.
    8880022    1    1    2    0    0 -0.47962574813E+03  0.22598180934E+03  0.84261443911E+03  0.10072236010E+04  0.15294330000E+03 0.  0.
<mgrwt>
<rscale>  0 0.75996701E+03</rscale>
<asrwt>0</asrwt>
<pdfrwt beam="1">  1        2 0.27837745E+00 0.84552874E+03</pdfrwt>
<pdfrwt beam="2">  1       -2 0.43748516E-01 0.84552874E+03</pdfrwt>
<totfact> 0.42936461E+01</totfact>
</mgrwt>
</event>
<event>
 4    2  0.3747163E-007  0.9145253E+03  0.7818608E-02  0.9503105E-01
         -2   -1    0    0    0  501 -0.00000000000E+00  0.00000000000E+00  0.65390182929E+03  0.65390182930E+03  0.25500000000E-02 0.  1.
          2   -1    0    0  501    0  0.00000000000E+00 -0.00000000000E+00 -0.14937817490E+04  0.14937817490E+04  0.25500000000E-02 0. -1.
    8880023    1    1    2    0    0 -0.51364513658E+03  0.37244473600E+03  0.18461222693E+03  0.93297282292E+03  0.65864270000E+03 0.  0.
    8880022    1    1    2    0    0  0.51364513658E+03 -0.37244473600E+03 -0.10244921467E+04  0.12147107554E+04  0.15294330000E+03 0.  0.
<mgrwt>
<rscale>  0 0.84055303E+03</rscale>
<asrwt>0</asrwt>
<pdfrwt beam="1">  1        2 0.22981258E+00 0.91452535E+03</pdfrwt>
<pdfrwt beam="2">  1       -2 0.10060028E+00 0.91452535E+03</pdfrwt>
<totfact> 0.10465992E+01</totfact>
</mgrwt>
</event>
<event>
 4    2  0.3747163E-007  0.1011796E+04  0.7818608E-02  0.9366285E-01
         -2   -1    0    0    0  501 -0.00000000000E+00  0.00000000000E+00  0.17577507070E+04  0.17577507070E+04  0.25500000000E-02 0.  1.
          2   -1    0    0  501    0  0.00000000000E+00 -0.00000000000E+00 -0.74208099139E+03  0.74208099140E+03  0.25500000000E-02 0. -1.
    8880023    1    1    2    0    0 -0.29001558625E+03  0.71120446818E+03 -0.22137494470E+03  0.10357306157E+04  0.65864270000E+03 0. -1.
    8880022    1    1    2    0    0  0.29001558625E+03 -0.71120446818E+03  0.12370446603E+04  0.14641010827E+04  0.15294330000E+03 0.  0.
<mgrwt>
<rscale>  0 0.94902997E+03</rscale>
<asrwt>0</asrwt>
<pdfrwt beam="1">  1        2 0.11416631E+00 0.10117959E+04</pdfrwt>
<pdfrwt beam="2">  1       -2 0.27042318E+00 0.10117959E+04</pdfrwt>
<totfact> 0.18301793E+00</totfact>
</mgrwt>
</event>
<event>
 4    2  0.3747163E-007  0.7596814E+03  0.7818608E-02  0.9805933E-01
         -2   -1    0    0    0  501 -0.00000000000E+00  0.00000000000E+00  0.22068088103E+03  0.22068088104E+03  0.25500000000E-02 0.  1.
          2   -1    0    0  501    0  0.00000000000E+00 -0.00000000000E+00 -0.38085477061E+04  0.38085477061E+04  0.25500000000E-02 0. -1.
    8880023    1    1    2    0    0  0.18481358524E+03 -0.33037796148E+03 -0.35371444680E+04  0.36178041479E+04  0.65864270000E+03 0. -1.
    8880022    1    1    2    0    0 -0.18481358524E+03  0.33037796148E+03 -0.50722357115E+02  0.41142443929E+03  0.15294330000E+03 0.  0.
<mgrwt>
<rscale>  0 0.65045118E+03</rscale>
<asrwt>0</asrwt>
<pdfrwt beam="1">  1        2 0.58593037E+00 0.75968142E+03</pdfrwt>
<pdfrwt beam="2">  1       -2 0.33950908E-01 0.75968142E+03</pdfrwt>
<totfact> 0.42993207E+00</totfact>
</mgrwt>
</event>
<event>
 4    2  0.3747163E-007  0.6658372E+03  0.7818608E-02  0.1018841E+00
          2   -1    0    0  501    0  0.00000000000E+00  0.00000000000E+00  0.73667130777E+03  0.73667130777E+03  0.25500000000E-02 0. -1.
         -2   -1    0    0    0  501 -0.00000000000E+00 -0.00000000000E+00 -0.31756740662E+03  0.31756740663E+03  0.25500000000E-02 0.  1.
    8880023    1    1    2    0    0 -0.64812344132E+02 -0.72995383242E+02  0.52162966128E+03  0.84583489862E+03  0.65864270000E+03 0. -1.
    8880022    1    1    2    0    0  0.64812344132E+02  0.72995383242E+02 -0.10252576014E+03  0.20840381578E+03  0.15294330000E+03 0.  0.
<mgrwt>
<rscale>  0 0.48107140E+03</rscale>
<asrwt>0</asrwt>
<pdfrwt beam="1">  1        2 0.11333405E+00 0.66583720E+03</pdfrwt>
<pdfrwt beam="2">  1       -2 0.48856524E-01 0.66583720E+03</pdfrwt>
<totfact> 0.15462787E+02</totfact>
</mgrwt>
</event>
<event>
 4    2  0.3747163E-007  0.1382192E+04  0.7818608E-02  0.8997645E-01
         -2   -1    0    0    0  501 -0.00000000000E+00  0.00000000000E+00  0.15359037357E+04  0.15359037357E+04  0.25500000000E-02 0.  1.
          2   -1    0    0  501    0  0.00000000000E+00 -0.00000000000E+00 -0.17063857486E+04  0.17063857486E+04  0.25500000000E-02 0. -1.
    8880023    1    1    2    0    0  0.44851152097E+03 -0.11293717862E+04 -0.10488731854E+04  0.17351047176E+04  0.65864270000E+03 0.  0.
    8880022    1    1    2    0    0 -0.44851152097E+03  0.11293717862E+04  0.87839117251E+03  0.15071847666E+04  0.15294330000E+03 0.  0.
<mgrwt>
<rscale>  0 0.13410311E+04</rscale>
<asrwt>0</asrwt>
<pdfrwt beam="1">  1        2 0.26252088E+00 0.13821915E+04</pdfrwt>
<pdfrwt beam="2">  1       -2 0.23629288E+00 0.13821915E+04</pdfrwt>
<totfact> 0.72225097E-01</totfact>
</mgrwt>
</event>
<event>
 4    2  0.3747163E-007  0.6736013E+03  0.7818608E-02  0.1013203E+00
          2   -1    0    0  501    0  0.00000000000E+00  0.00000000000E+00  0.76974181247E+03  0.76974181247E+03  0.25500000000E-02 0. -1.
         -2   -1    0    0    0  501 -0.00000000000E+00 -0.00000000000E+00 -0.76711805503E+03  0.76711805503E+03  0.25500000000E-02 0.  1.
    8880023    1    1    2    0    0  0.11042915474E+03  0.87942569115E+02  0.60135935538E+03  0.90297938750E+03  0.65864270000E+03 0. -1.
    8880022    1    1    2    0    0 -0.11042915474E+03 -0.87942569115E+02 -0.59873559794E+03  0.63388048001E+03  0.15294330000E+03 0.  0.
<mgrwt>
<rscale>  0 0.50221355E+03</rscale>
<asrwt>0</asrwt>
<pdfrwt beam="1">  1        2 0.11842182E+00 0.67360129E+03</pdfrwt>
<pdfrwt beam="2">  1       -2 0.11801816E+00 0.67360129E+03</pdfrwt>
<totfact> 0.20504481E+01</totfact>
</mgrwt>
</event>
<event>
 4    2  0.3747163E-007  0.1423130E+04  0.7818608E-02  0.8965915E-01
          2   -1    0    0  501    0  0.00000000000E+00  0.00000000000E+00  0.43063631824E+04  0.43063631824E+04  0.25500000000E-02 0. -1.
         -2   -1    0    0    0  501 -0.00000000000E+00 -0.00000000000E+00 -0.98608850542E+03  0.98608850542E+03  0.25500000000E-02 0.  1.
    8880023    1    1    2    0    0  0.43557352702E+03  0.11839615985E+04 -0.30105551924E+03  0.14546250363E+04  0.65864270000E+03 0.  0.
    8880022    1    1    2    0    0 -0.43557352702E+03 -0.11839615985E+04  0.36213301962E+04  0.38378266516E+04  0.15294330000E+03 0.  1.
<mgrwt>
<rscale>  0 0.13834104E+04</rscale>
<asrwt>0</asrwt>
<pdfrwt beam="1">  1        2 0.66251742E+00 0.14231302E+04</pdfrwt>
<pdfrwt beam="2">  1       -2 0.15170592E+00 0.14231302E+04</pdfrwt>
<totfact> 0.53252651E-02</totfact>
</mgrwt>
</event>
<event>
 4    2  0.3747163E-007  0.7687014E+03  0.7818608E-02  0.9783080E-01
          2   -1    0    0  501    0  0.00000000000E+00  0.00000000000E+00  0.23126022660E+04  0.23126022660E+04  0.25500000000E-02 0. -1.
         -2   -1    0    0    0  501 -0.00000000000E+00 -0.00000000000E+00 -0.51618840990E+03  0.51618840991E+03  0.25500000000E-02 0.  1.
    8880023    1    1    2    0    0 -0.95310317593E+02  0.38471762428E+03  0.21454247226E+04  0.22789798493E+04  0.65864270000E+03 0.  0.
    8880022    1    1    2    0    0  0.95310317593E+02 -0.38471762428E+03 -0.34901086650E+03  0.54981082658E+03  0.15294330000E+03 0.  0.
<mgrwt>
<rscale>  0 0.66278538E+03</rscale>
<asrwt>0</asrwt>
<pdfrwt beam="1">  1        2 0.35578497E+00 0.76870145E+03</pdfrwt>
<pdfrwt beam="2">  1       -2 0.79413600E-01 0.76870145E+03</pdfrwt>
<totfact> 0.65230480E+00</totfact>
</mgrwt>
</event>
<event>
 4    2  0.3747163E-007  0.7038520E+03  0.7818608E-02  0.9981582E-01
          2   -1    0    0  501    0  0.00000000000E+00  0.00000000000E+00  0.11675248798E+04  0.11675248798E+04  0.25500000000E-02 0. -1.
         -2   -1    0    0    0  501 -0.00000000000E+00 -0.00000000000E+00 -0.24083332538E+03  0.24083332539E+03  0.25500000000E-02 0.  1.
    8880023    1    1    2    0    0 -0.21022095055E+03  0.13192668288E+03  0.85630587264E+03  0.11084527286E+04  0.65864270000E+03 0. -1.
    8880022    1    1    2    0    0  0.21022095055E+03 -0.13192668288E+03  0.70385681815E+02  0.29990547665E+03  0.15294330000E+03 0.  0.
<mgrwt>
<rscale>  0 0.56465278E+03</rscale>
<asrwt>0</asrwt>
<pdfrwt beam="1">  1        2 0.17961921E+00 0.70385205E+03</pdfrwt>
<pdfrwt beam="2">  1       -2 0.37051281E-01 0.70385205E+03</pdfrwt>
<totfact> 0.13828240E+02</totfact>
</mgrwt>
</event>
<event>
 4    2  0.3747163E-007  0.7349510E+03  0.7818608E-02  0.9874906E-01
         -2   -1    0    0    0  501 -0.00000000000E+00  0.00000000000E+00  0.89327497373E+03  0.89327497373E+03  0.25500000000E-02 0.  1.
          2   -1    0    0  501    0  0.00000000000E+00 -0.00000000000E+00 -0.78472840446E+03  0.78472840446E+03  0.25500000000E-02 0. -1.
    8880023    1    1    2    0    0 -0.28737590378E+03  0.15413591290E+03 -0.55637316349E+03  0.92179395367E+03  0.65864270000E+03 0. -1.
    8880022    1    1    2    0    0  0.28737590378E+03 -0.15413591290E+03  0.66491973275E+03  0.75620942452E+03  0.15294330000E+03 0.  0.
<mgrwt>
<rscale>  0 0.61493004E+03</rscale>
<asrwt>0</asrwt>
<pdfrwt beam="1">  1        2 0.12072745E+00 0.73495102E+03</pdfrwt>
<pdfrwt beam="2">  1       -2 0.13742692E+00 0.73495102E+03</pdfrwt>
<totfact> 0.13542661E+01</totfact>
</mgrwt>
</event>
<event>
 4    2  0.4319378E-007  0.8492449E+03  0.7818608E-02  0.9612989E-01
         -2   -1    0    0    0  501 -0.00000000000E+00  0.00000000000E+00  0.69679375136E+03  0.69679375136E+03  0.25500000000E-02 0.  1.
          2   -1    0    0  501    0  0.00000000000E+00 -0.00000000000E+00 -0.34936553797E+04  0.34936553797E+04  0.25500000000E-02 0. -1.
    8880023    1    1    2    0    0  0.52812697714E+03 -0.92133755790E+02 -0.33194223695E+04  0.34263364993E+04  0.65864270000E+03 0.  0.
    8880022    1    1    2    0    0 -0.52812697714E+03  0.92133755790E+02  0.52256074111E+03  0.76411263182E+03  0.15294330000E+03 0.  0.
<mgrwt>
<rscale>  0 0.76442444E+03</rscale>
<asrwt>0</asrwt>
<pdfrwt beam="1">  1        2 0.53748543E+00 0.84924492E+03</pdfrwt>
<pdfrwt beam="2">  1       -2 0.10719904E+00 0.84924492E+03</pdfrwt>
<totfact> 0.61110093E-01</totfact>
</mgrwt>
</event>
<event>
 4    2  0.3747163E-007  0.7427062E+03  0.7818608E-02  0.9852133E-01
         -2   -1    0    0    0  501 -0.00000000000E+00  0.00000000000E+00  0.81583128208E+03  0.81583128208E+03  0.25500000000E-02 0.  1.
          2   -1    0    0  501    0  0.00000000000E+00 -0.00000000000E+00 -0.10420538183E+04  0.10420538183E+04  0.25500000000E-02 0. -1.
    8880023    1    1    2    0    0 -0.15338813704E+03  0.30704137677E+03 -0.85056369116E+03  0.11291904740E+04  0.65864270000E+03 0. -1.
    8880022    1    1    2    0    0  0.15338813704E+03 -0.30704137677E+03  0.62434115497E+03  0.72869462633E+03  0.15294330000E+03 0.  0.
<mgrwt>
<rscale>  0 0.62638279E+03</rscale>
<asrwt>0</asrwt>
<pdfrwt beam="1">  1        2 0.16031597E+00 0.74270622E+03</pdfrwt>
<pdfrwt beam="2">  1       -2 0.12551250E+00 0.74270622E+03</pdfrwt>
<totfact> 0.11446717E+01</totfact>
</mgrwt>
</event>
<event>
 4    2  0.3747163E-007  0.1075375E+04  0.7818608E-02  0.9288981E-01
         -2   -1    0    0    0  501 -0.00000000000E+00  0.00000000000E+00  0.76599838876E+03  0.76599838876E+03  0.25500000000E-02 0.  1.
          2   -1    0    0  501    0  0.00000000000E+00 -0.00000000000E+00 -0.30914763238E+04  0.30914763238E+04  0.25500000000E-02 0. -1.
    8880023    1    1    2    0    0 -0.82309874652E+03  0.21243914071E+03 -0.27073483231E+04  0.29131026559E+04  0.65864270000E+03 0. -1.
    8880022    1    1    2    0    0  0.82309874652E+03 -0.21243914071E+03  0.38187038809E+03  0.94437205662E+03  0.15294330000E+03 0.  0.
<mgrwt>
<rscale>  0 0.10180366E+04</rscale>
<asrwt>0</asrwt>
<pdfrwt beam="1">  1        2 0.47561174E+00 0.10753753E+04</pdfrwt>
<pdfrwt beam="2">  1       -2 0.11784591E+00 0.10753753E+04</pdfrwt>
<totfact> 0.85312571E-01</totfact>
</mgrwt>
</event>
<event>
 4    2  0.3747163E-007  0.6873633E+03  0.7818608E-02  0.1005432E+00
          2   -1    0    0  501    0  0.00000000000E+00  0.00000000000E+00  0.44702559936E+04  0.44702559936E+04  0.25500000000E-02 0. -1.
         -2   -1    0    0    0  501 -0.00000000000E+00 -0.00000000000E+00 -0.34055134547E+03  0.34055134548E+03  0.25500000000E-02 0.  1.
    8880023    1    1    2    0    0  0.19629598532E+03 -0.11222214252E+02  0.43941087598E+04  0.44475453962E+04  0.65864270000E+03 0. -1.
    8880022    1    1    2    0    0 -0.19629598532E+03  0.11222214252E+02 -0.26440411161E+03  0.36326194295E+03  0.15294330000E+03 0.  0.
<mgrwt>
<rscale>  0 0.53331304E+03</rscale>
<asrwt>0</asrwt>
<pdfrwt beam="1">  1        2 0.68773175E+00 0.68736327E+03</pdfrwt>
<pdfrwt beam="2">  1       -2 0.52392510E-01 0.68736327E+03</pdfrwt>
<totfact> 0.52528940E-01</totfact>
</mgrwt>
</event>
<event>
 4    2  0.3747163E-007  0.9686991E+03  0.7818608E-02  0.9423706E-01
         -2   -1    0    0    0  501 -0.00000000000E+00  0.00000000000E+00  0.66114634551E+03  0.66114634551E+03  0.25500000000E-02 0.  1.
          2   -1    0    0  501    0  0.00000000000E+00 -0.00000000000E+00 -0.29342336021E+04  0.29342336021E+04  0.25500000000E-02 0. -1.
    8880023    1    1    2    0    0  0.70624973324E+03  0.76020626068E+02 -0.26177031951E+04  0.27911911517E+04  0.65864270000E+03 0.  0.
    8880022    1    1    2    0    0 -0.70624973324E+03 -0.76020626068E+02  0.34461593857E+03  0.80418879588E+03  0.15294330000E+03 0.  0.
<mgrwt>
<rscale>  0 0.90150214E+03</rscale>
<asrwt>0</asrwt>
<pdfrwt beam="1">  1        2 0.45142055E+00 0.96869914E+03</pdfrwt>
<pdfrwt beam="2">  1       -2 0.10171482E+00 0.96869914E+03</pdfrwt>
<totfact> 0.15527248E+00</totfact>
</mgrwt>
</event>
<event>
 4    2  0.3747163E-007  0.6634505E+03  0.7818608E-02  0.1020870E+00
         -2   -1    0    0    0  501 -0.00000000000E+00  0.00000000000E+00  0.32621516384E+03  0.32621516385E+03  0.25500000000E-02 0.  1.
          2   -1    0    0  501    0  0.00000000000E+00 -0.00000000000E+00 -0.99005826771E+03  0.99005826772E+03  0.25500000000E-02 0. -1.
    8880023    1    1    2    0    0 -0.79727179751E+02  0.21638449896E-02 -0.83955556740E+03  0.10700561575E+04  0.65864270000E+03 0. -1.
    8880022    1    1    2    0    0  0.79727179751E+02 -0.21638449896E-02  0.17571246352E+03  0.24621727406E+03  0.15294330000E+03 0.  0.
<mgrwt>
<rscale>  0 0.47373861E+03</rscale>
<asrwt>0</asrwt>
<pdfrwt beam="1">  1        2 0.15231666E+00 0.66345055E+03</pdfrwt>
<pdfrwt beam="2">  1       -2 0.50186949E-01 0.66345055E+03</pdfrwt>
<totfact> 0.97964646E+01</totfact>
</mgrwt>
</event>
<event>
 4    2  0.3747163E-007  0.7148352E+03  0.7818608E-02  0.9940466E-01
          2   -1    0    0  501    0  0.00000000000E+00  0.00000000000E+00  0.14887750230E+04  0.14887750230E+04  0.25500000000E-02 0. -1.
         -2   -1    0    0    0  501 -0.00000000000E+00 -0.00000000000E+00 -0.20583779033E+03  0.20583779035E+03  0.25500000000E-02 0.  1.
    8880023    1    1    2    0    0  0.24959037291E+03  0.12199946143E+03  0.11426786358E+04  0.13478515845E+04  0.65864270000E+03 0. -1.
    8880022    1    1    2    0    0 -0.24959037291E+03 -0.12199946143E+03  0.14025859690E+03  0.34676122889E+03  0.15294330000E+03 0.  1.
<mgrwt>
<rscale>  0 0.58339607E+03</rscale>
<asrwt>0</asrwt>
<pdfrwt beam="1">  1        2 0.22904231E+00 0.71483525E+03</pdfrwt>
<pdfrwt beam="2">  1       -2 0.31667353E-01 0.71483525E+03</pdfrwt>
<totfact> 0.12172557E+02</totfact>
</mgrwt>
</event>
<event>
 4    2  0.3747163E-007  0.7368910E+03  0.7818608E-02  0.9869098E-01
         -2   -1    0    0    0  501 -0.00000000000E+00  0.00000000000E+00  0.14806266593E+04  0.14806266593E+04  0.25500000000E-02 0.  1.
          2   -1    0    0  501    0  0.00000000000E+00 -0.00000000000E+00 -0.26030762505E+03  0.26030762507E+03  0.25500000000E-02 0. -1.
    8880023    1    1    2    0    0  0.18547793001E+03 -0.27348874598E+03  0.38877476441E+03  0.83315915671E+03  0.65864270000E+03 0.  0.
    8880022    1    1    2    0    0 -0.18547793001E+03  0.27348874598E+03  0.83154426981E+03  0.90777512764E+03  0.15294330000E+03 0.  0.
<mgrwt>
<rscale>  0 0.61782605E+03</rscale>
<asrwt>0</asrwt>
<pdfrwt beam="1">  1        2 0.40047328E-01 0.73689101E+03</pdfrwt>
<pdfrwt beam="2">  1       -2 0.22778871E+00 0.73689101E+03</pdfrwt>
<totfact> 0.11618797E+01</totfact>
</mgrwt>
</event>
<event>
 4    2  0.3747163E-007  0.7517147E+03  0.7818608E-02  0.9827050E-01
         -2   -1    0    0    0  501 -0.00000000000E+00  0.00000000000E+00  0.13529320993E+04  0.13529320993E+04  0.25500000000E-02 0.  1.
          2   -1    0    0  501    0  0.00000000000E+00 -0.00000000000E+00 -0.85810812455E+03  0.85810812455E+03  0.25500000000E-02 0. -1.
    8880023    1    1    2    0    0  0.23317687942E+02 -0.36155367460E+03 -0.65423756516E+03  0.99654491726E+03  0.65864270000E+03 0. -1.
    8880022    1    1    2    0    0 -0.23317687942E+02  0.36155367460E+03  0.11490615399E+04  0.12144953066E+04  0.15294330000E+03 0.  0.
<mgrwt>
<rscale>  0 0.63930894E+03</rscale>
<asrwt>0</asrwt>
<pdfrwt beam="1">  1        2 0.13201663E+00 0.75171469E+03</pdfrwt>
<pdfrwt beam="2">  1       -2 0.20814340E+00 0.75171469E+03</pdfrwt>
<totfact> 0.37746551E+00</totfact>
</mgrwt>
</event>
<event>
 4    2  0.3747163E-007  0.8104923E+03  0.7818608E-02  0.9688552E-01
         -2   -1    0    0    0  501 -0.00000000000E+00  0.00000000000E+00  0.10471752058E+04  0.10471752058E+04  0.25500000000E-02 0.  1.
          2   -1    0    0  501    0  0.00000000000E+00 -0.00000000000E+00 -0.11468441408E+04  0.11468441408E+04  0.25500000000E-02 0. -1.
    8880023    1    1    2    0    0 -0.35496489780E+03 -0.31158865345E+03 -0.92563788434E+03  0.12303264879E+04  0.65864270000E+03 0. -1.
    8880022    1    1    2    0    0  0.35496489780E+03  0.31158865345E+03  0.82596894936E+03  0.96369285872E+03  0.15294330000E+03 0.  0.
<mgrwt>
<rscale>  0 0.71702485E+03</rscale>
<asrwt>0</asrwt>
<pdfrwt beam="1">  1        2 0.17643756E+00 0.81049230E+03</pdfrwt>
<pdfrwt beam="2">  1       -2 0.16110388E+00 0.81049230E+03</pdfrwt>
<totfact> 0.51073461E+00</totfact>
</mgrwt>
</event>
<event>
 4    2  0.3747163E-007  0.1098878E+04  0.7818608E-02  0.9262306E-01
         -2   -1    0    0    0  501 -0.00000000000E+00  0.00000000000E+00  0.10777644843E+04  0.10777644843E+04  0.25500000000E-02 0.  1.
          2   -1    0    0  501    0  0.00000000000E+00 -0.00000000000E+00 -0.11372855539E+04  0.11372855539E+04  0.25500000000E-02 0. -1.
    8880023    1    1    2    0    0 -0.87325346090E+03  0.10560080426E+03 -0.51408006195E+03  0.12131824484E+04  0.65864270000E+03 0. -1.
    8880022    1    1    2    0    0  0.87325346090E+03 -0.10560080426E+03  0.45455899240E+03  0.10018675898E+04  0.15294330000E+03 0.  0.
<mgrwt>
<rscale>  0 0.10432834E+04</rscale>
<asrwt>0</asrwt>
<pdfrwt beam="1">  1        2 0.17496701E+00 0.10988782E+04</pdfrwt>
<pdfrwt beam="2">  1       -2 0.16580992E+00 0.10988782E+04</pdfrwt>
<totfact> 0.46328419E+00</totfact>
</mgrwt>
</event>
<event>
 4    2  0.3747163E-007  0.7580930E+03  0.7818608E-02  0.9810070E-01
          2   -1    0    0  501    0  0.00000000000E+00  0.00000000000E+00  0.29875072552E+04  0.29875072552E+04  0.25500000000E-02 0. -1.
         -2   -1    0    0    0  501 -0.00000000000E+00 -0.00000000000E+00 -0.12482025710E+03  0.12482025712E+03  0.25500000000E-02 0.  1.
    8880023    1    1    2    0    0 -0.35519101138E+03  0.12138422767E+03  0.22784539648E+04  0.24012616395E+04  0.65864270000E+03 0.  1.
    8880022    1    1    2    0    0  0.35519101138E+03 -0.12138422767E+03  0.58423303329E+03  0.71106587283E+03  0.15294330000E+03 0.  0.
<mgrwt>
<rscale>  0 0.64824933E+03</rscale>
<asrwt>0</asrwt>
<pdfrwt beam="1">  1        2 0.45961647E+00 0.75809300E+03</pdfrwt>
<pdfrwt beam="2">  1       -2 0.19203118E-01 0.75809300E+03</pdfrwt>
<totfact> 0.42831342E+01</totfact>
</mgrwt>
</event>
<event>
 4    2  0.3747163E-007  0.8185239E+03  0.7818608E-02  0.9672088E-01
         -2   -1    0    0    0  501 -0.00000000000E+00  0.00000000000E+00  0.70601295542E+03  0.70601295542E+03  0.25500000000E-02 0.  1.
          2   -1    0    0  501    0  0.00000000000E+00 -0.00000000000E+00 -0.93506165238E+03  0.93506165238E+03  0.25500000000E-02 0. -1.
    8880023    1    1    2    0    0  0.16190425826E+03  0.45821194328E+03 -0.59658624698E+03  0.10128655045E+04  0.65864270000E+03 0.  0.
    8880022    1    1    2    0    0 -0.16190425826E+03 -0.45821194328E+03  0.36753755002E+03  0.62820910332E+03  0.15294330000E+03 0.  0.
<mgrwt>
<rscale>  0 0.72703252E+03</rscale>
<asrwt>0</asrwt>
<pdfrwt beam="1">  1        2 0.14385564E+00 0.81852390E+03</pdfrwt>
<pdfrwt beam="2">  1       -2 0.10861738E+00 0.81852390E+03</pdfrwt>
<totfact> 0.18986210E+01</totfact>
</mgrwt>
</event>
<event>
 4    2  0.3747163E-007  0.8353471E+03  0.7818608E-02  0.9639017E-01
          2   -1    0    0  501    0  0.00000000000E+00  0.00000000000E+00  0.33018282107E+04  0.33018282107E+04  0.25500000000E-02 0. -1.
         -2   -1    0    0    0  501 -0.00000000000E+00 -0.00000000000E+00 -0.21342273734E+03  0.21342273735E+03  0.25500000000E-02 0.  1.
    8880023    1    1    2    0    0  0.23174746223E+03 -0.45857142610E+03  0.27666744308E+04  0.28900332613E+04  0.65864270000E+03 0. -1.
    8880022    1    1    2    0    0 -0.23174746223E+03  0.45857142610E+03  0.32173104258E+03  0.62521768678E+03  0.15294330000E+03 0.  0.
<mgrwt>
<rscale>  0 0.74766749E+03</rscale>
<asrwt>0</asrwt>
<pdfrwt beam="1">  1        2 0.50797356E+00 0.83534714E+03</pdfrwt>
<pdfrwt beam="2">  1       -2 0.32834268E-01 0.83534714E+03</pdfrwt>
<totfact> 0.10153698E+01</totfact>
</mgrwt>
</event>
<event>
 4    2  0.3747163E-007  0.7025268E+03  0.7818608E-02  0.9986876E-01
         -2   -1    0    0    0  501 -0.00000000000E+00  0.00000000000E+00  0.12592957286E+03  0.12592957289E+03  0.25500000000E-02 0.  1.
          2   -1    0    0  501    0  0.00000000000E+00 -0.00000000000E+00 -0.37991325853E+04  0.37991325853E+04  0.25500000000E-02 0. -1.
    8880023    1    1    2    0    0 -0.23288044668E+03  0.74164925421E+02 -0.35371814852E+04  0.36062718705E+04  0.65864270000E+03 0. -1.
    8880022    1    1    2    0    0  0.23288044668E+03 -0.74164925421E+02 -0.13602152719E+03  0.31879028762E+03  0.15294330000E+03 0.  0.
<mgrwt>
<rscale>  0 0.56229458E+03</rscale>
<asrwt>0</asrwt>
<pdfrwt beam="1">  1        2 0.58448185E+00 0.70252683E+03</pdfrwt>
<pdfrwt beam="2">  1       -2 0.19373783E-01 0.70252683E+03</pdfrwt>
<totfact> 0.12227310E+01</totfact>
</mgrwt>
</event>
<event>
 4    2  0.3747163E-007  0.8440246E+03  0.7818608E-02  0.9622638E-01
         -2   -1    0    0    0  501 -0.00000000000E+00  0.00000000000E+00  0.53464023658E+03  0.53464023659E+03  0.25500000000E-02 0.  1.
          2   -1    0    0  501    0  0.00000000000E+00 -0.00000000000E+00 -0.28442346556E+04  0.28442346556E+04  0.25500000000E-02 0. -1.
    8880023    1    1    2    0    0 -0.45720199333E+03 -0.26369248942E+03 -0.26166436961E+04  0.27494002674E+04  0.65864270000E+03 0. -1.
    8880022    1    1    2    0    0  0.45720199333E+03  0.26369248942E+03  0.30704927710E+03  0.62947462479E+03  0.15294330000E+03 0.  0.
<mgrwt>
<rscale>  0 0.75815822E+03</rscale>
<asrwt>0</asrwt>
<pdfrwt beam="1">  1        2 0.43757455E+00 0.84402464E+03</pdfrwt>
<pdfrwt beam="2">  1       -2 0.82252346E-01 0.84402464E+03</pdfrwt>
<totfact> 0.29434604E+00</totfact>
</mgrwt>
</event>
<event>
 4    2  0.3747163E-007  0.1333879E+04  0.7818608E-02  0.9036842E-01
          2   -1    0    0  501    0  0.00000000000E+00  0.00000000000E+00  0.18285540828E+04  0.18285540828E+04  0.25500000000E-02 0. -1.
         -2   -1    0    0    0  501 -0.00000000000E+00 -0.00000000000E+00 -0.10149605842E+04  0.10149605842E+04  0.25500000000E-02 0.  1.
    8880023    1    1    2    0    0  0.13824793512E+03  0.11516551151E+04  0.98892976361E+03  0.16604861575E+04  0.65864270000E+03 0. -1.
    8880022    1    1    2    0    0 -0.13824793512E+03 -0.11516551151E+04 -0.17533626499E+03  0.11830285096E+04  0.15294330000E+03 0.  0.
<mgrwt>
<rscale>  0 0.12908634E+04</rscale>
<asrwt>0</asrwt>
<pdfrwt beam="1">  1        2 0.28131601E+00 0.13338786E+04</pdfrwt>
<pdfrwt beam="2">  1       -2 0.15614778E+00 0.13338786E+04</pdfrwt>
<totfact> 0.21467054E+00</totfact>
</mgrwt>
</event>
<event>
 4    2  0.3747163E-007  0.6983606E+03  0.7818608E-02  0.1000407E+00
          2   -1    0    0  501    0  0.00000000000E+00  0.00000000000E+00  0.30102854984E+03  0.30102854985E+03  0.25500000000E-02 0. -1.
         -2   -1    0    0    0  501 -0.00000000000E+00 -0.00000000000E+00 -0.79173349845E+03  0.79173349845E+03  0.25500000000E-02 0.  1.
    8880023    1    1    2    0    0 -0.12283611519E+03  0.19699894074E+03 -0.34777642117E+03  0.78016404636E+03  0.65864270000E+03 0.  0.
    8880022    1    1    2    0    0  0.12283611519E+03 -0.19699894074E+03 -0.14292852744E+03  0.31259800194E+03  0.15294330000E+03 0.  1.
<mgrwt>
<rscale>  0 0.55472081E+03</rscale>
<asrwt>0</asrwt>
<pdfrwt beam="1">  1        2 0.46312085E-01 0.69836058E+03</pdfrwt>
<pdfrwt beam="2">  1       -2 0.12180515E+00 0.69836058E+03</pdfrwt>
<totfact> 0.56703679E+01</totfact>
</mgrwt>
</event>
<event>
 4    2  0.3747163E-007  0.7836146E+03  0.7818608E-02  0.9747414E-01
          2   -1    0    0  501    0  0.00000000000E+00  0.00000000000E+00  0.19867120027E+04  0.19867120027E+04  0.25500000000E-02 0. -1.
         -2   -1    0    0    0  501 -0.00000000000E+00 -0.00000000000E+00 -0.21942259019E+03  0.21942259021E+03  0.25500000000E-02 0.  1.
    8880023    1    1    2    0    0 -0.39756208143E+03  0.14894988661E+03  0.14697965193E+04  0.16656391241E+04  0.65864270000E+03 0. -1.
    8880022    1    1    2    0    0  0.39756208143E+03 -0.14894988661E+03  0.29749289330E+03  0.54049546889E+03  0.15294330000E+03 0.  0.
<mgrwt>
<rscale>  0 0.68262629E+03</rscale>
<asrwt>0</asrwt>
<pdfrwt beam="1">  1        2 0.30564799E+00 0.78361463E+03</pdfrwt>
<pdfrwt beam="2">  1       -2 0.33757323E-01 0.78361463E+03</pdfrwt>
<totfact> 0.57171494E+01</totfact>
</mgrwt>
</event>
<event>
 4    2  0.3747163E-007  0.7189304E+03  0.7818608E-02  0.9926222E-01
         -2   -1    0    0    0  501 -0.00000000000E+00  0.00000000000E+00  0.11261706381E+04  0.11261706381E+04  0.25500000000E-02 0.  1.
          2   -1    0    0  501    0  0.00000000000E+00 -0.00000000000E+00 -0.35290693495E+03  0.35290693496E+03  0.25500000000E-02 0. -1.
    8880023    1    1    2    0    0 -0.39068111504E+02  0.28552489526E+03  0.93384581341E+02  0.72497011624E+03  0.65864270000E+03 0.  0.
    8880022    1    1    2    0    0  0.39068111504E+02 -0.28552489526E+03  0.67987912178E+03  0.75410745679E+03  0.15294330000E+03 0.  0.
<mgrwt>
<rscale>  0 0.59007132E+03</rscale>
<asrwt>0</asrwt>
<pdfrwt beam="1">  1        2 0.54293375E-01 0.71893045E+03</pdfrwt>
<pdfrwt beam="2">  1       -2 0.17325702E+00 0.71893045E+03</pdfrwt>
<totfact> 0.18823456E+01</totfact>
</mgrwt>
</event>
<event>
 4    2  0.3747163E-007  0.7563193E+03  0.7818608E-02  0.9814731E-01
         -2   -1    0    0    0  501 -0.00000000000E+00  0.00000000000E+00  0.56613474603E+03  0.56613474604E+03  0.25500000000E-02 0.  1.
          2   -1    0    0  501    0  0.00000000000E+00 -0.00000000000E+00 -0.16850450220E+04  0.16850450220E+04  0.25500000000E-02 0. -1.
    8880023    1    1    2    0    0  0.25285764505E+03  0.27252845255E+03 -0.15109479296E+04  0.16896693755E+04  0.65864270000E+03 0. -1.
    8880022    1    1    2    0    0 -0.25285764505E+03 -0.27252845255E+03  0.39203765364E+03  0.56151039259E+03  0.15294330000E+03 0.  0.
<mgrwt>
<rscale>  0 0.64577943E+03</rscale>
<asrwt>0</asrwt>
<pdfrwt beam="1">  1        2 0.25923769E+00 0.75631935E+03</pdfrwt>
<pdfrwt beam="2">  1       -2 0.87097654E-01 0.75631935E+03</pdfrwt>
<totfact> 0.11702839E+01</totfact>
</mgrwt>
</event>
<event>
 4    2  0.3747163E-007  0.6995954E+03  0.7818608E-02  0.9998884E-01
         -2   -1    0    0    0  501 -0.00000000000E+00  0.00000000000E+00  0.26678687255E+03  0.26678687256E+03  0.25500000000E-02 0.  1.
          2   -1    0    0  501    0  0.00000000000E+00 -0.00000000000E+00 -0.27750321317E+04  0.27750321318E+04  0.25500000000E-02 0. -1.
    8880023    1    1    2    0    0  0.22694231330E+03 -0.64192828159E+02 -0.26401821462E+04  0.27312992337E+04  0.65864270000E+03 0. -1.
    8880022    1    1    2    0    0 -0.22694231330E+03  0.64192828159E+02  0.13193688701E+03  0.31051977058E+03  0.15294330000E+03 0.  0.
<mgrwt>
<rscale>  0 0.55699210E+03</rscale>
<asrwt>0</asrwt>
<pdfrwt beam="1">  1        2 0.42692800E+00 0.69959541E+03</pdfrwt>
<pdfrwt beam="2">  1       -2 0.41044136E-01 0.69959541E+03</pdfrwt>
<totfact> 0.14322230E+01</totfact>
</mgrwt>
</event>
<event>
 4    2  0.3747163E-007  0.6679482E+03  0.7818608E-02  0.1017178E+00
          2   -1    0    0  501    0  0.00000000000E+00  0.00000000000E+00  0.38086822125E+04  0.38086822125E+04  0.25500000000E-02 0. -1.
         -2   -1    0    0    0  501 -0.00000000000E+00 -0.00000000000E+00 -0.11481452755E+03  0.11481452758E+03  0.25500000000E-02 0.  1.
    8880023    1    1    2    0    0 -0.10344613979E+03 -0.40540168540E+02  0.36730774292E+04  0.37333165706E+04  0.65864270000E+03 0. -1.
    8880022    1    1    2    0    0  0.10344613979E+03  0.40540168540E+02  0.20790255713E+02  0.19018016945E+03  0.15294330000E+03 0.  0.
<mgrwt>
<rscale>  0 0.48718705E+03</rscale>
<asrwt>0</asrwt>
<pdfrwt beam="1">  1        2 0.58595115E+00 0.66794821E+03</pdfrwt>
<pdfrwt beam="2">  1       -2 0.17663772E-01 0.66794821E+03</pdfrwt>
<totfact> 0.14220308E+01</totfact>
</mgrwt>
</event>
<event>
 4    2  0.4541039E-007  0.7893347E+03  0.7818608E-02  0.9734350E-01
         -2   -1    0    0    0  501 -0.00000000000E+00  0.00000000000E+00  0.29685124698E+04  0.29685124698E+04  0.25500000000E-02 0.  1.
          2   -1    0    0  501    0  0.00000000000E+00 -0.00000000000E+00 -0.10929770382E+04  0.10929770382E+04  0.25500000000E-02 0. -1.
    8880023    1    1    2    0    0  0.32351026083E+03  0.29082671629E+03 -0.92914036694E+03  0.12191599959E+04  0.65864270000E+03 0. -1.
    8880022    1    1    2    0    0 -0.32351026083E+03 -0.29082671629E+03  0.28046757985E+04  0.28423295121E+04  0.15294330000E+03 0.  0.
<mgrwt>
<rscale>  0 0.69007954E+03</rscale>
<asrwt>0</asrwt>
<pdfrwt beam="1">  1        2 0.16815031E+00 0.78933470E+03</pdfrwt>
<pdfrwt beam="2">  1       -2 0.45669422E+00 0.78933470E+03</pdfrwt>
<totfact> 0.73298712E-02</totfact>
</mgrwt>
</event>
<event>
 4    2  0.3747163E-007  0.1492920E+04  0.7818608E-02  0.8914651E-01
         -2   -1    0    0    0  501 -0.00000000000E+00  0.00000000000E+00  0.12789359439E+04  0.12789359439E+04  0.25500000000E-02 0.  1.
          2   -1    0    0  501    0  0.00000000000E+00 -0.00000000000E+00 -0.22574847506E+04  0.22574847506E+04  0.25500000000E-02 0. -1.
    8880023    1    1    2    0    0 -0.11331387721E+04 -0.71484117252E+03  0.46242386907E+03  0.15628971238E+04  0.65864270000E+03 0.  0.
    8880022    1    1    2    0    0  0.11331387721E+04  0.71484117252E+03 -0.14409726758E+04  0.19735235707E+04  0.15294330000E+03 0.  0.
<mgrwt>
<rscale>  0 0.14554205E+04</rscale>
<asrwt>0</asrwt>
<pdfrwt beam="1">  1        2 0.34730535E+00 0.14929205E+04</pdfrwt>
<pdfrwt beam="2">  1       -2 0.19675938E+00 0.14929205E+04</pdfrwt>
<totfact> 0.62942695E-01</totfact>
</mgrwt>
</event>
<event>
 4    2  0.3747163E-007  0.7028365E+03  0.7818608E-02  0.9985632E-01
         -2   -1    0    0    0  501 -0.00000000000E+00  0.00000000000E+00  0.15125840408E+04  0.15125840408E+04  0.25500000000E-02 0.  1.
          2   -1    0    0  501    0  0.00000000000E+00 -0.00000000000E+00 -0.44593399389E+03  0.44593399389E+03  0.25500000000E-02 0. -1.
    8880023    1    1    2    0    0 -0.79481252033E+02  0.23205973906E+03 -0.14092560888E+03  0.71682579852E+03  0.65864270000E+03 0. -1.
    8880022    1    1    2    0    0  0.79481252033E+02 -0.23205973906E+03  0.12075756558E+04  0.12416922362E+04  0.15294330000E+03 0.  0.
<mgrwt>
<rscale>  0 0.56284780E+03</rscale>
<asrwt>0</asrwt>
<pdfrwt beam="1">  1        2 0.68605229E-01 0.70283654E+03</pdfrwt>
<pdfrwt beam="2">  1       -2 0.23270524E+00 0.70283654E+03</pdfrwt>
<totfact> 0.59581260E+00</totfact>
</mgrwt>
</event>
<event>
 4    2  0.3747163E-007  0.6695258E+03  0.7818608E-02  0.1016005E+00
         -2   -1    0    0    0  501 -0.00000000000E+00  0.00000000000E+00  0.41184238366E+03  0.41184238367E+03  0.25500000000E-02 0.  1.
          2   -1    0    0  501    0  0.00000000000E+00 -0.00000000000E+00 -0.77420101484E+03  0.77420101484E+03  0.25500000000E-02 0. -1.
    8880023    1    1    2    0    0 -0.11927999908E+03  0.15061816585E+02 -0.58591185833E+03  0.88969516605E+03  0.65864270000E+03 0. -1.
    8880022    1    1    2    0    0  0.11927999908E+03 -0.15061816585E+02  0.22355322715E+03  0.29634823246E+03  0.15294330000E+03 0.  0.
<mgrwt>
<rscale>  0 0.49156201E+03</rscale>
<asrwt>0</asrwt>
<pdfrwt beam="1">  1        2 0.11910785E+00 0.66952579E+03</pdfrwt>
<pdfrwt beam="2">  1       -2 0.63360367E-01 0.66952579E+03</pdfrwt>
<totfact> 0.84501364E+01</totfact>
</mgrwt>
</event>
<event>
 4    2  0.3747163E-007  0.7003543E+03  0.7818608E-02  0.9995734E-01
          2   -1    0    0  501    0  0.00000000000E+00  0.00000000000E+00  0.37307886571E+04  0.37307886571E+04  0.25500000000E-02 0. -1.
         -2   -1    0    0    0  501 -0.00000000000E+00 -0.00000000000E+00 -0.23010189250E+03  0.23010189252E+03  0.25500000000E-02 0.  1.
    8880023    1    1    2    0    0  0.59349844383E+01 -0.23801423005E+03  0.35950183267E+04  0.36626019404E+04  0.65864270000E+03 0. -1.
    8880022    1    1    2    0    0 -0.59349844383E+01  0.23801423005E+03 -0.94331562175E+02  0.29828860921E+03  0.15294330000E+03 0.  0.
<mgrwt>
<rscale>  0 0.55837670E+03</rscale>
<asrwt>0</asrwt>
<pdfrwt beam="1">  1        2 0.57396749E+00 0.70035434E+03</pdfrwt>
<pdfrwt beam="2">  1       -2 0.35400291E-01 0.70035434E+03</pdfrwt>
<totfact> 0.45880005E+00</totfact>
</mgrwt>
</event>
<event>
 4    2  0.3747163E-007  0.1072787E+04  0.7818608E-02  0.9291977E-01
         -2   -1    0    0    0  501 -0.00000000000E+00  0.00000000000E+00  0.48465691640E+03  0.48465691641E+03  0.25500000000E-02 0.  1.
          2   -1    0    0  501    0  0.00000000000E+00 -0.00000000000E+00 -0.23696042902E+04  0.23696042902E+04  0.25500000000E-02 0. -1.
    8880023    1    1    2    0    0  0.56159567672E+03  0.63377578198E+03 -0.16397674068E+04  0.19595174918E+04  0.65864270000E+03 0. -1.
    8880022    1    1    2    0    0 -0.56159567672E+03 -0.63377578198E+03 -0.24517996694E+03  0.89474371478E+03  0.15294330000E+03 0.  0.
<mgrwt>
<rscale>  0 0.10152483E+04</rscale>
<asrwt>0</asrwt>
<pdfrwt beam="1">  1        2 0.36455450E+00 0.10727869E+04</pdfrwt>
<pdfrwt beam="2">  1       -2 0.74562604E-01 0.10727869E+04</pdfrwt>
<totfact> 0.66904833E+00</totfact>
</mgrwt>
</event>
<event>
 4    2  0.3747163E-007  0.8626835E+03  0.7818608E-02  0.9588808E-01
         -2   -1    0    0    0  501 -0.00000000000E+00  0.00000000000E+00  0.40196603392E+03  0.40196603393E+03  0.25500000000E-02 0.  1.
          2   -1    0    0  501    0  0.00000000000E+00 -0.00000000000E+00 -0.29719296415E+04  0.29719296415E+04  0.25500000000E-02 0. -1.
    8880023    1    1    2    0    0 -0.53410738281E+03 -0.15856188870E+03 -0.26534245710E+04  0.27901406289E+04  0.65864270000E+03 0.  0.
    8880022    1    1    2    0    0  0.53410738281E+03  0.15856188870E+03  0.83460963400E+02  0.58375504653E+03  0.15294330000E+03 0.  0.
<mgrwt>
<rscale>  0 0.78041406E+03</rscale>
<asrwt>0</asrwt>
<pdfrwt beam="1">  1        2 0.45721993E+00 0.86268347E+03</pdfrwt>
<pdfrwt beam="2">  1       -2 0.61840930E-01 0.86268347E+03</pdfrwt>
<totfact> 0.45964487E+00</totfact>
</mgrwt>
</event>
<event>
 4    2  0.3747163E-007  0.7693461E+03  0.7818608E-02  0.9781486E-01
         -2   -1    0    0    0  501 -0.00000000000E+00  0.00000000000E+00  0.54847087700E+03  0.54847087700E+03  0.25500000000E-02 0.  1.
          2   -1    0    0  501    0  0.00000000000E+00 -0.00000000000E+00 -0.66728750778E+03  0.66728750779E+03  0.25500000000E-02 0. -1.
    8880023    1    1    2    0    0 -0.41850454692E+02 -0.39538809202E+03 -0.16632218839E+03  0.78711910184E+03  0.65864270000E+03 0.  1.
    8880022    1    1    2    0    0  0.41850454692E+02  0.39538809202E+03  0.47505557611E+02  0.42863928295E+03  0.15294330000E+03 0.  0.
<mgrwt>
<rscale>  0 0.66365653E+03</rscale>
<asrwt>0</asrwt>
<pdfrwt beam="1">  1        2 0.10265962E+00 0.76934609E+03</pdfrwt>
<pdfrwt beam="2">  1       -2 0.84380135E-01 0.76934609E+03</pdfrwt>
<totfact> 0.53914756E+01</totfact>
</mgrwt>
</event>
<event>
 4    2  0.3747163E-007  0.7156274E+03  0.7818608E-02  0.9937669E-01
          2   -1    0    0  501    0  0.00000000000E+00  0.00000000000E+00  0.10484083310E+04  0.10484083310E+04  0.25500000000E-02 0. -1.
         -2   -1    0    0    0  501 -0.00000000000E+00 -0.00000000000E+00 -0.12615373312E+04  0.12615373312E+04  0.25500000000E-02 0.  1.
    8880023    1    1    2    0    0  0.24527242834E+02 -0.27876658411E+03  0.90125996407E+03  0.11508223682E+04  0.65864270000E+03 0. -1.
    8880022    1    1    2    0    0 -0.24527242834E+02  0.27876658411E+03 -0.11143889642E+04  0.11591232940E+04  0.15294330000E+03 0.  0.
<mgrwt>
<rscale>  0 0.58469921E+03</rscale>
<asrwt>0</asrwt>
<pdfrwt beam="1">  1        2 0.16129359E+00 0.71562742E+03</pdfrwt>
<pdfrwt beam="2">  1       -2 0.19408267E+00 0.71562742E+03</pdfrwt>
<totfact> 0.35149060E+00</totfact>
</mgrwt>
</event>
<event>
 4    2  0.3747163E-007  0.7773055E+03  0.7818608E-02  0.9762205E-01
         -2   -1    0    0    0  501 -0.00000000000E+00  0.00000000000E+00  0.21815710551E+03  0.21815710553E+03  0.25500000000E-02 0.  1.
          2   -1    0    0  501    0  0.00000000000E+00 -0.00000000000E+00 -0.30413433856E+04  0.30413433856E+04  0.25500000000E-02 0. -1.
    8880023    1    1    2    0    0 -0.26760567666E+03  0.31429429530E+03 -0.26892972887E+04  0.27993791840E+04  0.65864270000E+03 0.  0.
    8880022    1    1    2    0    0  0.26760567666E+03 -0.31429429530E+03 -0.13388899130E+03  0.46012130710E+03  0.15294330000E+03 0.  0.
<mgrwt>
<rscale>  0 0.67430898E+03</rscale>
<asrwt>0</asrwt>
<pdfrwt beam="1">  1        2 0.46789895E+00 0.77730554E+03</pdfrwt>
<pdfrwt beam="2">  1       -2 0.33562634E-01 0.77730554E+03</pdfrwt>
<totfact> 0.14390333E+01</totfact>
</mgrwt>
</event>
<event>
 4    2  0.3747163E-007  0.8119388E+03  0.7818608E-02  0.9685552E-01
         -2   -1    0    0    0  501 -0.00000000000E+00  0.00000000000E+00  0.25634820173E+03  0.25634820174E+03  0.25500000000E-02 0.  1.
          2   -1    0    0  501    0  0.00000000000E+00 -0.00000000000E+00 -0.21241426338E+04  0.21241426338E+04  0.25500000000E-02 0. -1.
    8880023    1    1    2    0    0  0.42336563586E+03 -0.21493258597E+03 -0.16443971828E+04  0.18339266013E+04  0.65864270000E+03 0.  0.
    8880022    1    1    2    0    0 -0.42336563586E+03  0.21493258597E+03 -0.22339724936E+03  0.54656423426E+03  0.15294330000E+03 0.  0.
<mgrwt>
<rscale>  0 0.71883545E+03</rscale>
<asrwt>0</asrwt>
<pdfrwt beam="1">  1        2 0.32679116E+00 0.81193884E+03</pdfrwt>
<pdfrwt beam="2">  1       -2 0.39438186E-01 0.81193884E+03</pdfrwt>
<totfact> 0.35540250E+01</totfact>
</mgrwt>
</event>
<event>
 4    2  0.3747163E-007  0.8244905E+03  0.7818608E-02  0.9660149E-01
          2   -1    0    0  501    0  0.00000000000E+00  0.00000000000E+00  0.22561143160E+04  0.22561143160E+04  0.25500000000E-02 0. -1.
         -2   -1    0    0    0  501 -0.00000000000E+00 -0.00000000000E+00 -0.41720759334E+03  0.41720759334E+03  0.25500000000E-02 0.  1.
    8880023    1    1    2    0    0 -0.62213847101E+02  0.49204050469E+03  0.19720875388E+04  0.21375017867E+04  0.65864270000E+03 0.  0.
    8880022    1    1    2    0    0  0.62213847101E+02 -0.49204050469E+03 -0.13318081618E+03  0.53582012265E+03  0.15294330000E+03 0.  0.
<mgrwt>
<rscale>  0 0.73439906E+03</rscale>
<asrwt>0</asrwt>
<pdfrwt beam="1">  1        2 0.34709450E+00 0.82449053E+03</pdfrwt>
<pdfrwt beam="2">  1       -2 0.64185785E-01 0.82449053E+03</pdfrwt>
<totfact> 0.11093077E+01</totfact>
</mgrwt>
</event>
<event>
 4    2  0.3747163E-007  0.8989664E+03  0.7818608E-02  0.9527693E-01
         -2   -1    0    0    0  501 -0.00000000000E+00  0.00000000000E+00  0.19791113734E+04  0.19791113734E+04  0.25500000000E-02 0.  1.
          2   -1    0    0  501    0  0.00000000000E+00 -0.00000000000E+00 -0.71476460650E+03  0.71476460650E+03  0.25500000000E-02 0. -1.
    8880023    1    1    2    0    0  0.37258471034E+02 -0.61068996249E+03 -0.34692171867E+03  0.96358461439E+03  0.65864270000E+03 0.  0.
    8880022    1    1    2    0    0 -0.37258471034E+02  0.61068996249E+03  0.16112684856E+04  0.17302913655E+04  0.15294330000E+03 0.  0.
<mgrwt>
<rscale>  0 0.82272570E+03</rscale>
<asrwt>0</asrwt>
<pdfrwt beam="1">  1        2 0.10996379E+00 0.89896642E+03</pdfrwt>
<pdfrwt beam="2">  1       -2 0.30447866E+00 0.89896642E+03</pdfrwt>
<totfact> 0.12140574E+00</totfact>
</mgrwt>
</event>
<event>
 4    2  0.3747163E-007  0.7049500E+03  0.7818608E-02  0.9977255E-01
         -2   -1    0    0    0  501 -0.00000000000E+00  0.00000000000E+00  0.37928053134E+03  0.37928053135E+03  0.25500000000E-02 0.  1.
          2   -1    0    0  501    0  0.00000000000E+00 -0.00000000000E+00 -0.21323970437E+04  0.21323970437E+04  0.25500000000E-02 0. -1.
    8880023    1    1    2    0    0 -0.24497876378E+03  0.55944276291E+02 -0.20044255387E+04  0.21247767655E+04  0.65864270000E+03 0. -1.
    8880022    1    1    2    0    0  0.24497876378E+03 -0.55944276291E+02  0.25130902630E+03  0.38690080959E+03  0.15294330000E+03 0.  0.
<mgrwt>
<rscale>  0 0.56658929E+03</rscale>
<asrwt>0</asrwt>
<pdfrwt beam="1">  1        2 0.32806108E+00 0.70495004E+03</pdfrwt>
<pdfrwt beam="2">  1       -2 0.58350852E-01 0.70495004E+03</pdfrwt>
<totfact> 0.16173286E+01</totfact>
</mgrwt>
</event>
<event>
 4    2  0.3747163E-007  0.6906577E+03  0.7818608E-02  0.1003842E+00
         -2   -1    0    0    0  501 -0.00000000000E+00  0.00000000000E+00  0.58310673666E+03  0.58310673667E+03  0.25500000000E-02 0.  1.
          2   -1    0    0  501    0  0.00000000000E+00 -0.00000000000E+00 -0.15395449064E+04  0.15395449064E+04  0.25500000000E-02 0. -1.
    8880023    1    1    2    0    0  0.19590795059E+03  0.69411682292E+02 -0.14273532737E+04  0.15856687803E+04  0.65864270000E+03 0.  0.
    8880022    1    1    2    0    0 -0.19590795059E+03 -0.69411682292E+02  0.47091510394E+03  0.53698286274E+03  0.15294330000E+03 0.  0.
<mgrwt>
<rscale>  0 0.53997410E+03</rscale>
<asrwt>0</asrwt>
<pdfrwt beam="1">  1        2 0.23685306E+00 0.69065774E+03</pdfrwt>
<pdfrwt beam="2">  1       -2 0.89708729E-01 0.69065774E+03</pdfrwt>
<totfact> 0.13269827E+01</totfact>
</mgrwt>
</event>
<event>
 4    2  0.3747163E-007  0.6756534E+03  0.7818608E-02  0.1011898E+00
         -2   -1    0    0    0  501 -0.00000000000E+00  0.00000000000E+00  0.16945307038E+03  0.16945307040E+03  0.25500000000E-02 0.  1.
          2   -1    0    0  501    0  0.00000000000E+00 -0.00000000000E+00 -0.12918634656E+04  0.12918634656E+04  0.25500000000E-02 0. -1.
    8880023    1    1    2    0    0  0.14675980259E+03 -0.34042970120E+02 -0.10199399340E+04  0.12234316649E+04  0.65864270000E+03 0.  0.
    8880022    1    1    2    0    0 -0.14675980259E+03  0.34042970120E+02 -0.10247046129E+03  0.23788487115E+03  0.15294330000E+03 0.  0.
<mgrwt>
<rscale>  0 0.50727408E+03</rscale>
<asrwt>0</asrwt>
<pdfrwt beam="1">  1        2 0.19874822E+00 0.67565344E+03</pdfrwt>
<pdfrwt beam="2">  1       -2 0.26069704E-01 0.67565344E+03</pdfrwt>
<totfact> 0.22575812E+02</totfact>
</mgrwt>
</event>
<event>
 4    2  0.3747163E-007  0.1461950E+04  0.7818608E-02  0.8936982E-01
         -2   -1    0    0    0  501 -0.00000000000E+00  0.00000000000E+00  0.10871763699E+04  0.10871763699E+04  0.25500000000E-02 0.  1.
          2   -1    0    0  501    0  0.00000000000E+00 -0.00000000000E+00 -0.24912836390E+04  0.24912836390E+04  0.25500000000E-02 0. -1.
    8880023    1    1    2    0    0 -0.10664708605E+04 -0.75241473935E+03  0.23169047499E+03  0.14801955002E+04  0.65864270000E+03 0.  0.
    8880022    1    1    2    0    0  0.10664708605E+04  0.75241473935E+03 -0.16357977441E+04  0.20982645088E+04  0.15294330000E+03 0.  0.
<mgrwt>
<rscale>  0 0.14234991E+04</rscale>
<asrwt>0</asrwt>
<pdfrwt beam="1">  1        2 0.38327440E+00 0.14619502E+04</pdfrwt>
<pdfrwt beam="2">  1       -2 0.16725790E+00 0.14619502E+04</pdfrwt>
<totfact> 0.74329698E-01</totfact>
</mgrwt>
</event>
<event>
 4    2  0.3747163E-007  0.6993255E+03  0.7818608E-02  0.1000001E+00
          2   -1    0    0  501    0  0.00000000000E+00  0.00000000000E+00  0.30625689137E+04  0.30625689137E+04  0.25500000000E-02 0. -1.
         -2   -1    0    0    0  501 -0.00000000000E+00 -0.00000000000E+00 -0.21503123692E+03  0.21503123693E+03  0.25500000000E-02 0.  1.
    8880023    1    1    2    0    0  0.23239417382E+03 -0.35198002927E+02  0.29078527430E+04  0.29907630686E+04  0.65864270000E+03 0. -1.
    8880022    1    1    2    0    0 -0.23239417382E+03  0.35198002927E+02 -0.60315066145E+02  0.28683708208E+03  0.15294330000E+03 0.  0.
<mgrwt>
<rscale>  0 0.55649762E+03</rscale>
<asrwt>0</asrwt>
<pdfrwt beam="1">  1        2 0.47116448E+00 0.69932550E+03</pdfrwt>
<pdfrwt beam="2">  1       -2 0.33081726E-01 0.69932550E+03</pdfrwt>
<totfact> 0.14546224E+01</totfact>
</mgrwt>
</event>
<event>
 4    2  0.3747163E-007  0.7476134E+03  0.7818608E-02  0.9838300E-01
         -2   -1    0    0    0  501 -0.00000000000E+00  0.00000000000E+00  0.21289276215E+03  0.21289276217E+03  0.25500000000E-02 0.  1.
          2   -1    0    0  501    0  0.00000000000E+00 -0.00000000000E+00 -0.20868941811E+04  0.20868941811E+04  0.25500000000E-02 0. -1.
    8880023    1    1    2    0    0  0.89656218679E+02  0.34216571075E+03 -0.17365467352E+04  0.18906402040E+04  0.65864270000E+03 0. -1.
    8880022    1    1    2    0    0 -0.89656218679E+02 -0.34216571075E+03 -0.13745468373E+03  0.40914673927E+03  0.15294330000E+03 0.  0.
<mgrwt>
<rscale>  0 0.63347033E+03</rscale>
<asrwt>0</asrwt>
<pdfrwt beam="1">  1        2 0.32106063E+00 0.74761341E+03</pdfrwt>
<pdfrwt beam="2">  1       -2 0.32752734E-01 0.74761341E+03</pdfrwt>
<totfact> 0.53576833E+01</totfact>
</mgrwt>
</event>
<event>
 4    2  0.3747163E-007  0.7858325E+03  0.7818608E-02  0.9742311E-01
          2   -1    0    0  501    0  0.00000000000E+00  0.00000000000E+00  0.11839648883E+04  0.11839648883E+04  0.25500000000E-02 0. -1.
         -2   -1    0    0    0  501 -0.00000000000E+00 -0.00000000000E+00 -0.70098750597E+03  0.70098750598E+03  0.25500000000E-02 0.  1.
    8880023    1    1    2    0    0  0.41236882657E+03 -0.11693768514E+03  0.94997587418E+03  0.12328774631E+04  0.65864270000E+03 0. -1.
    8880022    1    1    2    0    0 -0.41236882657E+03  0.11693768514E+03 -0.46699849189E+03  0.65207493110E+03  0.15294330000E+03 0.  0.
<mgrwt>
<rscale>  0 0.68552563E+03</rscale>
<asrwt>0</asrwt>
<pdfrwt beam="1">  1        2 0.18214844E+00 0.78583247E+03</pdfrwt>
<pdfrwt beam="2">  1       -2 0.10784423E+00 0.78583247E+03</pdfrwt>
<totfact> 0.13547982E+01</totfact>
</mgrwt>
</event>
<event>
 4    2  0.3747163E-007  0.7200679E+03  0.7818608E-02  0.9922356E-01
         -2   -1    0    0    0  501 -0.00000000000E+00  0.00000000000E+00  0.17875700924E+04  0.17875700924E+04  0.25500000000E-02 0.  1.
          2   -1    0    0  501    0  0.00000000000E+00 -0.00000000000E+00 -0.26241265133E+03  0.26241265134E+03  0.25500000000E-02 0. -1.
    8880023    1    1    2    0    0  0.17170551250E+03 -0.23495701279E+03  0.29756120605E+03  0.77912801162E+03  0.65864270000E+03 0. -1.
    8880022    1    1    2    0    0 -0.17170551250E+03  0.23495701279E+03  0.12275962350E+04  0.12708547321E+04  0.15294330000E+03 0.  0.
<mgrwt>
<rscale>  0 0.59189936E+03</rscale>
<asrwt>0</asrwt>
<pdfrwt beam="1">  1        2 0.40371179E-01 0.72006790E+03</pdfrwt>
<pdfrwt beam="2">  1       -2 0.27501077E+00 0.72006790E+03</pdfrwt>
<totfact> 0.59684861E+00</totfact>
</mgrwt>
</event>
<event>
 4    2  0.3747163E-007  0.6611072E+03  0.7818608E-02  0.1023050E+00
          2   -1    0    0  501    0  0.00000000000E+00  0.00000000000E+00  0.21890928701E+04  0.21890928701E+04  0.25500000000E-02 0. -1.
         -2   -1    0    0    0  501 -0.00000000000E+00 -0.00000000000E+00 -0.78183497701E+02  0.78183497743E+02  0.25500000000E-02 0.  1.
    8880023    1    1    2    0    0  0.40747883012E+02 -0.39900831627E+02  0.17661283801E+04  0.18858080834E+04  0.65864270000E+03 0. -1.
    8880022    1    1    2    0    0 -0.40747883012E+02  0.39900831627E+02  0.34478099228E+03  0.38146828438E+03  0.15294330000E+03 0. -1.
<mgrwt>
<rscale>  0 0.46601947E+03</rscale>
<asrwt>0</asrwt>
<pdfrwt beam="1">  1        2 0.33678347E+00 0.66110716E+03</pdfrwt>
<pdfrwt beam="2">  1       -2 0.12028232E-01 0.66110716E+03</pdfrwt>
<totfact> 0.27534061E+02</totfact>
</mgrwt>
</event>
<event>
 4    2  0.3747163E-007  0.8393065E+03  0.7818608E-02  0.9631489E-01
         -2   -1    0    0    0  501 -0.00000000000E+00  0.00000000000E+00  0.46270233830E+03  0.46270233831E+03  0.25500000000E-02 0.  1.
          2   -1    0    0  501    0  0.00000000000E+00 -0.00000000000E+00 -0.19959021324E+04  0.19959021324E+04  0.25500000000E-02 0. -1.
    8880023    1    1    2    0    0  0.51950910609E+03 -0.27120334754E+02 -0.16961225957E+04  0.18924236549E+04  0.65864270000E+03 0. -1.
    8880022    1    1    2    0    0 -0.51950910609E+03  0.27120334754E+02  0.16292280159E+03  0.56618081578E+03  0.15294330000E+03 0.  0.
<mgrwt>
<rscale>  0 0.75246617E+03</rscale>
<asrwt>0</asrwt>
<pdfrwt beam="1">  1        2 0.30706186E+00 0.83930652E+03</pdfrwt>
<pdfrwt beam="2">  1       -2 0.71184976E-01 0.83930652E+03</pdfrwt>
<totfact> 0.12302013E+01</totfact>
</mgrwt>
</event>
<event>
 4    2  0.3747163E-007  0.7496892E+03  0.7818608E-02  0.9832572E-01
         -2   -1    0    0    0  501 -0.00000000000E+00  0.00000000000E+00  0.46942800739E+03  0.46942800740E+03  0.25500000000E-02 0.  1.
          2   -1    0    0  501    0  0.00000000000E+00 -0.00000000000E+00 -0.14939365416E+04  0.14939365416E+04  0.25500000000E-02 0. -1.
    8880023    1    1    2    0    0 -0.35295901507E+03  0.60362101484E+02 -0.12900456512E+04  0.14920628801E+04  0.65864270000E+03 0. -1.
    8880022    1    1    2    0    0  0.35295901507E+03 -0.60362101484E+02  0.26553711700E+03  0.47130166893E+03  0.15294330000E+03 0.  0.
<mgrwt>
<rscale>  0 0.63643464E+03</rscale>
<asrwt>0</asrwt>
<pdfrwt beam="1">  1        2 0.22983639E+00 0.74968917E+03</pdfrwt>
<pdfrwt beam="2">  1       -2 0.72219694E-01 0.74968917E+03</pdfrwt>
<totfact> 0.22736165E+01</totfact>
</mgrwt>
</event>
<event>
 4    2  0.3747163E-007  0.7036113E+03  0.7818608E-02  0.9982537E-01
          2   -1    0    0  501    0  0.00000000000E+00  0.00000000000E+00  0.59326062019E+03  0.59326062020E+03  0.25500000000E-02 0. -1.
         -2   -1    0    0    0  501 -0.00000000000E+00 -0.00000000000E+00 -0.10388352876E+04  0.10388352876E+04  0.25500000000E-02 0.  1.
    8880023    1    1    2    0    0  0.19747985035E+03 -0.14919925288E+03  0.34937427383E+03  0.78557704767E+03  0.65864270000E+03 0. -1.
    8880022    1    1    2    0    0 -0.19747985035E+03  0.14919925288E+03 -0.79494894123E+03  0.84651886011E+03  0.15294330000E+03 0.  0.
<mgrwt>
<rscale>  0 0.56422617E+03</rscale>
<asrwt>0</asrwt>
<pdfrwt beam="1">  1        2 0.91270865E-01 0.70361134E+03</pdfrwt>
<pdfrwt beam="2">  1       -2 0.15982081E+00 0.70361134E+03</pdfrwt>
<totfact> 0.12958502E+01</totfact>
</mgrwt>
</event>
<event>
 4    2  0.3747163E-007  0.6740763E+03  0.7818608E-02  0.1012895E+00
         -2   -1    0    0    0  501 -0.00000000000E+00  0.00000000000E+00  0.15304956997E+03  0.15304956999E+03  0.25500000000E-02 0.  1.
          2   -1    0    0  501    0  0.00000000000E+00 -0.00000000000E+00 -0.20849611619E+04  0.20849611619E+04  0.25500000000E-02 0. -1.
    8880023    1    1    2    0    0 -0.80815035589E+02  0.11848012018E+03 -0.19120666483E+04  0.20274066397E+04  0.65864270000E+03 0.  0.
    8880022    1    1    2    0    0  0.80815035589E+02 -0.11848012018E+03 -0.19844943645E+02  0.21060409222E+03  0.15294330000E+03 0.  1.
<mgrwt>
<rscale>  0 0.50340128E+03</rscale>
<asrwt>0</asrwt>
<pdfrwt beam="1">  1        2 0.32076324E+00 0.67407627E+03</pdfrwt>
<pdfrwt beam="2">  1       -2 0.23546089E-01 0.67407627E+03</pdfrwt>
<totfact> 0.99211648E+01</totfact>
</mgrwt>
</event>
<event>
 4    2  0.3747163E-007  0.8093851E+03  0.7818608E-02  0.9690859E-01
         -2   -1    0    0    0  501 -0.00000000000E+00  0.00000000000E+00  0.26798482293E+03  0.26798482294E+03  0.25500000000E-02 0.  1.
          2   -1    0    0  501    0  0.00000000000E+00 -0.00000000000E+00 -0.33576369426E+04  0.33576369426E+04  0.25500000000E-02 0. -1.
    8880023    1    1    2    0    0 -0.46208922215E+03 -0.88133737350E+02 -0.30194001938E+04  0.31260009183E+04  0.65864270000E+03 0. -1.
    8880022    1    1    2    0    0  0.46208922215E+03  0.88133737350E+02 -0.70251925906E+02  0.49962084723E+03  0.15294330000E+03 0.  0.
<mgrwt>
<rscale>  0 0.71563646E+03</rscale>
<asrwt>0</asrwt>
<pdfrwt beam="1">  1        2 0.51655950E+00 0.80938508E+03</pdfrwt>
<pdfrwt beam="2">  1       -2 0.41228437E-01 0.80938508E+03</pdfrwt>
<totfact> 0.60493286E+00</totfact>
</mgrwt>
</event>
<event>
 4    2  0.3747163E-007  0.7062454E+03  0.7818608E-02  0.9972217E-01
         -2   -1    0    0    0  501 -0.00000000000E+00  0.00000000000E+00  0.25287374361E+03  0.25287374362E+03  0.25500000000E-02 0.  1.
          2   -1    0    0  501    0  0.00000000000E+00 -0.00000000000E+00 -0.14535551154E+04  0.14535551154E+04  0.25500000000E-02 0. -1.
    8880023    1    1    2    0    0 -0.25459238512E+03 -0.12451494516E+02 -0.12187786105E+04  0.14086177018E+04  0.65864270000E+03 0. -1.
    8880022    1    1    2    0    0  0.25459238512E+03  0.12451494516E+02  0.18097238709E+02  0.29781115718E+03  0.15294330000E+03 0.  0.
<mgrwt>
<rscale>  0 0.56885440E+03</rscale>
<asrwt>0</asrwt>
<pdfrwt beam="1">  1        2 0.22362386E+00 0.70624537E+03</pdfrwt>
<pdfrwt beam="2">  1       -2 0.38903654E-01 0.70624537E+03</pdfrwt>
<totfact> 0.86140369E+01</totfact>
</mgrwt>
</event>
<event>
 4    2  0.3747163E-007  0.7303134E+03  0.7818608E-02  0.9889119E-01
          2   -1    0    0  501    0  0.00000000000E+00  0.00000000000E+00  0.82149841414E+03  0.82149841414E+03  0.25500000000E-02 0. -1.
         -2   -1    0    0    0  501 -0.00000000000E+00 -0.00000000000E+00 -0.42489277982E+03  0.42489277983E+03  0.25500000000E-02 0.  1.
    8880023    1    1    2    0    0  0.31290836633E+03 -0.40444788589E+02  0.18237723363E+02  0.73054106487E+03  0.65864270000E+03 0.  1.
    8880022    1    1    2    0    0 -0.31290836633E+03  0.40444788589E+02  0.37836791095E+03  0.51585012910E+03  0.15294330000E+03 0.  0.
<mgrwt>
<rscale>  0 0.60791546E+03</rscale>
<asrwt>0</asrwt>
<pdfrwt beam="1">  1        2 0.12638437E+00 0.73031338E+03</pdfrwt>
<pdfrwt beam="2">  1       -2 0.65368121E-01 0.73031338E+03</pdfrwt>
<totfact> 0.72751999E+01</totfact>
</mgrwt>
</event>
<event>
 4    2  0.3747163E-007  0.7576807E+03  0.7818608E-02  0.9811149E-01
          2   -1    0    0  501    0  0.00000000000E+00  0.00000000000E+00  0.76126831586E+03  0.76126831586E+03  0.25500000000E-02 0. -1.
         -2   -1    0    0    0  501 -0.00000000000E+00 -0.00000000000E+00 -0.66309897172E+03  0.66309897172E+03  0.25500000000E-02 0.  1.
    8880023    1    1    2    0    0  0.16121506845E+03 -0.33805259329E+03  0.45596096934E+03  0.88429659388E+03  0.65864270000E+03 0.  0.
    8880022    1    1    2    0    0 -0.16121506845E+03  0.33805259329E+03 -0.35779162520E+03  0.54007069371E+03  0.15294330000E+03 0.  0.
<mgrwt>
<rscale>  0 0.64767628E+03</rscale>
<asrwt>0</asrwt>
<pdfrwt beam="1">  1        2 0.11711820E+00 0.75768071E+03</pdfrwt>
<pdfrwt beam="2">  1       -2 0.10201523E+00 0.75768071E+03</pdfrwt>
<totfact> 0.29350947E+01</totfact>
</mgrwt>
</event>
<event>
 4    2  0.3747163E-007  0.7336381E+03  0.7818608E-02  0.9878882E-01
          2   -1    0    0  501    0  0.00000000000E+00  0.00000000000E+00  0.75640020737E+03  0.75640020738E+03  0.25500000000E-02 0. -1.
         -2   -1    0    0    0  501 -0.00000000000E+00 -0.00000000000E+00 -0.96274236996E+03  0.96274236996E+03  0.25500000000E-02 0.  1.
    8880023    1    1    2    0    0 -0.32295828706E+03 -0.10612258001E+02  0.52699973271E+03  0.90330149991E+03  0.65864270000E+03 0. -1.
    8880022    1    1    2    0    0  0.32295828706E+03  0.10612258001E+02 -0.73334189530E+03  0.81584107743E+03  0.15294330000E+03 0.  0.
<mgrwt>
<rscale>  0 0.61295763E+03</rscale>
<asrwt>0</asrwt>
<pdfrwt beam="1">  1        2 0.11636926E+00 0.73363811E+03</pdfrwt>
<pdfrwt beam="2">  1       -2 0.14811421E+00 0.73363811E+03</pdfrwt>
<totfact> 0.11691177E+01</totfact>
</mgrwt>
</event>
<event>
 4    2  0.3747163E-007  0.6848181E+03  0.7818608E-02  0.1006720E+00
          2   -1    0    0  501    0  0.00000000000E+00  0.00000000000E+00  0.56093437705E+03  0.56093437706E+03  0.25500000000E-02 0. -1.
         -2   -1    0    0    0  501 -0.00000000000E+00 -0.00000000000E+00 -0.10401211638E+04  0.10401211638E+04  0.25500000000E-02 0.  1.
    8880023    1    1    2    0    0  0.18750882697E+03 -0.24632392499E+01  0.32732436288E+03  0.75902376283E+03  0.65864270000E+03 0. -1.
    8880022    1    1    2    0    0 -0.18750882697E+03  0.24632392499E+01 -0.80651114965E+03  0.84203177806E+03  0.15294330000E+03 0.  0.
<mgrwt>
<rscale>  0 0.52799406E+03</rscale>
<asrwt>0</asrwt>
<pdfrwt beam="1">  1        2 0.86297597E-01 0.68481810E+03</pdfrwt>
<pdfrwt beam="2">  1       -2 0.16001864E+00 0.68481810E+03</pdfrwt>
<totfact> 0.13836128E+01</totfact>
</mgrwt>
</event>
<event>
 4    2  0.3747163E-007  0.7767110E+03  0.7818608E-02  0.9763620E-01
          2   -1    0    0  501    0  0.00000000000E+00  0.00000000000E+00  0.28822870507E+04  0.28822870507E+04  0.25500000000E-02 0. -1.
         -2   -1    0    0    0  501 -0.00000000000E+00 -0.00000000000E+00 -0.14753704739E+03  0.14753704742E+03  0.25500000000E-02 0.  1.
    8880023    1    1    2    0    0 -0.41062388654E+03  0.29288127085E+02  0.22266943486E+04  0.23582721851E+04  0.65864270000E+03 0. -1.
    8880022    1    1    2    0    0  0.41062388654E+03 -0.29288127085E+02  0.50805565465E+03  0.67155191298E+03  0.15294330000E+03 0.  0.
<mgrwt>
<rscale>  0 0.67351964E+03</rscale>
<asrwt>0</asrwt>
<pdfrwt beam="1">  1        2 0.44342879E+00 0.77671100E+03</pdfrwt>
<pdfrwt beam="2">  1       -2 0.22698006E-01 0.77671100E+03</pdfrwt>
<totfact> 0.36846031E+01</totfact>
</mgrwt>
</event>
<event>
 4    2  0.3747163E-007  0.1203180E+04  0.7818608E-02  0.9154037E-01
         -2   -1    0    0    0  501 -0.00000000000E+00  0.00000000000E+00  0.61687362350E+03  0.61687362351E+03  0.25500000000E-02 0.  1.
          2   -1    0    0  501    0  0.00000000000E+00 -0.00000000000E+00 -0.24427271285E+04  0.24427271285E+04  0.25500000000E-02 0. -1.
    8880023    1    1    2    0    0  0.99136643862E+03  0.17613678497E+03 -0.16243375242E+04  0.20214139065E+04  0.65864270000E+03 0. -1.
    8880022    1    1    2    0    0 -0.99136643862E+03 -0.17613678497E+03 -0.20151598080E+03  0.10381868455E+04  0.15294330000E+03 0.  0.
<mgrwt>
<rscale>  0 0.11540695E+04</rscale>
<asrwt>0</asrwt>
<pdfrwt beam="1">  1        2 0.37580417E+00 0.12031799E+04</pdfrwt>
<pdfrwt beam="2">  1       -2 0.94903636E-01 0.12031799E+04</pdfrwt>
<totfact> 0.34504277E+00</totfact>
</mgrwt>
</event>
<event>
 4    2  0.3747163E-007  0.1404940E+04  0.7818608E-02  0.8979854E-01
         -2   -1    0    0    0  501 -0.00000000000E+00  0.00000000000E+00  0.14107475241E+04  0.14107475241E+04  0.25500000000E-02 0.  1.
          2   -1    0    0  501    0  0.00000000000E+00 -0.00000000000E+00 -0.34627869024E+04  0.34627869024E+04  0.25500000000E-02 0. -1.
    8880023    1    1    2    0    0  0.34048226135E+02 -0.12405184178E+04 -0.29945350677E+04  0.33077327136E+04  0.65864270000E+03 0. -1.
    8880022    1    1    2    0    0 -0.34048226135E+02  0.12405184178E+04  0.94249568938E+03  0.15658017129E+04  0.15294330000E+03 0.  1.
<mgrwt>
<rscale>  0 0.13645935E+04</rscale>
<asrwt>0</asrwt>
<pdfrwt beam="1">  1        2 0.53273645E+00 0.14049397E+04</pdfrwt>
<pdfrwt beam="2">  1       -2 0.21703808E+00 0.14049397E+04</pdfrwt>
<totfact> 0.85479023E-02</totfact>
</mgrwt>
</event>
<event>
 4    2  0.3747163E-007  0.6692948E+03  0.7818608E-02  0.1016174E+00
         -2   -1    0    0    0  501 -0.00000000000E+00  0.00000000000E+00  0.12564470485E+04  0.12564470485E+04  0.25500000000E-02 0.  1.
          2   -1    0    0  501    0  0.00000000000E+00 -0.00000000000E+00 -0.86614514702E+03  0.86614514702E+03  0.25500000000E-02 0. -1.
    8880023    1    1    2    0    0 -0.11166441907E+03  0.40942924148E+02 -0.72725821096E+03  0.98836227022E+03  0.65864270000E+03 0. -1.
    8880022    1    1    2    0    0  0.11166441907E+03 -0.40942924148E+02  0.11175601125E+04  0.11342299253E+04  0.15294330000E+03 0.  0.
<mgrwt>
<rscale>  0 0.49093093E+03</rscale>
<asrwt>0</asrwt>
<pdfrwt beam="1">  1        2 0.13325310E+00 0.66929476E+03</pdfrwt>
<pdfrwt beam="2">  1       -2 0.19329954E+00 0.66929476E+03</pdfrwt>
<totfact> 0.47089642E+00</totfact>
</mgrwt>
</event>
<event>
 4    2  0.3747163E-007  0.7963305E+03  0.7818608E-02  0.9718787E-01
         -2   -1    0    0    0  501 -0.00000000000E+00  0.00000000000E+00  0.79221864215E+03  0.79221864215E+03  0.25500000000E-02 0.  1.
          2   -1    0    0  501    0  0.00000000000E+00 -0.00000000000E+00 -0.62432767989E+03  0.62432767990E+03  0.25500000000E-02 0. -1.
    8880023    1    1    2    0    0 -0.43919576145E+03  0.86250501992E+02 -0.19561673409E+03  0.82000498711E+03  0.65864270000E+03 0. -1.
    8880022    1    1    2    0    0  0.43919576145E+03 -0.86250501992E+02  0.36350769635E+03  0.59654133494E+03  0.15294330000E+03 0.  0.
<mgrwt>
<rscale>  0 0.69909149E+03</rscale>
<asrwt>0</asrwt>
<pdfrwt beam="1">  1        2 0.96050412E-01 0.79633050E+03</pdfrwt>
<pdfrwt beam="2">  1       -2 0.12187979E+00 0.79633050E+03</pdfrwt>
<totfact> 0.24360311E+01</totfact>
</mgrwt>
</event>
<event>
 4    2  0.3747163E-007  0.1000225E+04  0.7818608E-02  0.9381264E-01
         -2   -1    0    0    0  501 -0.00000000000E+00  0.00000000000E+00  0.18979647494E+03  0.18979647496E+03  0.25500000000E-02 0.  1.
          2   -1    0    0  501    0  0.00000000000E+00 -0.00000000000E+00 -0.47388467848E+04  0.47388467848E+04  0.25500000000E-02 0. -1.
    8880023    1    1    2    0    0  0.15184979858E+03  0.73727942044E+03 -0.16494486716E+04  0.19290231807E+04  0.65864270000E+03 0.  1.
    8880022    1    1    2    0    0 -0.15184979858E+03 -0.73727942044E+03 -0.28996016383E+04  0.29996200791E+04  0.15294330000E+03 0.  0.
<mgrwt>
<rscale>  0 0.93633777E+03</rscale>
<asrwt>0</asrwt>
<pdfrwt beam="1">  1        2 0.72905326E+00 0.10002247E+04</pdfrwt>
<pdfrwt beam="2">  1       -2 0.29199461E-01 0.10002247E+04</pdfrwt>
<totfact> 0.81701829E-01</totfact>
</mgrwt>
</event>
<event>
 4    2  0.3747163E-007  0.8268060E+03  0.7818608E-02  0.9655579E-01
          2   -1    0    0  501    0  0.00000000000E+00  0.00000000000E+00  0.15100169669E+03  0.15100169671E+03  0.25500000000E-02 0. -1.
         -2   -1    0    0    0  501 -0.00000000000E+00 -0.00000000000E+00 -0.34959829670E+04  0.34959829670E+04  0.25500000000E-02 0.  1.
    8880023    1    1    2    0    0  0.47777906831E+03 -0.14671453568E+03 -0.13361950804E+04  0.15713133018E+04  0.65864270000E+03 0. -1.
    8880022    1    1    2    0    0 -0.47777906831E+03  0.14671453568E+03 -0.20087861899E+04  0.20756713619E+04  0.15294330000E+03 0.  0.
<mgrwt>
<rscale>  0 0.73724316E+03</rscale>
<asrwt>0</asrwt>
<pdfrwt beam="1">  1        2 0.23231033E-01 0.82680602E+03</pdfrwt>
<pdfrwt beam="2">  1       -2 0.53784347E+00 0.82680602E+03</pdfrwt>
<totfact> 0.24300581E-01</totfact>
</mgrwt>
</event>
<event>
 4    2  0.3747163E-007  0.6686890E+03  0.7818608E-02  0.1016621E+00
          2   -1    0    0  501    0  0.00000000000E+00  0.00000000000E+00  0.15335463579E+03  0.15335463581E+03  0.25500000000E-02 0. -1.
         -2   -1    0    0    0  501 -0.00000000000E+00 -0.00000000000E+00 -0.16190319227E+04  0.16190319227E+04  0.25500000000E-02 0.  1.
    8880023    1    1    2    0    0 -0.67405273652E+02 -0.93761913090E+02 -0.64299709248E+03  0.92768002806E+03  0.65864270000E+03 0.  0.
    8880022    1    1    2    0    0  0.67405273652E+02  0.93761913090E+02 -0.82268019446E+03  0.84470653048E+03  0.15294330000E+03 0.  0.
<mgrwt>
<rscale>  0 0.48926084E+03</rscale>
<asrwt>0</asrwt>
<pdfrwt beam="1">  1        2 0.23593022E-01 0.66868900E+03</pdfrwt>
<pdfrwt beam="2">  1       -2 0.24908182E+00 0.66868900E+03</pdfrwt>
<totfact> 0.15773817E+01</totfact>
</mgrwt>
</event>
<event>
 4    2  0.3747163E-007  0.1280970E+04  0.7818608E-02  0.9082170E-01
          2   -1    0    0  501    0  0.00000000000E+00  0.00000000000E+00  0.12323354433E+04  0.12323354433E+04  0.25500000000E-02 0. -1.
         -2   -1    0    0    0  501 -0.00000000000E+00 -0.00000000000E+00 -0.23809144499E+04  0.23809144499E+04  0.25500000000E-02 0.  1.
    8880023    1    1    2    0    0 -0.33660259907E+03  0.10458362842E+04  0.69823390745E+03  0.14589090578E+04  0.65864270000E+03 0. -1.
    8880022    1    1    2    0    0  0.33660259907E+03 -0.10458362842E+04 -0.18468129140E+04  0.21543408355E+04  0.15294330000E+03 0.  1.
<mgrwt>
<rscale>  0 0.12357000E+04</rscale>
<asrwt>0</asrwt>
<pdfrwt beam="1">  1        2 0.18959007E+00 0.12809704E+04</pdfrwt>
<pdfrwt beam="2">  1       -2 0.36629453E+00 0.12809704E+04</pdfrwt>
<totfact> 0.21579199E-01</totfact>
</mgrwt>
</event>
<event>
 4    2  0.3747163E-007  0.1943052E+04  0.7818608E-02  0.8647278E-01
         -2   -1    0    0    0  501 -0.00000000000E+00  0.00000000000E+00  0.15326176711E+04  0.15326176711E+04  0.25500000000E-02 0.  1.
          2   -1    0    0  501    0  0.00000000000E+00 -0.00000000000E+00 -0.35694254030E+04  0.35694254030E+04  0.25500000000E-02 0. -1.
    8880023    1    1    2    0    0 -0.16221451026E+04  0.84278451528E+03 -0.25417947967E+04  0.31994017359E+04  0.65864270000E+03 0.  0.
    8880022    1    1    2    0    0  0.16221451026E+04 -0.84278451528E+03  0.50498706482E+03  0.19026413382E+04  0.15294330000E+03 0.  1.
<mgrwt>
<rscale>  0 0.19153006E+04</rscale>
<asrwt>0</asrwt>
<pdfrwt beam="1">  1        2 0.54914237E+00 0.19430519E+04</pdfrwt>
<pdfrwt beam="2">  1       -2 0.23578733E+00 0.19430519E+04</pdfrwt>
<totfact> 0.51149943E-02</totfact>
</mgrwt>
</event>
<event>
 4    2  0.3747163E-007  0.6892541E+03  0.7818608E-02  0.1004509E+00
          2   -1    0    0  501    0  0.00000000000E+00  0.00000000000E+00  0.17245281959E+03  0.17245281961E+03  0.25500000000E-02 0. -1.
         -2   -1    0    0    0  501 -0.00000000000E+00 -0.00000000000E+00 -0.19073052685E+04  0.19073052685E+04  0.25500000000E-02 0.  1.
    8880023    1    1    2    0    0  0.16058494846E+03  0.12439262831E+03 -0.59085558380E+03  0.90784446841E+03  0.65864270000E+03 0. -1.
    8880022    1    1    2    0    0 -0.16058494846E+03 -0.12439262831E+03 -0.11439968651E+04  0.11719136197E+04  0.15294330000E+03 0.  0.
<mgrwt>
<rscale>  0 0.53716520E+03</rscale>
<asrwt>0</asrwt>
<pdfrwt beam="1">  1        2 0.26531204E-01 0.68925413E+03</pdfrwt>
<pdfrwt beam="2">  1       -2 0.29343157E+00 0.68925413E+03</pdfrwt>
<totfact> 0.74532340E+00</totfact>
</mgrwt>
</event>
<event>
 4    2  0.3747163E-007  0.6953797E+03  0.7818608E-02  0.1001694E+00
          2   -1    0    0  501    0  0.00000000000E+00  0.00000000000E+00  0.22040451800E+04  0.22040451800E+04  0.25500000000E-02 0. -1.
         -2   -1    0    0    0  501 -0.00000000000E+00 -0.00000000000E+00 -0.47345183831E+03  0.47345183831E+03  0.25500000000E-02 0.  1.
    8880023    1    1    2    0    0  0.12033480665E+03  0.18778237249E+03  0.21042910200E+04  0.22162115395E+04  0.65864270000E+03 0. -1.
    8880022    1    1    2    0    0 -0.12033480665E+03 -0.18778237249E+03 -0.37369767829E+03  0.46128547873E+03  0.15294330000E+03 0.  0.
<mgrwt>
<rscale>  0 0.54913821E+03</rscale>
<asrwt>0</asrwt>
<pdfrwt beam="1">  1        2 0.33908387E+00 0.69537967E+03</pdfrwt>
<pdfrwt beam="2">  1       -2 0.72838744E-01 0.69537967E+03</pdfrwt>
<totfact> 0.91895088E+00</totfact>
</mgrwt>
</event>
<event>
 4    2  0.3747163E-007  0.6959219E+03  0.7818608E-02  0.1001456E+00
          2   -1    0    0  501    0  0.00000000000E+00  0.00000000000E+00  0.12927036701E+04  0.12927036701E+04  0.25500000000E-02 0. -1.
         -2   -1    0    0    0  501 -0.00000000000E+00 -0.00000000000E+00 -0.28028075443E+03  0.28028075444E+03  0.25500000000E-02 0.  1.
    8880023    1    1    2    0    0  0.19313689662E+03  0.11487051079E+03  0.10873851090E+04  0.12910126555E+04  0.65864270000E+03 0. -1.
    8880022    1    1    2    0    0 -0.19313689662E+03 -0.11487051079E+03 -0.74962193363E+02  0.28197176904E+03  0.15294330000E+03 0.  0.
<mgrwt>
<rscale>  0 0.55016463E+03</rscale>
<asrwt>0</asrwt>
<pdfrwt beam="1">  1        2 0.19887749E+00 0.69592191E+03</pdfrwt>
<pdfrwt beam="2">  1       -2 0.43120116E-01 0.69592191E+03</pdfrwt>
<totfact> 0.86976101E+01</totfact>
</mgrwt>
</event>
<event>
 4    2  0.3747163E-007  0.8030258E+03  0.7818608E-02  0.9704291E-01
          2   -1    0    0  501    0  0.00000000000E+00  0.00000000000E+00  0.17946795750E+04  0.17946795750E+04  0.25500000000E-02 0. -1.
         -2   -1    0    0    0  501 -0.00000000000E+00 -0.00000000000E+00 -0.28554045678E+03  0.28554045679E+03  0.25500000000E-02 0.  1.
    8880023    1    1    2    0    0  0.47386462782E+02 -0.45694067924E+03  0.13495904166E+04  0.15704282092E+04  0.65864270000E+03 0. -1.
    8880022    1    1    2    0    0 -0.47386462782E+02  0.45694067924E+03  0.15954870154E+03  0.50979182259E+03  0.15294330000E+03 0.  0.
<mgrwt>
<rscale>  0 0.70761857E+03</rscale>
<asrwt>0</asrwt>
<pdfrwt beam="1">  1        2 0.27610455E+00 0.80302582E+03</pdfrwt>
<pdfrwt beam="2">  1       -2 0.43929301E-01 0.80302582E+03</pdfrwt>
<totfact> 0.43582873E+01</totfact>
</mgrwt>
</event>
<event>
 4    2  0.3747163E-007  0.7345174E+03  0.7818608E-02  0.9876215E-01
          2   -1    0    0  501    0  0.00000000000E+00  0.00000000000E+00  0.85294335406E+03  0.85294335407E+03  0.25500000000E-02 0. -1.
         -2   -1    0    0    0  501 -0.00000000000E+00 -0.00000000000E+00 -0.41284203712E+03  0.41284203712E+03  0.25500000000E-02 0.  1.
    8880023    1    1    2    0    0  0.31878011609E+03 -0.63912755901E+02  0.51715829157E+03  0.89831425881E+03  0.65864270000E+03 0.  0.
    8880022    1    1    2    0    0 -0.31878011609E+03  0.63912755901E+02 -0.77056974622E+02  0.36747113238E+03  0.15294330000E+03 0.  0.
<mgrwt>
<rscale>  0 0.61427974E+03</rscale>
<asrwt>0</asrwt>
<pdfrwt beam="1">  1        2 0.13122205E+00 0.73451740E+03</pdfrwt>
<pdfrwt beam="2">  1       -2 0.63514160E-01 0.73451740E+03</pdfrwt>
<totfact> 0.73532511E+01</totfact>
</mgrwt>
</event>
<event>
 4    2  0.3747163E-007  0.8347000E+03  0.7818608E-02  0.9640256E-01
          2   -1    0    0  501    0  0.00000000000E+00  0.00000000000E+00  0.26407915740E+04  0.26407915740E+04  0.25500000000E-02 0. -1.
         -2   -1    0    0    0  501 -0.00000000000E+00 -0.00000000000E+00 -0.55326537291E+03  0.55326537292E+03  0.25500000000E-02 0.  1.
    8880023    1    1    2    0    0  0.22779853244E+03 -0.45937095780E+03  0.24228438310E+04  0.25625956146E+04  0.65864270000E+03 0. -1.
    8880022    1    1    2    0    0 -0.22779853244E+03  0.45937095780E+03 -0.33531762992E+03  0.63146133231E+03  0.15294330000E+03 0.  0.
<mgrwt>
<rscale>  0 0.74688118E+03</rscale>
<asrwt>0</asrwt>
<pdfrwt beam="1">  1        2 0.40627562E+00 0.83469998E+03</pdfrwt>
<pdfrwt beam="2">  1       -2 0.85117750E-01 0.83469998E+03</pdfrwt>
<totfact> 0.35922356E+00</totfact>
</mgrwt>
</event>
<event>
 4    2  0.3747163E-007  0.7872069E+03  0.7818608E-02  0.9739172E-01
          2   -1    0    0  501    0  0.00000000000E+00  0.00000000000E+00  0.82193169973E+03  0.82193169973E+03  0.25500000000E-02 0. -1.
         -2   -1    0    0    0  501 -0.00000000000E+00 -0.00000000000E+00 -0.50574566553E+03  0.50574566554E+03  0.25500000000E-02 0.  1.
    8880023    1    1    2    0    0 -0.32302790568E+03 -0.28554775364E+03  0.36481717433E+03  0.86763259759E+03  0.65864270000E+03 0.  0.
    8880022    1    1    2    0    0  0.32302790568E+03  0.28554775364E+03 -0.48631140133E+02  0.46004476767E+03  0.15294330000E+03 0.  0.
<mgrwt>
<rscale>  0 0.68731633E+03</rscale>
<asrwt>0</asrwt>
<pdfrwt beam="1">  1        2 0.12645103E+00 0.78720693E+03</pdfrwt>
<pdfrwt beam="2">  1       -2 0.77807026E-01 0.78720693E+03</pdfrwt>
<totfact> 0.49407681E+01</totfact>
</mgrwt>
</event>
<event>
 4    2  0.3747163E-007  0.7848466E+03  0.7818608E-02  0.9744573E-01
          2   -1    0    0  501    0  0.00000000000E+00  0.00000000000E+00  0.11907614188E+04  0.11907614188E+04  0.25500000000E-02 0. -1.
         -2   -1    0    0    0  501 -0.00000000000E+00 -0.00000000000E+00 -0.11418253389E+04  0.11418253389E+04  0.25500000000E-02 0.  1.
    8880023    1    1    2    0    0 -0.10413861652E+03 -0.41391919747E+03  0.10045940703E+04  0.12748307362E+04  0.65864270000E+03 0. -1.
    8880022    1    1    2    0    0  0.10413861652E+03  0.41391919747E+03 -0.95565799039E+03  0.10577560215E+04  0.15294330000E+03 0.  0.
<mgrwt>
<rscale>  0 0.68423831E+03</rscale>
<asrwt>0</asrwt>
<pdfrwt beam="1">  1        2 0.18319406E+00 0.78484658E+03</pdfrwt>
<pdfrwt beam="2">  1       -2 0.17566544E+00 0.78484658E+03</pdfrwt>
<totfact> 0.37975091E+00</totfact>
</mgrwt>
</event>
<event>
 4    2  0.3747163E-007  0.7849450E+03  0.7818608E-02  0.9744347E-01
          2   -1    0    0  501    0  0.00000000000E+00  0.00000000000E+00  0.87283464021E+03  0.87283464022E+03  0.25500000000E-02 0. -1.
         -2   -1    0    0    0  501 -0.00000000000E+00 -0.00000000000E+00 -0.71736569784E+03  0.71736569785E+03  0.25500000000E-02 0.  1.
    8880023    1    1    2    0    0 -0.12382903468E+03  0.40864990949E+03  0.57448211471E+03  0.97271181998E+03  0.65864270000E+03 0.  0.
    8880022    1    1    2    0    0  0.12382903468E+03 -0.40864990949E+03 -0.41901317233E+03  0.61748851808E+03  0.15294330000E+03 0.  0.
<mgrwt>
<rscale>  0 0.68436687E+03</rscale>
<asrwt>0</asrwt>
<pdfrwt beam="1">  1        2 0.13428225E+00 0.78494496E+03</pdfrwt>
<pdfrwt beam="2">  1       -2 0.11036395E+00 0.78494496E+03</pdfrwt>
<totfact> 0.20180036E+01</totfact>
</mgrwt>
</event>
<event>
 4    2  0.3747163E-007  0.1196107E+04  0.7818608E-02  0.9160916E-01
          2   -1    0    0  501    0  0.00000000000E+00  0.00000000000E+00  0.21842390745E+04  0.21842390745E+04  0.25500000000E-02 0. -1.
         -2   -1    0    0    0  501 -0.00000000000E+00 -0.00000000000E+00 -0.73828484235E+03  0.73828484235E+03  0.25500000000E-02 0.  1.
    8880023    1    1    2    0    0  0.99736404713E+03  0.46126461483E+02  0.14909564186E+04  0.19114455110E+04  0.65864270000E+03 0. -1.
    8880022    1    1    2    0    0 -0.99736404713E+03 -0.46126461483E+02 -0.45002186500E+02  0.10110784058E+04  0.15294330000E+03 0.  0.
<mgrwt>
<rscale>  0 0.11466112E+04</rscale>
<asrwt>0</asrwt>
<pdfrwt beam="1">  1        2 0.33603677E+00 0.11961074E+04</pdfrwt>
<pdfrwt beam="2">  1       -2 0.11358229E+00 0.11961074E+04</pdfrwt>
<totfact> 0.31353719E+00</totfact>
</mgrwt>
</event>
<event>
 4    2  0.3747163E-007  0.1194658E+04  0.7818608E-02  0.9162333E-01
         -2   -1    0    0    0  501 -0.00000000000E+00  0.00000000000E+00  0.24819185678E+04  0.24819185678E+04  0.25500000000E-02 0.  1.
          2   -1    0    0  501    0  0.00000000000E+00 -0.00000000000E+00 -0.18186796753E+04  0.18186796753E+04  0.25500000000E-02 0. -1.
    8880023    1    1    2    0    0 -0.74587796879E+03  0.66110761109E+03  0.21761130409E+04  0.24824736435E+04  0.65864270000E+03 0.  1.
    8880022    1    1    2    0    0  0.74587796879E+03 -0.66110761109E+03 -0.15128741484E+04  0.18181245996E+04  0.15294330000E+03 0.  0.
<mgrwt>
<rscale>  0 0.11450818E+04</rscale>
<asrwt>0</asrwt>
<pdfrwt beam="1">  1        2 0.27979687E+00 0.11946579E+04</pdfrwt>
<pdfrwt beam="2">  1       -2 0.38183362E+00 0.11946579E+04</pdfrwt>
<totfact> 0.80760586E-02</totfact>
</mgrwt>
</event>
<event>
 4    2  0.3747163E-007  0.7608565E+03  0.7818608E-02  0.9802895E-01
          2   -1    0    0  501    0  0.00000000000E+00  0.00000000000E+00  0.13036989939E+04  0.13036989939E+04  0.25500000000E-02 0. -1.
         -2   -1    0    0    0  501 -0.00000000000E+00 -0.00000000000E+00 -0.36311329347E+03  0.36311329348E+03  0.25500000000E-02 0.  1.
    8880023    1    1    2    0    0  0.36407938006E+03 -0.11197611186E+03  0.99519942188E+03  0.12527268418E+04  0.65864270000E+03 0. -1.
    8880022    1    1    2    0    0 -0.36407938006E+03  0.11197611186E+03 -0.54613721488E+02  0.41408544553E+03  0.15294330000E+03 0.  0.
<mgrwt>
<rscale>  0 0.65207409E+03</rscale>
<asrwt>0</asrwt>
<pdfrwt beam="1">  1        2 0.20056908E+00 0.76085652E+03</pdfrwt>
<pdfrwt beam="2">  1       -2 0.55863583E-01 0.76085652E+03</pdfrwt>
<totfact> 0.50393306E+01</totfact>
</mgrwt>
</event>
<event>
 4    2  0.3747163E-007  0.7135813E+03  0.7818608E-02  0.9944935E-01
         -2   -1    0    0    0  501 -0.00000000000E+00  0.00000000000E+00  0.35008667573E+03  0.35008667574E+03  0.25500000000E-02 0.  1.
          2   -1    0    0  501    0  0.00000000000E+00 -0.00000000000E+00 -0.26994021242E+04  0.26994021242E+04  0.25500000000E-02 0. -1.
    8880023    1    1    2    0    0 -0.80496359506E+01  0.27445090824E+03 -0.25688478827E+04  0.26661166044E+04  0.65864270000E+03 0. -1.
    8880022    1    1    2    0    0  0.80496359506E+01 -0.27445090824E+03  0.21953243417E+03  0.38337219557E+03  0.15294330000E+03 0.  0.
<mgrwt>
<rscale>  0 0.58132111E+03</rscale>
<asrwt>0</asrwt>
<pdfrwt beam="1">  1        2 0.41529262E+00 0.71358132E+03</pdfrwt>
<pdfrwt beam="2">  1       -2 0.53859490E-01 0.71358132E+03</pdfrwt>
<totfact> 0.91602299E+00</totfact>
</mgrwt>
</event>
<event>
 4    2  0.3747163E-007  0.6728265E+03  0.7818608E-02  0.1013713E+00
          2   -1    0    0  501    0  0.00000000000E+00  0.00000000000E+00  0.12574132905E+04  0.12574132905E+04  0.25500000000E-02 0. -1.
         -2   -1    0    0    0  501 -0.00000000000E+00 -0.00000000000E+00 -0.16341058571E+03  0.16341058573E+03  0.25500000000E-02 0.  1.
    8880023    1    1    2    0    0  0.74896266521E+02 -0.11522073833E+03  0.97067175573E+03  0.11810584799E+04  0.65864270000E+03 0.  0.
    8880022    1    1    2    0    0 -0.74896266521E+02  0.11522073833E+03  0.12333094909E+03  0.23976539638E+03  0.15294330000E+03 0. -1.
<mgrwt>
<rscale>  0 0.50025361E+03</rscale>
<asrwt>0</asrwt>
<pdfrwt beam="1">  1        2 0.19344820E+00 0.67282648E+03</pdfrwt>
<pdfrwt beam="2">  1       -2 0.25140089E-01 0.67282648E+03</pdfrwt>
<totfact> 0.25243222E+02</totfact>
</mgrwt>
</event>
<event>
 4    2  0.3747163E-007  0.7010598E+03  0.7818608E-02  0.9992833E-01
         -2   -1    0    0    0  501 -0.00000000000E+00  0.00000000000E+00  0.46429590996E+03  0.46429590997E+03  0.25500000000E-02 0.  1.
          2   -1    0    0  501    0  0.00000000000E+00 -0.00000000000E+00 -0.25143436045E+04  0.25143436045E+04  0.25500000000E-02 0. -1.
    8880023    1    1    2    0    0 -0.22424727286E+03  0.85952635994E+02 -0.24156073092E+04  0.25152820068E+04  0.65864270000E+03 0. -1.
    8880022    1    1    2    0    0  0.22424727286E+03 -0.85952635994E+02  0.36555961468E+03  0.46335750768E+03  0.15294330000E+03 0.  0.
<mgrwt>
<rscale>  0 0.55965630E+03</rscale>
<asrwt>0</asrwt>
<pdfrwt beam="1">  1        2 0.38682209E+00 0.70105984E+03</pdfrwt>
<pdfrwt beam="2">  1       -2 0.71430141E-01 0.70105984E+03</pdfrwt>
<totfact> 0.64331715E+00</totfact>
</mgrwt>
</event>
<event>
 4    2  0.3747163E-007  0.7306877E+03  0.7818608E-02  0.9887954E-01
         -2   -1    0    0    0  501 -0.00000000000E+00  0.00000000000E+00  0.25938921883E+03  0.25938921884E+03  0.25500000000E-02 0.  1.
          2   -1    0    0  501    0  0.00000000000E+00 -0.00000000000E+00 -0.20745347460E+04  0.20745347460E+04  0.25500000000E-02 0. -1.
    8880023    1    1    2    0    0  0.25686546884E+03 -0.18470078423E+03 -0.18418617287E+04  0.19815042474E+04  0.65864270000E+03 0. -1.
    8880022    1    1    2    0    0 -0.25686546884E+03  0.18470078423E+03  0.26716201507E+02  0.35241971741E+03  0.15294330000E+03 0.  0.
<mgrwt>
<rscale>  0 0.60848658E+03</rscale>
<asrwt>0</asrwt>
<pdfrwt beam="1">  1        2 0.31915918E+00 0.73068766E+03</pdfrwt>
<pdfrwt beam="2">  1       -2 0.39906035E-01 0.73068766E+03</pdfrwt>
<totfact> 0.37356483E+01</totfact>
</mgrwt>
</event>
<event>
 4    2  0.3747163E-007  0.8930757E+03  0.7818608E-02  0.9537240E-01
          2   -1    0    0  501    0  0.00000000000E+00  0.00000000000E+00  0.16835539229E+04  0.16835539229E+04  0.25500000000E-02 0. -1.
         -2   -1    0    0    0  501 -0.00000000000E+00 -0.00000000000E+00 -0.76892977555E+03  0.76892977555E+03  0.25500000000E-02 0.  1.
    8880023    1    1    2    0    0 -0.46371431513E+03  0.38567214137E+03  0.14018763608E+04  0.16621797448E+04  0.65864270000E+03 0. -1.
    8880022    1    1    2    0    0  0.46371431513E+03 -0.38567214137E+03 -0.48725221345E+03  0.79030395369E+03  0.15294330000E+03 0.  0.
<mgrwt>
<rscale>  0 0.81593074E+03</rscale>
<asrwt>0</asrwt>
<pdfrwt beam="1">  1        2 0.25900829E+00 0.89307568E+03</pdfrwt>
<pdfrwt beam="2">  1       -2 0.11829689E+00 0.89307568E+03</pdfrwt>
<totfact> 0.55572257E+00</totfact>
</mgrwt>
</event>
<event>
 4    2  0.3747163E-007  0.7808621E+03  0.7818608E-02  0.9753816E-01
         -2   -1    0    0    0  501 -0.00000000000E+00  0.00000000000E+00  0.70265154903E+03  0.70265154903E+03  0.25500000000E-02 0.  1.
          2   -1    0    0  501    0  0.00000000000E+00 -0.00000000000E+00 -0.60067426839E+03  0.60067426840E+03  0.25500000000E-02 0. -1.
    8880023    1    1    2    0    0  0.16155453418E+03  0.38708605812E+03  0.27010433194E+03  0.82625785340E+03  0.65864270000E+03 0.  0.
    8880022    1    1    2    0    0 -0.16155453418E+03 -0.38708605812E+03 -0.16812705131E+03  0.47706796403E+03  0.15294330000E+03 0.  1.
<mgrwt>
<rscale>  0 0.67901064E+03</rscale>
<asrwt>0</asrwt>
<pdfrwt beam="1">  1        2 0.92411426E-01 0.78086215E+03</pdfrwt>
<pdfrwt beam="2">  1       -2 0.10810024E+00 0.78086215E+03</pdfrwt>
<totfact> 0.34290665E+01</totfact>
</mgrwt>
</event>
<event>
 4    2  0.3747163E-007  0.7907414E+03  0.7818608E-02  0.9731185E-01
          2   -1    0    0  501    0  0.00000000000E+00  0.00000000000E+00  0.16658783442E+04  0.16658783442E+04  0.25500000000E-02 0. -1.
         -2   -1    0    0    0  501 -0.00000000000E+00 -0.00000000000E+00 -0.39087843471E+03  0.39087843472E+03  0.25500000000E-02 0.  1.
    8880023    1    1    2    0    0 -0.25873471116E+03 -0.35287122731E+03  0.13716593722E+04  0.15832628946E+04  0.65864270000E+03 0.  0.
    8880022    1    1    2    0    0  0.25873471116E+03  0.35287122731E+03 -0.96659462646E+02  0.47349388439E+03  0.15294330000E+03 0.  0.
<mgrwt>
<rscale>  0 0.69190049E+03</rscale>
<asrwt>0</asrwt>
<pdfrwt beam="1">  1        2 0.25628898E+00 0.79074140E+03</pdfrwt>
<pdfrwt beam="2">  1       -2 0.60135143E-01 0.79074140E+03</pdfrwt>
<totfact> 0.26977185E+01</totfact>
</mgrwt>
</event>
<event>
 4    2  0.3747163E-007  0.8139688E+03  0.7818608E-02  0.9681369E-01
         -2   -1    0    0    0  501 -0.00000000000E+00  0.00000000000E+00  0.66778553281E+03  0.66778553281E+03  0.25500000000E-02 0.  1.
          2   -1    0    0  501    0  0.00000000000E+00 -0.00000000000E+00 -0.13022767476E+04  0.13022767476E+04  0.25500000000E-02 0. -1.
    8880023    1    1    2    0    0 -0.15341358318E+03  0.45298921666E+03 -0.10428103990E+04  0.13228751613E+04  0.65864270000E+03 0. -1.
    8880022    1    1    2    0    0  0.15341358318E+03 -0.45298921666E+03  0.40831918420E+03  0.64718711909E+03  0.15294330000E+03 0.  0.
<mgrwt>
<rscale>  0 0.72137011E+03</rscale>
<asrwt>0</asrwt>
<pdfrwt beam="1">  1        2 0.20035027E+00 0.81396877E+03</pdfrwt>
<pdfrwt beam="2">  1       -2 0.10273624E+00 0.81396877E+03</pdfrwt>
<totfact> 0.12934862E+01</totfact>
</mgrwt>
</event>
<event>
 4    2  0.5168616E-007  0.7044251E+03  0.7818608E-02  0.9979317E-01
         -2   -1    0    0    0  501 -0.00000000000E+00  0.00000000000E+00  0.12293818931E+04  0.12293818931E+04  0.25500000000E-02 0.  1.
          2   -1    0    0  501    0  0.00000000000E+00 -0.00000000000E+00 -0.15478327446E+04  0.15478327446E+04  0.25500000000E-02 0. -1.
    8880023    1    1    2    0    0 -0.24775516723E+03  0.31966094005E+02 -0.14480273587E+04  0.16102788243E+04  0.65864270000E+03 0. -1.
    8880022    1    1    2    0    0  0.24775516723E+03 -0.31966094005E+02  0.11295765072E+04  0.11669358134E+04  0.15294330000E+03 0.  0.
<mgrwt>
<rscale>  0 0.56566531E+03</rscale>
<asrwt>0</asrwt>
<pdfrwt beam="1">  1        2 0.23812812E+00 0.70442506E+03</pdfrwt>
<pdfrwt beam="2">  1       -2 0.18913567E+00 0.70442506E+03</pdfrwt>
<totfact> 0.19495490E+00</totfact>
</mgrwt>
</event>
<event>
 4    2  0.3747163E-007  0.6815162E+03  0.7818608E-02  0.1008479E+00
          2   -1    0    0  501    0  0.00000000000E+00  0.00000000000E+00  0.17310328122E+04  0.17310328122E+04  0.25500000000E-02 0. -1.
         -2   -1    0    0    0  501 -0.00000000000E+00 -0.00000000000E+00 -0.12142134475E+03  0.12142134478E+03  0.25500000000E-02 0.  1.
    8880023    1    1    2    0    0 -0.75745707739E+02  0.15785039488E+03  0.11332477361E+04  0.13223898053E+04  0.65864270000E+03 0.  1.
    8880022    1    1    2    0    0  0.75745707739E+02 -0.15785039488E+03  0.47636373135E+03  0.53006435172E+03  0.15294330000E+03 0. -1.
<mgrwt>
<rscale>  0 0.52083769E+03</rscale>
<asrwt>0</asrwt>
<pdfrwt beam="1">  1        2 0.26631273E+00 0.68151623E+03</pdfrwt>
<pdfrwt beam="2">  1       -2 0.18680207E-01 0.68151623E+03</pdfrwt>
<totfact> 0.23199977E+02</totfact>
</mgrwt>
</event>
<event>
 4    2  0.3747163E-007  0.7437106E+03  0.7818608E-02  0.9849267E-01
          2   -1    0    0  501    0  0.00000000000E+00  0.00000000000E+00  0.30523728379E+04  0.30523728379E+04  0.25500000000E-02 0. -1.
         -2   -1    0    0    0  501 -0.00000000000E+00 -0.00000000000E+00 -0.12152327266E+03  0.12152327269E+03  0.25500000000E-02 0.  1.
    8880023    1    1    2    0    0  0.21255041962E+03  0.27224541590E+03  0.24616305877E+04  0.25715230125E+04  0.65864270000E+03 0. -1.
    8880022    1    1    2    0    0 -0.21255041962E+03 -0.27224541590E+03  0.46921897747E+03  0.60237309799E+03  0.15294330000E+03 0.  0.
<mgrwt>
<rscale>  0 0.62784290E+03</rscale>
<asrwt>0</asrwt>
<pdfrwt beam="1">  1        2 0.46959577E+00 0.74371060E+03</pdfrwt>
<pdfrwt beam="2">  1       -2 0.18695890E-01 0.74371060E+03</pdfrwt>
<totfact> 0.41025724E+01</totfact>
</mgrwt>
</event>
<event>
 4    2  0.3747163E-007  0.6963231E+03  0.7818608E-02  0.1001281E+00
          2   -1    0    0  501    0  0.00000000000E+00  0.00000000000E+00  0.10175681943E+04  0.10175681943E+04  0.25500000000E-02 0. -1.
         -2   -1    0    0    0  501 -0.00000000000E+00 -0.00000000000E+00 -0.28992177499E+03  0.28992177500E+03  0.25500000000E-02 0.  1.
    8880023    1    1    2    0    0 -0.85069255097E+02  0.20932945548E+03  0.76228970993E+03  0.10324492274E+04  0.65864270000E+03 0. -1.
    8880022    1    1    2    0    0  0.85069255097E+02 -0.20932945548E+03 -0.34643290612E+02  0.27504074188E+03  0.15294330000E+03 0.  1.
<mgrwt>
<rscale>  0 0.55092080E+03</rscale>
<asrwt>0</asrwt>
<pdfrwt beam="1">  1        2 0.15654895E+00 0.69632306E+03</pdfrwt>
<pdfrwt beam="2">  1       -2 0.44603350E-01 0.69632306E+03</pdfrwt>
<totfact> 0.11897544E+02</totfact>
</mgrwt>
</event>
<event>
 4    2  0.3747163E-007  0.7195701E+03  0.7818608E-02  0.9924043E-01
          2   -1    0    0  501    0  0.00000000000E+00  0.00000000000E+00  0.88872942318E+03  0.88872942318E+03  0.25500000000E-02 0. -1.
         -2   -1    0    0    0  501 -0.00000000000E+00 -0.00000000000E+00 -0.34385350443E+03  0.34385350444E+03  0.25500000000E-02 0.  1.
    8880023    1    1    2    0    0 -0.65970768492E+02 -0.28216798349E+03  0.54868944454E+03  0.90489846171E+03  0.65864270000E+03 0. -1.
    8880022    1    1    2    0    0  0.65970768492E+02  0.28216798349E+03 -0.38135257931E+01  0.32768446590E+03  0.15294330000E+03 0.  0.
<mgrwt>
<rscale>  0 0.59110065E+03</rscale>
<asrwt>0</asrwt>
<pdfrwt beam="1">  1        2 0.13672760E+00 0.71957009E+03</pdfrwt>
<pdfrwt beam="2">  1       -2 0.52900539E-01 0.71957009E+03</pdfrwt>
<totfact> 0.10208231E+02</totfact>
</mgrwt>
</event>
<event>
 4    2  0.3747163E-007  0.6804608E+03  0.7818608E-02  0.1009064E+00
         -2   -1    0    0    0  501 -0.00000000000E+00  0.00000000000E+00  0.12543400234E+03  0.12543400237E+03  0.25500000000E-02 0.  1.
          2   -1    0    0  501    0  0.00000000000E+00 -0.00000000000E+00 -0.29644022349E+04  0.29644022349E+04  0.25500000000E-02 0. -1.
    8880023    1    1    2    0    0  0.16282908352E+03  0.51993895785E+02 -0.27670060606E+04  0.28494472133E+04  0.65864270000E+03 0. -1.
    8880022    1    1    2    0    0 -0.16282908352E+03 -0.51993895785E+02 -0.71962171939E+02  0.24038902396E+03  0.15294330000E+03 0.  0.
<mgrwt>
<rscale>  0 0.51848254E+03</rscale>
<asrwt>0</asrwt>
<pdfrwt beam="1">  1        2 0.45606183E+00 0.68046079E+03</pdfrwt>
<pdfrwt beam="2">  1       -2 0.19297541E-01 0.68046079E+03</pdfrwt>
<totfact> 0.44391854E+01</totfact>
</mgrwt>
</event>
<event>
 4    2  0.3747163E-007  0.7665025E+03  0.7818608E-02  0.9788555E-01
          2   -1    0    0  501    0  0.00000000000E+00  0.00000000000E+00  0.23365874414E+04  0.23365874414E+04  0.25500000000E-02 0. -1.
         -2   -1    0    0    0  501 -0.00000000000E+00 -0.00000000000E+00 -0.23829405223E+03  0.23829405225E+03  0.25500000000E-02 0.  1.
    8880023    1    1    2    0    0 -0.24944769204E+03 -0.30247598963E+03  0.20012186985E+04  0.21429891182E+04  0.65864270000E+03 0. -1.
    8880022    1    1    2    0    0  0.24944769204E+03  0.30247598963E+03  0.97074690677E+02  0.43189237542E+03  0.15294330000E+03 0.  0.
<mgrwt>
<rscale>  0 0.65980380E+03</rscale>
<asrwt>0</asrwt>
<pdfrwt beam="1">  1        2 0.35947498E+00 0.76650250E+03</pdfrwt>
<pdfrwt beam="2">  1       -2 0.36660625E-01 0.76650250E+03</pdfrwt>
<totfact> 0.31404250E+01</totfact>
</mgrwt>
</event>
<event>
 4    2  0.3747163E-007  0.8971957E+03  0.7818608E-02  0.9530548E-01
          2   -1    0    0  501    0  0.00000000000E+00  0.00000000000E+00  0.14609984706E+04  0.14609984706E+04  0.25500000000E-02 0. -1.
         -2   -1    0    0    0  501 -0.00000000000E+00 -0.00000000000E+00 -0.71447644857E+03  0.71447644858E+03  0.25500000000E-02 0.  1.
    8880023    1    1    2    0    0 -0.13124414043E+03 -0.59491588493E+03  0.11274489844E+04  0.14408682637E+04  0.65864270000E+03 0. -1.
    8880022    1    1    2    0    0  0.13124414043E+03  0.59491588493E+03 -0.38092696243E+03  0.73460665547E+03  0.15294330000E+03 0.  0.
<mgrwt>
<rscale>  0 0.82068593E+03</rscale>
<asrwt>0</asrwt>
<pdfrwt beam="1">  1        2 0.22476899E+00 0.89719571E+03</pdfrwt>
<pdfrwt beam="2">  1       -2 0.10991945E+00 0.89719571E+03</pdfrwt>
<totfact> 0.88393818E+00</totfact>
</mgrwt>
</event>
<event>
 4    2  0.3747163E-007  0.7109510E+03  0.7818608E-02  0.9954486E-01
         -2   -1    0    0    0  501 -0.00000000000E+00  0.00000000000E+00  0.43081846939E+03  0.43081846940E+03  0.25500000000E-02 0.  1.
          2   -1    0    0  501    0  0.00000000000E+00 -0.00000000000E+00 -0.98819102189E+03  0.98819102189E+03  0.25500000000E-02 0. -1.
    8880023    1    1    2    0    0 -0.24324937404E+03  0.11167312638E+03 -0.76730368953E+03  0.10460431651E+04  0.65864270000E+03 0.  0.
    8880022    1    1    2    0    0  0.24324937404E+03 -0.11167312638E+03  0.20993113703E+03  0.37296632614E+03  0.15294330000E+03 0.  0.
<mgrwt>
<rscale>  0 0.57691782E+03</rscale>
<asrwt>0</asrwt>
<pdfrwt beam="1">  1        2 0.15202939E+00 0.71095102E+03</pdfrwt>
<pdfrwt beam="2">  1       -2 0.66279765E-01 0.71095102E+03</pdfrwt>
<totfact> 0.54659581E+01</totfact>
</mgrwt>
</event>
<event>
 4    2  0.3747163E-007  0.6639900E+03  0.7818608E-02  0.1020396E+00
         -2   -1    0    0    0  501 -0.00000000000E+00  0.00000000000E+00  0.57027724780E+03  0.57027724780E+03  0.25500000000E-02 0.  1.
          2   -1    0    0  501    0  0.00000000000E+00 -0.00000000000E+00 -0.46122411827E+03  0.46122411828E+03  0.25500000000E-02 0. -1.
    8880023    1    1    2    0    0  0.53249795396E+02 -0.65091585533E+02 -0.18523796687E+03  0.68934444645E+03  0.65864270000E+03 0. -1.
    8880022    1    1    2    0    0 -0.53249795396E+02  0.65091585533E+02  0.29429109640E+03  0.34215691963E+03  0.15294330000E+03 0.  0.
<mgrwt>
<rscale>  0 0.47543888E+03</rscale>
<asrwt>0</asrwt>
<pdfrwt beam="1">  1        2 0.70957556E-01 0.66398996E+03</pdfrwt>
<pdfrwt beam="2">  1       -2 0.87734961E-01 0.66398996E+03</pdfrwt>
<totfact> 0.77008322E+01</totfact>
</mgrwt>
</event>
<event>
 4    2  0.3747163E-007  0.8260605E+03  0.7818608E-02  0.9657046E-01
          2   -1    0    0  501    0  0.00000000000E+00  0.00000000000E+00  0.17445305707E+04  0.17445305707E+04  0.25500000000E-02 0. -1.
         -2   -1    0    0    0  501 -0.00000000000E+00 -0.00000000000E+00 -0.33112849439E+03  0.33112849440E+03  0.25500000000E-02 0.  1.
    8880023    1    1    2    0    0 -0.40705328541E+03  0.28787748543E+03  0.13027185718E+04  0.15425471491E+04  0.65864270000E+03 0.  0.
    8880022    1    1    2    0    0  0.40705328541E+03 -0.28787748543E+03  0.11068350457E+03  0.53311191600E+03  0.15294330000E+03 0.  0.
<mgrwt>
<rscale>  0 0.73632837E+03</rscale>
<asrwt>0</asrwt>
<pdfrwt beam="1">  1        2 0.26838931E+00 0.82606055E+03</pdfrwt>
<pdfrwt beam="2">  1       -2 0.50942846E-01 0.82606055E+03</pdfrwt>
<totfact> 0.34354525E+01</totfact>
</mgrwt>
</event>
<event>
 4    2  0.3747163E-007  0.6807946E+03  0.7818608E-02  0.1008878E+00
          2   -1    0    0  501    0  0.00000000000E+00  0.00000000000E+00  0.15665253328E+04  0.15665253328E+04  0.25500000000E-02 0. -1.
         -2   -1    0    0    0  501 -0.00000000000E+00 -0.00000000000E+00 -0.38330960191E+03  0.38330960192E+03  0.25500000000E-02 0.  1.
    8880023    1    1    2    0    0  0.11934509731E+03 -0.12420900369E+03  0.14472864178E+04  0.15994121764E+04  0.65864270000E+03 0. -1.
    8880022    1    1    2    0    0 -0.11934509731E+03  0.12420900369E+03 -0.26407068686E+03  0.35042275829E+03  0.15294330000E+03 0.  0.
<mgrwt>
<rscale>  0 0.51923128E+03</rscale>
<asrwt>0</asrwt>
<pdfrwt beam="1">  1        2 0.24100390E+00 0.68079464E+03</pdfrwt>
<pdfrwt beam="2">  1       -2 0.58970707E-01 0.68079464E+03</pdfrwt>
<totfact> 0.32309886E+01</totfact>
</mgrwt>
</event>
<event>
 4    2  0.3747163E-007  0.8300420E+03  0.7818608E-02  0.9649251E-01
          2   -1    0    0  501    0  0.00000000000E+00  0.00000000000E+00  0.14336112231E+04  0.14336112231E+04  0.25500000000E-02 0. -1.
         -2   -1    0    0    0  501 -0.00000000000E+00 -0.00000000000E+00 -0.82106908291E+03  0.82106908291E+03  0.25500000000E-02 0.  1.
    8880023    1    1    2    0    0 -0.49955485543E+03 -0.74863485335E+02  0.12037385136E+04  0.14621751641E+04  0.65864270000E+03 0.  0.
    8880022    1    1    2    0    0  0.49955485543E+03  0.74863485335E+02 -0.59119637343E+03  0.79250514193E+03  0.15294330000E+03 0.  0.
<mgrwt>
<rscale>  0 0.74120478E+03</rscale>
<asrwt>0</asrwt>
<pdfrwt beam="1">  1        2 0.22055557E+00 0.83004205E+03</pdfrwt>
<pdfrwt beam="2">  1       -2 0.12631832E+00 0.83004205E+03</pdfrwt>
<totfact> 0.65495810E+00</totfact>
</mgrwt>
</event>
<event>
 4    2  0.3747163E-007  0.1282557E+04  0.7818608E-02  0.9080772E-01
          2   -1    0    0  501    0  0.00000000000E+00  0.00000000000E+00  0.31290125993E+04  0.31290125993E+04  0.25500000000E-02 0. -1.
         -2   -1    0    0    0  501 -0.00000000000E+00 -0.00000000000E+00 -0.56348091004E+03  0.56348091005E+03  0.25500000000E-02 0.  1.
    8880023    1    1    2    0    0  0.10848522857E+04 -0.18503122528E+03  0.21553865402E+04  0.25081153044E+04  0.65864270000E+03 0.  0.
    8880022    1    1    2    0    0 -0.10848522857E+04  0.18503122528E+03  0.41014514907E+03  0.11843782050E+04  0.15294330000E+03 0.  0.
<mgrwt>
<rscale>  0 0.12373575E+04</rscale>
<asrwt>0</asrwt>
<pdfrwt beam="1">  1        2 0.48138655E+00 0.12825565E+04</pdfrwt>
<pdfrwt beam="2">  1       -2 0.86689371E-01 0.12825565E+04</pdfrwt>
<totfact> 0.16347985E+00</totfact>
</mgrwt>
</event>
<event>
 4    2  0.3747163E-007  0.6615142E+03  0.7818608E-02  0.1022656E+00
         -2   -1    0    0    0  501 -0.00000000000E+00  0.00000000000E+00  0.30369959006E+03  0.30369959007E+03  0.25500000000E-02 0.  1.
          2   -1    0    0  501    0  0.00000000000E+00 -0.00000000000E+00 -0.70497910858E+03  0.70497910859E+03  0.25500000000E-02 0. -1.
    8880023    1    1    2    0    0  0.45769337862E+02  0.41182591522E+02 -0.48833427810E+03  0.82223561803E+03  0.65864270000E+03 0. -1.
    8880022    1    1    2    0    0 -0.45769337862E+02 -0.41182591522E+02  0.87054759575E+02  0.18644308062E+03  0.15294330000E+03 0.  0.
<mgrwt>
<rscale>  0 0.46740197E+03</rscale>
<asrwt>0</asrwt>
<pdfrwt beam="1">  1        2 0.10845832E+00 0.66151421E+03</pdfrwt>
<pdfrwt beam="2">  1       -2 0.46723014E-01 0.66151421E+03</pdfrwt>
<totfact> 0.17893656E+02</totfact>
</mgrwt>
</event>
<event>
 4    2  0.3747163E-007  0.8558887E+03  0.7818608E-02  0.9600919E-01
         -2   -1    0    0    0  501 -0.00000000000E+00  0.00000000000E+00  0.29645727353E+03  0.29645727355E+03  0.25500000000E-02 0.  1.
          2   -1    0    0  501    0  0.00000000000E+00 -0.00000000000E+00 -0.28633426704E+04  0.28633426704E+04  0.25500000000E-02 0. -1.
    8880023    1    1    2    0    0  0.50793215035E+03 -0.20184214328E+03 -0.24294914977E+04  0.25758444176E+04  0.65864270000E+03 0. -1.
    8880022    1    1    2    0    0 -0.50793215035E+03  0.20184214328E+03 -0.13739389915E+03  0.58395552631E+03  0.15294330000E+03 0.  0.
<mgrwt>
<rscale>  0 0.77235395E+03</rscale>
<asrwt>0</asrwt>
<pdfrwt beam="1">  1        2 0.44051424E+00 0.85588873E+03</pdfrwt>
<pdfrwt beam="2">  1       -2 0.45608813E-01 0.85588873E+03</pdfrwt>
<totfact> 0.10038688E+01</totfact>
</mgrwt>
</event>
<event>
 4    2  0.3747163E-007  0.7032520E+03  0.7818608E-02  0.9983969E-01
          2   -1    0    0  501    0  0.00000000000E+00  0.00000000000E+00  0.70427898780E+03  0.70427898780E+03  0.25500000000E-02 0. -1.
         -2   -1    0    0    0  501 -0.00000000000E+00 -0.00000000000E+00 -0.44006985301E+03  0.44006985302E+03  0.25500000000E-02 0.  1.
    8880023    1    1    2    0    0 -0.18747809423E+03 -0.16001602587E+03  0.41587396271E+03  0.81701562009E+03  0.65864270000E+03 0. -1.
    8880022    1    1    2    0    0  0.18747809423E+03  0.16001602587E+03 -0.15166482792E+03  0.32733322073E+03  0.15294330000E+03 0.  0.
<mgrwt>
<rscale>  0 0.56358789E+03</rscale>
<asrwt>0</asrwt>
<pdfrwt beam="1">  1        2 0.10835061E+00 0.70325200E+03</pdfrwt>
<pdfrwt beam="2">  1       -2 0.67703055E-01 0.70325200E+03</pdfrwt>
<totfact> 0.82536515E+01</totfact>
</mgrwt>
</event>
<event>
 4    2  0.3747163E-007  0.7224186E+03  0.7818608E-02  0.9914486E-01
         -2   -1    0    0    0  501 -0.00000000000E+00  0.00000000000E+00  0.31521131419E+03  0.31521131420E+03  0.25500000000E-02 0.  1.
          2   -1    0    0  501    0  0.00000000000E+00 -0.00000000000E+00 -0.21238837417E+04  0.21238837417E+04  0.25500000000E-02 0. -1.
    8880023    1    1    2    0    0  0.47729549512E+02  0.29291697126E+03 -0.19477560200E+04  0.20774123764E+04  0.65864270000E+03 0. -1.
    8880022    1    1    2    0    0 -0.47729549512E+02 -0.29291697126E+03  0.13908359248E+03  0.36168267952E+03  0.15294330000E+03 0.  0.
<mgrwt>
<rscale>  0 0.59564364E+03</rscale>
<asrwt>0</asrwt>
<pdfrwt beam="1">  1        2 0.32675134E+00 0.72241862E+03</pdfrwt>
<pdfrwt beam="2">  1       -2 0.48494050E-01 0.72241862E+03</pdfrwt>
<totfact> 0.23869069E+01</totfact>
</mgrwt>
</event>
<event>
 4    2  0.3747163E-007  0.8100123E+03  0.7818608E-02  0.9689551E-01
          2   -1    0    0  501    0  0.00000000000E+00  0.00000000000E+00  0.38012610242E+04  0.38012610242E+04  0.25500000000E-02 0. -1.
         -2   -1    0    0    0  501 -0.00000000000E+00 -0.00000000000E+00 -0.17903831795E+03  0.17903831796E+03  0.25500000000E-02 0.  1.
    8880023    1    1    2    0    0 -0.45923442174E+03 -0.10683397987E+03  0.32785507847E+04  0.33771312096E+04  0.65864270000E+03 0. -1.
    8880022    1    1    2    0    0  0.45923442174E+03  0.10683397987E+03  0.34367192159E+03  0.60316813251E+03  0.15294330000E+03 0.  0.
<mgrwt>
<rscale>  0 0.71642325E+03</rscale>
<asrwt>0</asrwt>
<pdfrwt beam="1">  1        2 0.58480944E+00 0.81001232E+03</pdfrwt>
<pdfrwt beam="2">  1       -2 0.27544354E-01 0.81001232E+03</pdfrwt>
<totfact> 0.63628024E+00</totfact>
</mgrwt>
</event>
<event>
 4    2  0.3747163E-007  0.7145948E+03  0.7818608E-02  0.9941318E-01
         -2   -1    0    0    0  501 -0.00000000000E+00  0.00000000000E+00  0.28187451510E+03  0.28187451512E+03  0.25500000000E-02 0.  1.
          2   -1    0    0  501    0  0.00000000000E+00 -0.00000000000E+00 -0.20302545806E+04  0.20302545806E+04  0.25500000000E-02 0. -1.
    8880023    1    1    2    0    0 -0.24110918416E+03  0.13675496140E+03 -0.18470971392E+04  0.19805084211E+04  0.65864270000E+03 0. -1.
    8880022    1    1    2    0    0  0.24110918416E+03 -0.13675496140E+03  0.98717073731E+02  0.33162067459E+03  0.15294330000E+03 0.  0.
<mgrwt>
<rscale>  0 0.58299940E+03</rscale>
<asrwt>0</asrwt>
<pdfrwt beam="1">  1        2 0.31234685E+00 0.71459483E+03</pdfrwt>
<pdfrwt beam="2">  1       -2 0.43365311E-01 0.71459483E+03</pdfrwt>
<totfact> 0.33619542E+01</totfact>
</mgrwt>
</event>
<event>
 4    2  0.3747163E-007  0.1028703E+04  0.7818608E-02  0.9344933E-01
         -2   -1    0    0    0  501 -0.00000000000E+00  0.00000000000E+00  0.70946951487E+03  0.70946951487E+03  0.25500000000E-02 0.  1.
          2   -1    0    0  501    0  0.00000000000E+00 -0.00000000000E+00 -0.18550907075E+04  0.18550907075E+04  0.25500000000E-02 0. -1.
    8880023    1    1    2    0    0 -0.38370064264E+03 -0.69079164561E+03 -0.13846411004E+04  0.17249523078E+04  0.65864270000E+03 0. -1.
    8880022    1    1    2    0    0  0.38370064264E+03  0.69079164561E+03  0.23901990786E+03  0.83960791455E+03  0.15294330000E+03 0.  0.
<mgrwt>
<rscale>  0 0.96749445E+03</rscale>
<asrwt>0</asrwt>
<pdfrwt beam="1">  1        2 0.28539857E+00 0.10287028E+04</pdfrwt>
<pdfrwt beam="2">  1       -2 0.10914916E+00 0.10287028E+04</pdfrwt>
<totfact> 0.53555580E+00</totfact>
</mgrwt>
</event>
<event>
 4    2  0.3747163E-007  0.9653822E+03  0.7818608E-02  0.9428319E-01
          2   -1    0    0  501    0  0.00000000000E+00  0.00000000000E+00  0.14437551082E+04  0.14437551082E+04  0.25500000000E-02 0. -1.
         -2   -1    0    0    0  501 -0.00000000000E+00 -0.00000000000E+00 -0.10513383131E+04  0.10513383131E+04  0.25500000000E-02 0.  1.
    8880023    1    1    2    0    0 -0.27401147524E+03 -0.65043860243E+03  0.11140700503E+04  0.14741488891E+04  0.65864270000E+03 0. -1.
    8880022    1    1    2    0    0  0.27401147524E+03  0.65043860243E+03 -0.72165325512E+03  0.10209445322E+04  0.15294330000E+03 0.  0.
<mgrwt>
<rscale>  0 0.89781298E+03</rscale>
<asrwt>0</asrwt>
<pdfrwt beam="1">  1        2 0.22211617E+00 0.96538224E+03</pdfrwt>
<pdfrwt beam="2">  1       -2 0.16174436E+00 0.96538224E+03</pdfrwt>
<totfact> 0.33285599E+00</totfact>
</mgrwt>
</event>
<event>
 4    2  0.3747163E-007  0.8424345E+03  0.7818608E-02  0.9625607E-01
          2   -1    0    0  501    0  0.00000000000E+00  0.00000000000E+00  0.99643497534E+03  0.99643497535E+03  0.25500000000E-02 0. -1.
         -2   -1    0    0    0  501 -0.00000000000E+00 -0.00000000000E+00 -0.61417146890E+03  0.61417146891E+03  0.25500000000E-02 0.  1.
    8880023    1    1    2    0    0 -0.50869375472E+03 -0.13082956921E+03  0.58668968388E+03  0.10265966607E+04  0.65864270000E+03 0.  1.
    8880022    1    1    2    0    0  0.50869375472E+03  0.13082956921E+03 -0.20442617744E+03  0.58400978358E+03  0.15294330000E+03 0.  0.
<mgrwt>
<rscale>  0 0.75624297E+03</rscale>
<asrwt>0</asrwt>
<pdfrwt beam="1">  1        2 0.15329769E+00 0.84243452E+03</pdfrwt>
<pdfrwt beam="2">  1       -2 0.94487919E-01 0.84243452E+03</pdfrwt>
<totfact> 0.24077807E+01</totfact>
</mgrwt>
</event>
<event>
 4    2  0.3747163E-007  0.6716368E+03  0.7818608E-02  0.1014516E+00
          2   -1    0    0  501    0  0.00000000000E+00  0.00000000000E+00  0.52289627125E+03  0.52289627125E+03  0.25500000000E-02 0. -1.
         -2   -1    0    0    0  501 -0.00000000000E+00 -0.00000000000E+00 -0.46152367533E+03  0.46152367533E+03  0.25500000000E-02 0.  1.
    8880023    1    1    2    0    0  0.70526663791E+02  0.11095842424E+03  0.24176997133E+03  0.71382680498E+03  0.65864270000E+03 0. -1.
    8880022    1    1    2    0    0 -0.70526663791E+02 -0.11095842424E+03 -0.18039737541E+03  0.27059314160E+03  0.15294330000E+03 0.  0.
<mgrwt>
<rscale>  0 0.49718733E+03</rscale>
<asrwt>0</asrwt>
<pdfrwt beam="1">  1        2 0.80445580E-01 0.67163680E+03</pdfrwt>
<pdfrwt beam="2">  1       -2 0.71003642E-01 0.67163680E+03</pdfrwt>
<totfact> 0.10692154E+02</totfact>
</mgrwt>
</event>
<event>
 4    2  0.3747163E-007  0.7748742E+03  0.7818608E-02  0.9768018E-01
         -2   -1    0    0    0  501 -0.00000000000E+00  0.00000000000E+00  0.91358298726E+03  0.91358298726E+03  0.25500000000E-02 0.  1.
          2   -1    0    0  501    0  0.00000000000E+00 -0.00000000000E+00 -0.15701727400E+04  0.15701727400E+04  0.25500000000E-02 0. -1.
    8880023    1    1    2    0    0  0.39261186158E+03 -0.11169513236E+03 -0.14125483210E+04  0.16111247134E+04  0.65864270000E+03 0.  0.
    8880022    1    1    2    0    0 -0.39261186158E+03  0.11169513236E+03  0.75595856830E+03  0.87263101391E+03  0.15294330000E+03 0.  0.
<mgrwt>
<rscale>  0 0.67107477E+03</rscale>
<asrwt>0</asrwt>
<pdfrwt beam="1">  1        2 0.24156504E+00 0.77487424E+03</pdfrwt>
<pdfrwt beam="2">  1       -2 0.14055123E+00 0.77487424E+03</pdfrwt>
<totfact> 0.42169444E+00</totfact>
</mgrwt>
</event>
<event>
 4    2  0.3747163E-007  0.6880395E+03  0.7818608E-02  0.1005099E+00
          2   -1    0    0  501    0  0.00000000000E+00  0.00000000000E+00  0.12792681078E+04  0.12792681078E+04  0.25500000000E-02 0. -1.
         -2   -1    0    0    0  501 -0.00000000000E+00 -0.00000000000E+00 -0.35682314760E+03  0.35682314761E+03  0.25500000000E-02 0.  1.
    8880023    1    1    2    0    0  0.54649676363E+01 -0.19889278705E+03  0.11215263250E+04  0.13157582265E+04  0.65864270000E+03 0. -1.
    8880022    1    1    2    0    0 -0.54649676363E+01  0.19889278705E+03 -0.19908136479E+03  0.32033302895E+03  0.15294330000E+03 0.  0.
<mgrwt>
<rscale>  0 0.53470009E+03</rscale>
<asrwt>0</asrwt>
<pdfrwt beam="1">  1        2 0.19681048E+00 0.68803954E+03</pdfrwt>
<pdfrwt beam="2">  1       -2 0.54895869E-01 0.68803954E+03</pdfrwt>
<totfact> 0.54375305E+01</totfact>
</mgrwt>
</event>
<event>
 4    2  0.3747163E-007  0.9475671E+03  0.7818608E-02  0.9453623E-01
         -2   -1    0    0    0  501 -0.00000000000E+00  0.00000000000E+00  0.53053488059E+03  0.53053488060E+03  0.25500000000E-02 0.  1.
          2   -1    0    0  501    0  0.00000000000E+00 -0.00000000000E+00 -0.16315258675E+04  0.16315258675E+04  0.25500000000E-02 0. -1.
    8880023    1    1    2    0    0  0.30549873168E+03  0.60888728599E+03 -0.11156142467E+04  0.14637207916E+04  0.65864270000E+03 0.  0.
    8880022    1    1    2    0    0 -0.30549873168E+03 -0.60888728599E+03  0.14623259780E+02  0.69833995649E+03  0.15294330000E+03 0.  0.
<mgrwt>
<rscale>  0 0.87791080E+03</rscale>
<asrwt>0</asrwt>
<pdfrwt beam="1">  1        2 0.25100398E+00 0.94756710E+03</pdfrwt>
<pdfrwt beam="2">  1       -2 0.81620752E-01 0.94756710E+03</pdfrwt>
<totfact> 0.14193916E+01</totfact>
</mgrwt>
</event>
<event>
 4    2  0.3747163E-007  0.9433659E+03  0.7818608E-02  0.9459724E-01
          2   -1    0    0  501    0  0.00000000000E+00  0.00000000000E+00  0.17861031153E+04  0.17861031153E+04  0.25500000000E-02 0. -1.
         -2   -1    0    0    0  501 -0.00000000000E+00 -0.00000000000E+00 -0.75945479828E+03  0.75945479829E+03  0.25500000000E-02 0.  1.
    8880023    1    1    2    0    0  0.57549113535E+03  0.35346715692E+03  0.14529811256E+04  0.17323664265E+04  0.65864270000E+03 0. -1.
    8880022    1    1    2    0    0 -0.57549113535E+03 -0.35346715692E+03 -0.42633280865E+03  0.81319148707E+03  0.15294330000E+03 0.  0.
<mgrwt>
<rscale>  0 0.87319465E+03</rscale>
<asrwt>0</asrwt>
<pdfrwt beam="1">  1        2 0.27478509E+00 0.94336593E+03</pdfrwt>
<pdfrwt beam="2">  1       -2 0.11683920E+00 0.94336593E+03</pdfrwt>
<totfact> 0.49996216E+00</totfact>
</mgrwt>
</event>
<event>
 4    2  0.3747163E-007  0.1092425E+04  0.7818608E-02  0.9269537E-01
          2   -1    0    0  501    0  0.00000000000E+00  0.00000000000E+00  0.28206788616E+04  0.28206788616E+04  0.25500000000E-02 0. -1.
         -2   -1    0    0    0  501 -0.00000000000E+00 -0.00000000000E+00 -0.77747304755E+03  0.77747304755E+03  0.25500000000E-02 0.  1.
    8880023    1    1    2    0    0  0.83385574127E+03  0.25350923701E+03  0.24055482201E+04  0.26419793292E+04  0.65864270000E+03 0. -1.
    8880022    1    1    2    0    0 -0.83385574127E+03 -0.25350923701E+03 -0.36234240601E+03  0.95617257998E+03  0.15294330000E+03 0.  0.
<mgrwt>
<rscale>  0 0.10363636E+04</rscale>
<asrwt>0</asrwt>
<pdfrwt beam="1">  1        2 0.43395059E+00 0.10924251E+04</pdfrwt>
<pdfrwt beam="2">  1       -2 0.11961124E+00 0.10924251E+04</pdfrwt>
<totfact> 0.12022880E+00</totfact>
</mgrwt>
</event>
<event>
 4    2  0.3747163E-007  0.8431333E+03  0.7818608E-02  0.9624300E-01
          2   -1    0    0  501    0  0.00000000000E+00  0.00000000000E+00  0.13015257419E+04  0.13015257419E+04  0.25500000000E-02 0. -1.
         -2   -1    0    0    0  501 -0.00000000000E+00 -0.00000000000E+00 -0.79572234374E+03  0.79572234375E+03  0.25500000000E-02 0.  1.
    8880023    1    1    2    0    0  0.41803014380E+01  0.52635163773E+03  0.10352633363E+04  0.13351568833E+04  0.65864270000E+03 0. -1.
    8880022    1    1    2    0    0 -0.41803014380E+01 -0.52635163773E+03 -0.52945993815E+03  0.76209120227E+03  0.15294330000E+03 0.  0.
<mgrwt>
<rscale>  0 0.75708499E+03</rscale>
<asrwt>0</asrwt>
<pdfrwt beam="1">  1        2 0.20023473E+00 0.84313328E+03</pdfrwt>
<pdfrwt beam="2">  1       -2 0.12241882E+00 0.84313328E+03</pdfrwt>
<totfact> 0.84158768E+00</totfact>
</mgrwt>
</event>
<event>
 4    2  0.3747163E-007  0.8297837E+03  0.7818608E-02  0.9649753E-01
         -2   -1    0    0    0  501 -0.00000000000E+00  0.00000000000E+00  0.89461832458E+03  0.89461832458E+03  0.25500000000E-02 0.  1.
          2   -1    0    0  501    0  0.00000000000E+00 -0.00000000000E+00 -0.60738425125E+03  0.60738425125E+03  0.25500000000E-02 0. -1.
    8880023    1    1    2    0    0 -0.58460087715E+02  0.50131151540E+03 -0.11637835892E+03  0.83790509368E+03  0.65864270000E+03 0. -1.
    8880022    1    1    2    0    0  0.58460087715E+02 -0.50131151540E+03  0.40361243225E+03  0.66409748216E+03  0.15294330000E+03 0.  1.
<mgrwt>
<rscale>  0 0.74088908E+03</rscale>
<asrwt>0</asrwt>
<pdfrwt beam="1">  1        2 0.93443731E-01 0.82978372E+03</pdfrwt>
<pdfrwt beam="2">  1       -2 0.13763359E+00 0.82978372E+03</pdfrwt>
<totfact> 0.18466175E+01</totfact>
</mgrwt>
</event>
<event>
 4    2  0.3747163E-007  0.6955136E+03  0.7818608E-02  0.1001635E+00
         -2   -1    0    0    0  501 -0.00000000000E+00  0.00000000000E+00  0.63376571305E+03  0.63376571306E+03  0.25500000000E-02 0.  1.
          2   -1    0    0  501    0  0.00000000000E+00 -0.00000000000E+00 -0.51801717091E+03  0.51801717092E+03  0.25500000000E-02 0. -1.
    8880023    1    1    2    0    0 -0.87477367995E+02  0.20561275561E+03 -0.21156878347E+03  0.72698036534E+03  0.65864270000E+03 0. -1.
    8880022    1    1    2    0    0  0.87477367995E+02 -0.20561275561E+03  0.32731732561E+03  0.42480251864E+03  0.15294330000E+03 0.  0.
<mgrwt>
<rscale>  0 0.54939210E+03</rscale>
<asrwt>0</asrwt>
<pdfrwt beam="1">  1        2 0.79694950E-01 0.69551355E+03</pdfrwt>
<pdfrwt beam="2">  1       -2 0.97502417E-01 0.69551355E+03</pdfrwt>
<totfact> 0.52614792E+01</totfact>
</mgrwt>
</event>
<event>
 4    2  0.3747163E-007  0.6999135E+03  0.7818608E-02  0.9997560E-01
          2   -1    0    0  501    0  0.00000000000E+00  0.00000000000E+00  0.12717588186E+04  0.12717588186E+04  0.25500000000E-02 0. -1.
         -2   -1    0    0    0  501 -0.00000000000E+00 -0.00000000000E+00 -0.20623217668E+03  0.20623217669E+03  0.25500000000E-02 0.  1.
    8880023    1    1    2    0    0  0.71448768097E+02  0.22575149909E+03  0.54894946504E+03  0.88950794669E+03  0.65864270000E+03 0.  1.
    8880022    1    1    2    0    0 -0.71448768097E+02 -0.22575149909E+03  0.51657717690E+03  0.58848304862E+03  0.15294330000E+03 0. -1.
<mgrwt>
<rscale>  0 0.55757341E+03</rscale>
<asrwt>0</asrwt>
<pdfrwt beam="1">  1        2 0.19565520E+00 0.69991347E+03</pdfrwt>
<pdfrwt beam="2">  1       -2 0.31728027E-01 0.69991347E+03</pdfrwt>
<totfact> 0.16120421E+02</totfact>
</mgrwt>
</event>
<event>
 4    2  0.3747163E-007  0.6855921E+03  0.7818608E-02  0.1006322E+00
          2   -1    0    0  501    0  0.00000000000E+00  0.00000000000E+00  0.17307021372E+04  0.17307021372E+04  0.25500000000E-02 0. -1.
         -2   -1    0    0    0  501 -0.00000000000E+00 -0.00000000000E+00 -0.23638506075E+03  0.23638506076E+03  0.25500000000E-02 0.  1.
    8880023    1    1    2    0    0 -0.60651698943E+02 -0.18040961928E+03  0.15685893935E+04  0.17118729950E+04  0.65864270000E+03 0.  0.
    8880022    1    1    2    0    0  0.60651698943E+02  0.18040961928E+03 -0.74272317031E+02  0.25521420299E+03  0.15294330000E+03 0.  0.
<mgrwt>
<rscale>  0 0.52962860E+03</rscale>
<asrwt>0</asrwt>
<pdfrwt beam="1">  1        2 0.26626186E+00 0.68559205E+03</pdfrwt>
<pdfrwt beam="2">  1       -2 0.36366934E-01 0.68559205E+03</pdfrwt>
<totfact> 0.69172078E+01</totfact>
</mgrwt>
</event>
<event>
 4    2  0.3747163E-007  0.7927701E+03  0.7818608E-02  0.9726652E-01
          2   -1    0    0  501    0  0.00000000000E+00  0.00000000000E+00  0.67612809881E+03  0.67612809882E+03  0.25500000000E-02 0. -1.
         -2   -1    0    0    0  501 -0.00000000000E+00 -0.00000000000E+00 -0.14309535182E+04  0.14309535182E+04  0.25500000000E-02 0.  1.
    8880023    1    1    2    0    0 -0.38542694233E+03  0.21475642351E+03  0.38058509541E+03  0.87939153420E+03  0.65864270000E+03 0. -1.
    8880022    1    1    2    0    0  0.38542694233E+03 -0.21475642351E+03 -0.11354105148E+04  0.12276900828E+04  0.15294330000E+03 0.  0.
<mgrwt>
<rscale>  0 0.69451867E+03</rscale>
<asrwt>0</asrwt>
<pdfrwt beam="1">  1        2 0.10401971E+00 0.79277012E+03</pdfrwt>
<pdfrwt beam="2">  1       -2 0.22014669E+00 0.79277012E+03</pdfrwt>
<totfact> 0.43002332E+00</totfact>
</mgrwt>
</event>
<event>
 4    2  0.3747163E-007  0.7548980E+03  0.7818608E-02  0.9818499E-01
          2   -1    0    0  501    0  0.00000000000E+00  0.00000000000E+00  0.62476712984E+03  0.62476712984E+03  0.25500000000E-02 0. -1.
         -2   -1    0    0    0  501 -0.00000000000E+00 -0.00000000000E+00 -0.53351791538E+03  0.53351791538E+03  0.25500000000E-02 0.  1.
    8880023    1    1    2    0    0  0.31800761640E+03 -0.18690107058E+03  0.75422904911E+02  0.75865649349E+03  0.65864270000E+03 0.  0.
    8880022    1    1    2    0    0 -0.31800761640E+03  0.18690107058E+03  0.15826309549E+02  0.39962855173E+03  0.15294330000E+03 0.  1.
<mgrwt>
<rscale>  0 0.64379136E+03</rscale>
<asrwt>0</asrwt>
<pdfrwt beam="1">  1        2 0.96118019E-01 0.75489805E+03</pdfrwt>
<pdfrwt beam="2">  1       -2 0.82079680E-01 0.75489805E+03</pdfrwt>
<totfact> 0.62317239E+01</totfact>
</mgrwt>
</event>
<event>
 4    2  0.3747163E-007  0.7784128E+03  0.7818608E-02  0.9759579E-01
         -2   -1    0    0    0  501 -0.00000000000E+00  0.00000000000E+00  0.78531608146E+03  0.78531608147E+03  0.25500000000E-02 0.  1.
          2   -1    0    0  501    0  0.00000000000E+00 -0.00000000000E+00 -0.93151316781E+03  0.93151316781E+03  0.25500000000E-02 0. -1.
    8880023    1    1    2    0    0  0.30280885401E+03 -0.28358956884E+03 -0.67303594208E+03  0.10290305298E+04  0.65864270000E+03 0.  0.
    8880022    1    1    2    0    0 -0.30280885401E+03  0.28358956884E+03  0.52683885573E+03  0.68779871950E+03  0.15294330000E+03 0.  0.
<mgrwt>
<rscale>  0 0.67577638E+03</rscale>
<asrwt>0</asrwt>
<pdfrwt beam="1">  1        2 0.14330972E+00 0.77841278E+03</pdfrwt>
<pdfrwt beam="2">  1       -2 0.12081786E+00 0.77841278E+03</pdfrwt>
<totfact> 0.14770861E+01</totfact>
</mgrwt>
</event>
<event>
 4    2  0.3747163E-007  0.7407098E+03  0.7818608E-02  0.9857884E-01
          2   -1    0    0  501    0  0.00000000000E+00  0.00000000000E+00  0.11310824986E+04  0.11310824986E+04  0.25500000000E-02 0. -1.
         -2   -1    0    0    0  501 -0.00000000000E+00 -0.00000000000E+00 -0.49367404308E+03  0.49367404309E+03  0.25500000000E-02 0.  1.
    8880023    1    1    2    0    0  0.33136094273E+03 -0.70998273746E+02  0.90293480193E+03  0.11678793996E+04  0.65864270000E+03 0. -1.
    8880022    1    1    2    0    0 -0.33136094273E+03  0.70998273746E+02 -0.26552634645E+03  0.45687714204E+03  0.15294330000E+03 0.  0.
<mgrwt>
<rscale>  0 0.62346538E+03</rscale>
<asrwt>0</asrwt>
<pdfrwt beam="1">  1        2 0.17401269E+00 0.74070982E+03</pdfrwt>
<pdfrwt beam="2">  1       -2 0.75949853E-01 0.74070982E+03</pdfrwt>
<totfact> 0.32974194E+01</totfact>
</mgrwt>
</event>
<event>
 4    2  0.3747163E-007  0.6706335E+03  0.7818608E-02  0.1015213E+00
         -2   -1    0    0    0  501 -0.00000000000E+00  0.00000000000E+00  0.16796373155E+03  0.16796373156E+03  0.25500000000E-02 0.  1.
          2   -1    0    0  501    0  0.00000000000E+00 -0.00000000000E+00 -0.17829207738E+04  0.17829207738E+04  0.25500000000E-02 0. -1.
    8880023    1    1    2    0    0 -0.61543655581E+01  0.12609999290E+03 -0.16191293909E+04  0.17525208345E+04  0.65864270000E+03 0. -1.
    8880022    1    1    2    0    0  0.61543655581E+01 -0.12609999290E+03  0.41723486678E+01  0.19836367090E+03  0.15294330000E+03 0.  0.
<mgrwt>
<rscale>  0 0.49454458E+03</rscale>
<asrwt>0</asrwt>
<pdfrwt beam="1">  1        2 0.27429549E+00 0.67063350E+03</pdfrwt>
<pdfrwt beam="2">  1       -2 0.25840575E-01 0.67063350E+03</pdfrwt>
<totfact> 0.12255571E+02</totfact>
</mgrwt>
</event>
<event>
 4    2  0.3747163E-007  0.6783051E+03  0.7818608E-02  0.1010299E+00
         -2   -1    0    0    0  501 -0.00000000000E+00  0.00000000000E+00  0.20938585053E+03  0.20938585055E+03  0.25500000000E-02 0.  1.
          2   -1    0    0  501    0  0.00000000000E+00 -0.00000000000E+00 -0.14184611378E+04  0.14184611378E+04  0.25500000000E-02 0. -1.
    8880023    1    1    2    0    0 -0.15242350307E+03 -0.55269724993E+02 -0.12293219517E+04  0.14040407167E+04  0.65864270000E+03 0.  0.
    8880022    1    1    2    0    0  0.15242350307E+03  0.55269724993E+02  0.20246664500E+02  0.22380627165E+03  0.15294330000E+03 0.  0.
<mgrwt>
<rscale>  0 0.51355953E+03</rscale>
<asrwt>0</asrwt>
<pdfrwt beam="1">  1        2 0.21822478E+00 0.67830515E+03</pdfrwt>
<pdfrwt beam="2">  1       -2 0.32213209E-01 0.67830515E+03</pdfrwt>
<totfact> 0.12949026E+02</totfact>
</mgrwt>
</event>
<event>
 4    2  0.3747163E-007  0.6980899E+03  0.7818608E-02  0.1000522E+00
         -2   -1    0    0    0  501 -0.00000000000E+00  0.00000000000E+00  0.70100894547E+03  0.70100894548E+03  0.25500000000E-02 0.  1.
          2   -1    0    0  501    0  0.00000000000E+00 -0.00000000000E+00 -0.10146346712E+04  0.10146346712E+04  0.25500000000E-02 0. -1.
    8880023    1    1    2    0    0 -0.90524901285E+02 -0.21289556906E+03 -0.85714896645E+03  0.11054563935E+04  0.65864270000E+03 0. -1.
    8880022    1    1    2    0    0  0.90524901285E+02  0.21289556906E+03  0.54352324071E+03  0.61018722314E+03  0.15294330000E+03 0.  0.
<mgrwt>
<rscale>  0 0.55421978E+03</rscale>
<asrwt>0</asrwt>
<pdfrwt beam="1">  1        2 0.15609764E+00 0.69808988E+03</pdfrwt>
<pdfrwt beam="2">  1       -2 0.10784753E+00 0.69808988E+03</pdfrwt>
<totfact> 0.17375587E+01</totfact>
</mgrwt>
</event>
<event>
 4    2  0.3747163E-007  0.7394569E+03  0.7818608E-02  0.9861532E-01
         -2   -1    0    0    0  501 -0.00000000000E+00  0.00000000000E+00  0.51222438871E+03  0.51222438872E+03  0.25500000000E-02 0.  1.
          2   -1    0    0  501    0  0.00000000000E+00 -0.00000000000E+00 -0.10772872079E+04  0.10772872079E+04  0.25500000000E-02 0. -1.
    8880023    1    1    2    0    0  0.11176084081E+03 -0.31701077088E+03 -0.84738828694E+03  0.11246614733E+04  0.65864270000E+03 0. -1.
    8880022    1    1    2    0    0 -0.11176084081E+03  0.31701077088E+03  0.28232546776E+03  0.46485012333E+03  0.15294330000E+03 0.  0.
<mgrwt>
<rscale>  0 0.62162387E+03</rscale>
<asrwt>0</asrwt>
<pdfrwt beam="1">  1        2 0.16573649E+00 0.73945691E+03</pdfrwt>
<pdfrwt beam="2">  1       -2 0.78803752E-01 0.73945691E+03</pdfrwt>
<totfact> 0.32759368E+01</totfact>
</mgrwt>
</event>
<event>
 4    2  0.3747163E-007  0.6979954E+03  0.7818608E-02  0.1000562E+00
         -2   -1    0    0    0  501 -0.00000000000E+00  0.00000000000E+00  0.22072371333E+03  0.22072371334E+03  0.25500000000E-02 0.  1.
          2   -1    0    0  501    0  0.00000000000E+00 -0.00000000000E+00 -0.20908909064E+04  0.20908909064E+04  0.25500000000E-02 0. -1.
    8880023    1    1    2    0    0  0.20385655598E+03  0.10876513927E+03 -0.19082686822E+04  0.20319170556E+04  0.65864270000E+03 0. -1.
    8880022    1    1    2    0    0 -0.20385655598E+03 -0.10876513927E+03  0.38101489105E+02  0.27969756421E+03  0.15294330000E+03 0.  0.
<mgrwt>
<rscale>  0 0.55404460E+03</rscale>
<asrwt>0</asrwt>
<pdfrwt beam="1">  1        2 0.32167551E+00 0.69799538E+03</pdfrwt>
<pdfrwt beam="2">  1       -2 0.33957496E-01 0.69799538E+03</pdfrwt>
<totfact> 0.50107024E+01</totfact>
</mgrwt>
</event>
<event>
 4    2  0.3747163E-007  0.6633460E+03  0.7818608E-02  0.1020963E+00
         -2   -1    0    0    0  501 -0.00000000000E+00  0.00000000000E+00  0.18958185468E+03  0.18958185470E+03  0.25500000000E-02 0.  1.
          2   -1    0    0  501    0  0.00000000000E+00 -0.00000000000E+00 -0.10435081421E+04  0.10435081421E+04  0.25500000000E-02 0. -1.
    8880023    1    1    2    0    0 -0.30839572955E+02  0.72571673193E+02 -0.82498842377E+03  0.10585999398E+04  0.65864270000E+03 0. -1.
    8880022    1    1    2    0    0  0.30839572955E+02 -0.72571673193E+02 -0.28937863645E+02  0.17449005696E+03  0.15294330000E+03 0.  0.
<mgrwt>
<rscale>  0 0.47340600E+03</rscale>
<asrwt>0</asrwt>
<pdfrwt beam="1">  1        2 0.16053971E+00 0.66334601E+03</pdfrwt>
<pdfrwt beam="2">  1       -2 0.29166440E-01 0.66334601E+03</pdfrwt>
<totfact> 0.25888072E+02</totfact>
</mgrwt>
</event>
<event>
 4    2  0.3747163E-007  0.8349202E+03  0.7818608E-02  0.9639834E-01
         -2   -1    0    0    0  501 -0.00000000000E+00  0.00000000000E+00  0.64230178964E+03  0.64230178965E+03  0.25500000000E-02 0.  1.
          2   -1    0    0  501    0  0.00000000000E+00 -0.00000000000E+00 -0.15635129968E+04  0.15635129968E+04  0.25500000000E-02 0. -1.
    8880023    1    1    2    0    0 -0.21290928916E+03  0.46685238965E+03 -0.13034705771E+04  0.15479429159E+04  0.65864270000E+03 0. -1.
    8880022    1    1    2    0    0  0.21290928916E+03 -0.46685238965E+03  0.38225936997E+03  0.65787187057E+03  0.15294330000E+03 0.  0.
<mgrwt>
<rscale>  0 0.74714880E+03</rscale>
<asrwt>0</asrwt>
<pdfrwt beam="1">  1        2 0.24054046E+00 0.83492019E+03</pdfrwt>
<pdfrwt beam="2">  1       -2 0.98815660E-01 0.83492019E+03</pdfrwt>
<totfact> 0.10076811E+01</totfact>
</mgrwt>
</event>
<event>
 4    2  0.3747163E-007  0.9205244E+03  0.7818608E-02  0.9493855E-01
          2   -1    0    0  501    0  0.00000000000E+00  0.00000000000E+00  0.27527583293E+04  0.27527583293E+04  0.25500000000E-02 0. -1.
         -2   -1    0    0    0  501 -0.00000000000E+00 -0.00000000000E+00 -0.30416429326E+03  0.30416429327E+03  0.25500000000E-02 0.  1.
    8880023    1    1    2    0    0 -0.25852773189E+03  0.58882789076E+03  0.21356051157E+04  0.23255481697E+04  0.65864270000E+03 0. -1.
    8880022    1    1    2    0    0  0.25852773189E+03 -0.58882789076E+03  0.31298892040E+03  0.73137445293E+03  0.15294330000E+03 0.  0.
<mgrwt>
<rscale>  0 0.84738349E+03</rscale>
<asrwt>0</asrwt>
<pdfrwt beam="1">  1        2 0.42350127E+00 0.92052435E+03</pdfrwt>
<pdfrwt beam="2">  1       -2 0.46794508E-01 0.92052435E+03</pdfrwt>
<totfact> 0.10990297E+01</totfact>
</mgrwt>
</event>
<event>
 4    2  0.3747163E-007  0.7967704E+03  0.7818608E-02  0.9717823E-01
         -2   -1    0    0    0  501 -0.00000000000E+00  0.00000000000E+00  0.71400841076E+03  0.71400841076E+03  0.25500000000E-02 0.  1.
          2   -1    0    0  501    0  0.00000000000E+00 -0.00000000000E+00 -0.93405278985E+03  0.93405278985E+03  0.25500000000E-02 0. -1.
    8880023    1    1    2    0    0  0.22436305974E+02 -0.44780519297E+03 -0.63455765472E+03  0.10185806311E+04  0.65864270000E+03 0. -1.
    8880022    1    1    2    0    0 -0.22436305974E+02  0.44780519297E+03  0.41451327563E+03  0.62948056949E+03  0.15294330000E+03 0.  0.
<mgrwt>
<rscale>  0 0.69965459E+03</rscale>
<asrwt>0</asrwt>
<pdfrwt beam="1">  1        2 0.14370043E+00 0.79677041E+03</pdfrwt>
<pdfrwt beam="2">  1       -2 0.10984745E+00 0.79677041E+03</pdfrwt>
<totfact> 0.18542705E+01</totfact>
</mgrwt>
</event>
<event>
 4    2  0.3747163E-007  0.1087336E+04  0.7818608E-02  0.9275288E-01
          2   -1    0    0  501    0  0.00000000000E+00  0.00000000000E+00  0.20430633505E+04  0.20430633505E+04  0.25500000000E-02 0. -1.
         -2   -1    0    0    0  501 -0.00000000000E+00 -0.00000000000E+00 -0.51594169552E+03  0.51594169552E+03  0.25500000000E-02 0.  1.
    8880023    1    1    2    0    0 -0.75988158409E+03 -0.41360616980E+03  0.12054667979E+04  0.16234070631E+04  0.65864270000E+03 0. -1.
    8880022    1    1    2    0    0  0.75988158409E+03  0.41360616980E+03  0.32165485711E+03  0.93559798292E+03  0.15294330000E+03 0.  1.
<mgrwt>
<rscale>  0 0.10309005E+04</rscale>
<asrwt>0</asrwt>
<pdfrwt beam="1">  1        2 0.31431744E+00 0.10873363E+04</pdfrwt>
<pdfrwt beam="2">  1       -2 0.79375646E-01 0.10873363E+04</pdfrwt>
<totfact> 0.88344327E+00</totfact>
</mgrwt>
</event>
<event>
 4    2  0.3747163E-007  0.6878064E+03  0.7818608E-02  0.1005213E+00
          2   -1    0    0  501    0  0.00000000000E+00  0.00000000000E+00  0.10698603578E+04  0.10698603578E+04  0.25500000000E-02 0. -1.
         -2   -1    0    0    0  501 -0.00000000000E+00 -0.00000000000E+00 -0.49647818956E+03  0.49647818957E+03  0.25500000000E-02 0.  1.
    8880023    1    1    2    0    0 -0.14618795130E+03 -0.13377776376E+03  0.91384307354E+03  0.11437599296E+04  0.65864270000E+03 0.  0.
    8880022    1    1    2    0    0  0.14618795130E+03  0.13377776376E+03 -0.34046090529E+03  0.42257861781E+03  0.15294330000E+03 0.  1.
<mgrwt>
<rscale>  0 0.53422306E+03</rscale>
<asrwt>0</asrwt>
<pdfrwt beam="1">  1        2 0.16459390E+00 0.68780638E+03</pdfrwt>
<pdfrwt beam="2">  1       -2 0.76381260E-01 0.68780638E+03</pdfrwt>
<totfact> 0.35683773E+01</totfact>
</mgrwt>
</event>
<event>
 4    2  0.3747163E-007  0.9766424E+03  0.7818608E-02  0.9412775E-01
          2   -1    0    0  501    0  0.00000000000E+00  0.00000000000E+00  0.16446959577E+04  0.16446959577E+04  0.25500000000E-02 0. -1.
         -2   -1    0    0    0  501 -0.00000000000E+00 -0.00000000000E+00 -0.50490118534E+03  0.50490118535E+03  0.25500000000E-02 0.  1.
    8880023    1    1    2    0    0 -0.43839322707E+03 -0.57256583750E+03  0.10028214965E+04  0.13998147806E+04  0.65864270000E+03 0.  0.
    8880022    1    1    2    0    0  0.43839322707E+03  0.57256583750E+03  0.13697327589E+03  0.74978236251E+03  0.15294330000E+03 0.  0.
<mgrwt>
<rscale>  0 0.91031739E+03</rscale>
<asrwt>0</asrwt>
<pdfrwt beam="1">  1        2 0.25303015E+00 0.97664245E+03</pdfrwt>
<pdfrwt beam="2">  1       -2 0.77677106E-01 0.97664245E+03</pdfrwt>
<totfact> 0.15559640E+01</totfact>
</mgrwt>
</event>
<event>
 4    2  0.3747163E-007  0.8264349E+03  0.7818608E-02  0.9656309E-01
          2   -1    0    0  501    0  0.00000000000E+00  0.00000000000E+00  0.24656549284E+04  0.24656549284E+04  0.25500000000E-02 0. -1.
         -2   -1    0    0    0  501 -0.00000000000E+00 -0.00000000000E+00 -0.76935447260E+03  0.76935447260E+03  0.25500000000E-02 0.  1.
    8880023    1    1    2    0    0 -0.13208861863E+03 -0.48139068902E+03  0.22958126669E+04  0.24400308208E+04  0.65864270000E+03 0. -1.
    8880022    1    1    2    0    0  0.13208861863E+03  0.48139068902E+03 -0.59951221113E+03  0.79497858019E+03  0.15294330000E+03 0.  0.
<mgrwt>
<rscale>  0 0.73678782E+03</rscale>
<asrwt>0</asrwt>
<pdfrwt beam="1">  1        2 0.37933153E+00 0.82643488E+03</pdfrwt>
<pdfrwt beam="2">  1       -2 0.11836223E+00 0.82643488E+03</pdfrwt>
<totfact> 0.20720786E+00</totfact>
</mgrwt>
</event>
<event>
 4    2  0.3747163E-007  0.7157081E+03  0.7818608E-02  0.9937385E-01
          2   -1    0    0  501    0  0.00000000000E+00  0.00000000000E+00  0.15679260884E+04  0.15679260884E+04  0.25500000000E-02 0. -1.
         -2   -1    0    0    0  501 -0.00000000000E+00 -0.00000000000E+00 -0.62228411393E+03  0.62228411394E+03  0.25500000000E-02 0.  1.
    8880023    1    1    2    0    0  0.38737275644E+02 -0.27735771939E+03  0.14364027847E+04  0.16048336509E+04  0.65864270000E+03 0. -1.
    8880022    1    1    2    0    0 -0.38737275644E+02  0.27735771939E+03 -0.49076081024E+03  0.58537655139E+03  0.15294330000E+03 0.  0.
<mgrwt>
<rscale>  0 0.58483161E+03</rscale>
<asrwt>0</asrwt>
<pdfrwt beam="1">  1        2 0.24121940E+00 0.71570810E+03</pdfrwt>
<pdfrwt beam="2">  1       -2 0.95736019E-01 0.71570810E+03</pdfrwt>
<totfact> 0.10966436E+01</totfact>
</mgrwt>
</event>
<event>
 4    2  0.3747163E-007  0.6706422E+03  0.7818608E-02  0.1015207E+00
         -2   -1    0    0    0  501 -0.00000000000E+00  0.00000000000E+00  0.16091624124E+03  0.16091624126E+03  0.25500000000E-02 0.  1.
          2   -1    0    0  501    0  0.00000000000E+00 -0.00000000000E+00 -0.31390644943E+04  0.31390644943E+04  0.25500000000E-02 0. -1.
    8880023    1    1    2    0    0  0.50006334952E+02  0.11597461961E+03 -0.30231063552E+04  0.30966002304E+04  0.65864270000E+03 0. -1.
    8880022    1    1    2    0    0 -0.50006334952E+02 -0.11597461961E+03  0.44958102098E+02  0.20338050518E+03  0.15294330000E+03 0.  0.
<mgrwt>
<rscale>  0 0.49456771E+03</rscale>
<asrwt>0</asrwt>
<pdfrwt beam="1">  1        2 0.48293295E+00 0.67064219E+03</pdfrwt>
<pdfrwt beam="2">  1       -2 0.24756347E-01 0.67064219E+03</pdfrwt>
<totfact> 0.22344427E+01</totfact>
</mgrwt>
</event>
<event>
 4    2  0.3747163E-007  0.6650266E+03  0.7818608E-02  0.1019511E+00
         -2   -1    0    0    0  501 -0.00000000000E+00  0.00000000000E+00  0.59996002963E+03  0.59996002963E+03  0.25500000000E-02 0.  1.
          2   -1    0    0  501    0  0.00000000000E+00 -0.00000000000E+00 -0.53514523458E+03  0.53514523459E+03  0.25500000000E-02 0. -1.
    8880023    1    1    2    0    0  0.89198992867E+02 -0.22218258066E+02 -0.29956140901E+03  0.72938148821E+03  0.65864270000E+03 0. -1.
    8880022    1    1    2    0    0 -0.89198992867E+02  0.22218258066E+02  0.36437620406E+03  0.40572377601E+03  0.15294330000E+03 0.  0.
<mgrwt>
<rscale>  0 0.47863437E+03</rscale>
<asrwt>0</asrwt>
<pdfrwt beam="1">  1        2 0.82330037E-01 0.66502655E+03</pdfrwt>
<pdfrwt beam="2">  1       -2 0.92301542E-01 0.66502655E+03</pdfrwt>
<totfact> 0.57688350E+01</totfact>
</mgrwt>
</event>
<event>
 4    2  0.3747163E-007  0.6673320E+03  0.7818608E-02  0.1017652E+00
          2   -1    0    0  501    0  0.00000000000E+00  0.00000000000E+00  0.50513425335E+04  0.50513425335E+04  0.25500000000E-02 0. -1.
         -2   -1    0    0    0  501 -0.00000000000E+00 -0.00000000000E+00 -0.74769616602E+02  0.74769616645E+02  0.25500000000E-02 0.  1.
    8880023    1    1    2    0    0  0.10263237084E+03 -0.31437649904E+02  0.48605989422E+04  0.49061954723E+04  0.65864270000E+03 0. -1.
    8880022    1    1    2    0    0 -0.10263237084E+03  0.31437649904E+02  0.11597397474E+03  0.21991667787E+03  0.15294330000E+03 0.  0.
<mgrwt>
<rscale>  0 0.48543427E+03</rscale>
<asrwt>0</asrwt>
<pdfrwt beam="1">  1        2 0.77712974E+00 0.66733195E+03</pdfrwt>
<pdfrwt beam="2">  1       -2 0.11503016E-01 0.66733195E+03</pdfrwt>
<totfact> 0.19377229E+00</totfact>
</mgrwt>
</event>
<event>
 4    2  0.3747163E-007  0.6832469E+03  0.7818608E-02  0.1007544E+00
          2   -1    0    0  501    0  0.00000000000E+00  0.00000000000E+00  0.21653003189E+04  0.21653003189E+04  0.25500000000E-02 0. -1.
         -2   -1    0    0    0  501 -0.00000000000E+00 -0.00000000000E+00 -0.42810740816E+03  0.42810740817E+03  0.25500000000E-02 0.  1.
    8880023    1    1    2    0    0 -0.16238590669E+03 -0.81528864679E+02  0.20726632614E+04  0.21823747020E+04  0.65864270000E+03 0.  0.
    8880022    1    1    2    0    0  0.16238590669E+03  0.81528864679E+02 -0.33547035070E+03  0.41103302505E+03  0.15294330000E+03 0.  1.
<mgrwt>
<rscale>  0 0.52462701E+03</rscale>
<asrwt>0</asrwt>
<pdfrwt beam="1">  1        2 0.33312313E+00 0.68324691E+03</pdfrwt>
<pdfrwt beam="2">  1       -2 0.65862677E-01 0.68324691E+03</pdfrwt>
<totfact> 0.12039072E+01</totfact>
</mgrwt>
</event>
<event>
 4    2  0.3747163E-007  0.9267941E+03  0.7818608E-02  0.9484319E-01
          2   -1    0    0  501    0  0.00000000000E+00  0.00000000000E+00  0.20180816305E+04  0.20180816305E+04  0.25500000000E-02 0. -1.
         -2   -1    0    0    0  501 -0.00000000000E+00 -0.00000000000E+00 -0.48636117183E+03  0.48636117184E+03  0.25500000000E-02 0.  1.
    8880023    1    1    2    0    0 -0.38024341262E+03 -0.52967161664E+03  0.11053622715E+03  0.93336249019E+03  0.65864270000E+03 0.  1.
    8880022    1    1    2    0    0  0.38024341262E+03  0.52967161664E+03  0.14211842315E+04  0.15710803122E+04  0.15294330000E+03 0.  0.
<mgrwt>
<rscale>  0 0.85449834E+03</rscale>
<asrwt>0</asrwt>
<pdfrwt beam="1">  1        2 0.31047409E+00 0.92679409E+03</pdfrwt>
<pdfrwt beam="2">  1       -2 0.74824797E-01 0.92679409E+03</pdfrwt>
<totfact> 0.10597662E+01</totfact>
</mgrwt>
</event>
<event>
 4    2  0.3747163E-007  0.6888142E+03  0.7818608E-02  0.1004721E+00
          2   -1    0    0  501    0  0.00000000000E+00  0.00000000000E+00  0.11976508913E+04  0.11976508913E+04  0.25500000000E-02 0. -1.
         -2   -1    0    0    0  501 -0.00000000000E+00 -0.00000000000E+00 -0.22249218060E+03  0.22249218061E+03  0.25500000000E-02 0.  1.
    8880023    1    1    2    0    0  0.38400801255E+02  0.19793977941E+03  0.93891730344E+03  0.11644873064E+04  0.65864270000E+03 0. -1.
    8880022    1    1    2    0    0 -0.38400801255E+02 -0.19793977941E+03  0.36241407235E+02  0.25565576548E+03  0.15294330000E+03 0.  0.
<mgrwt>
<rscale>  0 0.53627608E+03</rscale>
<asrwt>0</asrwt>
<pdfrwt beam="1">  1        2 0.18425398E+00 0.68881419E+03</pdfrwt>
<pdfrwt beam="2">  1       -2 0.34229566E-01 0.68881419E+03</pdfrwt>
<totfact> 0.15453622E+02</totfact>
</mgrwt>
</event>
<event>
 4    2  0.3747163E-007  0.7486378E+03  0.7818608E-02  0.9835464E-01
          2   -1    0    0  501    0  0.00000000000E+00  0.00000000000E+00  0.75577741845E+03  0.75577741846E+03  0.25500000000E-02 0. -1.
         -2   -1    0    0    0  501 -0.00000000000E+00 -0.00000000000E+00 -0.42827346641E+03  0.42827346642E+03  0.25500000000E-02 0.  1.
    8880023    1    1    2    0    0  0.10128562687E+03  0.34115914090E+03  0.24782264410E+03  0.78859026549E+03  0.65864270000E+03 0. -1.
    8880022    1    1    2    0    0 -0.10128562687E+03 -0.34115914090E+03  0.79681307944E+02  0.39546061938E+03  0.15294330000E+03 0. -1.
<mgrwt>
<rscale>  0 0.63493562E+03</rscale>
<asrwt>0</asrwt>
<pdfrwt beam="1">  1        2 0.11627345E+00 0.74863779E+03</pdfrwt>
<pdfrwt beam="2">  1       -2 0.65888226E-01 0.74863779E+03</pdfrwt>
<totfact> 0.79719168E+01</totfact>
</mgrwt>
</event>
<event>
 4    2  0.3747163E-007  0.8632249E+03  0.7818608E-02  0.9587853E-01
         -2   -1    0    0    0  501 -0.00000000000E+00  0.00000000000E+00  0.57709601233E+03  0.57709601234E+03  0.25500000000E-02 0.  1.
          2   -1    0    0  501    0  0.00000000000E+00 -0.00000000000E+00 -0.16318926064E+04  0.16318926064E+04  0.25500000000E-02 0. -1.
    8880023    1    1    2    0    0  0.55794652699E+03  0.65315557533E+01 -0.13162722462E+04  0.15740806271E+04  0.65864270000E+03 0. -1.
    8880022    1    1    2    0    0 -0.55794652699E+03 -0.65315557533E+01  0.26147565213E+03  0.63490799166E+03  0.15294330000E+03 0.  0.
<mgrwt>
<rscale>  0 0.78105424E+03</rscale>
<asrwt>0</asrwt>
<pdfrwt beam="1">  1        2 0.25106040E+00 0.86322488E+03</pdfrwt>
<pdfrwt beam="2">  1       -2 0.88784002E-01 0.86322488E+03</pdfrwt>
<totfact> 0.11816076E+01</totfact>
</mgrwt>
</event>
<event>
 4    2  0.3747163E-007  0.8080035E+03  0.7818608E-02  0.9693751E-01
         -2   -1    0    0    0  501 -0.00000000000E+00  0.00000000000E+00  0.78499146567E+03  0.78499146567E+03  0.25500000000E-02 0.  1.
          2   -1    0    0  501    0  0.00000000000E+00 -0.00000000000E+00 -0.10828406848E+04  0.10828406848E+04  0.25500000000E-02 0. -1.
    8880023    1    1    2    0    0 -0.26951044449E+03  0.38265324333E+03 -0.81925607846E+03  0.11506737647E+04  0.65864270000E+03 0. -1.
    8880022    1    1    2    0    0  0.26951044449E+03 -0.38265324333E+03  0.52140685935E+03  0.71715838579E+03  0.15294330000E+03 0.  0.
<mgrwt>
<rscale>  0 0.71390089E+03</rscale>
<asrwt>0</asrwt>
<pdfrwt beam="1">  1        2 0.16659087E+00 0.80800346E+03</pdfrwt>
<pdfrwt beam="2">  1       -2 0.12076792E+00 0.80800346E+03</pdfrwt>
<totfact> 0.11801329E+01</totfact>
</mgrwt>
</event>
<event>
 4    2  0.3747163E-007  0.6701753E+03  0.7818608E-02  0.1015538E+00
          2   -1    0    0  501    0  0.00000000000E+00  0.00000000000E+00  0.16214515748E+04  0.16214515748E+04  0.25500000000E-02 0. -1.
         -2   -1    0    0    0  501 -0.00000000000E+00 -0.00000000000E+00 -0.22859005968E+03  0.22859005969E+03  0.25500000000E-02 0.  1.
    8880023    1    1    2    0    0  0.81541837524E+02 -0.93143074328E+02  0.14876493551E+04  0.16316358397E+04  0.65864270000E+03 0. -1.
    8880022    1    1    2    0    0 -0.81541837524E+02  0.93143074328E+02 -0.94787839966E+02  0.21840579475E+03  0.15294330000E+03 0.  0.
<mgrwt>
<rscale>  0 0.49331931E+03</rscale>
<asrwt>0</asrwt>
<pdfrwt beam="1">  1        2 0.24945409E+00 0.67017528E+03</pdfrwt>
<pdfrwt beam="2">  1       -2 0.35167702E-01 0.67017528E+03</pdfrwt>
<totfact> 0.84754346E+01</totfact>
</mgrwt>
</event>
<event>
 4    2  0.3747163E-007  0.1050580E+04  0.7818608E-02  0.9318185E-01
         -2   -1    0    0    0  501 -0.00000000000E+00  0.00000000000E+00  0.88796432593E+03  0.88796432594E+03  0.25500000000E-02 0.  1.
          2   -1    0    0  501    0  0.00000000000E+00 -0.00000000000E+00 -0.17946478711E+04  0.17946478711E+04  0.25500000000E-02 0. -1.
    8880023    1    1    2    0    0 -0.71937319575E+03 -0.39039660761E+03 -0.13725726612E+04  0.17284887106E+04  0.65864270000E+03 0.  0.
    8880022    1    1    2    0    0  0.71937319575E+03  0.39039660761E+03  0.46588911604E+03  0.95412348648E+03  0.15294330000E+03 0.  0.
<mgrwt>
<rscale>  0 0.99125820E+03</rscale>
<asrwt>0</asrwt>
<pdfrwt beam="1">  1        2 0.27609967E+00 0.10505796E+04</pdfrwt>
<pdfrwt beam="2">  1       -2 0.13660990E+00 0.10505796E+04</pdfrwt>
<totfact> 0.32904212E+00</totfact>
</mgrwt>
</event>
<event>
 4    2  0.3747163E-007  0.8108211E+03  0.7818608E-02  0.9687869E-01
         -2   -1    0    0    0  501 -0.00000000000E+00  0.00000000000E+00  0.59056818875E+03  0.59056818875E+03  0.25500000000E-02 0.  1.
          2   -1    0    0  501    0  0.00000000000E+00 -0.00000000000E+00 -0.14184975842E+04  0.14184975842E+04  0.25500000000E-02 0. -1.
    8880023    1    1    2    0    0 -0.39117308607E+03 -0.26571471369E+03 -0.11571229330E+04  0.14129275922E+04  0.65864270000E+03 0. -1.
    8880022    1    1    2    0    0  0.39117308607E+03  0.26571471369E+03  0.32919353760E+03  0.59613818075E+03  0.15294330000E+03 0.  0.
<mgrwt>
<rscale>  0 0.71743676E+03</rscale>
<asrwt>0</asrwt>
<pdfrwt beam="1">  1        2 0.21823040E+00 0.81082113E+03</pdfrwt>
<pdfrwt beam="2">  1       -2 0.90856645E-01 0.81082113E+03</pdfrwt>
<totfact> 0.14826060E+01</totfact>
</mgrwt>
</event>
<event>
 4    2  0.3747163E-007  0.7949655E+03  0.7818608E-02  0.9721789E-01
          2   -1    0    0  501    0  0.00000000000E+00  0.00000000000E+00  0.76150954110E+03  0.76150954111E+03  0.25500000000E-02 0. -1.
         -2   -1    0    0    0  501 -0.00000000000E+00 -0.00000000000E+00 -0.99604654187E+03  0.99604654188E+03  0.25500000000E-02 0.  1.
    8880023    1    1    2    0    0  0.43746936100E+03  0.82343980317E+02  0.46006623363E+03  0.91849394037E+03  0.65864270000E+03 0. -1.
    8880022    1    1    2    0    0 -0.43746936100E+03 -0.82343980317E+02 -0.69460323440E+03  0.83906214261E+03  0.15294330000E+03 0.  0.
<mgrwt>
<rscale>  0 0.69734162E+03</rscale>
<asrwt>0</asrwt>
<pdfrwt beam="1">  1        2 0.11715531E+00 0.79496552E+03</pdfrwt>
<pdfrwt beam="2">  1       -2 0.15323793E+00 0.79496552E+03</pdfrwt>
<totfact> 0.10522009E+01</totfact>
</mgrwt>
</event>
<event>
 4    2  0.3747163E-007  0.8272274E+03  0.7818608E-02  0.9654751E-01
         -2   -1    0    0    0  501 -0.00000000000E+00  0.00000000000E+00  0.33633813971E+03  0.33633813972E+03  0.25500000000E-02 0.  1.
          2   -1    0    0  501    0  0.00000000000E+00 -0.00000000000E+00 -0.14057311648E+04  0.14057311649E+04  0.25500000000E-02 0. -1.
    8880023    1    1    2    0    0  0.27900887414E+03  0.41551061162E+03 -0.81082638105E+03  0.11583370178E+04  0.65864270000E+03 0. -1.
    8880022    1    1    2    0    0 -0.27900887414E+03 -0.41551061162E+03 -0.25856664409E+03  0.58373228682E+03  0.15294330000E+03 0.  1.
<mgrwt>
<rscale>  0 0.73775992E+03</rscale>
<asrwt>0</asrwt>
<pdfrwt beam="1">  1        2 0.21626633E+00 0.82722743E+03</pdfrwt>
<pdfrwt beam="2">  1       -2 0.51744330E-01 0.82722743E+03</pdfrwt>
<totfact> 0.51304223E+01</totfact>
</mgrwt>
</event>
<event>
 4    2  0.3747163E-007  0.1007817E+04  0.7818608E-02  0.9371402E-01
          2   -1    0    0  501    0  0.00000000000E+00  0.00000000000E+00  0.46690944954E+03  0.46690944955E+03  0.25500000000E-02 0. -1.
         -2   -1    0    0    0  501 -0.00000000000E+00 -0.00000000000E+00 -0.21548275406E+04  0.21548275406E+04  0.25500000000E-02 0.  1.
    8880023    1    1    2    0    0  0.53943165823E+03 -0.53934944984E+03 -0.33674320533E+03  0.10625867191E+04  0.65864270000E+03 0.  0.
    8880022    1    1    2    0    0 -0.53943165823E+03  0.53934944984E+03 -0.13511748857E+04  0.15591502710E+04  0.15294330000E+03 0.  0.
<mgrwt>
<rscale>  0 0.94467050E+03</rscale>
<asrwt>0</asrwt>
<pdfrwt beam="1">  1        2 0.71832224E-01 0.10078167E+04</pdfrwt>
<pdfrwt beam="2">  1       -2 0.33151192E+00 0.10078167E+04</pdfrwt>
<totfact> 0.13695452E+00</totfact>
</mgrwt>
</event>
<event>
 4    2  0.3747163E-007  0.8615270E+03  0.7818608E-02  0.9590853E-01
          2   -1    0    0  501    0  0.00000000000E+00  0.00000000000E+00  0.28638931263E+04  0.28638931263E+04  0.25500000000E-02 0. -1.
         -2   -1    0    0    0  501 -0.00000000000E+00 -0.00000000000E+00 -0.18492096939E+03  0.18492096941E+03  0.25500000000E-02 0.  1.
    8880023    1    1    2    0    0 -0.17065430231E+03  0.52848432667E+03  0.13652408092E+04  0.16143454549E+04  0.65864270000E+03 0. -1.
    8880022    1    1    2    0    0  0.17065430231E+03 -0.52848432667E+03  0.13137313477E+04  0.14344686408E+04  0.15294330000E+03 0.  1.
<mgrwt>
<rscale>  0 0.77904562E+03</rscale>
<asrwt>0</asrwt>
<pdfrwt beam="1">  1        2 0.44059893E+00 0.86152701E+03</pdfrwt>
<pdfrwt beam="2">  1       -2 0.28449381E-01 0.86152701E+03</pdfrwt>
<totfact> 0.24805383E+01</totfact>
</mgrwt>
</event>
<event>
 4    2  0.3747163E-007  0.6914700E+03  0.7818608E-02  0.1003462E+00
          2   -1    0    0  501    0  0.00000000000E+00  0.00000000000E+00  0.20777827340E+04  0.20777827340E+04  0.25500000000E-02 0. -1.
         -2   -1    0    0    0  501 -0.00000000000E+00 -0.00000000000E+00 -0.50621228462E+03  0.50621228463E+03  0.25500000000E-02 0.  1.
    8880023    1    1    2    0    0 -0.19266681455E+03  0.84852891524E+02  0.19813691110E+04  0.20985600480E+04  0.65864270000E+03 0.  0.
    8880022    1    1    2    0    0  0.19266681455E+03 -0.84852891524E+02 -0.40979866164E+03  0.48543497065E+03  0.15294330000E+03 0.  1.
<mgrwt>
<rscale>  0 0.54158089E+03</rscale>
<asrwt>0</asrwt>
<pdfrwt beam="1">  1        2 0.31965888E+00 0.69146997E+03</pdfrwt>
<pdfrwt beam="2">  1       -2 0.77878813E-01 0.69146997E+03</pdfrwt>
<totfact> 0.92974573E+00</totfact>
</mgrwt>
</event>
<event>
 4    2  0.3747163E-007  0.7643835E+03  0.7818608E-02  0.9793888E-01
          2   -1    0    0  501    0  0.00000000000E+00  0.00000000000E+00  0.89731958520E+03  0.89731958521E+03  0.25500000000E-02 0. -1.
         -2   -1    0    0    0  501 -0.00000000000E+00 -0.00000000000E+00 -0.94166457622E+03  0.94166457622E+03  0.25500000000E-02 0.  1.
    8880023    1    1    2    0    0  0.15713051371E+02  0.38758876773E+03  0.66697231591E+03  0.10144625322E+04  0.65864270000E+03 0.  0.
    8880022    1    1    2    0    0 -0.15713051371E+02 -0.38758876773E+03 -0.71131730693E+03  0.82452162919E+03  0.15294330000E+03 0.  0.
<mgrwt>
<rscale>  0 0.65691559E+03</rscale>
<asrwt>0</asrwt>
<pdfrwt beam="1">  1        2 0.13804917E+00 0.76438352E+03</pdfrwt>
<pdfrwt beam="2">  1       -2 0.14487147E+00 0.76438352E+03</pdfrwt>
<totfact> 0.98176195E+00</totfact>
</mgrwt>
</event>
<event>
 4    2  0.3747163E-007  0.7660144E+03  0.7818608E-02  0.9789778E-01
          2   -1    0    0  501    0  0.00000000000E+00  0.00000000000E+00  0.15835474206E+04  0.15835474206E+04  0.25500000000E-02 0. -1.
         -2   -1    0    0    0  501 -0.00000000000E+00 -0.00000000000E+00 -0.25840615708E+03  0.25840615709E+03  0.25500000000E-02 0.  1.
    8880023    1    1    2    0    0 -0.38386381506E+03 -0.74943240586E+02  0.11612735085E+04  0.13911629257E+04  0.65864270000E+03 0. -1.
    8880022    1    1    2    0    0  0.38386381506E+03  0.74943240586E+02  0.16386775499E+03  0.45079065204E+03  0.15294330000E+03 0.  0.
<mgrwt>
<rscale>  0 0.65913989E+03</rscale>
<asrwt>0</asrwt>
<pdfrwt beam="1">  1        2 0.24362267E+00 0.76601444E+03</pdfrwt>
<pdfrwt beam="2">  1       -2 0.39754794E-01 0.76601444E+03</pdfrwt>
<totfact> 0.69531896E+01</totfact>
</mgrwt>
</event>
<event>
 4    2  0.3747163E-007  0.7072511E+03  0.7818608E-02  0.9968354E-01
         -2   -1    0    0    0  501 -0.00000000000E+00  0.00000000000E+00  0.11627443086E+03  0.11627443089E+03  0.25500000000E-02 0.  1.
          2   -1    0    0  501    0  0.00000000000E+00 -0.00000000000E+00 -0.35178555274E+04  0.35178555274E+04  0.25500000000E-02 0. -1.
    8880023    1    1    2    0    0  0.24469383462E+03 -0.80739641392E+02 -0.31896367019E+04  0.32671067413E+04  0.65864270000E+03 0.  0.
    8880022    1    1    2    0    0 -0.24469383462E+03  0.80739641392E+02 -0.21194439461E+03  0.36702321699E+03  0.15294330000E+03 0.  0.
<mgrwt>
<rscale>  0 0.57059910E+03</rscale>
<asrwt>0</asrwt>
<pdfrwt beam="1">  1        2 0.54120846E+00 0.70725114E+03</pdfrwt>
<pdfrwt beam="2">  1       -2 0.17888377E-01 0.70725114E+03</pdfrwt>
<totfact> 0.22223960E+01</totfact>
</mgrwt>
</event>
<event>
 4    2  0.3747163E-007  0.9069641E+03  0.7818608E-02  0.9514943E-01
         -2   -1    0    0    0  501 -0.00000000000E+00  0.00000000000E+00  0.24372573706E+03  0.24372573707E+03  0.25500000000E-02 0.  1.
          2   -1    0    0  501    0  0.00000000000E+00 -0.00000000000E+00 -0.29160871587E+04  0.29160871588E+04  0.25500000000E-02 0. -1.
    8880023    1    1    2    0    0 -0.21579409381E+03  0.58498428683E+03 -0.91273928243E+03  0.12867310950E+04  0.65864270000E+03 0.  0.
    8880022    1    1    2    0    0  0.21579409381E+03 -0.58498428683E+03 -0.17596221393E+04  0.18730818009E+04  0.15294330000E+03 0.  0.
<mgrwt>
<rscale>  0 0.83191033E+03</rscale>
<asrwt>0</asrwt>
<pdfrwt beam="1">  1        2 0.44862877E+00 0.90696412E+03</pdfrwt>
<pdfrwt beam="2">  1       -2 0.37496269E-01 0.90696412E+03</pdfrwt>
<totfact> 0.13615028E+01</totfact>
</mgrwt>
</event>
<event>
 4    2  0.3747163E-007  0.6711481E+03  0.7818608E-02  0.1014853E+00
          2   -1    0    0  501    0  0.00000000000E+00  0.00000000000E+00  0.14905509867E+04  0.14905509867E+04  0.25500000000E-02 0. -1.
         -2   -1    0    0    0  501 -0.00000000000E+00 -0.00000000000E+00 -0.68061038438E+03  0.68061038438E+03  0.25500000000E-02 0.  1.
    8880023    1    1    2    0    0  0.12646320666E+03 -0.25231650573E+02  0.13975937816E+04  0.15503896812E+04  0.65864270000E+03 0. -1.
    8880022    1    1    2    0    0 -0.12646320666E+03  0.25231650573E+02 -0.58765317930E+03  0.62077168990E+03  0.15294330000E+03 0.  0.
<mgrwt>
<rscale>  0 0.49590682E+03</rscale>
<asrwt>0</asrwt>
<pdfrwt beam="1">  1        2 0.22931554E+00 0.67114811E+03</pdfrwt>
<pdfrwt beam="2">  1       -2 0.10470929E+00 0.67114811E+03</pdfrwt>
<totfact> 0.98544205E+00</totfact>
</mgrwt>
</event>
<event>
 4    2  0.3747163E-007  0.1079989E+04  0.7818608E-02  0.9283670E-01
          2   -1    0    0  501    0  0.00000000000E+00  0.00000000000E+00  0.44432435417E+03  0.44432435418E+03  0.25500000000E-02 0. -1.
         -2   -1    0    0    0  501 -0.00000000000E+00 -0.00000000000E+00 -0.26049189406E+04  0.26049189406E+04  0.25500000000E-02 0.  1.
    8880023    1    1    2    0    0 -0.34860388705E+03 -0.78169140115E+03 -0.18182643987E+04  0.21148195541E+04  0.65864270000E+03 0.  0.
    8880022    1    1    2    0    0  0.34860388705E+03  0.78169140115E+03 -0.34233018780E+03  0.93442374071E+03  0.15294330000E+03 0.  0.
<mgrwt>
<rscale>  0 0.10230025E+04</rscale>
<asrwt>0</asrwt>
<pdfrwt beam="1">  1        2 0.68357594E-01 0.10799890E+04</pdfrwt>
<pdfrwt beam="2">  1       -2 0.40075675E+00 0.10799890E+04</pdfrwt>
<totfact> 0.52299487E-01</totfact>
</mgrwt>
</event>
<event>
 4    2  0.3747163E-007  0.9946096E+03  0.7818608E-02  0.9388644E-01
          2   -1    0    0  501    0  0.00000000000E+00  0.00000000000E+00  0.10267955219E+04  0.10267955219E+04  0.25500000000E-02 0. -1.
         -2   -1    0    0    0  501 -0.00000000000E+00 -0.00000000000E+00 -0.16501265559E+04  0.16501265559E+04  0.25500000000E-02 0.  1.
    8880023    1    1    2    0    0  0.35509368962E+03  0.65524533010E+03  0.65386952141E+03  0.11902913628E+04  0.65864270000E+03 0.  0.
    8880022    1    1    2    0    0 -0.35509368962E+03 -0.65524533010E+03 -0.12772005554E+04  0.14866307150E+04  0.15294330000E+03 0.  0.
<mgrwt>
<rscale>  0 0.93016141E+03</rscale>
<asrwt>0</asrwt>
<pdfrwt beam="1">  1        2 0.15796854E+00 0.99460956E+03</pdfrwt>
<pdfrwt beam="2">  1       -2 0.25386562E+00 0.99460956E+03</pdfrwt>
<totfact> 0.14701737E+00</totfact>
</mgrwt>
</event>
<event>
 4    2  0.3747163E-007  0.7662368E+03  0.7818608E-02  0.9789221E-01
         -2   -1    0    0    0  501 -0.00000000000E+00  0.00000000000E+00  0.35809640089E+03  0.35809640090E+03  0.25500000000E-02 0.  1.
          2   -1    0    0  501    0  0.00000000000E+00 -0.00000000000E+00 -0.23848169041E+04  0.23848169041E+04  0.25500000000E-02 0. -1.
    8880023    1    1    2    0    0 -0.37373309318E+03  0.11675690354E+03 -0.21680215790E+04  0.22994426222E+04  0.65864270000E+03 0. -1.
    8880022    1    1    2    0    0  0.37373309318E+03 -0.11675690354E+03  0.14130107580E+03  0.44347068280E+03  0.15294330000E+03 0.  0.
<mgrwt>
<rscale>  0 0.65944244E+03</rscale>
<asrwt>0</asrwt>
<pdfrwt beam="1">  1        2 0.36689490E+00 0.76623678E+03</pdfrwt>
<pdfrwt beam="2">  1       -2 0.55091756E-01 0.76623678E+03</pdfrwt>
<totfact> 0.13093480E+01</totfact>
</mgrwt>
</event>
<event>
 4    2  0.3747163E-007  0.8583729E+03  0.7818608E-02  0.9596464E-01
          2   -1    0    0  501    0  0.00000000000E+00  0.00000000000E+00  0.11743443591E+04  0.11743443591E+04  0.25500000000E-02 0. -1.
         -2   -1    0    0    0  501 -0.00000000000E+00 -0.00000000000E+00 -0.12398474609E+04  0.12398474609E+04  0.25500000000E-02 0.  1.
    8880023    1    1    2    0    0  0.49907054343E+03  0.23221201727E+03  0.93051282321E+03  0.12659613536E+04  0.65864270000E+03 0.  0.
    8880022    1    1    2    0    0 -0.49907054343E+03 -0.23221201727E+03 -0.99601592500E+03  0.11482304665E+04  0.15294330000E+03 0.  0.
<mgrwt>
<rscale>  0 0.77530637E+03</rscale>
<asrwt>0</asrwt>
<pdfrwt beam="1">  1        2 0.18066836E+00 0.85837290E+03</pdfrwt>
<pdfrwt beam="2">  1       -2 0.19074576E+00 0.85837290E+03</pdfrwt>
<totfact> 0.30351036E+00</totfact>
</mgrwt>
</event>
<event>
 4    2  0.3747163E-007  0.7016775E+03  0.7818608E-02  0.9990312E-01
         -2   -1    0    0    0  501 -0.00000000000E+00  0.00000000000E+00  0.36838423500E+03  0.36838423501E+03  0.25500000000E-02 0.  1.
          2   -1    0    0  501    0  0.00000000000E+00 -0.00000000000E+00 -0.30341761266E+04  0.30341761266E+04  0.25500000000E-02 0. -1.
    8880023    1    1    2    0    0  0.23222931889E+03 -0.67901916311E+02 -0.29301066882E+04  0.30129514661E+04  0.65864270000E+03 0. -1.
    8880022    1    1    2    0    0 -0.23222931889E+03  0.67901916311E+02  0.26431479654E+03  0.38960889553E+03  0.15294330000E+03 0.  0.
<mgrwt>
<rscale>  0 0.56077079E+03</rscale>
<asrwt>0</asrwt>
<pdfrwt beam="1">  1        2 0.46679631E+00 0.70167751E+03</pdfrwt>
<pdfrwt beam="2">  1       -2 0.56674500E-01 0.70167751E+03</pdfrwt>
<totfact> 0.52137350E+00</totfact>
</mgrwt>
</event>
<event>
 4    2  0.3747163E-007  0.7287886E+03  0.7818608E-02  0.9893898E-01
          2   -1    0    0  501    0  0.00000000000E+00  0.00000000000E+00  0.16648397684E+04  0.16648397684E+04  0.25500000000E-02 0. -1.
         -2   -1    0    0    0  501 -0.00000000000E+00 -0.00000000000E+00 -0.37449659051E+03  0.37449659052E+03  0.25500000000E-02 0.  1.
    8880023    1    1    2    0    0 -0.74969070330E+02 -0.30282382637E+03  0.14754768361E+04  0.16456502458E+04  0.65864270000E+03 0.  0.
    8880022    1    1    2    0    0  0.74969070330E+02  0.30282382637E+03 -0.18513365816E+03  0.39368611319E+03  0.15294330000E+03 0.  0.
<mgrwt>
<rscale>  0 0.60557929E+03</rscale>
<asrwt>0</asrwt>
<pdfrwt beam="1">  1        2 0.25612919E+00 0.72878861E+03</pdfrwt>
<pdfrwt beam="2">  1       -2 0.57614860E-01 0.72878861E+03</pdfrwt>
<totfact> 0.29777417E+01</totfact>
</mgrwt>
</event>
<event>
 4    2  0.3747163E-007  0.7490370E+03  0.7818608E-02  0.9834364E-01
          2   -1    0    0  501    0  0.00000000000E+00  0.00000000000E+00  0.75054763203E+03  0.75054763203E+03  0.25500000000E-02 0. -1.
         -2   -1    0    0    0  501 -0.00000000000E+00 -0.00000000000E+00 -0.71101365703E+03  0.71101365704E+03  0.25500000000E-02 0.  1.
    8880023    1    1    2    0    0 -0.15773459033E+03  0.31994700769E+03  0.46817390974E+03  0.88331382008E+03  0.65864270000E+03 0. -1.
    8880022    1    1    2    0    0  0.15773459033E+03 -0.31994700769E+03 -0.42863993475E+03  0.57824746899E+03  0.15294330000E+03 0.  0.
<mgrwt>
<rscale>  0 0.63550544E+03</rscale>
<asrwt>0</asrwt>
<pdfrwt beam="1">  1        2 0.11546887E+00 0.74903705E+03</pdfrwt>
<pdfrwt beam="2">  1       -2 0.10938672E+00 0.74903705E+03</pdfrwt>
<totfact> 0.25300805E+01</totfact>
</mgrwt>
</event>
<event>
 4    2  0.3747163E-007  0.9326597E+03  0.7818608E-02  0.9475515E-01
         -2   -1    0    0    0  501 -0.00000000000E+00  0.00000000000E+00  0.11231196418E+04  0.11231196418E+04  0.25500000000E-02 0.  1.
          2   -1    0    0  501    0  0.00000000000E+00 -0.00000000000E+00 -0.67691900683E+03  0.67691900683E+03  0.25500000000E-02 0. -1.
    8880023    1    1    2    0    0 -0.65608059860E+03  0.74848057587E+02 -0.88301643467E+02  0.93683049165E+03  0.65864270000E+03 0.  1.
    8880022    1    1    2    0    0  0.65608059860E+03 -0.74848057587E+02  0.53450227842E+03  0.86320815696E+03  0.15294330000E+03 0.  0.
<mgrwt>
<rscale>  0 0.86113354E+03</rscale>
<asrwt>0</asrwt>
<pdfrwt beam="1">  1        2 0.10414139E+00 0.93265974E+03</pdfrwt>
<pdfrwt beam="2">  1       -2 0.17278764E+00 0.93265974E+03</pdfrwt>
<totfact> 0.86924143E+00</totfact>
</mgrwt>
</event>
<event>
 4    2  0.3747163E-007  0.7208419E+03  0.7818608E-02  0.9919747E-01
         -2   -1    0    0    0  501 -0.00000000000E+00  0.00000000000E+00  0.38482215183E+03  0.38482215184E+03  0.25500000000E-02 0.  1.
          2   -1    0    0  501    0  0.00000000000E+00 -0.00000000000E+00 -0.82846389824E+03  0.82846389825E+03  0.25500000000E-02 0. -1.
    8880023    1    1    2    0    0  0.10981405681E+02 -0.29271533744E+03 -0.50107106525E+03  0.87788682570E+03  0.65864270000E+03 0.  1.
    8880022    1    1    2    0    0 -0.10981405681E+02  0.29271533744E+03  0.57429318840E+02  0.33539922439E+03  0.15294330000E+03 0.  0.
<mgrwt>
<rscale>  0 0.59313715E+03</rscale>
<asrwt>0</asrwt>
<pdfrwt beam="1">  1        2 0.12745598E+00 0.72084191E+03</pdfrwt>
<pdfrwt beam="2">  1       -2 0.59203408E-01 0.72084191E+03</pdfrwt>
<totfact> 0.88866547E+01</totfact>
</mgrwt>
</event>
<event>
 4    2  0.3747163E-007  0.7262352E+03  0.7818608E-02  0.9902027E-01
         -2   -1    0    0    0  501 -0.00000000000E+00  0.00000000000E+00  0.14088503704E+03  0.14088503706E+03  0.25500000000E-02 0.  1.
          2   -1    0    0  501    0  0.00000000000E+00 -0.00000000000E+00 -0.25724241721E+04  0.25724241721E+04  0.25500000000E-02 0. -1.
    8880023    1    1    2    0    0  0.15891714285E+02  0.30554012721E+03 -0.21530257820E+04  0.22722098363E+04  0.65864270000E+03 0.  0.
    8880022    1    1    2    0    0 -0.15891714285E+02 -0.30554012721E+03 -0.27851335312E+03  0.44109937293E+03  0.15294330000E+03 0.  0.
<mgrwt>
<rscale>  0 0.60163170E+03</rscale>
<asrwt>0</asrwt>
<pdfrwt beam="1">  1        2 0.39575753E+00 0.72623517E+03</pdfrwt>
<pdfrwt beam="2">  1       -2 0.21674623E-01 0.72623517E+03</pdfrwt>
<totfact> 0.61122619E+01</totfact>
</mgrwt>
</event>
<event>
 4    2  0.7221735E-007  0.8835230E+03  0.7818608E-02  0.9553018E-01
         -2   -1    0    0    0  501 -0.00000000000E+00  0.00000000000E+00  0.10264178375E+04  0.10264178375E+04  0.25500000000E-02 0.  1.
          2   -1    0    0  501    0  0.00000000000E+00 -0.00000000000E+00 -0.34907141848E+04  0.34907141848E+04  0.25500000000E-02 0. -1.
    8880023    1    1    2    0    0  0.49718617406E+03 -0.31560830803E+03 -0.33377195852E+04  0.34526779362E+04  0.65864270000E+03 0.  0.
    8880022    1    1    2    0    0 -0.49718617406E+03  0.31560830803E+03  0.87342323787E+03  0.10644540860E+04  0.15294330000E+03 0.  0.
<mgrwt>
<rscale>  0 0.80485402E+03</rscale>
<asrwt>0</asrwt>
<pdfrwt beam="1">  1        2 0.53703294E+00 0.88352301E+03</pdfrwt>
<pdfrwt beam="2">  1       -2 0.15791044E+00 0.88352301E+03</pdfrwt>
<totfact> 0.22745375E-01</totfact>
</mgrwt>
</event>
<event>
 4    2  0.3747163E-007  0.9918474E+03  0.7818608E-02  0.9392302E-01
          2   -1    0    0  501    0  0.00000000000E+00  0.00000000000E+00  0.19219894618E+04  0.19219894618E+04  0.25500000000E-02 0. -1.
         -2   -1    0    0    0  501 -0.00000000000E+00 -0.00000000000E+00 -0.48616809703E+03  0.48616809704E+03  0.25500000000E-02 0.  1.
    8880023    1    1    2    0    0  0.30138438127E+03  0.67758285388E+03  0.13059633637E+04  0.16399090166E+04  0.65864270000E+03 0.  0.
    8880022    1    1    2    0    0 -0.30138438127E+03 -0.67758285388E+03  0.12985800103E+03  0.76824854220E+03  0.15294330000E+03 0.  0.
<mgrwt>
<rscale>  0 0.92711890E+03</rscale>
<asrwt>0</asrwt>
<pdfrwt beam="1">  1        2 0.29569069E+00 0.99184741E+03</pdfrwt>
<pdfrwt beam="2">  1       -2 0.74795090E-01 0.99184741E+03</pdfrwt>
<totfact> 0.11890240E+01</totfact>
</mgrwt>
</event>
<event>
 4    2  0.3747163E-007  0.7885284E+03  0.7818608E-02  0.9736172E-01
          2   -1    0    0  501    0  0.00000000000E+00  0.00000000000E+00  0.19123112225E+04  0.19123112225E+04  0.25500000000E-02 0. -1.
         -2   -1    0    0    0  501 -0.00000000000E+00 -0.00000000000E+00 -0.43111273714E+03  0.43111273714E+03  0.25500000000E-02 0.  1.
    8880023    1    1    2    0    0  0.41838366919E+03  0.11367489981E+03  0.16697091576E+04  0.18465388582E+04  0.65864270000E+03 0. -1.
    8880022    1    1    2    0    0 -0.41838366919E+03 -0.11367489981E+03 -0.18851067225E+03  0.49688510147E+03  0.15294330000E+03 0.  0.
<mgrwt>
<rscale>  0 0.68903374E+03</rscale>
<asrwt>0</asrwt>
<pdfrwt beam="1">  1        2 0.29420173E+00 0.78852843E+03</pdfrwt>
<pdfrwt beam="2">  1       -2 0.66325037E-01 0.78852843E+03</pdfrwt>
<totfact> 0.16048966E+01</totfact>
</mgrwt>
</event>
<event>
 4    2  0.3747163E-007  0.8203059E+03  0.7818608E-02  0.9668497E-01
          2   -1    0    0  501    0  0.00000000000E+00  0.00000000000E+00  0.10874609732E+04  0.10874609732E+04  0.25500000000E-02 0. -1.
         -2   -1    0    0    0  501 -0.00000000000E+00 -0.00000000000E+00 -0.14702353389E+04  0.14702353389E+04  0.25500000000E-02 0.  1.
    8880023    1    1    2    0    0 -0.48053114173E+03 -0.90451023764E+02  0.87511724955E+03  0.11994715389E+04  0.65864270000E+03 0.  0.
    8880022    1    1    2    0    0  0.48053114173E+03  0.90451023764E+02 -0.12578916152E+04  0.13582247732E+04  0.15294330000E+03 0.  0.
<mgrwt>
<rscale>  0 0.72923847E+03</rscale>
<asrwt>0</asrwt>
<pdfrwt beam="1">  1        2 0.16730169E+00 0.82030590E+03</pdfrwt>
<pdfrwt beam="2">  1       -2 0.22619005E+00 0.82030590E+03</pdfrwt>
<totfact> 0.20410508E+00</totfact>
</mgrwt>
</event>
<event>
 4    2  0.3747163E-007  0.7875950E+03  0.7818608E-02  0.9738289E-01
         -2   -1    0    0    0  501 -0.00000000000E+00  0.00000000000E+00  0.23298295980E+03  0.23298295981E+03  0.25500000000E-02 0.  1.
          2   -1    0    0  501    0  0.00000000000E+00 -0.00000000000E+00 -0.28327028267E+04  0.28327028267E+04  0.25500000000E-02 0. -1.
    8880023    1    1    2    0    0  0.40945548230E+03  0.13726576754E+03 -0.24655785357E+04  0.25883167126E+04  0.65864270000E+03 0. -1.
    8880022    1    1    2    0    0 -0.40945548230E+03 -0.13726576754E+03 -0.13414133118E+03  0.47736907385E+03  0.15294330000E+03 0.  0.
<mgrwt>
<rscale>  0 0.68782110E+03</rscale>
<asrwt>0</asrwt>
<pdfrwt beam="1">  1        2 0.43580041E+00 0.78759500E+03</pdfrwt>
<pdfrwt beam="2">  1       -2 0.35843534E-01 0.78759500E+03</pdfrwt>
<totfact> 0.16959272E+01</totfact>
</mgrwt>
</event>
<event>
 4    2  0.3747163E-007  0.6815788E+03  0.7818608E-02  0.1008444E+00
          2   -1    0    0  501    0  0.00000000000E+00  0.00000000000E+00  0.16597438503E+04  0.16597438503E+04  0.25500000000E-02 0. -1.
         -2   -1    0    0    0  501 -0.00000000000E+00 -0.00000000000E+00 -0.20391948812E+03  0.20391948814E+03  0.25500000000E-02 0.  1.
    8880023    1    1    2    0    0 -0.13815836911E+03  0.10794330057E+03  0.14803437644E+04  0.16297138884E+04  0.65864270000E+03 0. -1.
    8880022    1    1    2    0    0  0.13815836911E+03 -0.10794330057E+03 -0.24519402157E+02  0.23394945007E+03  0.15294330000E+03 0.  0.
<mgrwt>
<rscale>  0 0.52097630E+03</rscale>
<asrwt>0</asrwt>
<pdfrwt beam="1">  1        2 0.25534521E+00 0.68157883E+03</pdfrwt>
<pdfrwt beam="2">  1       -2 0.31372228E-01 0.68157883E+03</pdfrwt>
<totfact> 0.10003109E+02</totfact>
</mgrwt>
</event>
<event>
 4    2  0.3747163E-007  0.8207348E+03  0.7818608E-02  0.9667636E-01
         -2   -1    0    0    0  501 -0.00000000000E+00  0.00000000000E+00  0.52360566465E+03  0.52360566466E+03  0.25500000000E-02 0.  1.
          2   -1    0    0  501    0  0.00000000000E+00 -0.00000000000E+00 -0.15956529188E+04  0.15956529188E+04  0.25500000000E-02 0. -1.
    8880023    1    1    2    0    0 -0.48967299777E+03  0.39770738999E+01 -0.13161850815E+04  0.15511121291E+04  0.65864270000E+03 0. -1.
    8880022    1    1    2    0    0  0.48967299777E+03 -0.39770738999E+01  0.24413782738E+03  0.56814645439E+03  0.15294330000E+03 0.  0.
<mgrwt>
<rscale>  0 0.72976869E+03</rscale>
<asrwt>0</asrwt>
<pdfrwt beam="1">  1        2 0.24548506E+00 0.82073483E+03</pdfrwt>
<pdfrwt beam="2">  1       -2 0.80554719E-01 0.82073483E+03</pdfrwt>
<totfact> 0.15523132E+01</totfact>
</mgrwt>
</event>
<event>
 4    2  0.3747163E-007  0.8572235E+03  0.7818608E-02  0.9598521E-01
          2   -1    0    0  501    0  0.00000000000E+00  0.00000000000E+00  0.85155239111E+03  0.85155239112E+03  0.25500000000E-02 0. -1.
         -2   -1    0    0    0  501 -0.00000000000E+00 -0.00000000000E+00 -0.60387070192E+03  0.60387070193E+03  0.25500000000E-02 0.  1.
    8880023    1    1    2    0    0 -0.44674015885E+03  0.31850465808E+03  0.76239708118E+02  0.86060716132E+03  0.65864270000E+03 0.  0.
    8880022    1    1    2    0    0  0.44674015885E+03 -0.31850465808E+03  0.17144198107E+03  0.59481593173E+03  0.15294330000E+03 0.  0.
<mgrwt>
<rscale>  0 0.77394118E+03</rscale>
<asrwt>0</asrwt>
<pdfrwt beam="1">  1        2 0.13100806E+00 0.85722354E+03</pdfrwt>
<pdfrwt beam="2">  1       -2 0.92903185E-01 0.85722354E+03</pdfrwt>
<totfact> 0.31253573E+01</totfact>
</mgrwt>
</event>
<event>
 4    2  0.3747163E-007  0.8026997E+03  0.7818608E-02  0.9704989E-01
          2   -1    0    0  501    0  0.00000000000E+00  0.00000000000E+00  0.19121706566E+04  0.19121706566E+04  0.25500000000E-02 0. -1.
         -2   -1    0    0    0  501 -0.00000000000E+00 -0.00000000000E+00 -0.42395812628E+03  0.42395812628E+03  0.25500000000E-02 0.  1.
    8880023    1    1    2    0    0 -0.38568052505E+03 -0.24852993686E+03  0.16427696807E+04  0.18283924707E+04  0.65864270000E+03 0.  0.
    8880022    1    1    2    0    0  0.38568052505E+03  0.24852993686E+03 -0.15455715039E+03  0.50773631214E+03  0.15294330000E+03 0.  0.
<mgrwt>
<rscale>  0 0.70720532E+03</rscale>
<asrwt>0</asrwt>
<pdfrwt beam="1">  1        2 0.29418010E+00 0.80269970E+03</pdfrwt>
<pdfrwt beam="2">  1       -2 0.65224327E-01 0.80269970E+03</pdfrwt>
<totfact> 0.16610455E+01</totfact>
</mgrwt>
</event>
<event>
 4    2  0.3747163E-007  0.6842357E+03  0.7818608E-02  0.1007022E+00
         -2   -1    0    0    0  501 -0.00000000000E+00  0.00000000000E+00  0.29805230280E+03  0.29805230281E+03  0.25500000000E-02 0.  1.
          2   -1    0    0  501    0  0.00000000000E+00 -0.00000000000E+00 -0.17576527861E+04  0.17576527861E+04  0.25500000000E-02 0. -1.
    8880023    1    1    2    0    0  0.24355120382E+01 -0.18537074700E+03 -0.16255218676E+04  0.17636609067E+04  0.65864270000E+03 0. -1.
    8880022    1    1    2    0    0 -0.24355120382E+01  0.18537074700E+03  0.16592138431E+03  0.29204418219E+03  0.15294330000E+03 0.  0.
<mgrwt>
<rscale>  0 0.52675369E+03</rscale>
<asrwt>0</asrwt>
<pdfrwt beam="1">  1        2 0.27040812E+00 0.68423567E+03</pdfrwt>
<pdfrwt beam="2">  1       -2 0.45854201E-01 0.68423567E+03</pdfrwt>
<totfact> 0.42507511E+01</totfact>
</mgrwt>
</event>
<event>
 4    2  0.3747163E-007  0.6837196E+03  0.7818608E-02  0.1007293E+00
          2   -1    0    0  501    0  0.00000000000E+00  0.00000000000E+00  0.76233818098E+03  0.76233818099E+03  0.25500000000E-02 0. -1.
         -2   -1    0    0    0  501 -0.00000000000E+00 -0.00000000000E+00 -0.29892020529E+03  0.29892020530E+03  0.25500000000E-02 0.  1.
    8880023    1    1    2    0    0 -0.12310946474E+03 -0.13603778007E+03  0.21521875719E+03  0.71679253458E+03  0.65864270000E+03 0.  0.
    8880022    1    1    2    0    0  0.12310946474E+03  0.13603778007E+03  0.24819921850E+03  0.34446585171E+03  0.15294330000E+03 0.  0.
<mgrwt>
<rscale>  0 0.52564694E+03</rscale>
<asrwt>0</asrwt>
<pdfrwt beam="1">  1        2 0.11728280E+00 0.68371955E+03</pdfrwt>
<pdfrwt beam="2">  1       -2 0.45987724E-01 0.68371955E+03</pdfrwt>
<totfact> 0.16692091E+02</totfact>
</mgrwt>
</event>
<event>
 4    2  0.3747163E-007  0.6599741E+03  0.7818608E-02  0.1024183E+00
          2   -1    0    0  501    0  0.00000000000E+00  0.00000000000E+00  0.13704907645E+04  0.13704907645E+04  0.25500000000E-02 0. -1.
         -2   -1    0    0    0  501 -0.00000000000E+00 -0.00000000000E+00 -0.15698786035E+03  0.15698786037E+03  0.25500000000E-02 0.  1.
    8880023    1    1    2    0    0  0.37110349126E+02  0.19454922684E+02  0.59372860633E+03  0.88773843911E+03  0.65864270000E+03 0.  1.
    8880022    1    1    2    0    0 -0.37110349126E+02 -0.19454922684E+02  0.61977429782E+03  0.63974018576E+03  0.15294330000E+03 0.  0.
<mgrwt>
<rscale>  0 0.46206882E+03</rscale>
<asrwt>0</asrwt>
<pdfrwt beam="1">  1        2 0.21084472E+00 0.65997415E+03</pdfrwt>
<pdfrwt beam="2">  1       -2 0.24151980E-01 0.65997415E+03</pdfrwt>
<totfact> 0.23392686E+02</totfact>
</mgrwt>
</event>
<event>
 4    2  0.3747163E-007  0.8241021E+03  0.7818608E-02  0.9660919E-01
         -2   -1    0    0    0  501 -0.00000000000E+00  0.00000000000E+00  0.39728385407E+03  0.39728385408E+03  0.25500000000E-02 0.  1.
          2   -1    0    0  501    0  0.00000000000E+00 -0.00000000000E+00 -0.17097468043E+04  0.17097468043E+04  0.25500000000E-02 0. -1.
    8880023    1    1    2    0    0 -0.44636688135E+03 -0.21468750985E+03 -0.13560372512E+04  0.15868148451E+04  0.65864270000E+03 0. -1.
    8880022    1    1    2    0    0  0.44636688135E+03  0.21468750985E+03  0.43574300997E+02  0.52021581327E+03  0.15294330000E+03 0.  0.
<mgrwt>
<rscale>  0 0.73392122E+03</rscale>
<asrwt>0</asrwt>
<pdfrwt beam="1">  1        2 0.26303797E+00 0.82410213E+03</pdfrwt>
<pdfrwt beam="2">  1       -2 0.61120594E-01 0.82410213E+03</pdfrwt>
<totfact> 0.24563477E+01</totfact>
</mgrwt>
</event>
<event>
 4    2  0.3747163E-007  0.7172160E+03  0.7818608E-02  0.9932121E-01
         -2   -1    0    0    0  501 -0.00000000000E+00  0.00000000000E+00  0.86325591584E+03  0.86325591584E+03  0.25500000000E-02 0.  1.
          2   -1    0    0  501    0  0.00000000000E+00 -0.00000000000E+00 -0.31317448469E+03  0.31317448470E+03  0.25500000000E-02 0. -1.
    8880023    1    1    2    0    0 -0.23749071298E+03 -0.15552090688E+03  0.36804002118E+03  0.80613414187E+03  0.65864270000E+03 0.  0.
    8880022    1    1    2    0    0  0.23749071298E+03  0.15552090688E+03  0.18204140997E+03  0.37029625868E+03  0.15294330000E+03 0. -1.
<mgrwt>
<rscale>  0 0.58729504E+03</rscale>
<asrwt>0</asrwt>
<pdfrwt beam="1">  1        2 0.48180691E-01 0.71721600E+03</pdfrwt>
<pdfrwt beam="2">  1       -2 0.13280860E+00 0.71721600E+03</pdfrwt>
<totfact> 0.43607925E+01</totfact>
</mgrwt>
</event>
<event>
 4    2  0.3747163E-007  0.8301107E+03  0.7818608E-02  0.9649117E-01
          2   -1    0    0  501    0  0.00000000000E+00  0.00000000000E+00  0.13406831738E+04  0.13406831738E+04  0.25500000000E-02 0. -1.
         -2   -1    0    0    0  501 -0.00000000000E+00 -0.00000000000E+00 -0.58013102829E+03  0.58013102829E+03  0.25500000000E-02 0.  1.
    8880023    1    1    2    0    0  0.47935938545E+03 -0.15965004171E+03 -0.17337339173E+03  0.84802246165E+03  0.65864270000E+03 0.  1.
    8880022    1    1    2    0    0 -0.47935938545E+03  0.15965004171E+03  0.93392553719E+03  0.10727917404E+04  0.15294330000E+03 0.  0.
<mgrwt>
<rscale>  0 0.74128865E+03</rscale>
<asrwt>0</asrwt>
<pdfrwt beam="1">  1        2 0.20625895E+00 0.83011069E+03</pdfrwt>
<pdfrwt beam="2">  1       -2 0.89250929E-01 0.83011069E+03</pdfrwt>
<totfact> 0.17071561E+01</totfact>
</mgrwt>
</event>
<event>
 4    2  0.3747163E-007  0.9875676E+03  0.7818608E-02  0.9398007E-01
          2   -1    0    0  501    0  0.00000000000E+00  0.00000000000E+00  0.23238655649E+04  0.23238655649E+04  0.25500000000E-02 0. -1.
         -2   -1    0    0    0  501 -0.00000000000E+00 -0.00000000000E+00 -0.52058425194E+03  0.52058425194E+03  0.25500000000E-02 0.  1.
    8880023    1    1    2    0    0  0.26040648280E+02  0.73539198257E+03  0.18439667402E+04  0.20917703097E+04  0.65864270000E+03 0.  0.
    8880022    1    1    2    0    0 -0.26040648280E+02 -0.73539198257E+03 -0.40685427279E+02  0.75267950709E+03  0.15294330000E+03 0.  0.
<mgrwt>
<rscale>  0 0.92239892E+03</rscale>
<asrwt>0</asrwt>
<pdfrwt beam="1">  1        2 0.35751777E+00 0.98756756E+03</pdfrwt>
<pdfrwt beam="2">  1       -2 0.80089886E-01 0.98756756E+03</pdfrwt>
<totfact> 0.61112176E+00</totfact>
</mgrwt>
</event>
<event>
 4    2  0.3747163E-007  0.6825298E+03  0.7818608E-02  0.1007927E+00
          2   -1    0    0  501    0  0.00000000000E+00  0.00000000000E+00  0.22614424755E+04  0.22614424755E+04  0.25500000000E-02 0. -1.
         -2   -1    0    0    0  501 -0.00000000000E+00 -0.00000000000E+00 -0.55656532040E+03  0.55656532041E+03  0.25500000000E-02 0.  1.
    8880023    1    1    2    0    0  0.14684605828E+03 -0.10233724896E+03  0.21818397411E+04  0.22861040089E+04  0.65864270000E+03 0. -1.
    8880022    1    1    2    0    0 -0.14684605828E+03  0.10233724896E+03 -0.47696258592E+03  0.53190378710E+03  0.15294330000E+03 0.  0.
<mgrwt>
<rscale>  0 0.52306742E+03</rscale>
<asrwt>0</asrwt>
<pdfrwt beam="1">  1        2 0.34791423E+00 0.68252977E+03</pdfrwt>
<pdfrwt beam="2">  1       -2 0.85625434E-01 0.68252977E+03</pdfrwt>
<totfact> 0.59620799E+00</totfact>
</mgrwt>
</event>
<event>
 4    2  0.3747163E-007  0.7150462E+03  0.7818608E-02  0.9939719E-01
          2   -1    0    0  501    0  0.00000000000E+00  0.00000000000E+00  0.53606074712E+03  0.53606074712E+03  0.25500000000E-02 0. -1.
         -2   -1    0    0    0  501 -0.00000000000E+00 -0.00000000000E+00 -0.60050702584E+03  0.60050702584E+03  0.25500000000E-02 0.  1.
    8880023    1    1    2    0    0 -0.46778039469E+02  0.27439520811E+03  0.17815743668E+03  0.73690650270E+03  0.65864270000E+03 0.  1.
    8880022    1    1    2    0    0  0.46778039469E+02 -0.27439520811E+03 -0.24260371540E+03  0.39966127027E+03  0.15294330000E+03 0.  0.
<mgrwt>
<rscale>  0 0.58374373E+03</rscale>
<asrwt>0</asrwt>
<pdfrwt beam="1">  1        2 0.82470884E-01 0.71504624E+03</pdfrwt>
<pdfrwt beam="2">  1       -2 0.92385697E-01 0.71504624E+03</pdfrwt>
<totfact> 0.57247446E+01</totfact>
</mgrwt>
</event>
<event>
 4    2  0.3747163E-007  0.7063777E+03  0.7818608E-02  0.9971706E-01
          2   -1    0    0  501    0  0.00000000000E+00  0.00000000000E+00  0.15627538929E+04  0.15627538929E+04  0.25500000000E-02 0. -1.
         -2   -1    0    0    0  501 -0.00000000000E+00 -0.00000000000E+00 -0.19623883421E+03  0.19623883422E+03  0.25500000000E-02 0.  1.
    8880023    1    1    2    0    0  0.25482999790E+03 -0.14861532005E+02  0.12570478766E+04  0.14419218992E+04  0.65864270000E+03 0. -1.
    8880022    1    1    2    0    0 -0.25482999790E+03  0.14861532005E+02  0.10946718208E+03  0.31707082794E+03  0.15294330000E+03 0.  0.
<mgrwt>
<rscale>  0 0.56908456E+03</rscale>
<asrwt>0</asrwt>
<pdfrwt beam="1">  1        2 0.24042368E+00 0.70637766E+03</pdfrwt>
<pdfrwt beam="2">  1       -2 0.30190589E-01 0.70637766E+03</pdfrwt>
<totfact> 0.12116299E+02</totfact>
</mgrwt>
</event>
<event>
 4    2  0.3747163E-007  0.6915473E+03  0.7818608E-02  0.1003426E+00
         -2   -1    0    0    0  501 -0.00000000000E+00  0.00000000000E+00  0.14700267744E+03  0.14700267746E+03  0.25500000000E-02 0.  1.
          2   -1    0    0  501    0  0.00000000000E+00 -0.00000000000E+00 -0.19959100402E+04  0.19959100402E+04  0.25500000000E-02 0. -1.
    8880023    1    1    2    0    0  0.10581605657E+03 -0.18229209511E+03 -0.17169084086E+04  0.18509489824E+04  0.65864270000E+03 0.  0.
    8880022    1    1    2    0    0 -0.10581605657E+03  0.18229209511E+03 -0.13199895413E+03  0.29196373520E+03  0.15294330000E+03 0.  0.
<mgrwt>
<rscale>  0 0.54173315E+03</rscale>
<asrwt>0</asrwt>
<pdfrwt beam="1">  1        2 0.30706306E+00 0.69154729E+03</pdfrwt>
<pdfrwt beam="2">  1       -2 0.22615798E-01 0.69154729E+03</pdfrwt>
<totfact> 0.11895876E+02</totfact>
</mgrwt>
</event>
<event>
 4    2  0.3747163E-007  0.8423949E+03  0.7818608E-02  0.9625681E-01
         -2   -1    0    0    0  501 -0.00000000000E+00  0.00000000000E+00  0.27098939070E+03  0.27098939072E+03  0.25500000000E-02 0.  1.
          2   -1    0    0  501    0  0.00000000000E+00 -0.00000000000E+00 -0.31339736055E+04  0.31339736055E+04  0.25500000000E-02 0. -1.
    8880023    1    1    2    0    0  0.72236973011E+02 -0.52019296435E+03 -0.27086293710E+04  0.28366004612E+04  0.65864270000E+03 0.  0.
    8880022    1    1    2    0    0 -0.72236973011E+02  0.52019296435E+03 -0.15435484375E+03  0.56836253503E+03  0.15294330000E+03 0.  0.
<mgrwt>
<rscale>  0 0.75619516E+03</rscale>
<asrwt>0</asrwt>
<pdfrwt beam="1">  1        2 0.48214976E+00 0.84239486E+03</pdfrwt>
<pdfrwt beam="2">  1       -2 0.41690678E-01 0.84239486E+03</pdfrwt>
<totfact> 0.82013105E+00</totfact>
</mgrwt>
</event>
<event>
 4    2  0.6451940E-007  0.1186987E+04  0.7818608E-02  0.9169876E-01
         -2   -1    0    0    0  501 -0.00000000000E+00  0.00000000000E+00  0.14362062542E+04  0.14362062542E+04  0.25500000000E-02 0.  1.
          2   -1    0    0  501    0  0.00000000000E+00 -0.00000000000E+00 -0.36117539959E+04  0.36117539959E+04  0.25500000000E-02 0. -1.
    8880023    1    1    2    0    0  0.45912818879E+02  0.98641814321E+03 -0.33216775011E+04  0.35273900220E+04  0.65864270000E+03 0.  0.
    8880022    1    1    2    0    0 -0.45912818879E+02 -0.98641814321E+03  0.11461297593E+04  0.15205702280E+04  0.15294330000E+03 0.  0.
<mgrwt>
<rscale>  0 0.11369836E+04</rscale>
<asrwt>0</asrwt>
<pdfrwt beam="1">  1        2 0.55565446E+00 0.11869873E+04</pdfrwt>
<pdfrwt beam="2">  1       -2 0.22095481E+00 0.11869873E+04</pdfrwt>
<totfact> 0.65867583E-02</totfact>
</mgrwt>
</event>
<event>
 4    2  0.3747163E-007  0.1006305E+04  0.7818608E-02  0.9373355E-01
          2   -1    0    0  501    0  0.00000000000E+00  0.00000000000E+00  0.47697299832E+03  0.47697299833E+03  0.25500000000E-02 0. -1.
         -2   -1    0    0    0  501 -0.00000000000E+00 -0.00000000000E+00 -0.45053456150E+04  0.45053456150E+04  0.25500000000E-02 0.  1.
    8880023    1    1    2    0    0 -0.54478619987E+02 -0.75886207432E+03 -0.13850022363E+03  0.10157913595E+04  0.65864270000E+03 0. -1.
    8880022    1    1    2    0    0  0.54478619987E+02  0.75886207432E+03 -0.38898723931E+04  0.39665272538E+04  0.15294330000E+03 0.  0.
<mgrwt>
<rscale>  0 0.94301290E+03</rscale>
<asrwt>0</asrwt>
<pdfrwt beam="1">  1        2 0.73380464E-01 0.10063050E+04</pdfrwt>
<pdfrwt beam="2">  1       -2 0.69313007E+00 0.10063050E+04</pdfrwt>
<totfact> 0.15763799E-02</totfact>
</mgrwt>
</event>
<event>
 4    2  0.3747163E-007  0.7673161E+03  0.7818608E-02  0.9786522E-01
         -2   -1    0    0    0  501 -0.00000000000E+00  0.00000000000E+00  0.42597934401E+03  0.42597934402E+03  0.25500000000E-02 0.  1.
          2   -1    0    0  501    0  0.00000000000E+00 -0.00000000000E+00 -0.28593785151E+04  0.28593785151E+04  0.25500000000E-02 0. -1.
    8880023    1    1    2    0    0  0.65016310178E+02  0.38824815589E+03 -0.26858687372E+04  0.27933250492E+04  0.65864270000E+03 0. -1.
    8880022    1    1    2    0    0 -0.65016310178E+02 -0.38824815589E+03  0.25246956611E+03  0.49203280985E+03  0.15294330000E+03 0.  0.
<mgrwt>
<rscale>  0 0.66090876E+03</rscale>
<asrwt>0</asrwt>
<pdfrwt beam="1">  1        2 0.43990438E+00 0.76731607E+03</pdfrwt>
<pdfrwt beam="2">  1       -2 0.65535285E-01 0.76731607E+03</pdfrwt>
<totfact> 0.48282411E+00</totfact>
</mgrwt>
</event>
<event>
 4    2  0.3747163E-007  0.6689781E+03  0.7818608E-02  0.1016406E+00
         -2   -1    0    0    0  501 -0.00000000000E+00  0.00000000000E+00  0.25734971554E+03  0.25734971555E+03  0.25500000000E-02 0.  1.
          2   -1    0    0  501    0  0.00000000000E+00 -0.00000000000E+00 -0.20860581293E+04  0.20860581293E+04  0.25500000000E-02 0. -1.
    8880023    1    1    2    0    0  0.98651670009E+02 -0.63161232165E+02 -0.19854040025E+04  0.20950801304E+04  0.65864270000E+03 0. -1.
    8880022    1    1    2    0    0 -0.98651670009E+02  0.63161232165E+02  0.15669558873E+03  0.24832771449E+03  0.15294330000E+03 0.  0.
<mgrwt>
<rscale>  0 0.49006072E+03</rscale>
<asrwt>0</asrwt>
<pdfrwt beam="1">  1        2 0.32093201E+00 0.66897810E+03</pdfrwt>
<pdfrwt beam="2">  1       -2 0.39592265E-01 0.66897810E+03</pdfrwt>
<totfact> 0.37709633E+01</totfact>
</mgrwt>
</event>
<event>
 4    2  0.5103523E-007  0.8945935E+03  0.7818608E-02  0.9534767E-01
         -2   -1    0    0    0  501 -0.00000000000E+00  0.00000000000E+00  0.14537716649E+04  0.14537716649E+04  0.25500000000E-02 0.  1.
          2   -1    0    0  501    0  0.00000000000E+00 -0.00000000000E+00 -0.14724778140E+04  0.14724778140E+04  0.25500000000E-02 0. -1.
    8880023    1    1    2    0    0  0.86027484984E+02 -0.59923832011E+03 -0.12550080596E+04  0.15412146925E+04  0.65864270000E+03 0.  0.
    8880022    1    1    2    0    0 -0.86027484984E+02  0.59923832011E+03  0.12363019106E+04  0.13850347864E+04  0.15294330000E+03 0.  0.
<mgrwt>
<rscale>  0 0.81768404E+03</rscale>
<asrwt>0</asrwt>
<pdfrwt beam="1">  1        2 0.22653505E+00 0.89459348E+03</pdfrwt>
<pdfrwt beam="2">  1       -2 0.22365718E+00 0.89459348E+03</pdfrwt>
<totfact> 0.12462736E+00</totfact>
</mgrwt>
</event>
<event>
 4    2  0.3747163E-007  0.7412143E+03  0.7818608E-02  0.9856424E-01
         -2   -1    0    0    0  501 -0.00000000000E+00  0.00000000000E+00  0.40406335702E+03  0.40406335703E+03  0.25500000000E-02 0.  1.
          2   -1    0    0  501    0  0.00000000000E+00 -0.00000000000E+00 -0.15071344941E+04  0.15071344941E+04  0.25500000000E-02 0. -1.
    8880023    1    1    2    0    0 -0.31642733589E+03  0.12434702938E+03 -0.12948281408E+04  0.14919713680E+04  0.65864270000E+03 0.  0.
    8880022    1    1    2    0    0  0.31642733589E+03 -0.12434702938E+03  0.19175700373E+03  0.41922648307E+03  0.15294330000E+03 0.  0.
<mgrwt>
<rscale>  0 0.62420454E+03</rscale>
<asrwt>0</asrwt>
<pdfrwt beam="1">  1        2 0.23186684E+00 0.74121431E+03</pdfrwt>
<pdfrwt beam="2">  1       -2 0.62163594E-01 0.74121431E+03</pdfrwt>
<totfact> 0.30946164E+01</totfact>
</mgrwt>
</event>
<event>
 4    2  0.3747163E-007  0.8576520E+03  0.7818608E-02  0.9597754E-01
          2   -1    0    0  501    0  0.00000000000E+00  0.00000000000E+00  0.26106111391E+03  0.26106111392E+03  0.25500000000E-02 0. -1.
         -2   -1    0    0    0  501 -0.00000000000E+00 -0.00000000000E+00 -0.21919983527E+04  0.21919983527E+04  0.25500000000E-02 0.  1.
    8880023    1    1    2    0    0 -0.30604827524E+03 -0.45617012604E+03 -0.74047925371E+03  0.11330827252E+04  0.65864270000E+03 0. -1.
    8880022    1    1    2    0    0  0.30604827524E+03  0.45617012604E+03 -0.11904579851E+04  0.13199767415E+04  0.15294330000E+03 0. -1.
<mgrwt>
<rscale>  0 0.77445025E+03</rscale>
<asrwt>0</asrwt>
<pdfrwt beam="1">  1        2 0.40163250E-01 0.85765199E+03</pdfrwt>
<pdfrwt beam="2">  1       -2 0.33723050E+00 0.85765199E+03</pdfrwt>
<totfact> 0.24785599E+00</totfact>
</mgrwt>
</event>
<event>
 4    2  0.3747163E-007  0.9448658E+03  0.7818608E-02  0.9457540E-01
         -2   -1    0    0    0  501 -0.00000000000E+00  0.00000000000E+00  0.19116709720E+03  0.19116709721E+03  0.25500000000E-02 0.  1.
          2   -1    0    0  501    0  0.00000000000E+00 -0.00000000000E+00 -0.42674972966E+04  0.42674972966E+04  0.25500000000E-02 0. -1.
    8880023    1    1    2    0    0 -0.88995586588E+02 -0.67159576115E+03 -0.32218035983E+04  0.33574975373E+04  0.65864270000E+03 0. -1.
    8880022    1    1    2    0    0  0.88995586588E+02  0.67159576115E+03 -0.85452660108E+03  0.11011668565E+04  0.15294330000E+03 0.  0.
<mgrwt>
<rscale>  0 0.87487937E+03</rscale>
<asrwt>0</asrwt>
<pdfrwt beam="1">  1        2 0.65653797E+00 0.94486575E+03</pdfrwt>
<pdfrwt beam="2">  1       -2 0.29410326E-01 0.94486575E+03</pdfrwt>
<totfact> 0.23214483E+00</totfact>
</mgrwt>
</event>
<event>
 4    2  0.3747163E-007  0.8685525E+03  0.7818608E-02  0.9578527E-01
         -2   -1    0    0    0  501 -0.00000000000E+00  0.00000000000E+00  0.51662911616E+03  0.51662911617E+03  0.25500000000E-02 0.  1.
          2   -1    0    0  501    0  0.00000000000E+00 -0.00000000000E+00 -0.12454960823E+04  0.12454960823E+04  0.25500000000E-02 0. -1.
    8880023    1    1    2    0    0 -0.55037442642E+03 -0.13289581295E+03 -0.78790003946E+03  0.11726764195E+04  0.65864270000E+03 0.  0.
    8880022    1    1    2    0    0  0.55037442642E+03  0.13289581295E+03  0.59033073281E+02  0.58944877904E+03  0.15294330000E+03 0.  0.
<mgrwt>
<rscale>  0 0.78733824E+03</rscale>
<asrwt>0</asrwt>
<pdfrwt beam="1">  1        2 0.19161478E+00 0.86855254E+03</pdfrwt>
<pdfrwt beam="2">  1       -2 0.79481403E-01 0.86855254E+03</pdfrwt>
<totfact> 0.25146870E+01</totfact>
</mgrwt>
</event>
<event>
 4    2  0.3747163E-007  0.8107909E+03  0.7818608E-02  0.9687932E-01
         -2   -1    0    0    0  501 -0.00000000000E+00  0.00000000000E+00  0.69692533060E+03  0.69692533060E+03  0.25500000000E-02 0.  1.
          2   -1    0    0  501    0  0.00000000000E+00 -0.00000000000E+00 -0.70042225434E+03  0.70042225434E+03  0.25500000000E-02 0. -1.
    8880023    1    1    2    0    0  0.46052267721E+03  0.10719372383E+03 -0.24198409855E+03  0.84613127874E+03  0.65864270000E+03 0.  1.
    8880022    1    1    2    0    0 -0.46052267721E+03 -0.10719372383E+03  0.23848717481E+03  0.55121630620E+03  0.15294330000E+03 0.  0.
<mgrwt>
<rscale>  0 0.71739887E+03</rscale>
<asrwt>0</asrwt>
<pdfrwt beam="1">  1        2 0.10775727E+00 0.81079087E+03</pdfrwt>
<pdfrwt beam="2">  1       -2 0.10721928E+00 0.81079087E+03</pdfrwt>
<totfact> 0.28857353E+01</totfact>
</mgrwt>
</event>
<event>
 4    2  0.3747163E-007  0.7524881E+03  0.7818608E-02  0.9824958E-01
         -2   -1    0    0    0  501 -0.00000000000E+00  0.00000000000E+00  0.11804909579E+03  0.11804909582E+03  0.25500000000E-02 0.  1.
          2   -1    0    0  501    0  0.00000000000E+00 -0.00000000000E+00 -0.37435432377E+04  0.37435432377E+04  0.25500000000E-02 0. -1.
    8880023    1    1    2    0    0 -0.17635253753E+03  0.31832041113E+03 -0.31735000791E+04  0.32614936854E+04  0.65864270000E+03 0.  0.
    8880022    1    1    2    0    0  0.17635253753E+03 -0.31832041113E+03 -0.45199406280E+03  0.60009864811E+03  0.15294330000E+03 0.  0.
<mgrwt>
<rscale>  0 0.64040178E+03</rscale>
<asrwt>0</asrwt>
<pdfrwt beam="1">  1        2 0.57592964E+00 0.75248808E+03</pdfrwt>
<pdfrwt beam="2">  1       -2 0.18161402E-01 0.75248808E+03</pdfrwt>
<totfact> 0.14878236E+01</totfact>
</mgrwt>
</event>
<event>
 4    2  0.3747163E-007  0.8552186E+03  0.7818608E-02  0.9602126E-01
          2   -1    0    0  501    0  0.00000000000E+00  0.00000000000E+00  0.20861789230E+04  0.20861789230E+04  0.25500000000E-02 0. -1.
         -2   -1    0    0    0  501 -0.00000000000E+00 -0.00000000000E+00 -0.29931494642E+03  0.29931494643E+03  0.25500000000E-02 0.  1.
    8880023    1    1    2    0    0  0.43899022499E+03 -0.32384605505E+03  0.15523176184E+04  0.17723117332E+04  0.65864270000E+03 0.  0.
    8880022    1    1    2    0    0 -0.43899022499E+03  0.32384605505E+03  0.23454635816E+03  0.61318213620E+03  0.15294330000E+03 0.  0.
<mgrwt>
<rscale>  0 0.77155638E+03</rscale>
<asrwt>0</asrwt>
<pdfrwt beam="1">  1        2 0.32095060E+00 0.85521862E+03</pdfrwt>
<pdfrwt beam="2">  1       -2 0.46048454E-01 0.85521862E+03</pdfrwt>
<totfact> 0.27309776E+01</totfact>
</mgrwt>
</event>
<event>
 4    2  0.3747163E-007  0.7018329E+03  0.7818608E-02  0.9989681E-01
          2   -1    0    0  501    0  0.00000000000E+00  0.00000000000E+00  0.20153658757E+04  0.20153658757E+04  0.25500000000E-02 0. -1.
         -2   -1    0    0    0  501 -0.00000000000E+00 -0.00000000000E+00 -0.46230116673E+03  0.46230116674E+03  0.25500000000E-02 0.  1.
    8880023    1    1    2    0    0  0.18351047858E+03  0.15837646121E+03  0.19012695335E+04  0.20266709759E+04  0.65864270000E+03 0. -1.
    8880022    1    1    2    0    0 -0.18351047858E+03 -0.15837646121E+03 -0.34820482453E+03  0.45099606656E+03  0.15294330000E+03 0.  0.
<mgrwt>
<rscale>  0 0.56105030E+03</rscale>
<asrwt>0</asrwt>
<pdfrwt beam="1">  1        2 0.31005629E+00 0.70183289E+03</pdfrwt>
<pdfrwt beam="2">  1       -2 0.71123256E-01 0.70183289E+03</pdfrwt>
<totfact> 0.12267937E+01</totfact>
</mgrwt>
</event>
<event>
 4    2  0.3747163E-007  0.9367692E+03  0.7818608E-02  0.9469411E-01
          2   -1    0    0  501    0  0.00000000000E+00  0.00000000000E+00  0.23105346585E+04  0.23105346585E+04  0.25500000000E-02 0. -1.
         -2   -1    0    0    0  501 -0.00000000000E+00 -0.00000000000E+00 -0.30326939575E+03  0.30326939576E+03  0.25500000000E-02 0.  1.
    8880023    1    1    2    0    0 -0.34360839881E+03 -0.57066591237E+03  0.82530018074E+03  0.12484618175E+04  0.65864270000E+03 0. -1.
    8880022    1    1    2    0    0  0.34360839881E+03  0.57066591237E+03  0.11819650820E+04  0.13653422367E+04  0.15294330000E+03 0.  0.
<mgrwt>
<rscale>  0 0.86577048E+03</rscale>
<asrwt>0</asrwt>
<pdfrwt beam="1">  1        2 0.35546687E+00 0.93676919E+03</pdfrwt>
<pdfrwt beam="2">  1       -2 0.46656831E-01 0.93676919E+03</pdfrwt>
<totfact> 0.19784833E+01</totfact>
</mgrwt>
</event>
<event>
 4    2  0.3747163E-007  0.6621800E+03  0.7818608E-02  0.1022026E+00
          2   -1    0    0  501    0  0.00000000000E+00  0.00000000000E+00  0.87679699393E+03  0.87679699394E+03  0.25500000000E-02 0. -1.
         -2   -1    0    0    0  501 -0.00000000000E+00 -0.00000000000E+00 -0.28490410002E+03  0.28490410003E+03  0.25500000000E-02 0.  1.
    8880023    1    1    2    0    0  0.68141303064E+02  0.53816453509E+01  0.69901052829E+03  0.96285934810E+03  0.65864270000E+03 0. -1.
    8880022    1    1    2    0    0 -0.68141303064E+02 -0.53816453509E+01 -0.10711763438E+03  0.19884174587E+03  0.15294330000E+03 0.  0.
<mgrwt>
<rscale>  0 0.46962421E+03</rscale>
<asrwt>0</asrwt>
<pdfrwt beam="1">  1        2 0.13489184E+00 0.66218004E+03</pdfrwt>
<pdfrwt beam="2">  1       -2 0.43831400E-01 0.66218004E+03</pdfrwt>
<totfact> 0.15262288E+02</totfact>
</mgrwt>
</event>
<event>
 4    2  0.3747163E-007  0.6854607E+03  0.7818608E-02  0.1006389E+00
         -2   -1    0    0    0  501 -0.00000000000E+00  0.00000000000E+00  0.30383591489E+03  0.30383591490E+03  0.25500000000E-02 0.  1.
          2   -1    0    0  501    0  0.00000000000E+00 -0.00000000000E+00 -0.17053136492E+04  0.17053136493E+04  0.25500000000E-02 0. -1.
    8880023    1    1    2    0    0 -0.55962431229E+02 -0.18142319661E+03 -0.15697726630E+04  0.17129047229E+04  0.65864270000E+03 0. -1.
    8880022    1    1    2    0    0  0.55962431229E+02  0.18142319661E+03  0.16829492860E+03  0.29624484128E+03  0.15294330000E+03 0.  0.
<mgrwt>
<rscale>  0 0.52935227E+03</rscale>
<asrwt>0</asrwt>
<pdfrwt beam="1">  1        2 0.26235594E+00 0.68546070E+03</pdfrwt>
<pdfrwt beam="2">  1       -2 0.46743988E-01 0.68546070E+03</pdfrwt>
<totfact> 0.43672317E+01</totfact>
</mgrwt>
</event>
<event>
 4    2  0.3747163E-007  0.7885885E+03  0.7818608E-02  0.9736036E-01
         -2   -1    0    0    0  501 -0.00000000000E+00  0.00000000000E+00  0.21130454588E+04  0.21130454588E+04  0.25500000000E-02 0.  1.
          2   -1    0    0  501    0  0.00000000000E+00 -0.00000000000E+00 -0.20062382602E+03  0.20062382604E+03  0.25500000000E-02 0. -1.
    8880023    1    1    2    0    0  0.42199398377E+03 -0.99913393967E+02  0.86932300605E+03  0.11737096335E+04  0.65864270000E+03 0.  0.
    8880022    1    1    2    0    0 -0.42199398377E+03  0.99913393967E+02  0.10430986268E+04  0.11399596514E+04  0.15294330000E+03 0.  0.
<mgrwt>
<rscale>  0 0.68911170E+03</rscale>
<asrwt>0</asrwt>
<pdfrwt beam="1">  1        2 0.30865203E-01 0.78858850E+03</pdfrwt>
<pdfrwt beam="2">  1       -2 0.32508393E+00 0.78858850E+03</pdfrwt>
<totfact> 0.39905041E+00</totfact>
</mgrwt>
</event>
<event>
 4    2  0.3747163E-007  0.9056803E+03  0.7818608E-02  0.9516974E-01
         -2   -1    0    0    0  501 -0.00000000000E+00  0.00000000000E+00  0.66415624007E+03  0.66415624007E+03  0.25500000000E-02 0.  1.
          2   -1    0    0  501    0  0.00000000000E+00 -0.00000000000E+00 -0.10135088142E+04  0.10135088142E+04  0.25500000000E-02 0. -1.
    8880023    1    1    2    0    0 -0.10345395886E+03  0.61297954420E+03 -0.47890299258E+03  0.10245022820E+04  0.65864270000E+03 0.  0.
    8880022    1    1    2    0    0  0.10345395886E+03 -0.61297954420E+03  0.12955041843E+03  0.65316277232E+03  0.15294330000E+03 0.  0.
<mgrwt>
<rscale>  0 0.83043906E+03</rscale>
<asrwt>0</asrwt>
<pdfrwt beam="1">  1        2 0.15592443E+00 0.90568032E+03</pdfrwt>
<pdfrwt beam="2">  1       -2 0.10217788E+00 0.90568032E+03</pdfrwt>
<totfact> 0.19406211E+01</totfact>
</mgrwt>
</event>
<event>
 4    2  0.3747163E-007  0.8516413E+03  0.7818608E-02  0.9608608E-01
          2   -1    0    0  501    0  0.00000000000E+00  0.00000000000E+00  0.89728889090E+03  0.89728889090E+03  0.25500000000E-02 0. -1.
         -2   -1    0    0    0  501 -0.00000000000E+00 -0.00000000000E+00 -0.64902984717E+03  0.64902984717E+03  0.25500000000E-02 0.  1.
    8880023    1    1    2    0    0  0.30604761316E+01 -0.53988266270E+03  0.43320537187E+03  0.95548927596E+03  0.65864270000E+03 0.  0.
    8880022    1    1    2    0    0 -0.30604761316E+01  0.53988266270E+03 -0.18494632814E+03  0.59082946211E+03  0.15294330000E+03 0.  0.
<mgrwt>
<rscale>  0 0.76729025E+03</rscale>
<asrwt>0</asrwt>
<pdfrwt beam="1">  1        2 0.13804444E+00 0.85164128E+03</pdfrwt>
<pdfrwt beam="2">  1       -2 0.99850746E-01 0.85164128E+03</pdfrwt>
<totfact> 0.24553538E+01</totfact>
</mgrwt>
</event>
<event>
 4    2  0.3747163E-007  0.8026325E+03  0.7818608E-02  0.9705133E-01
          2   -1    0    0  501    0  0.00000000000E+00  0.00000000000E+00  0.58823765033E+03  0.58823765034E+03  0.25500000000E-02 0. -1.
         -2   -1    0    0    0  501 -0.00000000000E+00 -0.00000000000E+00 -0.85865835562E+03  0.85865835563E+03  0.25500000000E-02 0.  1.
    8880023    1    1    2    0    0  0.29284645970E+03  0.35305758442E+03  0.13744797696E+03  0.81431619136E+03  0.65864270000E+03 0.  0.
    8880022    1    1    2    0    0 -0.29284645970E+03 -0.35305758442E+03 -0.40786868224E+03  0.63257981461E+03  0.15294330000E+03 0.  0.
<mgrwt>
<rscale>  0 0.70712013E+03</rscale>
<asrwt>0</asrwt>
<pdfrwt beam="1">  1        2 0.90498100E-01 0.80263249E+03</pdfrwt>
<pdfrwt beam="2">  1       -2 0.13210129E+00 0.80263249E+03</pdfrwt>
<totfact> 0.21367113E+01</totfact>
</mgrwt>
</event>
<event>
 4    2  0.3747163E-007  0.9187881E+03  0.7818608E-02  0.9496520E-01
         -2   -1    0    0    0  501 -0.00000000000E+00  0.00000000000E+00  0.48742531776E+03  0.48742531777E+03  0.25500000000E-02 0.  1.
          2   -1    0    0  501    0  0.00000000000E+00 -0.00000000000E+00 -0.13931561344E+04  0.13931561344E+04  0.25500000000E-02 0. -1.
    8880023    1    1    2    0    0 -0.32481722369E+02 -0.63977048655E+03 -0.25223308309E+03  0.95278175476E+03  0.65864270000E+03 0.  1.
    8880022    1    1    2    0    0  0.32481722369E+02  0.63977048655E+03 -0.65349773358E+03  0.92779969743E+03  0.15294330000E+03 0.  0.
<mgrwt>
<rscale>  0 0.84540892E+03</rscale>
<asrwt>0</asrwt>
<pdfrwt beam="1">  1        2 0.21433171E+00 0.91878808E+03</pdfrwt>
<pdfrwt beam="2">  1       -2 0.74988511E-01 0.91878808E+03</pdfrwt>
<totfact> 0.23421936E+01</totfact>
</mgrwt>
</event>
<event>
 4    2  0.3747163E-007  0.6973579E+03  0.7818608E-02  0.1000834E+00
         -2   -1    0    0    0  501 -0.00000000000E+00  0.00000000000E+00  0.69240178306E+03  0.69240178306E+03  0.25500000000E-02 0.  1.
          2   -1    0    0  501    0  0.00000000000E+00 -0.00000000000E+00 -0.23425342059E+04  0.23425342059E+04  0.25500000000E-02 0. -1.
    8880023    1    1    2    0    0 -0.15249893946E+03 -0.17100267241E+03 -0.22603171506E+04  0.23654474562E+04  0.65864270000E+03 0. -1.
    8880022    1    1    2    0    0  0.15249893946E+03  0.17100267241E+03  0.61018472775E+03  0.66948853276E+03  0.15294330000E+03 0.  0.
<mgrwt>
<rscale>  0 0.55285915E+03</rscale>
<asrwt>0</asrwt>
<pdfrwt beam="1">  1        2 0.36038987E+00 0.69735790E+03</pdfrwt>
<pdfrwt beam="2">  1       -2 0.10652335E+00 0.69735790E+03</pdfrwt>
<totfact> 0.32158120E+00</totfact>
</mgrwt>
</event>
<event>
 4    2  0.3747163E-007  0.1236620E+04  0.7818608E-02  0.9122322E-01
         -2   -1    0    0    0  501 -0.00000000000E+00  0.00000000000E+00  0.11743494033E+04  0.11743494033E+04  0.25500000000E-02 0.  1.
          2   -1    0    0  501    0  0.00000000000E+00 -0.00000000000E+00 -0.11812758382E+04  0.11812758382E+04  0.25500000000E-02 0. -1.
    8880023    1    1    2    0    0  0.27662923531E+03 -0.10094028299E+04 -0.26980481677E+03  0.12657103350E+04  0.65864270000E+03 0. -1.
    8880022    1    1    2    0    0 -0.27662923531E+03  0.10094028299E+04  0.26287838189E+03  0.10899149065E+04  0.15294330000E+03 0.  1.
<mgrwt>
<rscale>  0 0.11892458E+04</rscale>
<asrwt>0</asrwt>
<pdfrwt beam="1">  1        2 0.18173475E+00 0.12366196E+04</pdfrwt>
<pdfrwt beam="2">  1       -2 0.18066914E+00 0.12366196E+04</pdfrwt>
<totfact> 0.33764874E+00</totfact>
</mgrwt>
</event>
<event>
 4    2  0.3747163E-007  0.6941450E+03  0.7818608E-02  0.1002242E+00
         -2   -1    0    0    0  501 -0.00000000000E+00  0.00000000000E+00  0.28391426036E+03  0.28391426037E+03  0.25500000000E-02 0.  1.
          2   -1    0    0  501    0  0.00000000000E+00 -0.00000000000E+00 -0.17053481111E+04  0.17053481111E+04  0.25500000000E-02 0. -1.
    8880023    1    1    2    0    0 -0.20177255118E+03 -0.85527035642E+02 -0.15457979931E+04  0.16944995361E+04  0.65864270000E+03 0. -1.
    8880022    1    1    2    0    0  0.20177255118E+03  0.85527035642E+02  0.12436414229E+03  0.29476283541E+03  0.15294330000E+03 0.  0.
<mgrwt>
<rscale>  0 0.54678189E+03</rscale>
<asrwt>0</asrwt>
<pdfrwt beam="1">  1        2 0.26236124E+00 0.69414497E+03</pdfrwt>
<pdfrwt beam="2">  1       -2 0.43679118E-01 0.69414497E+03</pdfrwt>
<totfact> 0.49936829E+01</totfact>
</mgrwt>
</event>
<event>
 4    2  0.3747163E-007  0.7556438E+03  0.7818608E-02  0.9816518E-01
         -2   -1    0    0    0  501 -0.00000000000E+00  0.00000000000E+00  0.84274134353E+03  0.84274134353E+03  0.25500000000E-02 0.  1.
          2   -1    0    0  501    0  0.00000000000E+00 -0.00000000000E+00 -0.52269841834E+03  0.52269841835E+03  0.25500000000E-02 0. -1.
    8880023    1    1    2    0    0  0.46744128318E+02  0.36742668295E+03 -0.12572693531E+03  0.76603188537E+03  0.65864270000E+03 0. -1.
    8880022    1    1    2    0    0 -0.46744128318E+02 -0.36742668295E+03  0.44576986050E+03  0.59940787651E+03  0.15294330000E+03 0.  0.
<mgrwt>
<rscale>  0 0.64483553E+03</rscale>
<asrwt>0</asrwt>
<pdfrwt beam="1">  1        2 0.80415141E-01 0.75564382E+03</pdfrwt>
<pdfrwt beam="2">  1       -2 0.12965252E+00 0.75564382E+03</pdfrwt>
<totfact> 0.25876129E+01</totfact>
</mgrwt>
</event>
<event>
 4    2  0.3747163E-007  0.7499187E+03  0.7818608E-02  0.9831943E-01
          2   -1    0    0  501    0  0.00000000000E+00  0.00000000000E+00  0.10607177822E+04  0.10607177822E+04  0.25500000000E-02 0. -1.
         -2   -1    0    0    0  501 -0.00000000000E+00 -0.00000000000E+00 -0.16231486457E+04  0.16231486457E+04  0.25500000000E-02 0.  1.
    8880023    1    1    2    0    0 -0.34391076534E+03  0.10145574119E+03  0.89935838041E+03  0.11709925639E+04  0.65864270000E+03 0. -1.
    8880022    1    1    2    0    0  0.34391076534E+03 -0.10145574119E+03 -0.14617892439E+04  0.15128738641E+04  0.15294330000E+03 0.  0.
<mgrwt>
<rscale>  0 0.63676127E+03</rscale>
<asrwt>0</asrwt>
<pdfrwt beam="1">  1        2 0.16318735E+00 0.74991872E+03</pdfrwt>
<pdfrwt beam="2">  1       -2 0.24971518E+00 0.74991872E+03</pdfrwt>
<totfact> 0.15388520E+00</totfact>
</mgrwt>
</event>
<event>
 4    2  0.3747163E-007  0.8369864E+03  0.7818608E-02  0.9635889E-01
         -2   -1    0    0    0  501 -0.00000000000E+00  0.00000000000E+00  0.19461448064E+03  0.19461448066E+03  0.25500000000E-02 0.  1.
          2   -1    0    0  501    0  0.00000000000E+00 -0.00000000000E+00 -0.34506861110E+04  0.34506861110E+04  0.25500000000E-02 0. -1.
    8880023    1    1    2    0    0 -0.31534578610E+03  0.40901469859E+03 -0.90247815208E+03  0.12308586473E+04  0.65864270000E+03 0.  1.
    8880022    1    1    2    0    0  0.31534578610E+03 -0.40901469859E+03 -0.23535934783E+04  0.24144419443E+04  0.15294330000E+03 0.  0.
<mgrwt>
<rscale>  0 0.74965671E+03</rscale>
<asrwt>0</asrwt>
<pdfrwt beam="1">  1        2 0.53087474E+00 0.83698638E+03</pdfrwt>
<pdfrwt beam="2">  1       -2 0.29940692E-01 0.83698638E+03</pdfrwt>
<totfact> 0.96090251E+00</totfact>
</mgrwt>
</event>
<event>
 4    2  0.3747163E-007  0.7100506E+03  0.7818608E-02  0.9957813E-01
         -2   -1    0    0    0  501 -0.00000000000E+00  0.00000000000E+00  0.18391706008E+03  0.18391706009E+03  0.25500000000E-02 0.  1.
          2   -1    0    0  501    0  0.00000000000E+00 -0.00000000000E+00 -0.34173763714E+04  0.34173763714E+04  0.25500000000E-02 0. -1.
    8880023    1    1    2    0    0  0.25067357020E+03 -0.86743611713E+02 -0.32172501197E+04  0.32946730083E+04  0.65864270000E+03 0. -1.
    8880022    1    1    2    0    0 -0.25067357020E+03  0.86743611713E+02 -0.16209191600E+02  0.30662042312E+03  0.15294330000E+03 0.  0.
<mgrwt>
<rscale>  0 0.57539401E+03</rscale>
<asrwt>0</asrwt>
<pdfrwt beam="1">  1        2 0.52575016E+00 0.71005063E+03</pdfrwt>
<pdfrwt beam="2">  1       -2 0.28294935E-01 0.71005063E+03</pdfrwt>
<totfact> 0.11495216E+01</totfact>
</mgrwt>
</event>
<event>
 4    2  0.3747163E-007  0.6665204E+03  0.7818608E-02  0.1018291E+00
         -2   -1    0    0    0  501 -0.00000000000E+00  0.00000000000E+00  0.33551136308E+03  0.33551136309E+03  0.25500000000E-02 0.  1.
          2   -1    0    0  501    0  0.00000000000E+00 -0.00000000000E+00 -0.60219409464E+03  0.60219409465E+03  0.25500000000E-02 0. -1.
    8880023    1    1    2    0    0  0.10151835093E+03  0.11541228412E+02 -0.32927066798E+03  0.74341681080E+03  0.65864270000E+03 0.  0.
    8880022    1    1    2    0    0 -0.10151835093E+03 -0.11541228412E+02  0.62587936417E+02  0.19428864694E+03  0.15294330000E+03 0.  0.
<mgrwt>
<rscale>  0 0.48308565E+03</rscale>
<asrwt>0</asrwt>
<pdfrwt beam="1">  1        2 0.92645245E-01 0.66652035E+03</pdfrwt>
<pdfrwt beam="2">  1       -2 0.51617133E-01 0.66652035E+03</pdfrwt>
<totfact> 0.17751863E+02</totfact>
</mgrwt>
</event>
<event>
 4    2  0.3747163E-007  0.7127066E+03  0.7818608E-02  0.9948084E-01
         -2   -1    0    0    0  501 -0.00000000000E+00  0.00000000000E+00  0.34646681880E+03  0.34646681881E+03  0.25500000000E-02 0.  1.
          2   -1    0    0  501    0  0.00000000000E+00 -0.00000000000E+00 -0.10060422632E+04  0.10060422632E+04  0.25500000000E-02 0. -1.
    8880023    1    1    2    0    0  0.24786064155E+03  0.11271920055E+03 -0.74268776160E+03  0.10293375701E+04  0.65864270000E+03 0. -1.
    8880022    1    1    2    0    0 -0.24786064155E+03 -0.11271920055E+03  0.83112317211E+02  0.32317151187E+03  0.15294330000E+03 0.  0.
<mgrwt>
<rscale>  0 0.57986458E+03</rscale>
<asrwt>0</asrwt>
<pdfrwt beam="1">  1        2 0.15477573E+00 0.71270662E+03</pdfrwt>
<pdfrwt beam="2">  1       -2 0.53302588E-01 0.71270662E+03</pdfrwt>
<totfact> 0.84255033E+01</totfact>
</mgrwt>
</event>
<event>
 4    2  0.3747163E-007  0.1421283E+04  0.7818608E-02  0.8967320E-01
         -2   -1    0    0    0  501 -0.00000000000E+00  0.00000000000E+00  0.22436876282E+04  0.22436876282E+04  0.25500000000E-02 0.  1.
          2   -1    0    0  501    0  0.00000000000E+00 -0.00000000000E+00 -0.10887366219E+04  0.10887366219E+04  0.25500000000E-02 0. -1.
    8880023    1    1    2    0    0 -0.71157994025E+03 -0.10391766502E+04 -0.24595543015E+03  0.14424071553E+04  0.65864270000E+03 0.  0.
    8880022    1    1    2    0    0  0.71157994025E+03  0.10391766502E+04  0.14009064365E+04  0.18900170948E+04  0.15294330000E+03 0.  0.
<mgrwt>
<rscale>  0 0.13815002E+04</rscale>
<asrwt>0</asrwt>
<pdfrwt beam="1">  1        2 0.16749794E+00 0.14212826E+04</pdfrwt>
<pdfrwt beam="2">  1       -2 0.34518271E+00 0.14212826E+04</pdfrwt>
<totfact> 0.35297218E-01</totfact>
</mgrwt>
</event>
<event>
 4    2  0.3747163E-007  0.6885398E+03  0.7818608E-02  0.1004854E+00
          2   -1    0    0  501    0  0.00000000000E+00  0.00000000000E+00  0.32789651269E+03  0.32789651270E+03  0.25500000000E-02 0. -1.
         -2   -1    0    0    0  501 -0.00000000000E+00 -0.00000000000E+00 -0.10899076098E+04  0.10899076098E+04  0.25500000000E-02 0.  1.
    8880023    1    1    2    0    0 -0.12949805670E+03  0.15332020675E+03 -0.83121057046E+02  0.69353885895E+03  0.65864270000E+03 0. -1.
    8880022    1    1    2    0    0  0.12949805670E+03 -0.15332020675E+03 -0.67889004004E+03  0.72426526354E+03  0.15294330000E+03 0.  0.
<mgrwt>
<rscale>  0 0.53571937E+03</rscale>
<asrwt>0</asrwt>
<pdfrwt beam="1">  1        2 0.50445618E-01 0.68853979E+03</pdfrwt>
<pdfrwt beam="2">  1       -2 0.16767809E+00 0.68853979E+03</pdfrwt>
<totfact> 0.22427621E+01</totfact>
</mgrwt>
</event>
<event>
 4    2  0.3747163E-007  0.8049033E+03  0.7818608E-02  0.9700293E-01
          2   -1    0    0  501    0  0.00000000000E+00  0.00000000000E+00  0.75842981914E+03  0.75842981914E+03  0.25500000000E-02 0. -1.
         -2   -1    0    0    0  501 -0.00000000000E+00 -0.00000000000E+00 -0.93574107454E+03  0.93574107454E+03  0.25500000000E-02 0.  1.
    8880023    1    1    2    0    0  0.33493741436E+03 -0.31918032212E+03  0.43237115676E+03  0.91368165847E+03  0.65864270000E+03 0.  0.
    8880022    1    1    2    0    0 -0.33493741436E+03  0.31918032212E+03 -0.60968241216E+03  0.78048923521E+03  0.15294330000E+03 0.  0.
<mgrwt>
<rscale>  0 0.70999370E+03</rscale>
<asrwt>0</asrwt>
<pdfrwt beam="1">  1        2 0.11668151E+00 0.80490332E+03</pdfrwt>
<pdfrwt beam="2">  1       -2 0.14396017E+00 0.80490332E+03</pdfrwt>
<totfact> 0.12460613E+01</totfact>
</mgrwt>
</event>
<event>
 4    2  0.3747163E-007  0.7271654E+03  0.7818608E-02  0.9899047E-01
         -2   -1    0    0    0  501 -0.00000000000E+00  0.00000000000E+00  0.16256633178E+03  0.16256633180E+03  0.25500000000E-02 0.  1.
          2   -1    0    0  501    0  0.00000000000E+00 -0.00000000000E+00 -0.37446665486E+04  0.37446665486E+04  0.25500000000E-02 0. -1.
    8880023    1    1    2    0    0 -0.27223465470E+03 -0.14438691283E+03 -0.34700520423E+04  0.35454239056E+04  0.65864270000E+03 0. -1.
    8880022    1    1    2    0    0  0.27223465470E+03  0.14438691283E+03 -0.11204817452E+03  0.36180897480E+03  0.15294330000E+03 0.  0.
<mgrwt>
<rscale>  0 0.60307505E+03</rscale>
<asrwt>0</asrwt>
<pdfrwt beam="1">  1        2 0.57610248E+00 0.72716538E+03</pdfrwt>
<pdfrwt beam="2">  1       -2 0.25010208E-01 0.72716538E+03</pdfrwt>
<totfact> 0.84836630E+00</totfact>
</mgrwt>
</event>
<event>
 4    2  0.3747163E-007  0.6758279E+03  0.7818608E-02  0.1011789E+00
          2   -1    0    0  501    0  0.00000000000E+00  0.00000000000E+00  0.23861429538E+04  0.23861429538E+04  0.25500000000E-02 0. -1.
         -2   -1    0    0    0  501 -0.00000000000E+00 -0.00000000000E+00 -0.17116883361E+03  0.17116883363E+03  0.25500000000E-02 0.  1.
    8880023    1    1    2    0    0  0.54137787212E+02  0.14142929549E+03  0.22408358002E+04  0.23405316566E+04  0.65864270000E+03 0.  0.
    8880022    1    1    2    0    0 -0.54137787212E+02 -0.14142929549E+03 -0.25861680023E+02  0.21678013086E+03  0.15294330000E+03 0.  1.
<mgrwt>
<rscale>  0 0.50769605E+03</rscale>
<asrwt>0</asrwt>
<pdfrwt beam="1">  1        2 0.36709888E+00 0.67582790E+03</pdfrwt>
<pdfrwt beam="2">  1       -2 0.26333669E-01 0.67582790E+03</pdfrwt>
<totfact> 0.55334169E+01</totfact>
</mgrwt>
</event>
<event>
 4    2  0.3747163E-007  0.6997840E+03  0.7818608E-02  0.9998098E-01
          2   -1    0    0  501    0  0.00000000000E+00  0.00000000000E+00  0.58530350928E+03  0.58530350929E+03  0.25500000000E-02 0. -1.
         -2   -1    0    0    0  501 -0.00000000000E+00 -0.00000000000E+00 -0.46030718882E+03  0.46030718883E+03  0.25500000000E-02 0.  1.
    8880023    1    1    2    0    0  0.14491663720E+03  0.18677949047E+03 -0.69760111755E+02  0.70325250746E+03  0.65864270000E+03 0.  1.
    8880022    1    1    2    0    0 -0.14491663720E+03 -0.18677949047E+03  0.19475643222E+03  0.34235819065E+03  0.15294330000E+03 0.  0.
<mgrwt>
<rscale>  0 0.55733692E+03</rscale>
<asrwt>0</asrwt>
<pdfrwt beam="1">  1        2 0.90046694E-01 0.69978398E+03</pdfrwt>
<pdfrwt beam="2">  1       -2 0.70816491E-01 0.69978398E+03</pdfrwt>
<totfact> 0.93965181E+01</totfact>
</mgrwt>
</event>
<event>
 4    2  0.3747163E-007  0.7622278E+03  0.7818608E-02  0.9799374E-01
         -2   -1    0    0    0  501 -0.00000000000E+00  0.00000000000E+00  0.27827417267E+03  0.27827417268E+03  0.25500000000E-02 0.  1.
          2   -1    0    0  501    0  0.00000000000E+00 -0.00000000000E+00 -0.21173225283E+04  0.21173225283E+04  0.25500000000E-02 0. -1.
    8880023    1    1    2    0    0  0.21148956204E+03 -0.32008298517E+03 -0.18301086376E+04  0.19824955949E+04  0.65864270000E+03 0.  0.
    8880022    1    1    2    0    0 -0.21148956204E+03  0.32008298517E+03 -0.89397180292E+01  0.41310110605E+03  0.15294330000E+03 0.  0.
<mgrwt>
<rscale>  0 0.65396158E+03</rscale>
<asrwt>0</asrwt>
<pdfrwt beam="1">  1        2 0.32574192E+00 0.76222776E+03</pdfrwt>
<pdfrwt beam="2">  1       -2 0.42811413E-01 0.76222776E+03</pdfrwt>
<totfact> 0.30708404E+01</totfact>
</mgrwt>
</event>
<event>
 4    2  0.3747163E-007  0.6751555E+03  0.7818608E-02  0.1012208E+00
         -2   -1    0    0    0  501 -0.00000000000E+00  0.00000000000E+00  0.23821241693E+03  0.23821241694E+03  0.25500000000E-02 0.  1.
          2   -1    0    0  501    0  0.00000000000E+00 -0.00000000000E+00 -0.17821342283E+04  0.17821342283E+04  0.25500000000E-02 0. -1.
    8880023    1    1    2    0    0 -0.65310030305E+02  0.13326393346E+03 -0.16496394051E+04  0.17824547818E+04  0.65864270000E+03 0. -1.
    8880022    1    1    2    0    0  0.65310030305E+02 -0.13326393346E+03  0.10571759379E+03  0.23789186340E+03  0.15294330000E+03 0.  0.
<mgrwt>
<rscale>  0 0.50606271E+03</rscale>
<asrwt>0</asrwt>
<pdfrwt beam="1">  1        2 0.27417449E+00 0.67515545E+03</pdfrwt>
<pdfrwt beam="2">  1       -2 0.36648065E-01 0.67515545E+03</pdfrwt>
<totfact> 0.63983807E+01</totfact>
</mgrwt>
</event>
<event>
 4    2  0.3747163E-007  0.6964250E+03  0.7818608E-02  0.1001237E+00
         -2   -1    0    0    0  501 -0.00000000000E+00  0.00000000000E+00  0.29623100793E+03  0.29623100794E+03  0.25500000000E-02 0.  1.
          2   -1    0    0  501    0  0.00000000000E+00 -0.00000000000E+00 -0.21915884512E+04  0.21915884512E+04  0.25500000000E-02 0. -1.
    8880023    1    1    2    0    0  0.17036470965E+03  0.14890726741E+03 -0.20561514002E+04  0.21708906687E+04  0.65864270000E+03 0. -1.
    8880022    1    1    2    0    0 -0.17036470965E+03 -0.14890726741E+03  0.16079395697E+03  0.31692879041E+03  0.15294330000E+03 0.  0.
<mgrwt>
<rscale>  0 0.55111243E+03</rscale>
<asrwt>0</asrwt>
<pdfrwt beam="1">  1        2 0.33716744E+00 0.69642495E+03</pdfrwt>
<pdfrwt beam="2">  1       -2 0.45574003E-01 0.69642495E+03</pdfrwt>
<totfact> 0.24920228E+01</totfact>
</mgrwt>
</event>
<event>
 4    2  0.3747163E-007  0.7012701E+03  0.7818608E-02  0.9991973E-01
         -2   -1    0    0    0  501 -0.00000000000E+00  0.00000000000E+00  0.22745844210E+03  0.22745844211E+03  0.25500000000E-02 0.  1.
          2   -1    0    0  501    0  0.00000000000E+00 -0.00000000000E+00 -0.28524831387E+04  0.28524831387E+04  0.25500000000E-02 0. -1.
    8880023    1    1    2    0    0  0.87993192093E+02 -0.22411315700E+03 -0.26962416520E+04  0.27859466544E+04  0.65864270000E+03 0. -1.
    8880022    1    1    2    0    0 -0.87993192093E+02  0.22411315700E+03  0.71216955403E+02  0.29399492640E+03  0.15294330000E+03 0.  0.
<mgrwt>
<rscale>  0 0.56003623E+03</rscale>
<asrwt>0</asrwt>
<pdfrwt beam="1">  1        2 0.43884353E+00 0.70127007E+03</pdfrwt>
<pdfrwt beam="2">  1       -2 0.34993609E-01 0.70127007E+03</pdfrwt>
<totfact> 0.17527685E+01</totfact>
</mgrwt>
</event>
<event>
 4    2  0.3747163E-007  0.6959712E+03  0.7818608E-02  0.1001434E+00
          2   -1    0    0  501    0  0.00000000000E+00  0.00000000000E+00  0.16845586331E+04  0.16845586331E+04  0.25500000000E-02 0. -1.
         -2   -1    0    0    0  501 -0.00000000000E+00 -0.00000000000E+00 -0.20269853139E+03  0.20269853141E+03  0.25500000000E-02 0.  1.
    8880023    1    1    2    0    0  0.19106502713E+03 -0.11857411510E+03  0.14563605389E+04  0.16141133451E+04  0.65864270000E+03 0. -1.
    8880022    1    1    2    0    0 -0.19106502713E+03  0.11857411510E+03  0.25499562826E+02  0.27314381941E+03  0.15294330000E+03 0.  0.
<mgrwt>
<rscale>  0 0.55025764E+03</rscale>
<asrwt>0</asrwt>
<pdfrwt beam="1">  1        2 0.25916287E+00 0.69597117E+03</pdfrwt>
<pdfrwt beam="2">  1       -2 0.31184389E-01 0.69597117E+03</pdfrwt>
<totfact> 0.97899697E+01</totfact>
</mgrwt>
</event>
<event>
 4    2  0.3747163E-007  0.6620431E+03  0.7818608E-02  0.1022154E+00
         -2   -1    0    0    0  501 -0.00000000000E+00  0.00000000000E+00  0.77136055239E+02  0.77136055281E+02  0.25500000000E-02 0.  1.
          2   -1    0    0  501    0  0.00000000000E+00 -0.00000000000E+00 -0.22449547482E+04  0.22449547482E+04  0.25500000000E-02 0. -1.
    8880023    1    1    2    0    0  0.21220665736E+02  0.63565121956E+02 -0.18084572901E+04  0.19258293844E+04  0.65864270000E+03 0. -1.
    8880022    1    1    2    0    0 -0.21220665736E+02 -0.63565121956E+02 -0.35936140287E+03  0.39626141911E+03  0.15294330000E+03 0. -1.
<mgrwt>
<rscale>  0 0.46917098E+03</rscale>
<asrwt>0</asrwt>
<pdfrwt beam="1">  1        2 0.34537760E+00 0.66204309E+03</pdfrwt>
<pdfrwt beam="2">  1       -2 0.11867087E-01 0.66204309E+03</pdfrwt>
<totfact> 0.26229414E+02</totfact>
</mgrwt>
</event>
<event>
 4    2  0.3747163E-007  0.9597672E+03  0.7818608E-02  0.9436198E-01
         -2   -1    0    0    0  501 -0.00000000000E+00  0.00000000000E+00  0.35256552404E+03  0.35256552405E+03  0.25500000000E-02 0.  1.
          2   -1    0    0  501    0  0.00000000000E+00 -0.00000000000E+00 -0.35655939769E+04  0.35655939769E+04  0.25500000000E-02 0. -1.
    8880023    1    1    2    0    0  0.48019744524E+02 -0.69644593038E+03 -0.30329198719E+04  0.31811563912E+04  0.65864270000E+03 0. -1.
    8880022    1    1    2    0    0 -0.48019744524E+02  0.69644593038E+03 -0.18010858098E+03  0.73700310974E+03  0.15294330000E+03 0.  0.
<mgrwt>
<rscale>  0 0.89155639E+03</rscale>
<asrwt>0</asrwt>
<pdfrwt beam="1">  1        2 0.54855289E+00 0.95976718E+03</pdfrwt>
<pdfrwt beam="2">  1       -2 0.54240852E-01 0.95976718E+03</pdfrwt>
<totfact> 0.24461660E+00</totfact>
</mgrwt>
</event>
<event>
 4    2  0.3747163E-007  0.7816596E+03  0.7818608E-02  0.9751953E-01
         -2   -1    0    0    0  501 -0.00000000000E+00  0.00000000000E+00  0.54830231758E+03  0.54830231759E+03  0.25500000000E-02 0.  1.
          2   -1    0    0  501    0  0.00000000000E+00 -0.00000000000E+00 -0.20544470433E+04  0.20544470433E+04  0.25500000000E-02 0. -1.
    8880023    1    1    2    0    0 -0.42044960741E+03 -0.20091494220E+02 -0.18693081576E+04  0.20261551606E+04  0.65864270000E+03 0. -1.
    8880022    1    1    2    0    0  0.42044960741E+03  0.20091494220E+02  0.36316343189E+03  0.57659420027E+03  0.15294330000E+03 0.  0.
<mgrwt>
<rscale>  0 0.68006021E+03</rscale>
<asrwt>0</asrwt>
<pdfrwt beam="1">  1        2 0.31606877E+00 0.78165961E+03</pdfrwt>
<pdfrwt beam="2">  1       -2 0.84354203E-01 0.78165961E+03</pdfrwt>
<totfact> 0.78827406E+00</totfact>
</mgrwt>
</event>
<event>
 4    2  0.3747163E-007  0.7300074E+03  0.7818608E-02  0.9890073E-01
          2   -1    0    0  501    0  0.00000000000E+00  0.00000000000E+00  0.20533364698E+04  0.20533364698E+04  0.25500000000E-02 0. -1.
         -2   -1    0    0    0  501 -0.00000000000E+00 -0.00000000000E+00 -0.23966443728E+03  0.23966443729E+03  0.25500000000E-02 0.  1.
    8880023    1    1    2    0    0  0.31278416277E+03 -0.35590899244E+02  0.18003903823E+04  0.19427599902E+04  0.65864270000E+03 0. -1.
    8880022    1    1    2    0    0 -0.31278416277E+03  0.35590899244E+02  0.13281650169E+02  0.35024091685E+03  0.15294330000E+03 0.  0.
<mgrwt>
<rscale>  0 0.60744793E+03</rscale>
<asrwt>0</asrwt>
<pdfrwt beam="1">  1        2 0.31589792E+00 0.73000743E+03</pdfrwt>
<pdfrwt beam="2">  1       -2 0.36871451E-01 0.73000743E+03</pdfrwt>
<totfact> 0.44713983E+01</totfact>
</mgrwt>
</event>
<event>
 4    2  0.3747163E-007  0.8889117E+03  0.7818608E-02  0.9544072E-01
          2   -1    0    0  501    0  0.00000000000E+00  0.00000000000E+00  0.39341719069E+04  0.39341719069E+04  0.25500000000E-02 0. -1.
         -2   -1    0    0    0  501 -0.00000000000E+00 -0.00000000000E+00 -0.14441673244E+03  0.14441673246E+03  0.25500000000E-02 0.  1.
    8880023    1    1    2    0    0 -0.53261244190E+03 -0.26958813613E+03  0.23497684611E+04  0.25122849766E+04  0.65864270000E+03 0. -1.
    8880022    1    1    2    0    0  0.53261244190E+03  0.26958813613E+03  0.14399867133E+04  0.15663036628E+04  0.15294330000E+03 0.  1.
<mgrwt>
<rscale>  0 0.81111145E+03</rscale>
<asrwt>0</asrwt>
<pdfrwt beam="1">  1        2 0.60525710E+00 0.88891168E+03</pdfrwt>
<pdfrwt beam="2">  1       -2 0.22217963E-01 0.88891168E+03</pdfrwt>
<totfact> 0.73297146E+00</totfact>
</mgrwt>
</event>
<event>
 4    2  0.3747163E-007  0.6717627E+03  0.7818608E-02  0.1014430E+00
         -2   -1    0    0    0  501 -0.00000000000E+00  0.00000000000E+00  0.97236512451E+02  0.97236512485E+02  0.25500000000E-02 0.  1.
          2   -1    0    0  501    0  0.00000000000E+00 -0.00000000000E+00 -0.51208105935E+04  0.51208105935E+04  0.25500000000E-02 0. -1.
    8880023    1    1    2    0    0  0.22678381856E+02  0.13015611307E+03 -0.49612901527E+04  0.50065622046E+04  0.65864270000E+03 0. -1.
    8880022    1    1    2    0    0 -0.22678381856E+02 -0.13015611307E+03 -0.62283928330E+02  0.21148490139E+03  0.15294330000E+03 0.  0.
<mgrwt>
<rscale>  0 0.49751522E+03</rscale>
<asrwt>0</asrwt>
<pdfrwt beam="1">  1        2 0.78781681E+00 0.67176270E+03</pdfrwt>
<pdfrwt beam="2">  1       -2 0.14959467E-01 0.67176270E+03</pdfrwt>
<totfact> 0.10156180E+00</totfact>
</mgrwt>
</event>
<event>
 4    2  0.3747163E-007  0.6603769E+03  0.7818608E-02  0.1023774E+00
         -2   -1    0    0    0  501 -0.00000000000E+00  0.00000000000E+00  0.62187653869E+03  0.62187653869E+03  0.25500000000E-02 0.  1.
          2   -1    0    0  501    0  0.00000000000E+00 -0.00000000000E+00 -0.14859089617E+04  0.14859089617E+04  0.25500000000E-02 0. -1.
    8880023    1    1    2    0    0  0.36472208605E+02 -0.30938317910E+02 -0.14002370374E+04  0.15481477219E+04  0.65864270000E+03 0. -1.
    8880022    1    1    2    0    0 -0.36472208605E+02  0.30938317910E+02  0.53620461446E+03  0.55963777847E+03  0.15294330000E+03 0.  0.
<mgrwt>
<rscale>  0 0.46349096E+03</rscale>
<asrwt>0</asrwt>
<pdfrwt beam="1">  1        2 0.22860138E+00 0.66037687E+03</pdfrwt>
<pdfrwt beam="2">  1       -2 0.95673314E-01 0.66037687E+03</pdfrwt>
<totfact> 0.12293355E+01</totfact>
</mgrwt>
</event>
<event>
 4    2  0.3747163E-007  0.1055913E+04  0.7818608E-02  0.9311807E-01
         -2   -1    0    0    0  501 -0.00000000000E+00  0.00000000000E+00  0.22497765157E+04  0.22497765157E+04  0.25500000000E-02 0.  1.
          2   -1    0    0  501    0  0.00000000000E+00 -0.00000000000E+00 -0.47505090399E+03  0.47505090399E+03  0.25500000000E-02 0. -1.
    8880023    1    1    2    0    0  0.81632833118E+03 -0.12144668037E+03  0.43099960867E+03  0.11404876630E+04  0.65864270000E+03 0.  0.
    8880022    1    1    2    0    0 -0.81632833118E+03  0.12144668037E+03  0.13437260031E+04  0.15843397568E+04  0.15294330000E+03 0.  0.
<mgrwt>
<rscale>  0 0.99703096E+03</rscale>
<asrwt>0</asrwt>
<pdfrwt beam="1">  1        2 0.73084754E-01 0.10559126E+04</pdfrwt>
<pdfrwt beam="2">  1       -2 0.34611947E+00 0.10559126E+04</pdfrwt>
<totfact> 0.10833537E+00</totfact>
</mgrwt>
</event>
<event>
 4    2  0.3747163E-007  0.8887942E+03  0.7818608E-02  0.9544265E-01
          2   -1    0    0  501    0  0.00000000000E+00  0.00000000000E+00  0.23255083742E+04  0.23255083742E+04  0.25500000000E-02 0. -1.
         -2   -1    0    0    0  501 -0.00000000000E+00 -0.00000000000E+00 -0.60230997768E+03  0.60230997769E+03  0.25500000000E-02 0.  1.
    8880023    1    1    2    0    0  0.58867316200E+03  0.98025009064E+02  0.20471541294E+04  0.22317695289E+04  0.65864270000E+03 0.  0.
    8880022    1    1    2    0    0 -0.58867316200E+03 -0.98025009064E+02 -0.32395573295E+03  0.69604882299E+03  0.15294330000E+03 0.  0.
<mgrwt>
<rscale>  0 0.81097532E+03</rscale>
<asrwt>0</asrwt>
<pdfrwt beam="1">  1        2 0.35777052E+00 0.88879424E+03</pdfrwt>
<pdfrwt beam="2">  1       -2 0.92663074E-01 0.88879424E+03</pdfrwt>
<totfact> 0.44248220E+00</totfact>
</mgrwt>
</event>
<event>
 4    2  0.3747163E-007  0.1024239E+04  0.7818608E-02  0.9350510E-01
          2   -1    0    0  501    0  0.00000000000E+00  0.00000000000E+00  0.97571850599E+03  0.97571850600E+03  0.25500000000E-02 0. -1.
         -2   -1    0    0    0  501 -0.00000000000E+00 -0.00000000000E+00 -0.11923950303E+04  0.11923950303E+04  0.25500000000E-02 0.  1.
    8880023    1    1    2    0    0  0.28840099118E+03 -0.72943857740E+03  0.45825776068E+03  0.11220811697E+04  0.65864270000E+03 0. -1.
    8880022    1    1    2    0    0 -0.28840099118E+03  0.72943857740E+03 -0.67493428499E+03  0.10460323666E+04  0.15294330000E+03 0.  0.
<mgrwt>
<rscale>  0 0.96262846E+03</rscale>
<asrwt>0</asrwt>
<pdfrwt beam="1">  1        2 0.15011054E+00 0.10242392E+04</pdfrwt>
<pdfrwt beam="2">  1       -2 0.18344539E+00 0.10242392E+04</pdfrwt>
<totfact> 0.44350069E+00</totfact>
</mgrwt>
</event>
<event>
 4    2  0.3747163E-007  0.8544212E+03  0.7818608E-02  0.9603565E-01
         -2   -1    0    0    0  501 -0.00000000000E+00  0.00000000000E+00  0.32298293891E+03  0.32298293892E+03  0.25500000000E-02 0.  1.
          2   -1    0    0  501    0  0.00000000000E+00 -0.00000000000E+00 -0.16277118248E+04  0.16277118248E+04  0.25500000000E-02 0. -1.
    8880023    1    1    2    0    0 -0.53697330251E+03  0.88798050443E+02 -0.97425838635E+03  0.12958452959E+04  0.65864270000E+03 0. -1.
    8880022    1    1    2    0    0  0.53697330251E+03 -0.88798050443E+02 -0.33047049955E+03  0.65484946779E+03  0.15294330000E+03 0.  0.
<mgrwt>
<rscale>  0 0.77060668E+03</rscale>
<asrwt>0</asrwt>
<pdfrwt beam="1">  1        2 0.25041720E+00 0.85442122E+03</pdfrwt>
<pdfrwt beam="2">  1       -2 0.49689684E-01 0.85442122E+03</pdfrwt>
<totfact> 0.41786508E+01</totfact>
</mgrwt>
</event>
<event>
 4    2  0.3747163E-007  0.7260632E+03  0.7818608E-02  0.9902580E-01
          2   -1    0    0  501    0  0.00000000000E+00  0.00000000000E+00  0.25989296082E+04  0.25989296082E+04  0.25500000000E-02 0. -1.
         -2   -1    0    0    0  501 -0.00000000000E+00 -0.00000000000E+00 -0.12631728238E+03  0.12631728240E+03  0.25500000000E-02 0.  1.
    8880023    1    1    2    0    0  0.26838433781E+03  0.14603893096E+03  0.20887315595E+04  0.22113270351E+04  0.65864270000E+03 0.  0.
    8880022    1    1    2    0    0 -0.26838433781E+03 -0.14603893096E+03  0.38388076632E+03  0.51391985553E+03  0.15294330000E+03 0.  0.
<mgrwt>
<rscale>  0 0.60136415E+03</rscale>
<asrwt>0</asrwt>
<pdfrwt beam="1">  1        2 0.39983528E+00 0.72606317E+03</pdfrwt>
<pdfrwt beam="2">  1       -2 0.19433430E-01 0.72606317E+03</pdfrwt>
<totfact> 0.71489521E+01</totfact>
</mgrwt>
</event>
<event>
 4    2  0.3747163E-007  0.7583632E+03  0.7818608E-02  0.9809363E-01
         -2   -1    0    0    0  501 -0.00000000000E+00  0.00000000000E+00  0.14529932160E+03  0.14529932162E+03  0.25500000000E-02 0.  1.
          2   -1    0    0  501    0  0.00000000000E+00 -0.00000000000E+00 -0.36848848573E+04  0.36848848573E+04  0.25500000000E-02 0. -1.
    8880023    1    1    2    0    0  0.23211511687E+03  0.29568083821E+03 -0.32351871077E+04  0.33228828469E+04  0.65864270000E+03 0. -1.
    8880022    1    1    2    0    0 -0.23211511687E+03 -0.29568083821E+03 -0.30439842799E+03  0.50730133209E+03  0.15294330000E+03 0.  0.
<mgrwt>
<rscale>  0 0.64862459E+03</rscale>
<asrwt>0</asrwt>
<pdfrwt beam="1">  1        2 0.56690529E+00 0.75836323E+03</pdfrwt>
<pdfrwt beam="2">  1       -2 0.22353745E-01 0.75836323E+03</pdfrwt>
<totfact> 0.11386640E+01</totfact>
</mgrwt>
</event>
<event>
 4    2  0.3747163E-007  0.7294674E+03  0.7818608E-02  0.9891763E-01
          2   -1    0    0  501    0  0.00000000000E+00  0.00000000000E+00  0.22957679421E+04  0.22957679421E+04  0.25500000000E-02 0. -1.
         -2   -1    0    0    0  501 -0.00000000000E+00 -0.00000000000E+00 -0.22578677275E+03  0.22578677277E+03  0.25500000000E-02 0.  1.
    8880023    1    1    2    0    0 -0.15854258890E+03  0.27051208611E+03  0.20456785769E+04  0.21718479660E+04  0.65864270000E+03 0. -1.
    8880022    1    1    2    0    0  0.15854258890E+03 -0.27051208611E+03  0.24302592516E+02  0.34970674893E+03  0.15294330000E+03 0.  0.
<mgrwt>
<rscale>  0 0.60662126E+03</rscale>
<asrwt>0</asrwt>
<pdfrwt beam="1">  1        2 0.35319506E+00 0.72946744E+03</pdfrwt>
<pdfrwt beam="2">  1       -2 0.34736427E-01 0.72946744E+03</pdfrwt>
<totfact> 0.36865563E+01</totfact>
</mgrwt>
</event>
<event>
 4    2  0.3747163E-007  0.8090102E+03  0.7818608E-02  0.9691642E-01
          2   -1    0    0  501    0  0.00000000000E+00  0.00000000000E+00  0.28477862191E+04  0.28477862191E+04  0.25500000000E-02 0. -1.
         -2   -1    0    0    0  501 -0.00000000000E+00 -0.00000000000E+00 -0.34469019619E+03  0.34469019620E+03  0.25500000000E-02 0.  1.
    8880023    1    1    2    0    0 -0.31916254584E+03 -0.34470650034E+03  0.25696290272E+04  0.26939730595E+04  0.65864270000E+03 0. -1.
    8880022    1    1    2    0    0  0.31916254584E+03  0.34470650034E+03 -0.66533004241E+02  0.49850335577E+03  0.15294330000E+03 0.  1.
<mgrwt>
<rscale>  0 0.71516589E+03</rscale>
<asrwt>0</asrwt>
<pdfrwt beam="1">  1        2 0.43812098E+00 0.80901020E+03</pdfrwt>
<pdfrwt beam="2">  1       -2 0.53029259E-01 0.80901020E+03</pdfrwt>
<totfact> 0.76072132E+00</totfact>
</mgrwt>
</event>
<event>
 4    2  0.3747163E-007  0.8919081E+03  0.7818608E-02  0.9539149E-01
          2   -1    0    0  501    0  0.00000000000E+00  0.00000000000E+00  0.84124325425E+03  0.84124325425E+03  0.25500000000E-02 0. -1.
         -2   -1    0    0    0  501 -0.00000000000E+00 -0.00000000000E+00 -0.12347357959E+04  0.12347357959E+04  0.25500000000E-02 0.  1.
    8880023    1    1    2    0    0  0.40566866818E+03 -0.44398518247E+03  0.47349029057E+03  0.10097985800E+04  0.65864270000E+03 0. -1.
    8880022    1    1    2    0    0 -0.40566866818E+03  0.44398518247E+03 -0.86698283221E+03  0.10661804702E+04  0.15294330000E+03 0.  0.
<mgrwt>
<rscale>  0 0.81458083E+03</rscale>
<asrwt>0</asrwt>
<pdfrwt beam="1">  1        2 0.12942204E+00 0.89190813E+03</pdfrwt>
<pdfrwt beam="2">  1       -2 0.18995935E+00 0.89190813E+03</pdfrwt>
<totfact> 0.50097477E+00</totfact>
</mgrwt>
</event>
<event>
 4    2  0.4227813E-007  0.7902601E+03  0.7818608E-02  0.9732265E-01
          2   -1    0    0  501    0  0.00000000000E+00  0.00000000000E+00  0.16913138691E+04  0.16913138691E+04  0.25500000000E-02 0. -1.
         -2   -1    0    0    0  501 -0.00000000000E+00 -0.00000000000E+00 -0.11084021415E+04  0.11084021415E+04  0.25500000000E-02 0.  1.
    8880023    1    1    2    0    0  0.43469924978E+02  0.43452402504E+03  0.15431956418E+04  0.17337715414E+04  0.65864270000E+03 0. -1.
    8880022    1    1    2    0    0 -0.43469924978E+02 -0.43452402504E+03 -0.96028391418E+03  0.10659444693E+04  0.15294330000E+03 0.  0.
<mgrwt>
<rscale>  0 0.69127792E+03</rscale>
<asrwt>0</asrwt>
<pdfrwt beam="1">  1        2 0.26020213E+00 0.79026006E+03</pdfrwt>
<pdfrwt beam="2">  1       -2 0.17052341E+00 0.79026006E+03</pdfrwt>
<totfact> 0.21486678E+00</totfact>
</mgrwt>
</event>
<event>
 4    2  0.3747163E-007  0.6790490E+03  0.7818608E-02  0.1009867E+00
         -2   -1    0    0    0  501 -0.00000000000E+00  0.00000000000E+00  0.51028412909E+03  0.51028412909E+03  0.25500000000E-02 0.  1.
          2   -1    0    0  501    0  0.00000000000E+00 -0.00000000000E+00 -0.16282030721E+04  0.16282030721E+04  0.25500000000E-02 0. -1.
    8880023    1    1    2    0    0 -0.10261729740E+03  0.12948752736E+03 -0.15272041754E+04  0.16713647505E+04  0.65864270000E+03 0. -1.
    8880022    1    1    2    0    0  0.10261729740E+03 -0.12948752736E+03  0.40928523241E+03  0.46712245071E+03  0.15294330000E+03 0.  0.
<mgrwt>
<rscale>  0 0.51527614E+03</rscale>
<asrwt>0</asrwt>
<pdfrwt beam="1">  1        2 0.25049278E+00 0.67904899E+03</pdfrwt>
<pdfrwt beam="2">  1       -2 0.78505251E-01 0.67904899E+03</pdfrwt>
<totfact> 0.16078821E+01</totfact>
</mgrwt>
</event>
<event>
 4    2  0.3747163E-007  0.6747510E+03  0.7818608E-02  0.1012464E+00
         -2   -1    0    0    0  501 -0.00000000000E+00  0.00000000000E+00  0.18322888348E+03  0.18322888350E+03  0.25500000000E-02 0.  1.
          2   -1    0    0  501    0  0.00000000000E+00 -0.00000000000E+00 -0.28953145599E+04  0.28953145599E+04  0.25500000000E-02 0. -1.
    8880023    1    1    2    0    0  0.14639124418E+03  0.69500384389E+01 -0.27763623301E+04  0.28571798497E+04  0.65864270000E+03 0. -1.
    8880022    1    1    2    0    0 -0.14639124418E+03 -0.69500384389E+01  0.64276653638E+02  0.22136359372E+03  0.15294330000E+03 0.  0.
<mgrwt>
<rscale>  0 0.50507118E+03</rscale>
<asrwt>0</asrwt>
<pdfrwt beam="1">  1        2 0.44543298E+00 0.67475100E+03</pdfrwt>
<pdfrwt beam="2">  1       -2 0.28189061E-01 0.67475100E+03</pdfrwt>
<totfact> 0.24866841E+01</totfact>
</mgrwt>
</event>
<event>
 4    2  0.3747163E-007  0.8898006E+03  0.7818608E-02  0.9542607E-01
         -2   -1    0    0    0  501 -0.00000000000E+00  0.00000000000E+00  0.63306131454E+03  0.63306131454E+03  0.25500000000E-02 0.  1.
          2   -1    0    0  501    0  0.00000000000E+00 -0.00000000000E+00 -0.19199377138E+04  0.19199377138E+04  0.25500000000E-02 0. -1.
    8880023    1    1    2    0    0  0.19454010753E+03  0.56576414929E+03 -0.16222754424E+04  0.18502763965E+04  0.65864270000E+03 0. -1.
    8880022    1    1    2    0    0 -0.19454010753E+03 -0.56576414929E+03  0.33539904320E+03  0.70272263181E+03  0.15294330000E+03 0.  0.
<mgrwt>
<rscale>  0 0.81214142E+03</rscale>
<asrwt>0</asrwt>
<pdfrwt beam="1">  1        2 0.29537503E+00 0.88980061E+03</pdfrwt>
<pdfrwt beam="2">  1       -2 0.97394050E-01 0.88980061E+03</pdfrwt>
<totfact> 0.65946138E+00</totfact>
</mgrwt>
</event>
<event>
 4    2  0.3747163E-007  0.6956228E+03  0.7818608E-02  0.1001587E+00
          2   -1    0    0  501    0  0.00000000000E+00  0.00000000000E+00  0.25208333013E+04  0.25208333013E+04  0.25500000000E-02 0. -1.
         -2   -1    0    0    0  501 -0.00000000000E+00 -0.00000000000E+00 -0.23831012408E+03  0.23831012410E+03  0.25500000000E-02 0.  1.
    8880023    1    1    2    0    0 -0.13687338216E+03 -0.17704972338E+03  0.23734127195E+04  0.24732527308E+04  0.65864270000E+03 0. -1.
    8880022    1    1    2    0    0  0.13687338216E+03  0.17704972338E+03 -0.90889542317E+02  0.28589069452E+03  0.15294330000E+03 0.  0.
<mgrwt>
<rscale>  0 0.54959913E+03</rscale>
<asrwt>0</asrwt>
<pdfrwt beam="1">  1        2 0.38782053E+00 0.69562284E+03</pdfrwt>
<pdfrwt beam="2">  1       -2 0.36663094E-01 0.69562284E+03</pdfrwt>
<totfact> 0.24997880E+01</totfact>
</mgrwt>
</event>
<event>
 4    2  0.3747163E-007  0.9088813E+03  0.7818608E-02  0.9511922E-01
         -2   -1    0    0    0  501 -0.00000000000E+00  0.00000000000E+00  0.40871745947E+03  0.40871745948E+03  0.25500000000E-02 0.  1.
          2   -1    0    0  501    0  0.00000000000E+00 -0.00000000000E+00 -0.22431151544E+04  0.22431151544E+04  0.25500000000E-02 0. -1.
    8880023    1    1    2    0    0 -0.59381104194E+03 -0.19910685726E+03 -0.17876514708E+04  0.20054333900E+04  0.65864270000E+03 0. -1.
    8880022    1    1    2    0    0  0.59381104194E+03  0.19910685726E+03 -0.46746224051E+02  0.64639922387E+03  0.15294330000E+03 0.  0.
<mgrwt>
<rscale>  0 0.83410541E+03</rscale>
<asrwt>0</asrwt>
<pdfrwt beam="1">  1        2 0.34509463E+00 0.90888135E+03</pdfrwt>
<pdfrwt beam="2">  1       -2 0.62879610E-01 0.90888135E+03</pdfrwt>
<totfact> 0.11653864E+01</totfact>
</mgrwt>
</event>
<event>
 4    2  0.3747163E-007  0.6699095E+03  0.7818608E-02  0.1015728E+00
          2   -1    0    0  501    0  0.00000000000E+00  0.00000000000E+00  0.11293636100E+04  0.11293636100E+04  0.25500000000E-02 0. -1.
         -2   -1    0    0    0  501 -0.00000000000E+00 -0.00000000000E+00 -0.28975361752E+03  0.28975361753E+03  0.25500000000E-02 0.  1.
    8880023    1    1    2    0    0  0.10493653530E+03  0.62903103886E+02  0.97360169070E+03  0.11818117174E+04  0.65864270000E+03 0. -1.
    8880022    1    1    2    0    0 -0.10493653530E+03 -0.62903103886E+02 -0.13399169826E+03  0.23730551013E+03  0.15294330000E+03 0.  1.
<mgrwt>
<rscale>  0 0.49260304E+03</rscale>
<asrwt>0</asrwt>
<pdfrwt beam="1">  1        2 0.17374825E+00 0.66990946E+03</pdfrwt>
<pdfrwt beam="2">  1       -2 0.44577480E-01 0.66990946E+03</pdfrwt>
<totfact> 0.10185072E+02</totfact>
</mgrwt>
</event>
<event>
 4    2  0.3747163E-007  0.7139593E+03  0.7818608E-02  0.9943582E-01
          2   -1    0    0  501    0  0.00000000000E+00  0.00000000000E+00  0.90807408037E+03  0.90807408037E+03  0.25500000000E-02 0. -1.
         -2   -1    0    0    0  501 -0.00000000000E+00 -0.00000000000E+00 -0.15616807697E+04  0.15616807697E+04  0.25500000000E-02 0.  1.
    8880023    1    1    2    0    0 -0.50851659391E+02 -0.27081694451E+03  0.74747784559E+03  0.10336638934E+04  0.65864270000E+03 0. -1.
    8880022    1    1    2    0    0  0.50851659391E+02  0.27081694451E+03 -0.14010845349E+04  0.14360909566E+04  0.15294330000E+03 0.  0.
<mgrwt>
<rscale>  0 0.58194822E+03</rscale>
<asrwt>0</asrwt>
<pdfrwt beam="1">  1        2 0.13970370E+00 0.71395932E+03</pdfrwt>
<pdfrwt beam="2">  1       -2 0.24025858E+00 0.71395932E+03</pdfrwt>
<totfact> 0.22156569E+00</totfact>
</mgrwt>
</event>
<event>
 4    2  0.3747163E-007  0.1056691E+04  0.7818608E-02  0.9310881E-01
         -2   -1    0    0    0  501 -0.00000000000E+00  0.00000000000E+00  0.22678855188E+04  0.22678855188E+04  0.25500000000E-02 0.  1.
          2   -1    0    0  501    0  0.00000000000E+00 -0.00000000000E+00 -0.87400130578E+03  0.87400130578E+03  0.25500000000E-02 0. -1.
    8880023    1    1    2    0    0 -0.73951490317E+03 -0.36865015441E+03 -0.42445740759E+03  0.11387534964E+04  0.65864270000E+03 0.  0.
    8880022    1    1    2    0    0  0.73951490317E+03  0.36865015441E+03  0.18183416206E+04  0.20031333282E+04  0.15294330000E+03 0.  0.
<mgrwt>
<rscale>  0 0.99787267E+03</rscale>
<asrwt>0</asrwt>
<pdfrwt beam="1">  1        2 0.13446174E+00 0.10566908E+04</pdfrwt>
<pdfrwt beam="2">  1       -2 0.34890546E+00 0.10566908E+04</pdfrwt>
<totfact> 0.48432666E-01</totfact>
</mgrwt>
</event>
<event>
 4    2  0.3747163E-007  0.1031726E+04  0.7818608E-02  0.9341179E-01
         -2   -1    0    0    0  501 -0.00000000000E+00  0.00000000000E+00  0.33724043035E+03  0.33724043036E+03  0.25500000000E-02 0.  1.
          2   -1    0    0  501    0  0.00000000000E+00 -0.00000000000E+00 -0.42478965028E+04  0.42478965028E+04  0.25500000000E-02 0. -1.
    8880023    1    1    2    0    0 -0.67707941990E+03 -0.41498454197E+03 -0.35549521391E+04  0.37016406671E+04  0.65864270000E+03 0.  0.
    8880022    1    1    2    0    0  0.67707941990E+03  0.41498454197E+03 -0.35570393340E+03  0.88349626608E+03  0.15294330000E+03 0.  0.
<mgrwt>
<rscale>  0 0.97078690E+03</rscale>
<asrwt>0</asrwt>
<pdfrwt beam="1">  1        2 0.65352250E+00 0.10317262E+04</pdfrwt>
<pdfrwt beam="2">  1       -2 0.51883146E-01 0.10317262E+04</pdfrwt>
<totfact> 0.78388628E-01</totfact>
</mgrwt>
</event>
<event>
 4    2  0.3747163E-007  0.7036498E+03  0.7818608E-02  0.9982384E-01
          2   -1    0    0  501    0  0.00000000000E+00  0.00000000000E+00  0.24845663739E+04  0.24845663739E+04  0.25500000000E-02 0. -1.
         -2   -1    0    0    0  501 -0.00000000000E+00 -0.00000000000E+00 -0.17532622932E+03  0.17532622934E+03  0.25500000000E-02 0.  1.
    8880023    1    1    2    0    0  0.22320703448E+03 -0.10719824975E+03  0.22570745433E+04  0.23642141496E+04  0.65864270000E+03 0.  0.
    8880022    1    1    2    0    0 -0.22320703448E+03  0.10719824975E+03  0.52165601333E+02  0.29567845368E+03  0.15294330000E+03 0.  0.
<mgrwt>
<rscale>  0 0.56429440E+03</rscale>
<asrwt>0</asrwt>
<pdfrwt beam="1">  1        2 0.38224096E+00 0.70364981E+03</pdfrwt>
<pdfrwt beam="2">  1       -2 0.26973268E-01 0.70364981E+03</pdfrwt>
<totfact> 0.46455233E+01</totfact>
</mgrwt>
</event>
<event>
 4    2  0.3747163E-007  0.7316211E+03  0.7818608E-02  0.9885063E-01
          2   -1    0    0  501    0  0.00000000000E+00  0.00000000000E+00  0.46004197017E+03  0.46004197018E+03  0.25500000000E-02 0. -1.
         -2   -1    0    0    0  501 -0.00000000000E+00 -0.00000000000E+00 -0.71086440777E+03  0.71086440777E+03  0.25500000000E-02 0.  1.
    8880023    1    1    2    0    0 -0.54416728687E+01  0.31848011548E+03  0.10060602850E+02  0.73169024714E+03  0.65864270000E+03 0.  0.
    8880022    1    1    2    0    0  0.54416728687E+01 -0.31848011548E+03 -0.26088304044E+03  0.43921613081E+03  0.15294330000E+03 0.  0.
<mgrwt>
<rscale>  0 0.60990697E+03</rscale>
<asrwt>0</asrwt>
<pdfrwt beam="1">  1        2 0.70775688E-01 0.73162108E+03</pdfrwt>
<pdfrwt beam="2">  1       -2 0.10936375E+00 0.73162108E+03</pdfrwt>
<totfact> 0.45764119E+01</totfact>
</mgrwt>
</event>
<event>
 4    2  0.3747163E-007  0.1167767E+04  0.7818608E-02  0.9189110E-01
         -2   -1    0    0    0  501 -0.00000000000E+00  0.00000000000E+00  0.80257164891E+03  0.80257164892E+03  0.25500000000E-02 0.  1.
          2   -1    0    0  501    0  0.00000000000E+00 -0.00000000000E+00 -0.31261912465E+04  0.31261912465E+04  0.25500000000E-02 0. -1.
    8880023    1    1    2    0    0  0.84317361424E+03  0.46789709972E+03 -0.26527679565E+04  0.28984232743E+04  0.65864270000E+03 0.  0.
    8880022    1    1    2    0    0 -0.84317361424E+03 -0.46789709972E+03  0.32914835891E+03  0.10303396211E+04  0.15294330000E+03 0.  0.
<mgrwt>
<rscale>  0 0.11166540E+04</rscale>
<asrwt>0</asrwt>
<pdfrwt beam="1">  1        2 0.48095249E+00 0.11677669E+04</pdfrwt>
<pdfrwt beam="2">  1       -2 0.12347256E+00 0.11677669E+04</pdfrwt>
<totfact> 0.71187221E-01</totfact>
</mgrwt>
</event>
<event>
 4    2  0.3747163E-007  0.6650157E+03  0.7818608E-02  0.1019520E+00
          2   -1    0    0  501    0  0.00000000000E+00  0.00000000000E+00  0.34523996839E+04  0.34523996839E+04  0.25500000000E-02 0. -1.
         -2   -1    0    0    0  501 -0.00000000000E+00 -0.00000000000E+00 -0.28163882064E+03  0.28163882065E+03  0.25500000000E-02 0.  1.
    8880023    1    1    2    0    0 -0.61505607485E+02 -0.68210807001E+02  0.33881616634E+04  0.34528083233E+04  0.65864270000E+03 0. -1.
    8880022    1    1    2    0    0  0.61505607485E+02  0.68210807001E+02 -0.21740080012E+03  0.28123018126E+03  0.15294330000E+03 0.  0.
<mgrwt>
<rscale>  0 0.47860133E+03</rscale>
<asrwt>0</asrwt>
<pdfrwt beam="1">  1        2 0.53113843E+00 0.66501568E+03</pdfrwt>
<pdfrwt beam="2">  1       -2 0.43329048E-01 0.66501568E+03</pdfrwt>
<totfact> 0.48868914E+00</totfact>
</mgrwt>
</event>
<event>
 4    2  0.3747163E-007  0.6665006E+03  0.7818608E-02  0.1018306E+00
          2   -1    0    0  501    0  0.00000000000E+00  0.00000000000E+00  0.27685413368E+04  0.27685413368E+04  0.25500000000E-02 0. -1.
         -2   -1    0    0    0  501 -0.00000000000E+00 -0.00000000000E+00 -0.73227391230E+02  0.73227391275E+02  0.25500000000E-02 0.  1.
    8880023    1    1    2    0    0  0.83209981439E+02 -0.59067174936E+02  0.24244720388E+04  0.25144159770E+04  0.65864270000E+03 0.  0.
    8880022    1    1    2    0    0 -0.83209981439E+02  0.59067174936E+02  0.27084190677E+03  0.32735275109E+03  0.15294330000E+03 0.  0.
<mgrwt>
<rscale>  0 0.48302788E+03</rscale>
<asrwt>0</asrwt>
<pdfrwt beam="1">  1        2 0.42592948E+00 0.66650059E+03</pdfrwt>
<pdfrwt beam="2">  1       -2 0.11265751E-01 0.66650059E+03</pdfrwt>
<totfact> 0.14427367E+02</totfact>
</mgrwt>
</event>
<event>
 4    2  0.3747163E-007  0.9254163E+03  0.7818608E-02  0.9486404E-01
         -2   -1    0    0    0  501 -0.00000000000E+00  0.00000000000E+00  0.27258640678E+03  0.27258640680E+03  0.25500000000E-02 0.  1.
          2   -1    0    0  501    0  0.00000000000E+00 -0.00000000000E+00 -0.35718920443E+04  0.35718920443E+04  0.25500000000E-02 0. -1.
    8880023    1    1    2    0    0 -0.18155568377E+02  0.64981188252E+03 -0.29481216299E+04  0.30899541191E+04  0.65864270000E+03 0.  0.
    8880022    1    1    2    0    0  0.18155568377E+02 -0.64981188252E+03 -0.35118400763E+03  0.75452433199E+03  0.15294330000E+03 0.  0.
<mgrwt>
<rscale>  0 0.85293686E+03</rscale>
<asrwt>0</asrwt>
<pdfrwt beam="1">  1        2 0.54952182E+00 0.92541629E+03</pdfrwt>
<pdfrwt beam="2">  1       -2 0.41936373E-01 0.92541629E+03</pdfrwt>
<totfact> 0.40998367E+00</totfact>
</mgrwt>
</event>
<event>
 4    2  0.3747163E-007  0.9678491E+03  0.7818608E-02  0.9424885E-01
         -2   -1    0    0    0  501 -0.00000000000E+00  0.00000000000E+00  0.19714375653E+04  0.19714375653E+04  0.25500000000E-02 0.  1.
          2   -1    0    0  501    0  0.00000000000E+00 -0.00000000000E+00 -0.40786986708E+03  0.40786986709E+03  0.25500000000E-02 0. -1.
    8880023    1    1    2    0    0  0.47271932346E+03 -0.52863791900E+03  0.49325086669E+03  0.10862910438E+04  0.65864270000E+03 0.  0.
    8880022    1    1    2    0    0 -0.47271932346E+03  0.52863791900E+03  0.10703168315E+04  0.12930163885E+04  0.15294330000E+03 0. -1.
<mgrwt>
<rscale>  0 0.90055712E+03</rscale>
<asrwt>0</asrwt>
<pdfrwt beam="1">  1        2 0.62749210E-01 0.96784907E+03</pdfrwt>
<pdfrwt beam="2">  1       -2 0.30329809E+00 0.96784907E+03</pdfrwt>
<totfact> 0.23891578E+00</totfact>
</mgrwt>
</event>
<event>
 4    2  0.3747163E-007  0.1048377E+04  0.7818608E-02  0.9320835E-01
          2   -1    0    0  501    0  0.00000000000E+00  0.00000000000E+00  0.25991525761E+04  0.25991525761E+04  0.25500000000E-02 0. -1.
         -2   -1    0    0    0  501 -0.00000000000E+00 -0.00000000000E+00 -0.60244023510E+03  0.60244023510E+03  0.25500000000E-02 0.  1.
    8880023    1    1    2    0    0 -0.19591205134E+03  0.79177180283E+03  0.21176608641E+04  0.23629604020E+04  0.65864270000E+03 0.  0.
    8880022    1    1    2    0    0  0.19591205134E+03 -0.79177180283E+03 -0.12094852309E+03  0.83863240926E+03  0.15294330000E+03 0.  0.
<mgrwt>
<rscale>  0 0.98887173E+03</rscale>
<asrwt>0</asrwt>
<pdfrwt beam="1">  1        2 0.39986963E+00 0.10483770E+04</pdfrwt>
<pdfrwt beam="2">  1       -2 0.92683113E-01 0.10483770E+04</pdfrwt>
<totfact> 0.30210701E+00</totfact>
</mgrwt>
</event>
<event>
 4    2  0.3747163E-007  0.6957554E+03  0.7818608E-02  0.1001529E+00
          2   -1    0    0  501    0  0.00000000000E+00  0.00000000000E+00  0.26045528957E+04  0.26045528957E+04  0.25500000000E-02 0. -1.
         -2   -1    0    0    0  501 -0.00000000000E+00 -0.00000000000E+00 -0.16171538862E+03  0.16171538864E+03  0.25500000000E-02 0.  1.
    8880023    1    1    2    0    0 -0.84777009908E+02  0.20755291855E+03  0.23907304257E+04  0.24899131571E+04  0.65864270000E+03 0. -1.
    8880022    1    1    2    0    0  0.84777009908E+02 -0.20755291855E+03  0.52107081412E+02  0.27635512725E+03  0.15294330000E+03 0.  0.
<mgrwt>
<rscale>  0 0.54984995E+03</rscale>
<asrwt>0</asrwt>
<pdfrwt beam="1">  1        2 0.40070042E+00 0.69575539E+03</pdfrwt>
<pdfrwt beam="2">  1       -2 0.24879292E-01 0.69575539E+03</pdfrwt>
<totfact> 0.46011237E+01</totfact>
</mgrwt>
</event>
<event>
 4    2  0.3747163E-007  0.1118590E+04  0.7818608E-02  0.9240635E-01
          2   -1    0    0  501    0  0.00000000000E+00  0.00000000000E+00  0.17050051335E+04  0.17050051335E+04  0.25500000000E-02 0. -1.
         -2   -1    0    0    0  501 -0.00000000000E+00 -0.00000000000E+00 -0.60835095958E+03  0.60835095959E+03  0.25500000000E-02 0.  1.
    8880023    1    1    2    0    0  0.67021340906E+03 -0.60683382992E+03  0.56073095215E+03  0.12512644476E+04  0.65864270000E+03 0.  0.
    8880022    1    1    2    0    0 -0.67021340906E+03  0.60683382992E+03  0.53592322178E+03  0.10620916455E+04  0.15294330000E+03 0.  1.
<mgrwt>
<rscale>  0 0.10643670E+04</rscale>
<asrwt>0</asrwt>
<pdfrwt beam="1">  1        2 0.26230848E+00 0.11185900E+04</pdfrwt>
<pdfrwt beam="2">  1       -2 0.93592456E-01 0.11185900E+04</pdfrwt>
<totfact> 0.92713689E+00</totfact>
</mgrwt>
</event>
<event>
 4    2  0.3747163E-007  0.7061006E+03  0.7818608E-02  0.9972776E-01
          2   -1    0    0  501    0  0.00000000000E+00  0.00000000000E+00  0.76739571825E+03  0.76739571826E+03  0.25500000000E-02 0. -1.
         -2   -1    0    0    0  501 -0.00000000000E+00 -0.00000000000E+00 -0.52310372965E+03  0.52310372966E+03  0.25500000000E-02 0.  1.
    8880023    1    1    2    0    0  0.85000194710E+02 -0.23988094552E+03  0.52656248473E+03  0.88082129726E+03  0.65864270000E+03 0. -1.
    8880022    1    1    2    0    0 -0.85000194710E+02  0.23988094552E+03 -0.28227049613E+03  0.40967815066E+03  0.15294330000E+03 0.  0.
<mgrwt>
<rscale>  0 0.56860232E+03</rscale>
<asrwt>0</asrwt>
<pdfrwt beam="1">  1        2 0.11806088E+00 0.70610064E+03</pdfrwt>
<pdfrwt beam="2">  1       -2 0.80477498E-01 0.70610064E+03</pdfrwt>
<totfact> 0.50479738E+01</totfact>
</mgrwt>
</event>
<event>
 4    2  0.3747163E-007  0.8872289E+03  0.7818608E-02  0.9546852E-01
         -2   -1    0    0    0  501 -0.00000000000E+00  0.00000000000E+00  0.98575393014E+03  0.98575393014E+03  0.25500000000E-02 0.  1.
          2   -1    0    0  501    0  0.00000000000E+00 -0.00000000000E+00 -0.70664455912E+03  0.70664455913E+03  0.25500000000E-02 0. -1.
    8880023    1    1    2    0    0 -0.17838085099E+03  0.56704949982E+03 -0.20506351382E+03  0.91061853386E+03  0.65864270000E+03 0.  1.
    8880022    1    1    2    0    0  0.17838085099E+03 -0.56704949982E+03  0.48417288484E+03  0.78177995541E+03  0.15294330000E+03 0.  0.
<mgrwt>
<rscale>  0 0.80915989E+03</rscale>
<asrwt>0</asrwt>
<pdfrwt beam="1">  1        2 0.10871455E+00 0.88722887E+03</pdfrwt>
<pdfrwt beam="2">  1       -2 0.15165445E+00 0.88722887E+03</pdfrwt>
<totfact> 0.11804399E+01</totfact>
</mgrwt>
</event>
<event>
 4    2  0.3747163E-007  0.6645248E+03  0.7818608E-02  0.1019935E+00
          2   -1    0    0  501    0  0.00000000000E+00  0.00000000000E+00  0.68542471451E+03  0.68542471451E+03  0.25500000000E-02 0. -1.
         -2   -1    0    0    0  501 -0.00000000000E+00 -0.00000000000E+00 -0.52500337464E+03  0.52500337464E+03  0.25500000000E-02 0.  1.
    8880023    1    1    2    0    0 -0.16632287521E+02  0.86639692655E+02  0.49735604925E+03  0.83003392420E+03  0.65864270000E+03 0.  0.
    8880022    1    1    2    0    0  0.16632287521E+02 -0.86639692655E+02 -0.33693470938E+03  0.38039416496E+03  0.15294330000E+03 0.  1.
<mgrwt>
<rscale>  0 0.47709926E+03</rscale>
<asrwt>0</asrwt>
<pdfrwt beam="1">  1        2 0.10544996E+00 0.66452485E+03</pdfrwt>
<pdfrwt beam="2">  1       -2 0.80769750E-01 0.66452485E+03</pdfrwt>
<totfact> 0.58019493E+01</totfact>
</mgrwt>
</event>
<event>
 4    2  0.3747163E-007  0.8269097E+03  0.7818608E-02  0.9655375E-01
         -2   -1    0    0    0  501 -0.00000000000E+00  0.00000000000E+00  0.79429118966E+03  0.79429118966E+03  0.25500000000E-02 0.  1.
          2   -1    0    0  501    0  0.00000000000E+00 -0.00000000000E+00 -0.12945160856E+04  0.12945160856E+04  0.25500000000E-02 0. -1.
    8880023    1    1    2    0    0 -0.27954693292E+03  0.41451524884E+03 -0.10457551792E+04  0.13331854636E+04  0.65864270000E+03 0.  0.
    8880022    1    1    2    0    0  0.27954693292E+03 -0.41451524884E+03  0.54553028329E+03  0.75562181164E+03  0.15294330000E+03 0.  0.
<mgrwt>
<rscale>  0 0.73737027E+03</rscale>
<asrwt>0</asrwt>
<pdfrwt beam="1">  1        2 0.19915632E+00 0.82690966E+03</pdfrwt>
<pdfrwt beam="2">  1       -2 0.12219864E+00 0.82690966E+03</pdfrwt>
<totfact> 0.85497199E+00</totfact>
</mgrwt>
</event>
<event>
 4    2  0.3747163E-007  0.7359078E+03  0.7818608E-02  0.9872032E-01
         -2   -1    0    0    0  501 -0.00000000000E+00  0.00000000000E+00  0.11945667795E+04  0.11945667795E+04  0.25500000000E-02 0.  1.
          2   -1    0    0  501    0  0.00000000000E+00 -0.00000000000E+00 -0.62347362364E+03  0.62347362365E+03  0.25500000000E-02 0. -1.
    8880023    1    1    2    0    0 -0.31404951541E+03 -0.95514394172E+02 -0.35982427132E+03  0.81916653381E+03  0.65864270000E+03 0. -1.
    8880022    1    1    2    0    0  0.31404951541E+03  0.95514394172E+02  0.93091742718E+03  0.99887386935E+03  0.15294330000E+03 0.  0.
<mgrwt>
<rscale>  0 0.61636104E+03</rscale>
<asrwt>0</asrwt>
<pdfrwt beam="1">  1        2 0.95919020E-01 0.73590781E+03</pdfrwt>
<pdfrwt beam="2">  1       -2 0.18377950E+00 0.73590781E+03</pdfrwt>
<totfact> 0.82427286E+00</totfact>
</mgrwt>
</event>
<event>
 4    2  0.3747163E-007  0.7473351E+03  0.7818608E-02  0.9839073E-01
         -2   -1    0    0    0  501 -0.00000000000E+00  0.00000000000E+00  0.92681910552E+03  0.92681910552E+03  0.25500000000E-02 0.  1.
          2   -1    0    0  501    0  0.00000000000E+00 -0.00000000000E+00 -0.11441324426E+04  0.11441324426E+04  0.25500000000E-02 0. -1.
    8880023    1    1    2    0    0  0.33626969573E+03 -0.10780657028E+03 -0.97064816555E+03  0.12250174009E+04  0.65864270000E+03 0. -1.
    8880022    1    1    2    0    0 -0.33626969573E+03  0.10780657028E+03  0.75333482842E+03  0.84593414731E+03  0.15294330000E+03 0.  0.
<mgrwt>
<rscale>  0 0.63307141E+03</rscale>
<asrwt>0</asrwt>
<pdfrwt beam="1">  1        2 0.17602038E+00 0.74733511E+03</pdfrwt>
<pdfrwt beam="2">  1       -2 0.14258755E+00 0.74733511E+03</pdfrwt>
<totfact> 0.71514853E+00</totfact>
</mgrwt>
</event>
<event>
 4    2  0.3747163E-007  0.6663458E+03  0.7818608E-02  0.1018430E+00
         -2   -1    0    0    0  501 -0.00000000000E+00  0.00000000000E+00  0.21583635794E+03  0.21583635795E+03  0.25500000000E-02 0.  1.
          2   -1    0    0  501    0  0.00000000000E+00 -0.00000000000E+00 -0.23432119147E+04  0.23432119147E+04  0.25500000000E-02 0. -1.
    8880023    1    1    2    0    0 -0.97811620615E+02  0.25287409103E+02 -0.22446344206E+04  0.23414526377E+04  0.65864270000E+03 0. -1.
    8880022    1    1    2    0    0  0.97811620615E+02 -0.25287409103E+02  0.11725886384E+03  0.21759563495E+03  0.15294330000E+03 0.  0.
<mgrwt>
<rscale>  0 0.48257442E+03</rscale>
<asrwt>0</asrwt>
<pdfrwt beam="1">  1        2 0.36049412E+00 0.66634584E+03</pdfrwt>
<pdfrwt beam="2">  1       -2 0.33205595E-01 0.66634584E+03</pdfrwt>
<totfact> 0.38135365E+01</totfact>
</mgrwt>
</event>
<event>
 4    2  0.3747163E-007  0.7535850E+03  0.7818608E-02  0.9822007E-01
         -2   -1    0    0    0  501 -0.00000000000E+00  0.00000000000E+00  0.18880814735E+04  0.18880814735E+04  0.25500000000E-02 0.  1.
          2   -1    0    0  501    0  0.00000000000E+00 -0.00000000000E+00 -0.10241404429E+04  0.10241404429E+04  0.25500000000E-02 0. -1.
    8880023    1    1    2    0    0 -0.12921194373E+03  0.34261414133E+03 -0.85985106885E+03  0.11433434493E+04  0.65864270000E+03 0.  0.
    8880022    1    1    2    0    0  0.12921194373E+03 -0.34261414133E+03  0.17237920995E+04  0.17688784671E+04  0.15294330000E+03 0.  0.
<mgrwt>
<rscale>  0 0.64194756E+03</rscale>
<asrwt>0</asrwt>
<pdfrwt beam="1">  1        2 0.15756007E+00 0.75358502E+03</pdfrwt>
<pdfrwt beam="2">  1       -2 0.29047407E+00 0.75358502E+03</pdfrwt>
<totfact> 0.92201074E-01</totfact>
</mgrwt>
</event>
<event>
 4    2  0.3747163E-007  0.7230286E+03  0.7818608E-02  0.9912468E-01
          2   -1    0    0  501    0  0.00000000000E+00  0.00000000000E+00  0.55460462590E+03  0.55460462590E+03  0.25500000000E-02 0. -1.
         -2   -1    0    0    0  501 -0.00000000000E+00 -0.00000000000E+00 -0.98155290021E+03  0.98155290021E+03  0.25500000000E-02 0.  1.
    8880023    1    1    2    0    0  0.16860477018E+03 -0.24603372225E+03  0.26277598448E+03  0.76929941199E+03  0.65864270000E+03 0. -1.
    8880022    1    1    2    0    0 -0.16860477018E+03  0.24603372225E+03 -0.68972425879E+03  0.76685811412E+03  0.15294330000E+03 0.  0.
<mgrwt>
<rscale>  0 0.59660807E+03</rscale>
<asrwt>0</asrwt>
<pdfrwt beam="1">  1        2 0.85323788E-01 0.72302861E+03</pdfrwt>
<pdfrwt beam="2">  1       -2 0.15100814E+00 0.72302861E+03</pdfrwt>
<totfact> 0.16312583E+01</totfact>
</mgrwt>
</event>
<event>
 4    2  0.3747163E-007  0.1183136E+04  0.7818608E-02  0.9173692E-01
         -2   -1    0    0    0  501 -0.00000000000E+00  0.00000000000E+00  0.75385318339E+03  0.75385318340E+03  0.25500000000E-02 0.  1.
          2   -1    0    0  501    0  0.00000000000E+00 -0.00000000000E+00 -0.20941167420E+04  0.20941167420E+04  0.25500000000E-02 0. -1.
    8880023    1    1    2    0    0 -0.59024203738E+03 -0.78588532966E+03 -0.52583666940E+01  0.11831480342E+04  0.65864270000E+03 0.  1.
    8880022    1    1    2    0    0  0.59024203738E+03  0.78588532966E+03 -0.13350051919E+04  0.16648218912E+04  0.15294330000E+03 0. -1.
<mgrwt>
<rscale>  0 0.11329147E+04</rscale>
<asrwt>0</asrwt>
<pdfrwt beam="1">  1        2 0.32217180E+00 0.11831363E+04</pdfrwt>
<pdfrwt beam="2">  1       -2 0.11597741E+00 0.11831363E+04</pdfrwt>
<totfact> 0.33483950E+00</totfact>
</mgrwt>
</event>
<event>
 4    2  0.3747163E-007  0.6682199E+03  0.7818608E-02  0.1016972E+00
         -2   -1    0    0    0  501 -0.00000000000E+00  0.00000000000E+00  0.12121569490E+04  0.12121569490E+04  0.25500000000E-02 0.  1.
          2   -1    0    0  501    0  0.00000000000E+00 -0.00000000000E+00 -0.34497755971E+03  0.34497755972E+03  0.25500000000E-02 0. -1.
    8880023    1    1    2    0    0  0.10311328536E+03 -0.45554845228E+02 -0.11915526512E+01  0.66822093622E+03  0.65864270000E+03 0. -1.
    8880022    1    1    2    0    0 -0.10311328536E+03  0.45554845228E+02  0.86837094192E+03  0.88891357247E+03  0.15294330000E+03 0.  0.
<mgrwt>
<rscale>  0 0.48795167E+03</rscale>
<asrwt>0</asrwt>
<pdfrwt beam="1">  1        2 0.53073470E-01 0.66821987E+03</pdfrwt>
<pdfrwt beam="2">  1       -2 0.18648569E+00 0.66821987E+03</pdfrwt>
<totfact> 0.15742907E+01</totfact>
</mgrwt>
</event>
<event>
 4    2  0.3747163E-007  0.7019114E+03  0.7818608E-02  0.9989362E-01
          2   -1    0    0  501    0  0.00000000000E+00  0.00000000000E+00  0.76913995070E+03  0.76913995071E+03  0.25500000000E-02 0. -1.
         -2   -1    0    0    0  501 -0.00000000000E+00 -0.00000000000E+00 -0.31782162254E+03  0.31782162255E+03  0.25500000000E-02 0.  1.
    8880023    1    1    2    0    0  0.73765227220E+02  0.23114527327E+03  0.32783113983E+03  0.77469536504E+03  0.65864270000E+03 0.  0.
    8880022    1    1    2    0    0 -0.73765227220E+02 -0.23114527327E+03  0.12348718833E+03  0.31226620823E+03  0.15294330000E+03 0.  1.
<mgrwt>
<rscale>  0 0.56119145E+03</rscale>
<asrwt>0</asrwt>
<pdfrwt beam="1">  1        2 0.11832922E+00 0.70191143E+03</pdfrwt>
<pdfrwt beam="2">  1       -2 0.48895634E-01 0.70191143E+03</pdfrwt>
<totfact> 0.14569704E+02</totfact>
</mgrwt>
</event>
<event>
 4    2  0.3747163E-007  0.7771539E+03  0.7818608E-02  0.9762565E-01
          2   -1    0    0  501    0  0.00000000000E+00  0.00000000000E+00  0.85129427338E+03  0.85129427339E+03  0.25500000000E-02 0. -1.
         -2   -1    0    0    0  501 -0.00000000000E+00 -0.00000000000E+00 -0.46439023935E+03  0.46439023936E+03  0.25500000000E-02 0.  1.
    8880023    1    1    2    0    0 -0.14544852527E+03 -0.38600874230E+03  0.40303544452E+03  0.87544605684E+03  0.65864270000E+03 0. -1.
    8880022    1    1    2    0    0  0.14544852527E+03  0.38600874230E+03 -0.16131410492E+02  0.44023845590E+03  0.15294330000E+03 0.  1.
<mgrwt>
<rscale>  0 0.67410778E+03</rscale>
<asrwt>0</asrwt>
<pdfrwt beam="1">  1        2 0.13096835E+00 0.77715393E+03</pdfrwt>
<pdfrwt beam="2">  1       -2 0.71444652E-01 0.77715393E+03</pdfrwt>
<totfact> 0.56962093E+01</totfact>
</mgrwt>
</event>
<event>
 4    2  0.3747163E-007  0.7547185E+03  0.7818608E-02  0.9818978E-01
          2   -1    0    0  501    0  0.00000000000E+00  0.00000000000E+00  0.68698228328E+03  0.68698228328E+03  0.25500000000E-02 0. -1.
         -2   -1    0    0    0  501 -0.00000000000E+00 -0.00000000000E+00 -0.54071738774E+03  0.54071738775E+03  0.25500000000E-02 0.  1.
    8880023    1    1    2    0    0  0.31717830049E+03  0.18758397690E+03  0.28286811319E+03  0.80598659940E+03  0.65864270000E+03 0.  0.
    8880022    1    1    2    0    0 -0.31717830049E+03 -0.18758397690E+03 -0.13660321765E+03  0.42171307163E+03  0.15294330000E+03 0.  0.
<mgrwt>
<rscale>  0 0.64353966E+03</rscale>
<asrwt>0</asrwt>
<pdfrwt beam="1">  1        2 0.10568958E+00 0.75471851E+03</pdfrwt>
<pdfrwt beam="2">  1       -2 0.83187290E-01 0.75471851E+03</pdfrwt>
<totfact> 0.53753665E+01</totfact>
</mgrwt>
</event>
<event>
 4    2  0.3747163E-007  0.1798050E+04  0.7818608E-02  0.8723616E-01
          2   -1    0    0  501    0  0.00000000000E+00  0.00000000000E+00  0.13610627985E+04  0.13610627985E+04  0.25500000000E-02 0. -1.
         -2   -1    0    0    0  501 -0.00000000000E+00 -0.00000000000E+00 -0.23264985668E+04  0.23264985668E+04  0.25500000000E-02 0.  1.
    8880023    1    1    2    0    0  0.75314878062E+03 -0.14939685489E+04 -0.10783010572E+03  0.18012808357E+04  0.65864270000E+03 0.  0.
    8880022    1    1    2    0    0 -0.75314878062E+03  0.14939685489E+04 -0.85760566265E+03  0.18862805297E+04  0.15294330000E+03 0.  0.
<mgrwt>
<rscale>  0 0.17677951E+04</rscale>
<asrwt>0</asrwt>
<pdfrwt beam="1">  1        2 0.20939428E+00 0.17980504E+04</pdfrwt>
<pdfrwt beam="2">  1       -2 0.35792286E+00 0.17980504E+04</pdfrwt>
<totfact> 0.19328076E-01</totfact>
</mgrwt>
</event>
<event>
 4    2  0.3747163E-007  0.6719876E+03  0.7818608E-02  0.1014276E+00
          2   -1    0    0  501    0  0.00000000000E+00  0.00000000000E+00  0.75603120209E+03  0.75603120209E+03  0.25500000000E-02 0. -1.
         -2   -1    0    0    0  501 -0.00000000000E+00 -0.00000000000E+00 -0.27601753266E+03  0.27601753267E+03  0.25500000000E-02 0.  1.
    8880023    1    1    2    0    0 -0.11815604393E+03  0.61613700734E+02  0.48566465809E+03  0.82911848684E+03  0.65864270000E+03 0. -1.
    8880022    1    1    2    0    0  0.11815604393E+03 -0.61613700734E+02 -0.56509886579E+01  0.20293024792E+03  0.15294330000E+03 0.  0.
<mgrwt>
<rscale>  0 0.49809882E+03</rscale>
<asrwt>0</asrwt>
<pdfrwt beam="1">  1        2 0.11631249E+00 0.67198758E+03</pdfrwt>
<pdfrwt beam="2">  1       -2 0.42464236E-01 0.67198758E+03</pdfrwt>
<totfact> 0.19776861E+02</totfact>
</mgrwt>
</event>
<event>
 4    2  0.3747163E-007  0.6599152E+03  0.7818608E-02  0.1024243E+00
         -2   -1    0    0    0  501 -0.00000000000E+00  0.00000000000E+00  0.84931489314E+03  0.84931489314E+03  0.25500000000E-02 0.  1.
          2   -1    0    0  501    0  0.00000000000E+00 -0.00000000000E+00 -0.18564551560E+04  0.18564551560E+04  0.25500000000E-02 0. -1.
    8880023    1    1    2    0    0  0.38686060931E+02  0.13461392447E+02 -0.17896293158E+04  0.19074226366E+04  0.65864270000E+03 0.  0.
    8880022    1    1    2    0    0 -0.38686060931E+02 -0.13461392447E+02  0.78248905285E+03  0.79834741262E+03  0.15294330000E+03 0.  1.
<mgrwt>
<rscale>  0 0.46185881E+03</rscale>
<asrwt>0</asrwt>
<pdfrwt beam="1">  1        2 0.28560848E+00 0.65991517E+03</pdfrwt>
<pdfrwt beam="2">  1       -2 0.13066383E+00 0.65991517E+03</pdfrwt>
<totfact> 0.36146604E+00</totfact>
</mgrwt>
</event>
<event>
 4    2  0.3747163E-007  0.7489259E+03  0.7818608E-02  0.9834670E-01
         -2   -1    0    0    0  501 -0.00000000000E+00  0.00000000000E+00  0.36756278613E+03  0.36756278614E+03  0.25500000000E-02 0.  1.
          2   -1    0    0  501    0  0.00000000000E+00 -0.00000000000E+00 -0.13960109946E+04  0.13960109946E+04  0.25500000000E-02 0. -1.
    8880023    1    1    2    0    0  0.32639765753E+03  0.14333324136E+03 -0.11363417279E+04  0.13609417980E+04  0.65864270000E+03 0. -1.
    8880022    1    1    2    0    0 -0.32639765753E+03 -0.14333324136E+03  0.10789351942E+03  0.40263198267E+03  0.15294330000E+03 0.  0.
<mgrwt>
<rscale>  0 0.63534693E+03</rscale>
<asrwt>0</asrwt>
<pdfrwt beam="1">  1        2 0.21477092E+00 0.74892593E+03</pdfrwt>
<pdfrwt beam="2">  1       -2 0.56548122E-01 0.74892593E+03</pdfrwt>
<totfact> 0.43567840E+01</totfact>
</mgrwt>
</event>
<event>
 4    2  0.3747163E-007  0.1667969E+04  0.7818608E-02  0.8799317E-01
         -2   -1    0    0    0  501 -0.00000000000E+00  0.00000000000E+00  0.26946794218E+04  0.26946794218E+04  0.25500000000E-02 0.  1.
          2   -1    0    0  501    0  0.00000000000E+00 -0.00000000000E+00 -0.12575430149E+04  0.12575430149E+04  0.25500000000E-02 0. -1.
    8880023    1    1    2    0    0  0.15235406823E+04 -0.16472502901E+03  0.17093632987E+04  0.23883139741E+04  0.65864270000E+03 0. -1.
    8880022    1    1    2    0    0 -0.15235406823E+04  0.16472502901E+03 -0.27222689186E+03  0.15639084626E+04  0.15294330000E+03 0.  0.
<mgrwt>
<rscale>  0 0.16350217E+04</rscale>
<asrwt>0</asrwt>
<pdfrwt beam="1">  1        2 0.19346816E+00 0.16679691E+04</pdfrwt>
<pdfrwt beam="2">  1       -2 0.41456606E+00 0.16679691E+04</pdfrwt>
<totfact> 0.96706272E-02</totfact>
</mgrwt>
</event>
<event>
 4    2  0.3747163E-007  0.6610840E+03  0.7818608E-02  0.1023072E+00
          2   -1    0    0  501    0  0.00000000000E+00  0.00000000000E+00  0.13185492598E+04  0.13185492598E+04  0.25500000000E-02 0. -1.
         -2   -1    0    0    0  501 -0.00000000000E+00 -0.00000000000E+00 -0.24827865783E+03  0.24827865784E+03  0.25500000000E-02 0.  1.
    8880023    1    1    2    0    0 -0.55354316189E+02  0.12561800980E+02  0.11921587149E+04  0.13631854264E+04  0.65864270000E+03 0. -1.
    8880022    1    1    2    0    0  0.55354316189E+02 -0.12561800980E+02 -0.12188811286E+03  0.20364249123E+03  0.15294330000E+03 0.  0.
<mgrwt>
<rscale>  0 0.46594039E+03</rscale>
<asrwt>0</asrwt>
<pdfrwt beam="1">  1        2 0.20285373E+00 0.66108404E+03</pdfrwt>
<pdfrwt beam="2">  1       -2 0.38196717E-01 0.66108404E+03</pdfrwt>
<totfact> 0.10685572E+02</totfact>
</mgrwt>
</event>
<event>
 4    2  0.3747163E-007  0.7144010E+03  0.7818608E-02  0.9942007E-01
          2   -1    0    0  501    0  0.00000000000E+00  0.00000000000E+00  0.14751036473E+04  0.14751036473E+04  0.25500000000E-02 0. -1.
         -2   -1    0    0    0  501 -0.00000000000E+00 -0.00000000000E+00 -0.20903539610E+03  0.20903539612E+03  0.25500000000E-02 0.  1.
    8880023    1    1    2    0    0 -0.74076966611E+02  0.26659188526E+03  0.11366773938E+04  0.13425365299E+04  0.65864270000E+03 0. -1.
    8880022    1    1    2    0    0  0.74076966611E+02 -0.26659188526E+03  0.12939085745E+03  0.34160251357E+03  0.15294330000E+03 0.  0.
<mgrwt>
<rscale>  0 0.58267926E+03</rscale>
<asrwt>0</asrwt>
<pdfrwt beam="1">  1        2 0.22693902E+00 0.71440103E+03</pdfrwt>
<pdfrwt beam="2">  1       -2 0.32159292E-01 0.71440103E+03</pdfrwt>
<totfact> 0.12035836E+02</totfact>
</mgrwt>
</event>
<event>
 4    2  0.3747163E-007  0.1058027E+04  0.7818608E-02  0.9309293E-01
          2   -1    0    0  501    0  0.00000000000E+00  0.00000000000E+00  0.11570501920E+04  0.11570501921E+04  0.25500000000E-02 0. -1.
         -2   -1    0    0    0  501 -0.00000000000E+00 -0.00000000000E+00 -0.16698062499E+04  0.16698062499E+04  0.25500000000E-02 0.  1.
    8880023    1    1    2    0    0 -0.36950283430E+03  0.74099867994E+03  0.75864610507E+03  0.13019084097E+04  0.65864270000E+03 0.  0.
    8880022    1    1    2    0    0  0.36950283430E+03 -0.74099867994E+03 -0.12714021629E+04  0.15249480323E+04  0.15294330000E+03 0.  0.
<mgrwt>
<rscale>  0 0.99931784E+03</rscale>
<asrwt>0</asrwt>
<pdfrwt beam="1">  1        2 0.17800772E+00 0.10580272E+04</pdfrwt>
<pdfrwt beam="2">  1       -2 0.25689327E+00 0.10580272E+04</pdfrwt>
<totfact> 0.11602102E+00</totfact>
</mgrwt>
</event>
<event>
 4    2  0.3747163E-007  0.7721455E+03  0.7818608E-02  0.9774622E-01
         -2   -1    0    0    0  501 -0.00000000000E+00  0.00000000000E+00  0.14401395406E+04  0.14401395406E+04  0.25500000000E-02 0.  1.
          2   -1    0    0  501    0  0.00000000000E+00 -0.00000000000E+00 -0.61206193113E+03  0.61206193114E+03  0.25500000000E-02 0. -1.
    8880023    1    1    2    0    0 -0.27547675644E+03 -0.29412764279E+03 -0.31243114424E+03  0.83295974677E+03  0.65864270000E+03 0. -1.
    8880022    1    1    2    0    0  0.27547675644E+03  0.29412764279E+03  0.11405087537E+04  0.12192417249E+04  0.15294330000E+03 0.  0.
<mgrwt>
<rscale>  0 0.66742460E+03</rscale>
<asrwt>0</asrwt>
<pdfrwt beam="1">  1        2 0.94163375E-01 0.77214553E+03</pdfrwt>
<pdfrwt beam="2">  1       -2 0.22155993E+00 0.77214553E+03</pdfrwt>
<totfact> 0.47759854E+00</totfact>
</mgrwt>
</event>
<event>
 4    2  0.3747163E-007  0.8562184E+03  0.7818608E-02  0.9600326E-01
          2   -1    0    0  501    0  0.00000000000E+00  0.00000000000E+00  0.11294856852E+04  0.11294856852E+04  0.25500000000E-02 0. -1.
         -2   -1    0    0    0  501 -0.00000000000E+00 -0.00000000000E+00 -0.95476249827E+03  0.95476249827E+03  0.25500000000E-02 0.  1.
    8880023    1    1    2    0    0  0.54032097419E+03  0.85749414607E+02  0.84681777243E+03  0.12042467618E+04  0.65864270000E+03 0.  0.
    8880022    1    1    2    0    0 -0.54032097419E+03 -0.85749414607E+02 -0.67209458552E+03  0.88000142168E+03  0.15294330000E+03 0.  0.
<mgrwt>
<rscale>  0 0.77274612E+03</rscale>
<asrwt>0</asrwt>
<pdfrwt beam="1">  1        2 0.17376703E+00 0.85621839E+03</pdfrwt>
<pdfrwt beam="2">  1       -2 0.14688654E+00 0.85621839E+03</pdfrwt>
<totfact> 0.66620263E+00</totfact>
</mgrwt>
</event>
<event>
 4    2  0.3747163E-007  0.7139076E+03  0.7818608E-02  0.9943767E-01
         -2   -1    0    0    0  501 -0.00000000000E+00  0.00000000000E+00  0.30870789704E+03  0.30870789706E+03  0.25500000000E-02 0.  1.
          2   -1    0    0  501    0  0.00000000000E+00 -0.00000000000E+00 -0.13416730098E+04  0.13416730098E+04  0.25500000000E-02 0. -1.
    8880023    1    1    2    0    0  0.49572699606E+02  0.27091781304E+03 -0.11157990285E+04  0.13246401747E+04  0.65864270000E+03 0. -1.
    8880022    1    1    2    0    0 -0.49572699606E+02 -0.27091781304E+03  0.82833915818E+02  0.32574073216E+03  0.15294330000E+03 0.  0.
<mgrwt>
<rscale>  0 0.58186256E+03</rscale>
<asrwt>0</asrwt>
<pdfrwt beam="1">  1        2 0.20641123E+00 0.71390764E+03</pdfrwt>
<pdfrwt beam="2">  1       -2 0.47493523E-01 0.71390764E+03</pdfrwt>
<totfact> 0.67127850E+01</totfact>
</mgrwt>
</event>
<event>
 4    2  0.3747163E-007  0.7828772E+03  0.7818608E-02  0.9749121E-01
          2   -1    0    0  501    0  0.00000000000E+00  0.00000000000E+00  0.27603343066E+04  0.27603343066E+04  0.25500000000E-02 0. -1.
         -2   -1    0    0    0  501 -0.00000000000E+00 -0.00000000000E+00 -0.14916052859E+03  0.14916052861E+03  0.25500000000E-02 0.  1.
    8880023    1    1    2    0    0  0.37356945237E+03  0.19882737720E+03  0.20210940260E+04  0.21674219086E+04  0.65864270000E+03 0.  0.
    8880022    1    1    2    0    0 -0.37356945237E+03 -0.19882737720E+03  0.59007975204E+03  0.74207292664E+03  0.15294330000E+03 0.  0.
<mgrwt>
<rscale>  0 0.68165949E+03</rscale>
<asrwt>0</asrwt>
<pdfrwt beam="1">  1        2 0.42466679E+00 0.78287717E+03</pdfrwt>
<pdfrwt beam="2">  1       -2 0.22947775E-01 0.78287717E+03</pdfrwt>
<totfact> 0.42654528E+01</totfact>
</mgrwt>
</event>
<event>
 4    2  0.3747163E-007  0.6848414E+03  0.7818608E-02  0.1006708E+00
          2   -1    0    0  501    0  0.00000000000E+00  0.00000000000E+00  0.99719726534E+03  0.99719726535E+03  0.25500000000E-02 0. -1.
         -2   -1    0    0    0  501 -0.00000000000E+00 -0.00000000000E+00 -0.69013903530E+03  0.69013903530E+03  0.25500000000E-02 0.  1.
    8880023    1    1    2    0    0 -0.14635791728E+01  0.18760441471E+03  0.85078042723E+03  0.10921699044E+04  0.65864270000E+03 0. -1.
    8880022    1    1    2    0    0  0.14635791728E+01 -0.18760441471E+03 -0.54372219718E+03  0.59516639623E+03  0.15294330000E+03 0.  0.
<mgrwt>
<rscale>  0 0.52804352E+03</rscale>
<asrwt>0</asrwt>
<pdfrwt beam="1">  1        2 0.15341496E+00 0.68484142E+03</pdfrwt>
<pdfrwt beam="2">  1       -2 0.10617524E+00 0.68484142E+03</pdfrwt>
<totfact> 0.18535647E+01</totfact>
</mgrwt>
</event>
<event>
 4    2  0.3747163E-007  0.9625326E+03  0.7818608E-02  0.9432307E-01
          2   -1    0    0  501    0  0.00000000000E+00  0.00000000000E+00  0.17011654202E+04  0.17011654202E+04  0.25500000000E-02 0. -1.
         -2   -1    0    0    0  501 -0.00000000000E+00 -0.00000000000E+00 -0.11097285453E+04  0.11097285453E+04  0.25500000000E-02 0.  1.
    8880023    1    1    2    0    0 -0.44560207585E+03 -0.54230757132E+03  0.14192410458E+04  0.17148510327E+04  0.65864270000E+03 0. -1.
    8880022    1    1    2    0    0  0.44560207585E+03  0.54230757132E+03 -0.82780417100E+03  0.10960429328E+04  0.15294330000E+03 0.  0.
<mgrwt>
<rscale>  0 0.89463953E+03</rscale>
<asrwt>0</asrwt>
<pdfrwt beam="1">  1        2 0.26171775E+00 0.96253255E+03</pdfrwt>
<pdfrwt beam="2">  1       -2 0.17072747E+00 0.96253255E+03</pdfrwt>
<totfact> 0.20607541E+00</totfact>
</mgrwt>
</event>
<event>
 4    2  0.3747163E-007  0.1094950E+04  0.7818608E-02  0.9266699E-01
         -2   -1    0    0    0  501 -0.00000000000E+00  0.00000000000E+00  0.49238240995E+03  0.49238240996E+03  0.25500000000E-02 0.  1.
          2   -1    0    0  501    0  0.00000000000E+00 -0.00000000000E+00 -0.26641792255E+04  0.26641792255E+04  0.25500000000E-02 0. -1.
    8880023    1    1    2    0    0 -0.50792218535E+03 -0.71212416838E+03 -0.38390460997E+03  0.11603011391E+04  0.65864270000E+03 0.  0.
    8880022    1    1    2    0    0  0.50792218535E+03  0.71212416838E+03 -0.17878922056E+04  0.19962604964E+04  0.15294330000E+03 0.  0.
<mgrwt>
<rscale>  0 0.10390724E+04</rscale>
<asrwt>0</asrwt>
<pdfrwt beam="1">  1        2 0.40987372E+00 0.10949502E+04</pdfrwt>
<pdfrwt beam="2">  1       -2 0.75751142E-01 0.10949502E+04</pdfrwt>
<totfact> 0.43621204E+00</totfact>
</mgrwt>
</event>
<event>
 4    2  0.3747163E-007  0.7679547E+03  0.7818608E-02  0.9784933E-01
         -2   -1    0    0    0  501 -0.00000000000E+00  0.00000000000E+00  0.62066668548E+03  0.62066668548E+03  0.25500000000E-02 0.  1.
          2   -1    0    0  501    0  0.00000000000E+00 -0.00000000000E+00 -0.17192907848E+04  0.17192907848E+04  0.25500000000E-02 0. -1.
    8880023    1    1    2    0    0  0.39424720703E+03 -0.22656014960E+02 -0.15445856647E+04  0.17249635466E+04  0.65864270000E+03 0. -1.
    8880022    1    1    2    0    0 -0.39424720703E+03  0.22656014960E+02  0.44596156542E+03  0.61499392364E+03  0.15294330000E+03 0.  0.
<mgrwt>
<rscale>  0 0.66177455E+03</rscale>
<asrwt>0</asrwt>
<pdfrwt beam="1">  1        2 0.26450627E+00 0.76795466E+03</pdfrwt>
<pdfrwt beam="2">  1       -2 0.95487183E-01 0.76795466E+03</pdfrwt>
<totfact> 0.90441167E+00</totfact>
</mgrwt>
</event>
<event>
 4    2  0.3747163E-007  0.7358025E+03  0.7818608E-02  0.9872347E-01
         -2   -1    0    0    0  501 -0.00000000000E+00  0.00000000000E+00  0.29371523994E+03  0.29371523995E+03  0.25500000000E-02 0.  1.
          2   -1    0    0  501    0  0.00000000000E+00 -0.00000000000E+00 -0.14276816668E+04  0.14276816668E+04  0.25500000000E-02 0. -1.
    8880023    1    1    2    0    0 -0.26008306486E+03  0.19987989429E+03 -0.11430058760E+04  0.13593630168E+04  0.65864270000E+03 0. -1.
    8880022    1    1    2    0    0  0.26008306486E+03 -0.19987989429E+03  0.90394491349E+01  0.36203388988E+03  0.15294330000E+03 0.  1.
<mgrwt>
<rscale>  0 0.61620386E+03</rscale>
<asrwt>0</asrwt>
<pdfrwt beam="1">  1        2 0.21964333E+00 0.73580254E+03</pdfrwt>
<pdfrwt beam="2">  1       -2 0.45186961E-01 0.73580254E+03</pdfrwt>
<totfact> 0.66160289E+01</totfact>
</mgrwt>
</event>
<event>
 4    2  0.3747163E-007  0.6691614E+03  0.7818608E-02  0.1016271E+00
         -2   -1    0    0    0  501 -0.00000000000E+00  0.00000000000E+00  0.11993130427E+04  0.11993130427E+04  0.25500000000E-02 0.  1.
          2   -1    0    0  501    0  0.00000000000E+00 -0.00000000000E+00 -0.75536329253E+03  0.75536329254E+03  0.25500000000E-02 0. -1.
    8880023    1    1    2    0    0 -0.71176694462E+01  0.11796660514E+03 -0.59649663160E+03  0.89642914886E+03  0.65864270000E+03 0. -1.
    8880022    1    1    2    0    0  0.71176694462E+01 -0.11796660514E+03  0.10404463817E+04  0.10582471864E+04  0.15294330000E+03 0.  0.
<mgrwt>
<rscale>  0 0.49056521E+03</rscale>
<asrwt>0</asrwt>
<pdfrwt beam="1">  1        2 0.11620974E+00 0.66916141E+03</pdfrwt>
<pdfrwt beam="2">  1       -2 0.18450970E+00 0.66916141E+03</pdfrwt>
<totfact> 0.64623462E+00</totfact>
</mgrwt>
</event>
<event>
 4    2  0.3747163E-007  0.6908919E+03  0.7818608E-02  0.1003732E+00
         -2   -1    0    0    0  501 -0.00000000000E+00  0.00000000000E+00  0.74087092679E+03  0.74087092680E+03  0.25500000000E-02 0.  1.
          2   -1    0    0  501    0  0.00000000000E+00 -0.00000000000E+00 -0.65087394264E+03  0.65087394264E+03  0.25500000000E-02 0. -1.
    8880023    1    1    2    0    0 -0.41378828594E+02 -0.20447286021E+03 -0.42802105545E+03  0.81273217494E+03  0.65864270000E+03 0. -1.
    8880022    1    1    2    0    0  0.41378828594E+02  0.20447286021E+03  0.51801803960E+03  0.57901269450E+03  0.15294330000E+03 0.  0.
<mgrwt>
<rscale>  0 0.54043862E+03</rscale>
<asrwt>0</asrwt>
<pdfrwt beam="1">  1        2 0.10013445E+00 0.69089186E+03</pdfrwt>
<pdfrwt beam="2">  1       -2 0.11398014E+00 0.69089186E+03</pdfrwt>
<totfact> 0.27550698E+01</totfact>
</mgrwt>
</event>
<event>
 4    2  0.3747163E-007  0.9239442E+03  0.7818608E-02  0.9488638E-01
         -2   -1    0    0    0  501 -0.00000000000E+00  0.00000000000E+00  0.23490211750E+03  0.23490211752E+03  0.25500000000E-02 0.  1.
          2   -1    0    0  501    0  0.00000000000E+00 -0.00000000000E+00 -0.31767242795E+04  0.31767242795E+04  0.25500000000E-02 0. -1.
    8880023    1    1    2    0    0 -0.48561841181E+03 -0.42899590632E+03 -0.23336146496E+04  0.25098665839E+04  0.65864270000E+03 0.  0.
    8880022    1    1    2    0    0  0.48561841181E+03  0.42899590632E+03 -0.60820751239E+03  0.90175981318E+03  0.15294330000E+03 0.  0.
<mgrwt>
<rscale>  0 0.85126729E+03</rscale>
<asrwt>0</asrwt>
<pdfrwt beam="1">  1        2 0.48872678E+00 0.92394423E+03</pdfrwt>
<pdfrwt beam="2">  1       -2 0.36138790E-01 0.92394423E+03</pdfrwt>
<totfact> 0.10045971E+01</totfact>
</mgrwt>
</event>
<event>
 4    2  0.3747163E-007  0.7525304E+03  0.7818608E-02  0.9824844E-01
         -2   -1    0    0    0  501 -0.00000000000E+00  0.00000000000E+00  0.40837100904E+03  0.40837100905E+03  0.25500000000E-02 0.  1.
          2   -1    0    0  501    0  0.00000000000E+00 -0.00000000000E+00 -0.16000431399E+04  0.16000431399E+04  0.25500000000E-02 0. -1.
    8880023    1    1    2    0    0  0.25626186568E+03  0.25849871235E+03 -0.13793354511E+04  0.15712632564E+04  0.65864270000E+03 0.  0.
    8880022    1    1    2    0    0 -0.25626186568E+03 -0.25849871235E+03  0.18766332020E+03  0.43715089255E+03  0.15294330000E+03 0.  0.
<mgrwt>
<rscale>  0 0.64046145E+03</rscale>
<asrwt>0</asrwt>
<pdfrwt beam="1">  1        2 0.24616048E+00 0.75253035E+03</pdfrwt>
<pdfrwt beam="2">  1       -2 0.62826310E-01 0.75253035E+03</pdfrwt>
<totfact> 0.26840544E+01</totfact>
</mgrwt>
</event>
<event>
 4    2  0.3747163E-007  0.7686589E+03  0.7818608E-02  0.9783185E-01
          2   -1    0    0  501    0  0.00000000000E+00  0.00000000000E+00  0.63532905068E+03  0.63532905068E+03  0.25500000000E-02 0. -1.
         -2   -1    0    0    0  501 -0.00000000000E+00 -0.00000000000E+00 -0.98380770379E+03  0.98380770379E+03  0.25500000000E-02 0.  1.
    8880023    1    1    2    0    0  0.25604907573E+03  0.30243208859E+03  0.31552528182E+03  0.83089873458E+03  0.65864270000E+03 0. -1.
    8880022    1    1    2    0    0 -0.25604907573E+03 -0.30243208859E+03 -0.66400393493E+03  0.78823801990E+03  0.15294330000E+03 0.  0.
<mgrwt>
<rscale>  0 0.66272784E+03</rscale>
<asrwt>0</asrwt>
<pdfrwt beam="1">  1        2 0.97742931E-01 0.76865890E+03</pdfrwt>
<pdfrwt beam="2">  1       -2 0.15135503E+00 0.76865890E+03</pdfrwt>
<totfact> 0.13704701E+01</totfact>
</mgrwt>
</event>
<event>
 4    2  0.3747163E-007  0.6621671E+03  0.7818608E-02  0.1022038E+00
          2   -1    0    0  501    0  0.00000000000E+00  0.00000000000E+00  0.17612023968E+04  0.17612023968E+04  0.25500000000E-02 0. -1.
         -2   -1    0    0    0  501 -0.00000000000E+00 -0.00000000000E+00 -0.20081082479E+03  0.20081082480E+03  0.25500000000E-02 0.  1.
    8880023    1    1    2    0    0  0.33378149557E+02  0.59506254132E+02  0.16458050977E+04  0.17740179596E+04  0.65864270000E+03 0. -1.
    8880022    1    1    2    0    0 -0.33378149557E+02 -0.59506254132E+02 -0.85413525684E+02  0.18799526200E+03  0.15294330000E+03 0.  0.
<mgrwt>
<rscale>  0 0.46958155E+03</rscale>
<asrwt>0</asrwt>
<pdfrwt beam="1">  1        2 0.27095421E+00 0.66216712E+03</pdfrwt>
<pdfrwt beam="2">  1       -2 0.30893973E-01 0.66216712E+03</pdfrwt>
<totfact> 0.90821711E+01</totfact>
</mgrwt>
</event>
<event>
 4    2  0.3747163E-007  0.6735946E+03  0.7818608E-02  0.1013207E+00
          2   -1    0    0  501    0  0.00000000000E+00  0.00000000000E+00  0.15542299903E+04  0.15542299903E+04  0.25500000000E-02 0. -1.
         -2   -1    0    0    0  501 -0.00000000000E+00 -0.00000000000E+00 -0.22922316689E+03  0.22922316691E+03  0.25500000000E-02 0.  1.
    8880023    1    1    2    0    0 -0.14113399960E+03  0.85890697352E+00  0.14068747019E+04  0.15598160715E+04  0.65864270000E+03 0. -1.
    8880022    1    1    2    0    0  0.14113399960E+03 -0.85890697352E+00 -0.81867878546E+02  0.22363708574E+03  0.15294330000E+03 0.  0.
<mgrwt>
<rscale>  0 0.50219686E+03</rscale>
<asrwt>0</asrwt>
<pdfrwt beam="1">  1        2 0.23911231E+00 0.67359465E+03</pdfrwt>
<pdfrwt beam="2">  1       -2 0.35265103E-01 0.67359465E+03</pdfrwt>
<totfact> 0.91762956E+01</totfact>
</mgrwt>
</event>
<event>
 4    2  0.3747163E-007  0.7010125E+03  0.7818608E-02  0.9993027E-01
         -2   -1    0    0    0  501 -0.00000000000E+00  0.00000000000E+00  0.39972388188E+03  0.39972388188E+03  0.25500000000E-02 0.  1.
          2   -1    0    0  501    0  0.00000000000E+00 -0.00000000000E+00 -0.12874675751E+04  0.12874675752E+04  0.25500000000E-02 0. -1.
    8880023    1    1    2    0    0 -0.23881839311E+03 -0.23960405929E+02 -0.11190205201E+04  0.13204641065E+04  0.65864270000E+03 0. -1.
    8880022    1    1    2    0    0  0.23881839311E+03  0.23960405929E+02  0.23127682686E+03  0.36672735049E+03  0.15294330000E+03 0.  0.
<mgrwt>
<rscale>  0 0.55957066E+03</rscale>
<asrwt>0</asrwt>
<pdfrwt beam="1">  1        2 0.19807193E+00 0.70101251E+03</pdfrwt>
<pdfrwt beam="2">  1       -2 0.61495983E-01 0.70101251E+03</pdfrwt>
<totfact> 0.42337538E+01</totfact>
</mgrwt>
</event>
<event>
 4    2  0.3747163E-007  0.7935518E+03  0.7818608E-02  0.9724916E-01
         -2   -1    0    0    0  501 -0.00000000000E+00  0.00000000000E+00  0.40189236460E+03  0.40189236461E+03  0.25500000000E-02 0.  1.
          2   -1    0    0  501    0  0.00000000000E+00 -0.00000000000E+00 -0.99404687596E+03  0.99404687596E+03  0.25500000000E-02 0. -1.
    8880023    1    1    2    0    0 -0.41832717828E+03  0.14462577438E+03 -0.41249609752E+03  0.89435869730E+03  0.65864270000E+03 0.  1.
    8880022    1    1    2    0    0  0.41832717828E+03 -0.14462577438E+03 -0.17965841384E+03  0.50158054327E+03  0.15294330000E+03 0.  0.
<mgrwt>
<rscale>  0 0.69552500E+03</rscale>
<asrwt>0</asrwt>
<pdfrwt beam="1">  1        2 0.15293029E+00 0.79355179E+03</pdfrwt>
<pdfrwt beam="2">  1       -2 0.61829595E-01 0.79355179E+03</pdfrwt>
<totfact> 0.62453323E+01</totfact>
</mgrwt>
</event>
<event>
 4    2  0.3747163E-007  0.6658969E+03  0.7818608E-02  0.1018793E+00
          2   -1    0    0  501    0  0.00000000000E+00  0.00000000000E+00  0.33608893203E+03  0.33608893203E+03  0.25500000000E-02 0. -1.
         -2   -1    0    0    0  501 -0.00000000000E+00 -0.00000000000E+00 -0.54185983313E+03  0.54185983313E+03  0.25500000000E-02 0.  1.
    8880023    1    1    2    0    0  0.84824052793E+02  0.49125857670E+02 -0.11828621474E+03  0.67632115499E+03  0.65864270000E+03 0.  0.
    8880022    1    1    2    0    0 -0.84824052793E+02 -0.49125857670E+02 -0.87484686356E+02  0.20162761018E+03  0.15294330000E+03 0. -1.
<mgrwt>
<rscale>  0 0.48124883E+03</rscale>
<asrwt>0</asrwt>
<pdfrwt beam="1">  1        2 0.51705990E-01 0.66589690E+03</pdfrwt>
<pdfrwt beam="2">  1       -2 0.83363051E-01 0.66589690E+03</pdfrwt>
<totfact> 0.12344478E+02</totfact>
</mgrwt>
</event>
<event>
 4    2  0.3747163E-007  0.6882541E+03  0.7818608E-02  0.1004994E+00
         -2   -1    0    0    0  501 -0.00000000000E+00  0.00000000000E+00  0.17932445780E+03  0.17932445782E+03  0.25500000000E-02 0.  1.
          2   -1    0    0  501    0  0.00000000000E+00 -0.00000000000E+00 -0.36863154343E+04  0.36863154343E+04  0.25500000000E-02 0. -1.
    8880023    1    1    2    0    0  0.14780464948E+03 -0.13430280492E+03 -0.35450402335E+04  0.36112330196E+04  0.65864270000E+03 0.  0.
    8880022    1    1    2    0    0 -0.14780464948E+03  0.13430280492E+03  0.38049257070E+02  0.25440687254E+03  0.15294330000E+03 0.  1.
<mgrwt>
<rscale>  0 0.53513789E+03</rscale>
<asrwt>0</asrwt>
<pdfrwt beam="1">  1        2 0.56712540E+00 0.68825407E+03</pdfrwt>
<pdfrwt beam="2">  1       -2 0.27588381E-01 0.68825407E+03</pdfrwt>
<totfact> 0.78879267E+00</totfact>
</mgrwt>
</event>
<event>
 4    2  0.3747163E-007  0.6898619E+03  0.7818608E-02  0.1004218E+00
          2   -1    0    0  501    0  0.00000000000E+00  0.00000000000E+00  0.11720785399E+04  0.11720785399E+04  0.25500000000E-02 0. -1.
         -2   -1    0    0    0  501 -0.00000000000E+00 -0.00000000000E+00 -0.24241222078E+03  0.24241222079E+03  0.25500000000E-02 0.  1.
    8880023    1    1    2    0    0  0.18735048226E+02 -0.20432372645E+03  0.93080074662E+03  0.11585764642E+04  0.65864270000E+03 0. -1.
    8880022    1    1    2    0    0 -0.18735048226E+02  0.20432372645E+03 -0.11344274798E+01  0.25591429652E+03  0.15294330000E+03 0.  0.
<mgrwt>
<rscale>  0 0.53838652E+03</rscale>
<asrwt>0</asrwt>
<pdfrwt beam="1">  1        2 0.18031977E+00 0.68986187E+03</pdfrwt>
<pdfrwt beam="2">  1       -2 0.37294189E-01 0.68986187E+03</pdfrwt>
<totfact> 0.13585496E+02</totfact>
</mgrwt>
</event>
<event>
 4    2  0.3747163E-007  0.7497624E+03  0.7818608E-02  0.9832371E-01
         -2   -1    0    0    0  501 -0.00000000000E+00  0.00000000000E+00  0.86655215340E+03  0.86655215340E+03  0.25500000000E-02 0.  1.
          2   -1    0    0  501    0  0.00000000000E+00 -0.00000000000E+00 -0.11934335730E+04  0.11934335730E+04  0.25500000000E-02 0. -1.
    8880023    1    1    2    0    0 -0.20336512102E+03 -0.29491701023E+03 -0.10194027838E+04  0.12654349676E+04  0.65864270000E+03 0.  0.
    8880022    1    1    2    0    0  0.20336512102E+03  0.29491701023E+03  0.69252136421E+03  0.79455075878E+03  0.15294330000E+03 0.  1.
<mgrwt>
<rscale>  0 0.63653883E+03</rscale>
<asrwt>0</asrwt>
<pdfrwt beam="1">  1        2 0.18360517E+00 0.74976238E+03</pdfrwt>
<pdfrwt beam="2">  1       -2 0.13331571E+00 0.74976238E+03</pdfrwt>
<totfact> 0.79437096E+00</totfact>
</mgrwt>
</event>
<event>
 4    2  0.3747163E-007  0.7483318E+03  0.7818608E-02  0.9836309E-01
          2   -1    0    0  501    0  0.00000000000E+00  0.00000000000E+00  0.15068338622E+04  0.15068338622E+04  0.25500000000E-02 0. -1.
         -2   -1    0    0    0  501 -0.00000000000E+00 -0.00000000000E+00 -0.23088444977E+03  0.23088444979E+03  0.25500000000E-02 0.  1.
    8880023    1    1    2    0    0 -0.68731328172E+02  0.34852019618E+03  0.10513345426E+04  0.12904669114E+04  0.65864270000E+03 0.  0.
    8880022    1    1    2    0    0  0.68731328172E+02 -0.34852019618E+03  0.22461486989E+03  0.44725140068E+03  0.15294330000E+03 0.  0.
<mgrwt>
<rscale>  0 0.63449846E+03</rscale>
<asrwt>0</asrwt>
<pdfrwt beam="1">  1        2 0.23182061E+00 0.74833183E+03</pdfrwt>
<pdfrwt beam="2">  1       -2 0.35520682E-01 0.74833183E+03</pdfrwt>
<totfact> 0.95446517E+01</totfact>
</mgrwt>
</event>
<event>
 4    2  0.4015201E-007  0.7333800E+03  0.7818608E-02  0.9879668E-01
          2   -1    0    0  501    0  0.00000000000E+00  0.00000000000E+00  0.10562550034E+04  0.10562550034E+04  0.25500000000E-02 0. -1.
         -2   -1    0    0    0  501 -0.00000000000E+00 -0.00000000000E+00 -0.17888419939E+04  0.17888419939E+04  0.25500000000E-02 0.  1.
    8880023    1    1    2    0    0  0.32215716237E+03 -0.15837739864E+02  0.90739748432E+03  0.11667118205E+04  0.65864270000E+03 0. -1.
    8880022    1    1    2    0    0 -0.32215716237E+03  0.15837739864E+02 -0.16399844748E+04  0.16783851769E+04  0.15294330000E+03 0.  0.
<mgrwt>
<rscale>  0 0.61256870E+03</rscale>
<asrwt>0</asrwt>
<pdfrwt beam="1">  1        2 0.16250077E+00 0.73338004E+03</pdfrwt>
<pdfrwt beam="2">  1       -2 0.27520646E+00 0.73338004E+03</pdfrwt>
<totfact> 0.10910225E+00</totfact>
</mgrwt>
</event>
<event>
 4    2  0.3747163E-007  0.7294560E+03  0.7818608E-02  0.9891799E-01
          2   -1    0    0  501    0  0.00000000000E+00  0.00000000000E+00  0.11627121434E+04  0.11627121434E+04  0.25500000000E-02 0. -1.
         -2   -1    0    0    0  501 -0.00000000000E+00 -0.00000000000E+00 -0.38818422884E+03  0.38818422885E+03  0.25500000000E-02 0.  1.
    8880023    1    1    2    0    0 -0.15902926445E+02 -0.31311810180E+03  0.91900947297E+03  0.11733219790E+04  0.65864270000E+03 0.  0.
    8880022    1    1    2    0    0  0.15902926445E+02  0.31311810180E+03 -0.14448155837E+03  0.37757439329E+03  0.15294330000E+03 0.  0.
<mgrwt>
<rscale>  0 0.60660372E+03</rscale>
<asrwt>0</asrwt>
<pdfrwt beam="1">  1        2 0.17887879E+00 0.72945600E+03</pdfrwt>
<pdfrwt beam="2">  1       -2 0.59720651E-01 0.72945600E+03</pdfrwt>
<totfact> 0.53163748E+01</totfact>
</mgrwt>
</event>
<event>
 4    2  0.3747163E-007  0.1196485E+04  0.7818608E-02  0.9160547E-01
         -2   -1    0    0    0  501 -0.00000000000E+00  0.00000000000E+00  0.14989914784E+04  0.14989914784E+04  0.25500000000E-02 0.  1.
          2   -1    0    0  501    0  0.00000000000E+00 -0.00000000000E+00 -0.14954541549E+04  0.14954541549E+04  0.25500000000E-02 0. -1.
    8880023    1    1    2    0    0 -0.79582192999E+03 -0.60368246245E+03 -0.10081032702E+04  0.15645598324E+04  0.65864270000E+03 0.  1.
    8880022    1    1    2    0    0  0.79582192999E+03  0.60368246245E+03  0.10116405937E+04  0.14298858008E+04  0.15294330000E+03 0.  0.
<mgrwt>
<rscale>  0 0.11470091E+04</rscale>
<asrwt>0</asrwt>
<pdfrwt beam="1">  1        2 0.23006987E+00 0.11964845E+04</pdfrwt>
<pdfrwt beam="2">  1       -2 0.23061407E+00 0.11964845E+04</pdfrwt>
<totfact> 0.10508621E+00</totfact>
</mgrwt>
</event>
<event>
 4    2  0.3747163E-007  0.9055711E+03  0.7818608E-02  0.9517147E-01
         -2   -1    0    0    0  501 -0.00000000000E+00  0.00000000000E+00  0.36619670498E+03  0.36619670498E+03  0.25500000000E-02 0.  1.
          2   -1    0    0  501    0  0.00000000000E+00 -0.00000000000E+00 -0.33879787572E+04  0.33879787572E+04  0.25500000000E-02 0. -1.
    8880023    1    1    2    0    0 -0.58649617231E+03  0.20559932102E+03 -0.29780063495E+04  0.31126485289E+04  0.65864270000E+03 0.  0.
    8880022    1    1    2    0    0  0.58649617231E+03 -0.20559932102E+03 -0.43775702768E+02  0.64152693326E+03  0.15294330000E+03 0.  0.
<mgrwt>
<rscale>  0 0.83031385E+03</rscale>
<asrwt>0</asrwt>
<pdfrwt beam="1">  1        2 0.52122748E+00 0.90557112E+03</pdfrwt>
<pdfrwt beam="2">  1       -2 0.56337957E-01 0.90557112E+03</pdfrwt>
<totfact> 0.30157961E+00</totfact>
</mgrwt>
</event>
<event>
 4    2  0.3747163E-007  0.7227853E+03  0.7818608E-02  0.9913272E-01
         -2   -1    0    0    0  501 -0.00000000000E+00  0.00000000000E+00  0.62981298082E+03  0.62981298082E+03  0.25500000000E-02 0.  1.
          2   -1    0    0  501    0  0.00000000000E+00 -0.00000000000E+00 -0.87676420029E+03  0.87676420029E+03  0.25500000000E-02 0. -1.
    8880023    1    1    2    0    0  0.24594001579E+03  0.16769590089E+03 -0.65736663703E+03  0.97701049548E+03  0.65864270000E+03 0. -1.
    8880022    1    1    2    0    0 -0.24594001579E+03 -0.16769590089E+03  0.41041541756E+03  0.52956668563E+03  0.15294330000E+03 0.  0.
<mgrwt>
<rscale>  0 0.59622375E+03</rscale>
<asrwt>0</asrwt>
<pdfrwt beam="1">  1        2 0.13488680E+00 0.72278532E+03</pdfrwt>
<pdfrwt beam="2">  1       -2 0.96894305E-01 0.72278532E+03</pdfrwt>
<totfact> 0.27537186E+01</totfact>
</mgrwt>
</event>
<event>
 4    2  0.3747163E-007  0.1101783E+04  0.7818608E-02  0.9259073E-01
          2   -1    0    0  501    0  0.00000000000E+00  0.00000000000E+00  0.36514492299E+04  0.36514492299E+04  0.25500000000E-02 0. -1.
         -2   -1    0    0    0  501 -0.00000000000E+00 -0.00000000000E+00 -0.10802097724E+04  0.10802097724E+04  0.25500000000E-02 0.  1.
    8880023    1    1    2    0    0  0.80665013433E+03 -0.35976657225E+03 -0.72287994087E+03  0.13177564422E+04  0.65864270000E+03 0.  0.
    8880022    1    1    2    0    0 -0.80665013433E+03  0.35976657225E+03  0.32941193984E+04  0.34139025601E+04  0.15294330000E+03 0. -1.
<mgrwt>
<rscale>  0 0.10463957E+04</rscale>
<asrwt>0</asrwt>
<pdfrwt beam="1">  1        2 0.56176143E+00 0.11017834E+04</pdfrwt>
<pdfrwt beam="2">  1       -2 0.16618612E+00 0.11017834E+04</pdfrwt>
<totfact> 0.14596822E-01</totfact>
</mgrwt>
</event>
<event>
 4    2  0.3747163E-007  0.1142368E+04  0.7818608E-02  0.9215288E-01
          2   -1    0    0  501    0  0.00000000000E+00  0.00000000000E+00  0.13716569082E+04  0.13716569082E+04  0.25500000000E-02 0. -1.
         -2   -1    0    0    0  501 -0.00000000000E+00 -0.00000000000E+00 -0.10536841011E+04  0.10536841011E+04  0.25500000000E-02 0.  1.
    8880023    1    1    2    0    0 -0.48898320571E+03 -0.79504122411E+03  0.76939835163E+03  0.13773086630E+04  0.65864270000E+03 0.  0.
    8880022    1    1    2    0    0  0.48898320571E+03  0.79504122411E+03 -0.45142554454E+03  0.10480323462E+04  0.15294330000E+03 0.  0.
<mgrwt>
<rscale>  0 0.10897012E+04</rscale>
<asrwt>0</asrwt>
<pdfrwt beam="1">  1        2 0.21102414E+00 0.11423683E+04</pdfrwt>
<pdfrwt beam="2">  1       -2 0.16210525E+00 0.11423683E+04</pdfrwt>
<totfact> 0.35672027E+00</totfact>
</mgrwt>
</event>
<event>
 4    2  0.3747163E-007  0.8176711E+03  0.7818608E-02  0.9673814E-01
          2   -1    0    0  501    0  0.00000000000E+00  0.00000000000E+00  0.14432114733E+04  0.14432114733E+04  0.25500000000E-02 0. -1.
         -2   -1    0    0    0  501 -0.00000000000E+00 -0.00000000000E+00 -0.31731648054E+03  0.31731648055E+03  0.25500000000E-02 0.  1.
    8880023    1    1    2    0    0  0.44532262789E+03  0.19095436237E+03  0.51667253497E+03  0.96723137153E+03  0.65864270000E+03 0.  0.
    8880022    1    1    2    0    0 -0.44532262789E+03 -0.19095436237E+03  0.60922245779E+03  0.79329658231E+03  0.15294330000E+03 0.  0.
<mgrwt>
<rscale>  0 0.72597501E+03</rscale>
<asrwt>0</asrwt>
<pdfrwt beam="1">  1        2 0.22203254E+00 0.81767109E+03</pdfrwt>
<pdfrwt beam="2">  1       -2 0.48817920E-01 0.81767109E+03</pdfrwt>
<totfact> 0.55075151E+01</totfact>
</mgrwt>
</event>
<event>
 4    2  0.3747163E-007  0.8581871E+03  0.7818608E-02  0.9596796E-01
          2   -1    0    0  501    0  0.00000000000E+00  0.00000000000E+00  0.19719643624E+04  0.19719643624E+04  0.25500000000E-02 0. -1.
         -2   -1    0    0    0  501 -0.00000000000E+00 -0.00000000000E+00 -0.42378080777E+03  0.42378080778E+03  0.25500000000E-02 0.  1.
    8880023    1    1    2    0    0  0.51750710475E+03  0.18671196766E+03  0.16069059495E+04  0.18217112557E+04  0.65864270000E+03 0. -1.
    8880022    1    1    2    0    0 -0.51750710475E+03 -0.18671196766E+03 -0.58722394835E+02  0.57403391451E+03  0.15294330000E+03 0.  0.
<mgrwt>
<rscale>  0 0.77508582E+03</rscale>
<asrwt>0</asrwt>
<pdfrwt beam="1">  1        2 0.30337913E+00 0.85818714E+03</pdfrwt>
<pdfrwt beam="2">  1       -2 0.65197048E-01 0.85818714E+03</pdfrwt>
<totfact> 0.15310777E+01</totfact>
</mgrwt>
</event>
<event>
 4    2  0.3747163E-007  0.7944399E+03  0.7818608E-02  0.9722950E-01
         -2   -1    0    0    0  501 -0.00000000000E+00  0.00000000000E+00  0.61863349386E+03  0.61863349387E+03  0.25500000000E-02 0.  1.
          2   -1    0    0  501    0  0.00000000000E+00 -0.00000000000E+00 -0.12730034446E+04  0.12730034446E+04  0.25500000000E-02 0. -1.
    8880023    1    1    2    0    0  0.34244794917E+03  0.28293816460E+03 -0.10224503024E+04  0.12948125077E+04  0.65864270000E+03 0. -1.
    8880022    1    1    2    0    0 -0.34244794917E+03 -0.28293816460E+03  0.36808035168E+03  0.59682443078E+03  0.15294330000E+03 0.  0.
<mgrwt>
<rscale>  0 0.69666676E+03</rscale>
<asrwt>0</asrwt>
<pdfrwt beam="1">  1        2 0.19584668E+00 0.79443993E+03</pdfrwt>
<pdfrwt beam="2">  1       -2 0.95174384E-01 0.79443993E+03</pdfrwt>
<totfact> 0.16151975E+01</totfact>
</mgrwt>
</event>
<event>
 4    2  0.3747163E-007  0.7421480E+03  0.7818608E-02  0.9853734E-01
          2   -1    0    0  501    0  0.00000000000E+00  0.00000000000E+00  0.49110789294E+03  0.49110789295E+03  0.25500000000E-02 0. -1.
         -2   -1    0    0    0  501 -0.00000000000E+00 -0.00000000000E+00 -0.77318182761E+03  0.77318182761E+03  0.25500000000E-02 0.  1.
    8880023    1    1    2    0    0  0.33017347021E+03  0.89213159596E+02  0.76014311721E+02  0.74603075682E+03  0.65864270000E+03 0. -1.
    8880022    1    1    2    0    0 -0.33017347021E+03 -0.89213159596E+02 -0.35808824639E+03  0.51825896373E+03  0.15294330000E+03 0.  0.
<mgrwt>
<rscale>  0 0.62556915E+03</rscale>
<asrwt>0</asrwt>
<pdfrwt beam="1">  1        2 0.75555060E-01 0.74214804E+03</pdfrwt>
<pdfrwt beam="2">  1       -2 0.11895105E+00 0.74214804E+03</pdfrwt>
<totfact> 0.34556995E+01</totfact>
</mgrwt>
</event>
<event>
 4    2  0.3747163E-007  0.7656481E+03  0.7818608E-02  0.9790699E-01
         -2   -1    0    0    0  501 -0.00000000000E+00  0.00000000000E+00  0.34504975573E+03  0.34504975574E+03  0.25500000000E-02 0.  1.
          2   -1    0    0  501    0  0.00000000000E+00 -0.00000000000E+00 -0.16211624134E+04  0.16211624134E+04  0.25500000000E-02 0. -1.
    8880023    1    1    2    0    0 -0.32504787803E+03  0.21621915111E+03 -0.13387967325E+04  0.15422690237E+04  0.65864270000E+03 0.  1.
    8880022    1    1    2    0    0  0.32504787803E+03 -0.21621915111E+03  0.62684074816E+02  0.42394314544E+03  0.15294330000E+03 0.  0.
<mgrwt>
<rscale>  0 0.65864108E+03</rscale>
<asrwt>0</asrwt>
<pdfrwt beam="1">  1        2 0.24940960E+00 0.76564812E+03</pdfrwt>
<pdfrwt beam="2">  1       -2 0.53084579E-01 0.76564812E+03</pdfrwt>
<totfact> 0.37143792E+01</totfact>
</mgrwt>
</event>
<event>
 4    2  0.3747163E-007  0.7366664E+03  0.7818608E-02  0.9869766E-01
         -2   -1    0    0    0  501 -0.00000000000E+00  0.00000000000E+00  0.28377139553E+03  0.28377139554E+03  0.25500000000E-02 0.  1.
          2   -1    0    0  501    0  0.00000000000E+00 -0.00000000000E+00 -0.19273035491E+04  0.19273035491E+04  0.25500000000E-02 0. -1.
    8880023    1    1    2    0    0 -0.25017209666E+03 -0.21513033064E+03 -0.16908299430E+04  0.18443381576E+04  0.65864270000E+03 0. -1.
    8880022    1    1    2    0    0  0.25017209666E+03  0.21513033064E+03  0.47297789405E+02  0.36673678709E+03  0.15294330000E+03 0.  1.
<mgrwt>
<rscale>  0 0.61749181E+03</rscale>
<asrwt>0</asrwt>
<pdfrwt beam="1">  1        2 0.29650823E+00 0.73666637E+03</pdfrwt>
<pdfrwt beam="2">  1       -2 0.43657139E-01 0.73666637E+03</pdfrwt>
<totfact> 0.37643193E+01</totfact>
</mgrwt>
</event>
<event>
 4    2  0.3747163E-007  0.7425263E+03  0.7818608E-02  0.9852648E-01
         -2   -1    0    0    0  501 -0.00000000000E+00  0.00000000000E+00  0.70598614518E+03  0.70598614519E+03  0.25500000000E-02 0.  1.
          2   -1    0    0  501    0  0.00000000000E+00 -0.00000000000E+00 -0.79504224791E+03  0.79504224791E+03  0.25500000000E-02 0. -1.
    8880023    1    1    2    0    0 -0.34026176895E+03 -0.41916247025E+02 -0.53716289756E+03  0.91645470589E+03  0.65864270000E+03 0.  1.
    8880022    1    1    2    0    0  0.34026176895E+03  0.41916247025E+02  0.44810679484E+03  0.58457368720E+03  0.15294330000E+03 0.  0.
<mgrwt>
<rscale>  0 0.62612064E+03</rscale>
<asrwt>0</asrwt>
<pdfrwt beam="1">  1        2 0.12231419E+00 0.74252626E+03</pdfrwt>
<pdfrwt beam="2">  1       -2 0.10861325E+00 0.74252626E+03</pdfrwt>
<totfact> 0.23886302E+01</totfact>
</mgrwt>
</event>
<event>
 4    2  0.3747163E-007  0.1108947E+04  0.7818608E-02  0.9251159E-01
          2   -1    0    0  501    0  0.00000000000E+00  0.00000000000E+00  0.24311137396E+04  0.24311137396E+04  0.25500000000E-02 0. -1.
         -2   -1    0    0    0  501 -0.00000000000E+00 -0.00000000000E+00 -0.45996556161E+03  0.45996556162E+03  0.25500000000E-02 0.  1.
    8880023    1    1    2    0    0 -0.58088858205E+03  0.67714270159E+03  0.15149111481E+04  0.18774237071E+04  0.65864270000E+03 0.  1.
    8880022    1    1    2    0    0  0.58088858205E+03 -0.67714270159E+03  0.45623702993E+03  0.10136555942E+04  0.15294330000E+03 0.  0.
<mgrwt>
<rscale>  0 0.10540629E+04</rscale>
<asrwt>0</asrwt>
<pdfrwt beam="1">  1        2 0.37401749E+00 0.11089472E+04</pdfrwt>
<pdfrwt beam="2">  1       -2 0.70763934E-01 0.11089472E+04</pdfrwt>
<totfact> 0.69028209E+00</totfact>
</mgrwt>
</event>
<event>
 4    2  0.3747163E-007  0.7278975E+03  0.7818608E-02  0.9896717E-01
         -2   -1    0    0    0  501 -0.00000000000E+00  0.00000000000E+00  0.79916392989E+03  0.79916392990E+03  0.25500000000E-02 0.  1.
          2   -1    0    0  501    0  0.00000000000E+00 -0.00000000000E+00 -0.11354507623E+04  0.11354507623E+04  0.25500000000E-02 0. -1.
    8880023    1    1    2    0    0  0.84185162485E+02  0.29822376869E+03 -0.97003987696E+03  0.12127704346E+04  0.65864270000E+03 0. -1.
    8880022    1    1    2    0    0 -0.84185162485E+02 -0.29822376869E+03  0.63375304455E+03  0.72184425764E+03  0.15294330000E+03 0.  0.
<mgrwt>
<rscale>  0 0.60420676E+03</rscale>
<asrwt>0</asrwt>
<pdfrwt beam="1">  1        2 0.17468473E+00 0.72789750E+03</pdfrwt>
<pdfrwt beam="2">  1       -2 0.12294830E+00 0.72789750E+03</pdfrwt>
<totfact> 0.10581046E+01</totfact>
</mgrwt>
</event>
<event>
 4    2  0.3747163E-007  0.1157486E+04  0.7818608E-02  0.9199599E-01
          2   -1    0    0  501    0  0.00000000000E+00  0.00000000000E+00  0.14014948818E+04  0.14014948818E+04  0.25500000000E-02 0. -1.
         -2   -1    0    0    0  501 -0.00000000000E+00 -0.00000000000E+00 -0.10202837038E+04  0.10202837038E+04  0.25500000000E-02 0.  1.
    8880023    1    1    2    0    0 -0.22604495572E+03  0.92459091641E+03  0.76142751534E+03  0.13854770847E+04  0.65864270000E+03 0.  0.
    8880022    1    1    2    0    0  0.22604495572E+03 -0.92459091641E+03 -0.38021633731E+03  0.10363015010E+04  0.15294330000E+03 0.  0.
<mgrwt>
<rscale>  0 0.11057571E+04</rscale>
<asrwt>0</asrwt>
<pdfrwt beam="1">  1        2 0.21561460E+00 0.11574865E+04</pdfrwt>
<pdfrwt beam="2">  1       -2 0.15696672E+00 0.11574865E+04</pdfrwt>
<totfact> 0.37388161E+00</totfact>
</mgrwt>
</event>
<event>
 4    2  0.3747163E-007  0.7957102E+03  0.7818608E-02  0.9720149E-01
         -2   -1    0    0    0  501 -0.00000000000E+00  0.00000000000E+00  0.53713274228E+03  0.53713274228E+03  0.25500000000E-02 0.  1.
          2   -1    0    0  501    0  0.00000000000E+00 -0.00000000000E+00 -0.13260186344E+04  0.13260186344E+04  0.25500000000E-02 0. -1.
    8880023    1    1    2    0    0 -0.31679763021E+03  0.31461683541E+03 -0.10549342833E+04  0.13213784620E+04  0.65864270000E+03 0. -1.
    8880022    1    1    2    0    0  0.31679763021E+03 -0.31461683541E+03  0.26604839113E+03  0.54177291467E+03  0.15294330000E+03 0.  0.
<mgrwt>
<rscale>  0 0.69829676E+03</rscale>
<asrwt>0</asrwt>
<pdfrwt beam="1">  1        2 0.20400287E+00 0.79571018E+03</pdfrwt>
<pdfrwt beam="2">  1       -2 0.82635807E-01 0.79571018E+03</pdfrwt>
<totfact> 0.20832811E+01</totfact>
</mgrwt>
</event>
<event>
 4    2  0.3747163E-007  0.7077707E+03  0.7818608E-02  0.9966374E-01
          2   -1    0    0  501    0  0.00000000000E+00  0.00000000000E+00  0.36111259861E+03  0.36111259862E+03  0.25500000000E-02 0. -1.
         -2   -1    0    0    0  501 -0.00000000000E+00 -0.00000000000E+00 -0.90246802253E+03  0.90246802254E+03  0.25500000000E-02 0.  1.
    8880023    1    1    2    0    0 -0.25905809467E+03 -0.42444508777E+01 -0.79293250334E+02  0.71219852400E+03  0.65864270000E+03 0.  0.
    8880022    1    1    2    0    0  0.25905809467E+03  0.42444508777E+01 -0.46206217359E+03  0.55138209715E+03  0.15294330000E+03 0.  0.
<mgrwt>
<rscale>  0 0.57149567E+03</rscale>
<asrwt>0</asrwt>
<pdfrwt beam="1">  1        2 0.55555785E-01 0.70777067E+03</pdfrwt>
<pdfrwt beam="2">  1       -2 0.13884123E+00 0.70777067E+03</pdfrwt>
<totfact> 0.33232291E+01</totfact>
</mgrwt>
</event>
<event>
 4    2  0.3747163E-007  0.1210160E+04  0.7818608E-02  0.9147309E-01
         -2   -1    0    0    0  501 -0.00000000000E+00  0.00000000000E+00  0.89252517690E+03  0.89252517691E+03  0.25500000000E-02 0.  1.
          2   -1    0    0  501    0  0.00000000000E+00 -0.00000000000E+00 -0.19653525253E+04  0.19653525253E+04  0.25500000000E-02 0. -1.
    8880023    1    1    2    0    0  0.71926244008E+03  0.71647619340E+03  0.19575949149E+03  0.12258909324E+04  0.65864270000E+03 0.  0.
    8880022    1    1    2    0    0 -0.71926244008E+03 -0.71647619340E+03 -0.12685868399E+04  0.16319867698E+04  0.15294330000E+03 0.  0.
<mgrwt>
<rscale>  0 0.11614236E+04</rscale>
<asrwt>0</asrwt>
<pdfrwt beam="1">  1        2 0.30236193E+00 0.12101598E+04</pdfrwt>
<pdfrwt beam="2">  1       -2 0.13731157E+00 0.12101598E+04</pdfrwt>
<totfact> 0.25671505E+00</totfact>
</mgrwt>
</event>
<event>
 4    2  0.3747163E-007  0.7394590E+03  0.7818608E-02  0.9861526E-01
          2   -1    0    0  501    0  0.00000000000E+00  0.00000000000E+00  0.18467016566E+04  0.18467016566E+04  0.25500000000E-02 0. -1.
         -2   -1    0    0    0  501 -0.00000000000E+00 -0.00000000000E+00 -0.43244638801E+03  0.43244638802E+03  0.25500000000E-02 0.  1.
    8880023    1    1    2    0    0  0.11650787293E+03  0.31530203602E+03  0.16723907917E+04  0.18285761195E+04  0.65864270000E+03 0. -1.
    8880022    1    1    2    0    0 -0.11650787293E+03 -0.31530203602E+03 -0.25813552312E+03  0.45057192510E+03  0.15294330000E+03 0.  0.
<mgrwt>
<rscale>  0 0.62162700E+03</rscale>
<asrwt>0</asrwt>
<pdfrwt beam="1">  1        2 0.28410795E+00 0.73945904E+03</pdfrwt>
<pdfrwt beam="2">  1       -2 0.66530214E-01 0.73945904E+03</pdfrwt>
<totfact> 0.17426085E+01</totfact>
</mgrwt>
</event>
<event>
 4    2  0.3747163E-007  0.6700301E+03  0.7818608E-02  0.1015641E+00
          2   -1    0    0  501    0  0.00000000000E+00  0.00000000000E+00  0.41256670510E+03  0.41256670511E+03  0.25500000000E-02 0. -1.
         -2   -1    0    0    0  501 -0.00000000000E+00 -0.00000000000E+00 -0.72421457464E+03  0.72421457464E+03  0.25500000000E-02 0.  1.
    8880023    1    1    2    0    0 -0.10882751736E+03 -0.57329519552E+02  0.10312055426E+03  0.67791899023E+03  0.65864270000E+03 0. -1.
    8880022    1    1    2    0    0  0.10882751736E+03  0.57329519552E+02 -0.41476842380E+03  0.45886228952E+03  0.15294330000E+03 0.  0.
<mgrwt>
<rscale>  0 0.49292856E+03</rscale>
<asrwt>0</asrwt>
<pdfrwt beam="1">  1        2 0.63471801E-01 0.67003008E+03</pdfrwt>
<pdfrwt beam="2">  1       -2 0.11141763E+00 0.67003008E+03</pdfrwt>
<totfact> 0.49720629E+01</totfact>
</mgrwt>
</event>
<event>
 4    2  0.5195355E-007  0.8053676E+03  0.7818608E-02  0.9699308E-01
         -2   -1    0    0    0  501 -0.00000000000E+00  0.00000000000E+00  0.11389159674E+04  0.11389159674E+04  0.25500000000E-02 0.  1.
          2   -1    0    0  501    0  0.00000000000E+00 -0.00000000000E+00 -0.20959147680E+04  0.20959147680E+04  0.25500000000E-02 0. -1.
    8880023    1    1    2    0    0  0.20546643784E+03 -0.41543988638E+03 -0.19602061182E+04  0.21192038572E+04  0.65864270000E+03 0. -1.
    8880022    1    1    2    0    0 -0.20546643784E+03  0.41543988638E+03  0.10032073176E+04  0.11156268782E+04  0.15294330000E+03 0.  0.
<mgrwt>
<rscale>  0 0.71057998E+03</rscale>
<asrwt>0</asrwt>
<pdfrwt beam="1">  1        2 0.32244843E+00 0.80536759E+03</pdfrwt>
<pdfrwt beam="2">  1       -2 0.17521784E+00 0.80536759E+03</pdfrwt>
<totfact> 0.11932821E+00</totfact>
</mgrwt>
</event>
<event>
 4    2  0.3747163E-007  0.6754125E+03  0.7818608E-02  0.1012047E+00
         -2   -1    0    0    0  501 -0.00000000000E+00  0.00000000000E+00  0.14735446012E+03  0.14735446015E+03  0.25500000000E-02 0.  1.
          2   -1    0    0  501    0  0.00000000000E+00 -0.00000000000E+00 -0.18537799760E+04  0.18537799760E+04  0.25500000000E-02 0. -1.
    8880023    1    1    2    0    0  0.28791688767E+02  0.14677508699E+03 -0.16454716348E+04  0.17786958690E+04  0.65864270000E+03 0. -1.
    8880022    1    1    2    0    0 -0.28791688767E+02 -0.14677508699E+03 -0.60953881136E+02  0.22243856712E+03  0.15294330000E+03 0.  0.
<mgrwt>
<rscale>  0 0.50668937E+03</rscale>
<asrwt>0</asrwt>
<pdfrwt beam="1">  1        2 0.28519690E+00 0.67541254E+03</pdfrwt>
<pdfrwt beam="2">  1       -2 0.22669918E-01 0.67541254E+03</pdfrwt>
<totfact> 0.14175725E+02</totfact>
</mgrwt>
</event>
<event>
 4    2  0.3747163E-007  0.7662047E+03  0.7818608E-02  0.9789301E-01
          2   -1    0    0  501    0  0.00000000000E+00  0.00000000000E+00  0.16286931213E+04  0.16286931213E+04  0.25500000000E-02 0. -1.
         -2   -1    0    0    0  501 -0.00000000000E+00 -0.00000000000E+00 -0.70419916401E+03  0.70419916401E+03  0.25500000000E-02 0.  1.
    8880023    1    1    2    0    0 -0.35207264688E+03  0.17118485523E+03  0.14619760105E+04  0.16505888237E+04  0.65864270000E+03 0. -1.
    8880022    1    1    2    0    0  0.35207264688E+03 -0.17118485523E+03 -0.53748205315E+03  0.68230346168E+03  0.15294330000E+03 0.  0.
<mgrwt>
<rscale>  0 0.65939877E+03</rscale>
<asrwt>0</asrwt>
<pdfrwt beam="1">  1        2 0.25056817E+00 0.76620468E+03</pdfrwt>
<pdfrwt beam="2">  1       -2 0.10833833E+00 0.76620468E+03</pdfrwt>
<totfact> 0.75097023E+00</totfact>
</mgrwt>
</event>
<event>
 4    2  0.3747163E-007  0.7796671E+03  0.7818608E-02  0.9756620E-01
          2   -1    0    0  501    0  0.00000000000E+00  0.00000000000E+00  0.17835393706E+04  0.17835393706E+04  0.25500000000E-02 0. -1.
         -2   -1    0    0    0  501 -0.00000000000E+00 -0.00000000000E+00 -0.28821833625E+03  0.28821833626E+03  0.25500000000E-02 0.  1.
    8880023    1    1    2    0    0 -0.27721456877E+03  0.31180540716E+03  0.14215312366E+04  0.16213055825E+04  0.65864270000E+03 0. -1.
    8880022    1    1    2    0    0  0.27721456877E+03 -0.31180540716E+03  0.73789797784E+02  0.45045212436E+03  0.15294330000E+03 0.  0.
<mgrwt>
<rscale>  0 0.67743461E+03</rscale>
<asrwt>0</asrwt>
<pdfrwt beam="1">  1        2 0.27439067E+00 0.77966707E+03</pdfrwt>
<pdfrwt beam="2">  1       -2 0.44341282E-01 0.77966707E+03</pdfrwt>
<totfact> 0.43497186E+01</totfact>
</mgrwt>
</event>
<event>
 4    2  0.3747163E-007  0.9700827E+03  0.7818608E-02  0.9421790E-01
          2   -1    0    0  501    0  0.00000000000E+00  0.00000000000E+00  0.31275062788E+04  0.31275062788E+04  0.25500000000E-02 0. -1.
         -2   -1    0    0    0  501 -0.00000000000E+00 -0.00000000000E+00 -0.23742977219E+03  0.23742977220E+03  0.25500000000E-02 0.  1.
    8880023    1    1    2    0    0  0.26453597749E+03 -0.66126459441E+03  0.13625162823E+04  0.16725761487E+04  0.65864270000E+03 0.  0.
    8880022    1    1    2    0    0 -0.26453597749E+03  0.66126459441E+03  0.15275602243E+04  0.16923599024E+04  0.15294330000E+03 0.  0.
<mgrwt>
<rscale>  0 0.90303948E+03</rscale>
<asrwt>0</asrwt>
<pdfrwt beam="1">  1        2 0.48115477E+00 0.97008265E+03</pdfrwt>
<pdfrwt beam="2">  1       -2 0.36527660E-01 0.97008265E+03</pdfrwt>
<totfact> 0.10505604E+01</totfact>
</mgrwt>
</event>
<event>
 4    2  0.3747163E-007  0.7707352E+03  0.7818608E-02  0.9778068E-01
          2   -1    0    0  501    0  0.00000000000E+00  0.00000000000E+00  0.70550177477E+03  0.70550177478E+03  0.25500000000E-02 0. -1.
         -2   -1    0    0    0  501 -0.00000000000E+00 -0.00000000000E+00 -0.12589587697E+04  0.12589587697E+04  0.25500000000E-02 0.  1.
    8880023    1    1    2    0    0  0.40013360154E+03  0.10757268010E+02  0.43649102477E+03  0.88575235752E+03  0.65864270000E+03 0.  0.
    8880022    1    1    2    0    0 -0.40013360154E+03 -0.10757268010E+02 -0.98994801971E+03  0.10787081870E+04  0.15294330000E+03 0.  0.
<mgrwt>
<rscale>  0 0.66552936E+03</rscale>
<asrwt>0</asrwt>
<pdfrwt beam="1">  1        2 0.10853873E+00 0.77073525E+03</pdfrwt>
<pdfrwt beam="2">  1       -2 0.19368596E+00 0.77073525E+03</pdfrwt>
<totfact> 0.60445070E+00</totfact>
</mgrwt>
</event>
<event>
 4    2  0.3883246E-007  0.8655800E+03  0.7818608E-02  0.9583714E-01
          2   -1    0    0  501    0  0.00000000000E+00  0.00000000000E+00  0.16245077875E+04  0.16245077875E+04  0.25500000000E-02 0. -1.
         -2   -1    0    0    0  501 -0.00000000000E+00 -0.00000000000E+00 -0.12398788602E+04  0.12398788602E+04  0.25500000000E-02 0.  1.
    8880023    1    1    2    0    0 -0.28895700602E+03  0.48158312209E+03  0.14278728108E+04  0.16697453173E+04  0.65864270000E+03 0.  0.
    8880022    1    1    2    0    0  0.28895700602E+03 -0.48158312209E+03 -0.10432438834E+04  0.11946413303E+04  0.15294330000E+03 0.  0.
<mgrwt>
<rscale>  0 0.78383552E+03</rscale>
<asrwt>0</asrwt>
<pdfrwt beam="1">  1        2 0.24992428E+00 0.86557996E+03</pdfrwt>
<pdfrwt beam="2">  1       -2 0.19075059E+00 0.86557996E+03</pdfrwt>
<totfact> 0.16779758E+00</totfact>
</mgrwt>
</event>
<event>
 4    2  0.3747163E-007  0.6911755E+03  0.7818608E-02  0.1003599E+00
         -2   -1    0    0    0  501 -0.00000000000E+00  0.00000000000E+00  0.66074838677E+02  0.66074838726E+02  0.25500000000E-02 0.  1.
          2   -1    0    0  501    0  0.00000000000E+00 -0.00000000000E+00 -0.44179600172E+04  0.44179600172E+04  0.25500000000E-02 0. -1.
    8880023    1    1    2    0    0 -0.45352135518E+02  0.20458881480E+03 -0.39180465168E+04  0.39785439690E+04  0.65864270000E+03 0. -1.
    8880022    1    1    2    0    0  0.45352135518E+02 -0.20458881480E+03 -0.43383866178E+03  0.50549088697E+03  0.15294330000E+03 0.  0.
<mgrwt>
<rscale>  0 0.54099995E+03</rscale>
<asrwt>0</asrwt>
<pdfrwt beam="1">  1        2 0.67968592E+00 0.69117552E+03</pdfrwt>
<pdfrwt beam="2">  1       -2 0.10165363E-01 0.69117552E+03</pdfrwt>
<totfact> 0.11251173E+01</totfact>
</mgrwt>
</event>
<event>
 4    2  0.3747163E-007  0.6852693E+03  0.7818608E-02  0.1006487E+00
         -2   -1    0    0    0  501 -0.00000000000E+00  0.00000000000E+00  0.26895587763E+03  0.26895587764E+03  0.25500000000E-02 0.  1.
          2   -1    0    0  501    0  0.00000000000E+00 -0.00000000000E+00 -0.13470366764E+04  0.13470366764E+04  0.25500000000E-02 0. -1.
    8880023    1    1    2    0    0  0.10457646164E+03  0.15763102861E+03 -0.11700284033E+04  0.13559352670E+04  0.65864270000E+03 0. -1.
    8880022    1    1    2    0    0 -0.10457646164E+03 -0.15763102861E+03  0.91947604588E+02  0.26005728698E+03  0.15294330000E+03 0.  0.
<mgrwt>
<rscale>  0 0.52894879E+03</rscale>
<asrwt>0</asrwt>
<pdfrwt beam="1">  1        2 0.20723641E+00 0.68526928E+03</pdfrwt>
<pdfrwt beam="2">  1       -2 0.41377828E-01 0.68526928E+03</pdfrwt>
<totfact> 0.87897178E+01</totfact>
</mgrwt>
</event>
<event>
 4    2  0.3747163E-007  0.9925892E+03  0.7818608E-02  0.9391318E-01
          2   -1    0    0  501    0  0.00000000000E+00  0.00000000000E+00  0.22182045092E+04  0.22182045092E+04  0.25500000000E-02 0. -1.
         -2   -1    0    0    0  501 -0.00000000000E+00 -0.00000000000E+00 -0.53162713981E+03  0.53162713982E+03  0.25500000000E-02 0.  1.
    8880023    1    1    2    0    0  0.22080035387E+03  0.70899253376E+03  0.10777506946E+03  0.99842319738E+03  0.65864270000E+03 0.  0.
    8880022    1    1    2    0    0 -0.22080035387E+03 -0.70899253376E+03  0.15788022999E+04  0.17514084516E+04  0.15294330000E+03 0.  0.
<mgrwt>
<rscale>  0 0.92793632E+03</rscale>
<asrwt>0</asrwt>
<pdfrwt beam="1">  1        2 0.34126224E+00 0.99258925E+03</pdfrwt>
<pdfrwt beam="2">  1       -2 0.81788788E-01 0.99258925E+03</pdfrwt>
<totfact> 0.66724506E+00</totfact>
</mgrwt>
</event>
<event>
 4    2  0.3747163E-007  0.7265225E+03  0.7818608E-02  0.9901104E-01
         -2   -1    0    0    0  501 -0.00000000000E+00  0.00000000000E+00  0.19292517085E+03  0.19292517086E+03  0.25500000000E-02 0.  1.
          2   -1    0    0  501    0  0.00000000000E+00 -0.00000000000E+00 -0.17820453553E+04  0.17820453553E+04  0.25500000000E-02 0. -1.
    8880023    1    1    2    0    0  0.30170409574E+03  0.54767104172E+02 -0.14149819224E+04  0.15906001522E+04  0.65864270000E+03 0. -1.
    8880022    1    1    2    0    0 -0.30170409574E+03 -0.54767104172E+02 -0.17413826207E+03  0.38437037401E+03  0.15294330000E+03 0.  0.
<mgrwt>
<rscale>  0 0.60207825E+03</rscale>
<asrwt>0</asrwt>
<pdfrwt beam="1">  1        2 0.27416081E+00 0.72652254E+03</pdfrwt>
<pdfrwt beam="2">  1       -2 0.29680797E-01 0.72652254E+03</pdfrwt>
<totfact> 0.94646437E+01</totfact>
</mgrwt>
</event>
<event>
 4    2  0.3747163E-007  0.7458871E+03  0.7818608E-02  0.9843119E-01
          2   -1    0    0  501    0  0.00000000000E+00  0.00000000000E+00  0.27967470434E+04  0.27967470434E+04  0.25500000000E-02 0. -1.
         -2   -1    0    0    0  501 -0.00000000000E+00 -0.00000000000E+00 -0.22142959312E+03  0.22142959314E+03  0.25500000000E-02 0.  1.
    8880023    1    1    2    0    0 -0.29324783420E+03  0.19116240464E+03  0.25250078517E+04  0.26328714771E+04  0.65864270000E+03 0.  0.
    8880022    1    1    2    0    0  0.29324783420E+03 -0.19116240464E+03  0.50309598576E+02  0.38530515950E+03  0.15294330000E+03 0.  0.
<mgrwt>
<rscale>  0 0.63099007E+03</rscale>
<asrwt>0</asrwt>
<pdfrwt beam="1">  1        2 0.43026879E+00 0.74588710E+03</pdfrwt>
<pdfrwt beam="2">  1       -2 0.34066090E-01 0.74588710E+03</pdfrwt>
<totfact> 0.19753844E+01</totfact>
</mgrwt>
</event>
<event>
 4    2  0.3747163E-007  0.6863357E+03  0.7818608E-02  0.1005945E+00
         -2   -1    0    0    0  501 -0.00000000000E+00  0.00000000000E+00  0.14350712162E+04  0.14350712162E+04  0.25500000000E-02 0.  1.
          2   -1    0    0  501    0  0.00000000000E+00 -0.00000000000E+00 -0.69134988878E+03  0.69134988878E+03  0.25500000000E-02 0. -1.
    8880023    1    1    2    0    0 -0.10125776105E+03  0.16429645586E+03 -0.50598276079E+03  0.85268705869E+03  0.65864270000E+03 0. -1.
    8880022    1    1    2    0    0  0.10125776105E+03 -0.16429645586E+03  0.12497040882E+04  0.12737340463E+04  0.15294330000E+03 0.  0.
<mgrwt>
<rscale>  0 0.53118480E+03</rscale>
<asrwt>0</asrwt>
<pdfrwt beam="1">  1        2 0.10636152E+00 0.68633568E+03</pdfrwt>
<pdfrwt beam="2">  1       -2 0.22078019E+00 0.68633568E+03</pdfrwt>
<totfact> 0.42049675E+00</totfact>
</mgrwt>
</event>
<event>
 4    2  0.3747163E-007  0.7577493E+03  0.7818608E-02  0.9810970E-01
          2   -1    0    0  501    0  0.00000000000E+00  0.00000000000E+00  0.91119032866E+03  0.91119032866E+03  0.25500000000E-02 0. -1.
         -2   -1    0    0    0  501 -0.00000000000E+00 -0.00000000000E+00 -0.15276567045E+04  0.15276567046E+04  0.25500000000E-02 0.  1.
    8880023    1    1    2    0    0  0.39974124998E+02  0.37252631986E+03  0.71829138720E+03  0.10440912378E+04  0.65864270000E+03 0. -1.
    8880022    1    1    2    0    0 -0.39974124998E+02 -0.37252631986E+03 -0.13347577631E+04  0.13947557954E+04  0.15294330000E+03 0.  0.
<mgrwt>
<rscale>  0 0.64777165E+03</rscale>
<asrwt>0</asrwt>
<pdfrwt beam="1">  1        2 0.14018313E+00 0.75774930E+03</pdfrwt>
<pdfrwt beam="2">  1       -2 0.23502411E+00 0.75774930E+03</pdfrwt>
<totfact> 0.23570216E+00</totfact>
</mgrwt>
</event>
<event>
 4    2  0.3747163E-007  0.7133227E+03  0.7818608E-02  0.9945863E-01
         -2   -1    0    0    0  501 -0.00000000000E+00  0.00000000000E+00  0.41536882192E+03  0.41536882193E+03  0.25500000000E-02 0.  1.
          2   -1    0    0  501    0  0.00000000000E+00 -0.00000000000E+00 -0.13741418587E+04  0.13741418587E+04  0.25500000000E-02 0. -1.
    8880023    1    1    2    0    0 -0.15843774354E+03 -0.22342021314E+03 -0.11984856526E+04  0.13947032574E+04  0.65864270000E+03 0. -1.
    8880022    1    1    2    0    0  0.15843774354E+03  0.22342021314E+03  0.23971261589E+03  0.39480742325E+03  0.15294330000E+03 0.  0.
<mgrwt>
<rscale>  0 0.58089130E+03</rscale>
<asrwt>0</asrwt>
<pdfrwt beam="1">  1        2 0.21140644E+00 0.71332273E+03</pdfrwt>
<pdfrwt beam="2">  1       -2 0.63902896E-01 0.71332273E+03</pdfrwt>
<totfact> 0.34758503E+01</totfact>
</mgrwt>
</event>
<event>
 4    2  0.3747163E-007  0.9304585E+03  0.7818608E-02  0.9478806E-01
         -2   -1    0    0    0  501 -0.00000000000E+00  0.00000000000E+00  0.89233798504E+03  0.89233798504E+03  0.25500000000E-02 0.  1.
          2   -1    0    0  501    0  0.00000000000E+00 -0.00000000000E+00 -0.14167603487E+04  0.14167603487E+04  0.25500000000E-02 0. -1.
    8880023    1    1    2    0    0 -0.31345564730E+03 -0.57765767685E+03 -0.10867958839E+04  0.14306915579E+04  0.65864270000E+03 0.  0.
    8880022    1    1    2    0    0  0.31345564730E+03  0.57765767685E+03  0.56237352025E+03  0.87840677578E+03  0.15294330000E+03 0.  0.
<mgrwt>
<rscale>  0 0.85864585E+03</rscale>
<asrwt>0</asrwt>
<pdfrwt beam="1">  1        2 0.21796313E+00 0.93045851E+03</pdfrwt>
<pdfrwt beam="2">  1       -2 0.13728277E+00 0.93045851E+03</pdfrwt>
<totfact> 0.53509874E+00</totfact>
</mgrwt>
</event>
<event>
 4    2  0.3747163E-007  0.7784364E+03  0.7818608E-02  0.9759523E-01
          2   -1    0    0  501    0  0.00000000000E+00  0.00000000000E+00  0.16642840617E+04  0.16642840617E+04  0.25500000000E-02 0. -1.
         -2   -1    0    0    0  501 -0.00000000000E+00 -0.00000000000E+00 -0.36221669719E+03  0.36221669720E+03  0.25500000000E-02 0.  1.
    8880023    1    1    2    0    0  0.28087415518E+03  0.30538946325E+03  0.13733150595E+04  0.15785935114E+04  0.65864270000E+03 0. -1.
    8880022    1    1    2    0    0 -0.28087415518E+03 -0.30538946325E+03 -0.71247694995E+02  0.44790724750E+03  0.15294330000E+03 0.  0.
<mgrwt>
<rscale>  0 0.67580764E+03</rscale>
<asrwt>0</asrwt>
<pdfrwt beam="1">  1        2 0.25604371E+00 0.77843640E+03</pdfrwt>
<pdfrwt beam="2">  1       -2 0.55725644E-01 0.77843640E+03</pdfrwt>
<totfact> 0.31759347E+01</totfact>
</mgrwt>
</event>
<event>
 4    2  0.3747163E-007  0.7769403E+03  0.7818608E-02  0.9763074E-01
          2   -1    0    0  501    0  0.00000000000E+00  0.00000000000E+00  0.11330453296E+04  0.11330453296E+04  0.25500000000E-02 0. -1.
         -2   -1    0    0    0  501 -0.00000000000E+00 -0.00000000000E+00 -0.76477487168E+03  0.76477487169E+03  0.25500000000E-02 0.  1.
    8880023    1    1    2    0    0 -0.10632822883E+03  0.39814619082E+03  0.91236497142E+03  0.11983514213E+04  0.65864270000E+03 0.  0.
    8880022    1    1    2    0    0  0.10632822883E+03 -0.39814619082E+03 -0.54409451354E+03  0.69946877999E+03  0.15294330000E+03 0.  0.
<mgrwt>
<rscale>  0 0.67382423E+03</rscale>
<asrwt>0</asrwt>
<pdfrwt beam="1">  1        2 0.17431467E+00 0.77694034E+03</pdfrwt>
<pdfrwt beam="2">  1       -2 0.11765767E+00 0.77694034E+03</pdfrwt>
<totfact> 0.11771608E+01</totfact>
</mgrwt>
</event>
<event>
 4    2  0.3747163E-007  0.6754123E+03  0.7818608E-02  0.1012048E+00
          2   -1    0    0  501    0  0.00000000000E+00  0.00000000000E+00  0.17651577697E+04  0.17651577697E+04  0.25500000000E-02 0. -1.
         -2   -1    0    0    0  501 -0.00000000000E+00 -0.00000000000E+00 -0.55527829510E+03  0.55527829511E+03  0.25500000000E-02 0.  1.
    8880023    1    1    2    0    0 -0.35770284404E+01  0.14952830884E+03  0.16763241867E+04  0.18072754343E+04  0.65864270000E+03 0. -1.
    8880022    1    1    2    0    0  0.35770284404E+01 -0.14952830884E+03 -0.46644471208E+03  0.51316063052E+03  0.15294330000E+03 0.  0.
<mgrwt>
<rscale>  0 0.50668869E+03</rscale>
<asrwt>0</asrwt>
<pdfrwt beam="1">  1        2 0.27156273E+00 0.67541226E+03</pdfrwt>
<pdfrwt beam="2">  1       -2 0.85427431E-01 0.67541226E+03</pdfrwt>
<totfact> 0.11193181E+01</totfact>
</mgrwt>
</event>
<event>
 4    2  0.3747163E-007  0.8398977E+03  0.7818608E-02  0.9630373E-01
         -2   -1    0    0    0  501 -0.00000000000E+00  0.00000000000E+00  0.27032888676E+03  0.27032888677E+03  0.25500000000E-02 0.  1.
          2   -1    0    0  501    0  0.00000000000E+00 -0.00000000000E+00 -0.27851404368E+04  0.27851404368E+04  0.25500000000E-02 0. -1.
    8880023    1    1    2    0    0 -0.50930266412E+03  0.11058325592E+03 -0.23379718214E+04  0.24842585019E+04  0.65864270000E+03 0.  0.
    8880022    1    1    2    0    0  0.50930266412E+03 -0.11058325592E+03 -0.17683972861E+03  0.57121082168E+03  0.15294330000E+03 0.  0.
<mgrwt>
<rscale>  0 0.75318087E+03</rscale>
<asrwt>0</asrwt>
<pdfrwt beam="1">  1        2 0.42848312E+00 0.83989765E+03</pdfrwt>
<pdfrwt beam="2">  1       -2 0.41589061E-01 0.83989765E+03</pdfrwt>
<totfact> 0.13454303E+01</totfact>
</mgrwt>
</event>
<event>
 4    2  0.3747163E-007  0.1152596E+04  0.7818608E-02  0.9204639E-01
          2   -1    0    0  501    0  0.00000000000E+00  0.00000000000E+00  0.16699009998E+04  0.16699009998E+04  0.25500000000E-02 0. -1.
         -2   -1    0    0    0  501 -0.00000000000E+00 -0.00000000000E+00 -0.18887641397E+04  0.18887641397E+04  0.25500000000E-02 0.  1.
    8880023    1    1    2    0    0 -0.31743213801E+03 -0.89101339513E+03  0.13159385659E+04  0.17493348873E+04  0.65864270000E+03 0. -1.
    8880022    1    1    2    0    0  0.31743213801E+03  0.89101339513E+03 -0.15348017058E+04  0.18093302522E+04  0.15294330000E+03 0.  0.
<mgrwt>
<rscale>  0 0.11005677E+04</rscale>
<asrwt>0</asrwt>
<pdfrwt beam="1">  1        2 0.25690784E+00 0.11525963E+04</pdfrwt>
<pdfrwt beam="2">  1       -2 0.29057910E+00 0.11525963E+04</pdfrwt>
<totfact> 0.36307717E-01</totfact>
</mgrwt>
</event>
<event>
 4    2  0.3747163E-007  0.7327128E+03  0.7818608E-02  0.9881706E-01
          2   -1    0    0  501    0  0.00000000000E+00  0.00000000000E+00  0.24327288216E+04  0.24327288216E+04  0.25500000000E-02 0. -1.
         -2   -1    0    0    0  501 -0.00000000000E+00 -0.00000000000E+00 -0.29031309831E+03  0.29031309832E+03  0.25500000000E-02 0.  1.
    8880023    1    1    2    0    0  0.30865987817E+03  0.88243511672E+02  0.22379429679E+04  0.23548368885E+04  0.65864270000E+03 0.  0.
    8880022    1    1    2    0    0 -0.30865987817E+03 -0.88243511672E+02 -0.95527244522E+02  0.36820503148E+03  0.15294330000E+03 0.  0.
<mgrwt>
<rscale>  0 0.61156126E+03</rscale>
<asrwt>0</asrwt>
<pdfrwt beam="1">  1        2 0.37426599E+00 0.73271280E+03</pdfrwt>
<pdfrwt beam="2">  1       -2 0.44663552E-01 0.73271280E+03</pdfrwt>
<totfact> 0.18951655E+01</totfact>
</mgrwt>
</event>
<event>
 4    2  0.3747163E-007  0.7255614E+03  0.7818608E-02  0.9904199E-01
         -2   -1    0    0    0  501 -0.00000000000E+00  0.00000000000E+00  0.87267464548E+03  0.87267464548E+03  0.25500000000E-02 0.  1.
          2   -1    0    0  501    0  0.00000000000E+00 -0.00000000000E+00 -0.37270878586E+03  0.37270878587E+03  0.25500000000E-02 0. -1.
    8880023    1    1    2    0    0 -0.29586885974E+03  0.71349077808E+02  0.12055652834E+03  0.73550877347E+03  0.65864270000E+03 0.  0.
    8880022    1    1    2    0    0  0.29586885974E+03 -0.71349077808E+02  0.37940933128E+03  0.50987465788E+03  0.15294330000E+03 0.  0.
<mgrwt>
<rscale>  0 0.60058234E+03</rscale>
<asrwt>0</asrwt>
<pdfrwt beam="1">  1        2 0.57339813E-01 0.72556135E+03</pdfrwt>
<pdfrwt beam="2">  1       -2 0.13425764E+00 0.72556135E+03</pdfrwt>
<totfact> 0.34915910E+01</totfact>
</mgrwt>
</event>
<event>
 4    2  0.3747163E-007  0.6833063E+03  0.7818608E-02  0.1007512E+00
         -2   -1    0    0    0  501 -0.00000000000E+00  0.00000000000E+00  0.46061502027E+03  0.46061502028E+03  0.25500000000E-02 0.  1.
          2   -1    0    0  501    0  0.00000000000E+00 -0.00000000000E+00 -0.51604364353E+03  0.51604364353E+03  0.25500000000E-02 0. -1.
    8880023    1    1    2    0    0  0.13568795424E+03  0.12118599531E+03 -0.18234915993E+03  0.70721898219E+03  0.65864270000E+03 0.  0.
    8880022    1    1    2    0    0 -0.13568795424E+03 -0.12118599531E+03  0.12692053668E+03  0.26943968162E+03  0.15294330000E+03 0.  0.
<mgrwt>
<rscale>  0 0.52475546E+03</rscale>
<asrwt>0</asrwt>
<pdfrwt beam="1">  1        2 0.79391329E-01 0.68330628E+03</pdfrwt>
<pdfrwt beam="2">  1       -2 0.70863850E-01 0.68330628E+03</pdfrwt>
<totfact> 0.10897435E+02</totfact>
</mgrwt>
</event>
<event>
 4    2  0.3747163E-007  0.6726136E+03  0.7818608E-02  0.1013855E+00
         -2   -1    0    0    0  501 -0.00000000000E+00  0.00000000000E+00  0.11025082333E+03  0.11025082336E+03  0.25500000000E-02 0.  1.
          2   -1    0    0  501    0  0.00000000000E+00 -0.00000000000E+00 -0.23516506457E+04  0.23516506457E+04  0.25500000000E-02 0. -1.
    8880023    1    1    2    0    0  0.13077492144E+03 -0.38687638125E+02 -0.21190541523E+04  0.22232407697E+04  0.65864270000E+03 0. -1.
    8880022    1    1    2    0    0 -0.13077492144E+03  0.38687638125E+02 -0.12234567010E+03  0.23866069938E+03  0.15294330000E+03 0.  0.
<mgrwt>
<rscale>  0 0.49971002E+03</rscale>
<asrwt>0</asrwt>
<pdfrwt beam="1">  1        2 0.36179237E+00 0.67261357E+03</pdfrwt>
<pdfrwt beam="2">  1       -2 0.16961667E-01 0.67261357E+03</pdfrwt>
<totfact> 0.12554022E+02</totfact>
</mgrwt>
</event>
<event>
 4    2  0.3747163E-007  0.6998358E+03  0.7818608E-02  0.9997883E-01
         -2   -1    0    0    0  501 -0.00000000000E+00  0.00000000000E+00  0.58045960497E+03  0.58045960498E+03  0.25500000000E-02 0.  1.
          2   -1    0    0  501    0  0.00000000000E+00 -0.00000000000E+00 -0.81471525972E+03  0.81471525972E+03  0.25500000000E-02 0. -1.
    8880023    1    1    2    0    0 -0.22952161832E+03 -0.57269714736E+02 -0.60807204638E+03  0.92710399274E+03  0.65864270000E+03 0. -1.
    8880022    1    1    2    0    0  0.22952161832E+03  0.57269714736E+02  0.37381639164E+03  0.46807087196E+03  0.15294330000E+03 0.  0.
<mgrwt>
<rscale>  0 0.55743165E+03</rscale>
<asrwt>0</asrwt>
<pdfrwt beam="1">  1        2 0.12534081E+00 0.69983584E+03</pdfrwt>
<pdfrwt beam="2">  1       -2 0.89301477E-01 0.69983584E+03</pdfrwt>
<totfact> 0.36844042E+01</totfact>
</mgrwt>
</event>
<event>
 4    2  0.3747163E-007  0.7826450E+03  0.7818608E-02  0.9749660E-01
         -2   -1    0    0    0  501 -0.00000000000E+00  0.00000000000E+00  0.78207615361E+03  0.78207615362E+03  0.25500000000E-02 0.  1.
          2   -1    0    0  501    0  0.00000000000E+00 -0.00000000000E+00 -0.65770984865E+03  0.65770984865E+03  0.25500000000E-02 0. -1.
    8880023    1    1    2    0    0  0.16292526586E+03 -0.39010039299E+03 -0.28385512232E+03  0.83253041722E+03  0.65864270000E+03 0.  0.
    8880022    1    1    2    0    0 -0.16292526586E+03  0.39010039299E+03  0.40822142729E+03  0.60725558505E+03  0.15294330000E+03 0.  0.
<mgrwt>
<rscale>  0 0.68135480E+03</rscale>
<asrwt>0</asrwt>
<pdfrwt beam="1">  1        2 0.10118613E+00 0.78264498E+03</pdfrwt>
<pdfrwt beam="2">  1       -2 0.12031941E+00 0.78264498E+03</pdfrwt>
<totfact> 0.23619342E+01</totfact>
</mgrwt>
</event>
<event>
 4    2  0.3747163E-007  0.6733271E+03  0.7818608E-02  0.1013382E+00
          2   -1    0    0  501    0  0.00000000000E+00  0.00000000000E+00  0.30971803041E+03  0.30971803042E+03  0.25500000000E-02 0. -1.
         -2   -1    0    0    0  501 -0.00000000000E+00 -0.00000000000E+00 -0.63552221506E+03  0.63552221507E+03  0.25500000000E-02 0.  1.
    8880023    1    1    2    0    0  0.12170311762E+03  0.68902631025E+02 -0.19833122409E+03  0.70192927145E+03  0.65864270000E+03 0.  0.
    8880022    1    1    2    0    0 -0.12170311762E+03 -0.68902631025E+02 -0.12747296056E+03  0.24331097404E+03  0.15294330000E+03 0.  1.
<mgrwt>
<rscale>  0 0.50152327E+03</rscale>
<asrwt>0</asrwt>
<pdfrwt beam="1">  1        2 0.47648928E-01 0.67332713E+03</pdfrwt>
<pdfrwt beam="2">  1       -2 0.97772648E-01 0.67332713E+03</pdfrwt>
<totfact> 0.93557896E+01</totfact>
</mgrwt>
</event>
<event>
 4    2  0.3747163E-007  0.7957361E+03  0.7818608E-02  0.9720092E-01
          2   -1    0    0  501    0  0.00000000000E+00  0.00000000000E+00  0.28549237202E+04  0.28549237202E+04  0.25500000000E-02 0. -1.
         -2   -1    0    0    0  501 -0.00000000000E+00 -0.00000000000E+00 -0.36549696882E+03  0.36549696883E+03  0.25500000000E-02 0.  1.
    8880023    1    1    2    0    0 -0.38477571650E+03  0.22656874115E+03  0.26138611435E+04  0.27323005015E+04  0.65864270000E+03 0. -1.
    8880022    1    1    2    0    0  0.38477571650E+03 -0.22656874115E+03 -0.12443439220E+03  0.48812018751E+03  0.15294330000E+03 0.  0.
<mgrwt>
<rscale>  0 0.69832998E+03</rscale>
<asrwt>0</asrwt>
<pdfrwt beam="1">  1        2 0.43921901E+00 0.79573611E+03</pdfrwt>
<pdfrwt beam="2">  1       -2 0.56230305E-01 0.79573611E+03</pdfrwt>
<totfact> 0.66856720E+00</totfact>
</mgrwt>
</event>
<event>
 4    2  0.3747163E-007  0.7519185E+03  0.7818608E-02  0.9826497E-01
         -2   -1    0    0    0  501 -0.00000000000E+00  0.00000000000E+00  0.19985848540E+03  0.19985848541E+03  0.25500000000E-02 0.  1.
          2   -1    0    0  501    0  0.00000000000E+00 -0.00000000000E+00 -0.24725918021E+04  0.24725918021E+04  0.25500000000E-02 0. -1.
    8880023    1    1    2    0    0 -0.15861244668E+03 -0.32621058717E+03 -0.21213912810E+04  0.22507070953E+04  0.65864270000E+03 0.  0.
    8880022    1    1    2    0    0  0.15861244668E+03  0.32621058717E+03 -0.15134203574E+03  0.42174319226E+03  0.15294330000E+03 0.  0.
<mgrwt>
<rscale>  0 0.63959720E+03</rscale>
<asrwt>0</asrwt>
<pdfrwt beam="1">  1        2 0.38039872E+00 0.75191852E+03</pdfrwt>
<pdfrwt beam="2">  1       -2 0.30747461E-01 0.75191852E+03</pdfrwt>
<totfact> 0.36813550E+01</totfact>
</mgrwt>
</event>
<event>
 4    2  0.3747163E-007  0.6694716E+03  0.7818608E-02  0.1016045E+00
         -2   -1    0    0    0  501 -0.00000000000E+00  0.00000000000E+00  0.59719276455E+02  0.59719276510E+02  0.25500000000E-02 0.  1.
          2   -1    0    0  501    0  0.00000000000E+00 -0.00000000000E+00 -0.33080844414E+04  0.33080844414E+04  0.25500000000E-02 0. -1.
    8880023    1    1    2    0    0  0.23735457525E+02  0.11755284405E+03 -0.28036770171E+04  0.28824984068E+04  0.65864270000E+03 0. -1.
    8880022    1    1    2    0    0 -0.23735457525E+02 -0.11755284405E+03 -0.44468814792E+03  0.48530531112E+03  0.15294330000E+03 0.  1.
<mgrwt>
<rscale>  0 0.49141433E+03</rscale>
<asrwt>0</asrwt>
<pdfrwt beam="1">  1        2 0.50893593E+00 0.66947162E+03</pdfrwt>
<pdfrwt beam="2">  1       -2 0.91875836E-02 0.66947162E+03</pdfrwt>
<totfact> 0.93565517E+01</totfact>
</mgrwt>
</event>
<event>
 4    2  0.3747163E-007  0.8524566E+03  0.7818608E-02  0.9607125E-01
          2   -1    0    0  501    0  0.00000000000E+00  0.00000000000E+00  0.61012771179E+03  0.61012771180E+03  0.25500000000E-02 0. -1.
         -2   -1    0    0    0  501 -0.00000000000E+00 -0.00000000000E+00 -0.11331147648E+04  0.11331147648E+04  0.25500000000E-02 0.  1.
    8880023    1    1    2    0    0 -0.53590168306E+03  0.75375520722E+02  0.15070431161E+03  0.86567550435E+03  0.65864270000E+03 0. -1.
    8880022    1    1    2    0    0  0.53590168306E+03 -0.75375520722E+02 -0.67369136464E+03  0.87756697228E+03  0.15294330000E+03 0.  0.
<mgrwt>
<rscale>  0 0.76826384E+03</rscale>
<asrwt>0</asrwt>
<pdfrwt beam="1">  1        2 0.93865802E-01 0.85245662E+03</pdfrwt>
<pdfrwt beam="2">  1       -2 0.17432535E+00 0.85245662E+03</pdfrwt>
<totfact> 0.97133839E+00</totfact>
</mgrwt>
</event>
<event>
 4    2  0.4681676E-007  0.8541490E+03  0.7818608E-02  0.9604057E-01
          2   -1    0    0  501    0  0.00000000000E+00  0.00000000000E+00  0.28788867450E+04  0.28788867450E+04  0.25500000000E-02 0. -1.
         -2   -1    0    0    0  501 -0.00000000000E+00 -0.00000000000E+00 -0.89198332991E+03  0.89198332992E+03  0.25500000000E-02 0.  1.
    8880023    1    1    2    0    0 -0.54240434764E+03 -0.39470362156E+02  0.27167876561E+04  0.28478949701E+04  0.65864270000E+03 0.  0.
    8880022    1    1    2    0    0  0.54240434764E+03  0.39470362156E+02 -0.72988424104E+03  0.92297510484E+03  0.15294330000E+03 0.  0.
<mgrwt>
<rscale>  0 0.77028235E+03</rscale>
<asrwt>0</asrwt>
<pdfrwt beam="1">  1        2 0.44290564E+00 0.85414905E+03</pdfrwt>
<pdfrwt beam="2">  1       -2 0.13722821E+00 0.85414905E+03</pdfrwt>
<totfact> 0.81538882E-01</totfact>
</mgrwt>
</event>
<event>
 4    2  0.3747163E-007  0.9647707E+03  0.7818608E-02  0.9429173E-01
         -2   -1    0    0    0  501 -0.00000000000E+00  0.00000000000E+00  0.11034129811E+04  0.11034129811E+04  0.25500000000E-02 0.  1.
          2   -1    0    0  501    0  0.00000000000E+00 -0.00000000000E+00 -0.17742078505E+04  0.17742078505E+04  0.25500000000E-02 0. -1.
    8880023    1    1    2    0    0  0.38504479409E+03  0.59051908562E+03 -0.14969149801E+04  0.17808809471E+04  0.65864270000E+03 0. -1.
    8880022    1    1    2    0    0 -0.38504479409E+03 -0.59051908562E+03  0.82612011072E+03  0.10967398845E+04  0.15294330000E+03 0.  0.
<mgrwt>
<rscale>  0 0.89713226E+03</rscale>
<asrwt>0</asrwt>
<pdfrwt beam="1">  1        2 0.27295505E+00 0.96477069E+03</pdfrwt>
<pdfrwt beam="2">  1       -2 0.16975584E+00 0.96477069E+03</pdfrwt>
<totfact> 0.19078784E+00</totfact>
</mgrwt>
</event>
<event>
 4    2  0.3747163E-007  0.6731657E+03  0.7818608E-02  0.1013488E+00
          2   -1    0    0  501    0  0.00000000000E+00  0.00000000000E+00  0.19367667472E+04  0.19367667472E+04  0.25500000000E-02 0. -1.
         -2   -1    0    0    0  501 -0.00000000000E+00 -0.00000000000E+00 -0.53119261080E+03  0.53119261081E+03  0.25500000000E-02 0.  1.
    8880023    1    1    2    0    0  0.92322470742E+02  0.10401149408E+03  0.18549478216E+04  0.19733178803E+04  0.65864270000E+03 0.  0.
    8880022    1    1    2    0    0 -0.92322470742E+02 -0.10401149408E+03 -0.44937368521E+03  0.49464147772E+03  0.15294330000E+03 0.  0.
<mgrwt>
<rscale>  0 0.50111513E+03</rscale>
<asrwt>0</asrwt>
<pdfrwt beam="1">  1        2 0.29796411E+00 0.67316568E+03</pdfrwt>
<pdfrwt beam="2">  1       -2 0.81721941E-01 0.67316568E+03</pdfrwt>
<totfact> 0.99891468E+00</totfact>
</mgrwt>
</event>
<event>
 4    2  0.3747163E-007  0.7008308E+03  0.7818608E-02  0.9993772E-01
          2   -1    0    0  501    0  0.00000000000E+00  0.00000000000E+00  0.21651390940E+04  0.21651390940E+04  0.25500000000E-02 0. -1.
         -2   -1    0    0    0  501 -0.00000000000E+00 -0.00000000000E+00 -0.20296424983E+03  0.20296424985E+03  0.25500000000E-02 0.  1.
    8880023    1    1    2    0    0  0.51699063095E+02  0.23383937660E+03  0.19625663445E+04  0.20839458990E+04  0.65864270000E+03 0. -1.
    8880022    1    1    2    0    0 -0.51699063095E+02 -0.23383937660E+03 -0.39150032508E+00  0.28415744485E+03  0.15294330000E+03 0.  0.
<mgrwt>
<rscale>  0 0.55924171E+03</rscale>
<asrwt>0</asrwt>
<pdfrwt beam="1">  1        2 0.33309833E+00 0.70083083E+03</pdfrwt>
<pdfrwt beam="2">  1       -2 0.31225269E-01 0.70083083E+03</pdfrwt>
<totfact> 0.53399604E+01</totfact>
</mgrwt>
</event>
<event>
 4    2  0.3747163E-007  0.6953892E+03  0.7818608E-02  0.1001689E+00
          2   -1    0    0  501    0  0.00000000000E+00  0.00000000000E+00  0.47351167070E+03  0.47351167071E+03  0.25500000000E-02 0. -1.
         -2   -1    0    0    0  501 -0.00000000000E+00 -0.00000000000E+00 -0.65352983751E+03  0.65352983751E+03  0.25500000000E-02 0.  1.
    8880023    1    1    2    0    0  0.15172096714E+03 -0.16351357741E+03  0.13864683457E+03  0.70907622500E+03  0.65864270000E+03 0. -1.
    8880022    1    1    2    0    0 -0.15172096714E+03  0.16351357741E+03 -0.31866500137E+03  0.41796528322E+03  0.15294330000E+03 0.  0.
<mgrwt>
<rscale>  0 0.54915629E+03</rscale>
<asrwt>0</asrwt>
<pdfrwt beam="1">  1        2 0.72847949E-01 0.69538921E+03</pdfrwt>
<pdfrwt beam="2">  1       -2 0.10054305E+00 0.69538921E+03</pdfrwt>
<totfact> 0.54298480E+01</totfact>
</mgrwt>
</event>
<event>
 4    2  0.3747163E-007  0.6692183E+03  0.7818608E-02  0.1016230E+00
          2   -1    0    0  501    0  0.00000000000E+00  0.00000000000E+00  0.22750528601E+03  0.22750528602E+03  0.25500000000E-02 0. -1.
         -2   -1    0    0    0  501 -0.00000000000E+00 -0.00000000000E+00 -0.22781399517E+04  0.22781399517E+04  0.25500000000E-02 0.  1.
    8880023    1    1    2    0    0 -0.11408717667E+03 -0.32048023418E+02 -0.28158456989E+03  0.72604616654E+03  0.65864270000E+03 0. -1.
    8880022    1    1    2    0    0  0.11408717667E+03  0.32048023418E+02 -0.17690500958E+04  0.17795990711E+04  0.15294330000E+03 0.  0.
<mgrwt>
<rscale>  0 0.49072144E+03</rscale>
<asrwt>0</asrwt>
<pdfrwt beam="1">  1        2 0.35000815E-01 0.66921832E+03</pdfrwt>
<pdfrwt beam="2">  1       -2 0.35048305E+00 0.66921832E+03</pdfrwt>
<totfact> 0.24606285E+00</totfact>
</mgrwt>
</event>
<event>
 4    2  0.3747163E-007  0.9427717E+03  0.7818608E-02  0.9460591E-01
         -2   -1    0    0    0  501 -0.00000000000E+00  0.00000000000E+00  0.40341089125E+03  0.40341089126E+03  0.25500000000E-02 0.  1.
          2   -1    0    0  501    0  0.00000000000E+00 -0.00000000000E+00 -0.20875525413E+04  0.20875525413E+04  0.25500000000E-02 0. -1.
    8880023    1    1    2    0    0  0.56149053996E+03  0.37381356800E+03 -0.15059542952E+04  0.17767151588E+04  0.65864270000E+03 0. -1.
    8880022    1    1    2    0    0 -0.56149053996E+03 -0.37381356800E+03 -0.17818735483E+03  0.71424827373E+03  0.15294330000E+03 0.  0.
<mgrwt>
<rscale>  0 0.87252679E+03</rscale>
<asrwt>0</asrwt>
<pdfrwt beam="1">  1        2 0.32116192E+00 0.94277167E+03</pdfrwt>
<pdfrwt beam="2">  1       -2 0.62063215E-01 0.94277167E+03</pdfrwt>
<totfact> 0.14553233E+01</totfact>
</mgrwt>
</event>
<event>
 4    2  0.3747163E-007  0.7030122E+03  0.7818608E-02  0.9984928E-01
         -2   -1    0    0    0  501 -0.00000000000E+00  0.00000000000E+00  0.57972860387E+03  0.57972860388E+03  0.25500000000E-02 0.  1.
          2   -1    0    0  501    0  0.00000000000E+00 -0.00000000000E+00 -0.17052722149E+04  0.17052722149E+04  0.25500000000E-02 0. -1.
    8880023    1    1    2    0    0  0.14290367115E+03  0.19998627158E+03 -0.15895610127E+04  0.17380823879E+04  0.65864270000E+03 0. -1.
    8880022    1    1    2    0    0 -0.14290367115E+03 -0.19998627158E+03  0.46401740158E+03  0.54691843088E+03  0.15294330000E+03 0.  0.
<mgrwt>
<rscale>  0 0.56316103E+03</rscale>
<asrwt>0</asrwt>
<pdfrwt beam="1">  1        2 0.26234957E+00 0.70301221E+03</pdfrwt>
<pdfrwt beam="2">  1       -2 0.89189017E-01 0.70301221E+03</pdfrwt>
<totfact> 0.10886775E+01</totfact>
</mgrwt>
</event>
<event>
 4    2  0.3747163E-007  0.9742687E+03  0.7818608E-02  0.9416024E-01
         -2   -1    0    0    0  501 -0.00000000000E+00  0.00000000000E+00  0.51693026529E+03  0.51693026530E+03  0.25500000000E-02 0.  1.
          2   -1    0    0  501    0  0.00000000000E+00 -0.00000000000E+00 -0.28736664599E+04  0.28736664599E+04  0.25500000000E-02 0. -1.
    8880023    1    1    2    0    0 -0.71549730127E+03  0.58762187804E+02 -0.24632196699E+04  0.26488961344E+04  0.65864270000E+03 0. -1.
    8880022    1    1    2    0    0  0.71549730127E+03 -0.58762187804E+02  0.10648347522E+03  0.74170059078E+03  0.15294330000E+03 0.  0.
<mgrwt>
<rscale>  0 0.90768596E+03</rscale>
<asrwt>0</asrwt>
<pdfrwt beam="1">  1        2 0.44210252E+00 0.97426875E+03</pdfrwt>
<pdfrwt beam="2">  1       -2 0.79527734E-01 0.97426875E+03</pdfrwt>
<totfact> 0.29859629E+00</totfact>
</mgrwt>
</event>
<event>
 4    2  0.3747163E-007  0.6646417E+03  0.7818608E-02  0.1019836E+00
         -2   -1    0    0    0  501 -0.00000000000E+00  0.00000000000E+00  0.16118480193E+04  0.16118480193E+04  0.25500000000E-02 0.  1.
          2   -1    0    0  501    0  0.00000000000E+00 -0.00000000000E+00 -0.22010927369E+03  0.22010927370E+03  0.25500000000E-02 0. -1.
    8880023    1    1    2    0    0  0.76852077675E+02 -0.45079459083E+02  0.30567420189E+03  0.73156361544E+03  0.65864270000E+03 0. -1.
    8880022    1    1    2    0    0 -0.76852077675E+02  0.45079459083E+02  0.10860645438E+04  0.11003936776E+04  0.15294330000E+03 0.  0.
<mgrwt>
<rscale>  0 0.47745873E+03</rscale>
<asrwt>0</asrwt>
<pdfrwt beam="1">  1        2 0.33862964E-01 0.66464171E+03</pdfrwt>
<pdfrwt beam="2">  1       -2 0.24797663E+00 0.66464171E+03</pdfrwt>
<totfact> 0.10629499E+01</totfact>
</mgrwt>
</event>
<event>
 4    2  0.3747163E-007  0.1339987E+04  0.7818608E-02  0.9031775E-01
          2   -1    0    0  501    0  0.00000000000E+00  0.00000000000E+00  0.30881310374E+04  0.30881310374E+04  0.25500000000E-02 0. -1.
         -2   -1    0    0    0  501 -0.00000000000E+00 -0.00000000000E+00 -0.65942887615E+03  0.65942887615E+03  0.25500000000E-02 0.  1.
    8880023    1    1    2    0    0 -0.39760178240E+03  0.10971182392E+04  0.39351530807E+03  0.13965744205E+04  0.65864270000E+03 0.  0.
    8880022    1    1    2    0    0  0.39760178240E+03 -0.10971182392E+04  0.20351868532E+04  0.23509854931E+04  0.15294330000E+03 0.  0.
<mgrwt>
<rscale>  0 0.12972166E+04</rscale>
<asrwt>0</asrwt>
<pdfrwt beam="1">  1        2 0.47509708E+00 0.13399872E+04</pdfrwt>
<pdfrwt beam="2">  1       -2 0.10145060E+00 0.13399872E+04</pdfrwt>
<totfact> 0.11910818E+00</totfact>
</mgrwt>
</event>
<event>
 4    2  0.3747163E-007  0.6637837E+03  0.7818608E-02  0.1020576E+00
          2   -1    0    0  501    0  0.00000000000E+00  0.00000000000E+00  0.93352711570E+03  0.93352711570E+03  0.25500000000E-02 0. -1.
         -2   -1    0    0    0  501 -0.00000000000E+00 -0.00000000000E+00 -0.18862359059E+03  0.18862359061E+03  0.25500000000E-02 0.  1.
    8880023    1    1    2    0    0  0.24702005471E+01 -0.82416588464E+02  0.56038996848E+03  0.86870347011E+03  0.65864270000E+03 0.  0.
    8880022    1    1    2    0    0 -0.24702005471E+01  0.82416588464E+02  0.18451355663E+03  0.25344723621E+03  0.15294330000E+03 0. -1.
<mgrwt>
<rscale>  0 0.47479187E+03</rscale>
<asrwt>0</asrwt>
<pdfrwt beam="1">  1        2 0.14361955E+00 0.66378370E+03</pdfrwt>
<pdfrwt beam="2">  1       -2 0.29019014E-01 0.66378370E+03</pdfrwt>
<totfact> 0.30723515E+02</totfact>
</mgrwt>
</event>
<event>
 4    2  0.3747163E-007  0.8023799E+03  0.7818608E-02  0.9705674E-01
          2   -1    0    0  501    0  0.00000000000E+00  0.00000000000E+00  0.23726967047E+04  0.23726967047E+04  0.25500000000E-02 0. -1.
         -2   -1    0    0    0  501 -0.00000000000E+00 -0.00000000000E+00 -0.25246074470E+03  0.25246074471E+03  0.25500000000E-02 0.  1.
    8880023    1    1    2    0    0 -0.45687928750E+03  0.35561776876E+02  0.19571848758E+04  0.21152744899E+04  0.65864270000E+03 0.  0.
    8880022    1    1    2    0    0  0.45687928750E+03 -0.35561776876E+02  0.16305108420E+03  0.50988295951E+03  0.15294330000E+03 0.  0.
<mgrwt>
<rscale>  0 0.70679989E+03</rscale>
<asrwt>0</asrwt>
<pdfrwt beam="1">  1        2 0.36503026E+00 0.80237992E+03</pdfrwt>
<pdfrwt beam="2">  1       -2 0.38840115E-01 0.80237992E+03</pdfrwt>
<totfact> 0.26685597E+01</totfact>
</mgrwt>
</event>
<event>
 4    2  0.3747163E-007  0.7618821E+03  0.7818608E-02  0.9800259E-01
          2   -1    0    0  501    0  0.00000000000E+00  0.00000000000E+00  0.23566471772E+04  0.23566471772E+04  0.25500000000E-02 0. -1.
         -2   -1    0    0    0  501 -0.00000000000E+00 -0.00000000000E+00 -0.14667083215E+03  0.14667083218E+03  0.25500000000E-02 0.  1.
    8880023    1    1    2    0    0  0.37275630172E+02  0.38113605580E+03  0.14952092664E+04  0.16781284582E+04  0.65864270000E+03 0.  0.
    8880022    1    1    2    0    0 -0.37275630172E+02 -0.38113605580E+03  0.71476707863E+03  0.82518955117E+03  0.15294330000E+03 0.  1.
<mgrwt>
<rscale>  0 0.65348644E+03</rscale>
<asrwt>0</asrwt>
<pdfrwt beam="1">  1        2 0.36256112E+00 0.76188212E+03</pdfrwt>
<pdfrwt beam="2">  1       -2 0.22564743E-01 0.76188212E+03</pdfrwt>
<totfact> 0.75009866E+01</totfact>
</mgrwt>
</event>
<event>
 4    2  0.3747163E-007  0.6823496E+03  0.7818608E-02  0.1008025E+00
         -2   -1    0    0    0  501 -0.00000000000E+00  0.00000000000E+00  0.43330047000E+03  0.43330047001E+03  0.25500000000E-02 0.  1.
          2   -1    0    0  501    0  0.00000000000E+00 -0.00000000000E+00 -0.78402485849E+03  0.78402485849E+03  0.25500000000E-02 0. -1.
    8880023    1    1    2    0    0  0.15970143035E+03  0.79285385203E+02 -0.57517271523E+03  0.89242623100E+03  0.65864270000E+03 0. -1.
    8880022    1    1    2    0    0 -0.15970143035E+03 -0.79285385203E+02  0.22444832675E+03  0.32489909750E+03  0.15294330000E+03 0.  0.
<mgrwt>
<rscale>  0 0.52267320E+03</rscale>
<asrwt>0</asrwt>
<pdfrwt beam="1">  1        2 0.12061921E+00 0.68234956E+03</pdfrwt>
<pdfrwt beam="2">  1       -2 0.66661611E-01 0.68234956E+03</pdfrwt>
<totfact> 0.74467263E+01</totfact>
</mgrwt>
</event>
<event>
 4    2  0.3747163E-007  0.7633231E+03  0.7818608E-02  0.9796579E-01
         -2   -1    0    0    0  501 -0.00000000000E+00  0.00000000000E+00  0.26083786869E+03  0.26083786870E+03  0.25500000000E-02 0.  1.
          2   -1    0    0  501    0  0.00000000000E+00 -0.00000000000E+00 -0.16224430334E+04  0.16224430334E+04  0.25500000000E-02 0. -1.
    8880023    1    1    2    0    0 -0.12644360026E+03 -0.36450499436E+03 -0.12305226576E+04  0.14480497547E+04  0.65864270000E+03 0.  0.
    8880022    1    1    2    0    0  0.12644360026E+03  0.36450499436E+03 -0.13108250706E+03  0.43523114736E+03  0.15294330000E+03 0.  0.
<mgrwt>
<rscale>  0 0.65546446E+03</rscale>
<asrwt>0</asrwt>
<pdfrwt beam="1">  1        2 0.24960661E+00 0.76332305E+03</pdfrwt>
<pdfrwt beam="2">  1       -2 0.40128904E-01 0.76332305E+03</pdfrwt>
<totfact> 0.65001144E+01</totfact>
</mgrwt>
</event>
<event>
 4    2  0.3747163E-007  0.7250926E+03  0.7818608E-02  0.9905717E-01
          2   -1    0    0  501    0  0.00000000000E+00  0.00000000000E+00  0.22672819110E+04  0.22672819110E+04  0.25500000000E-02 0. -1.
         -2   -1    0    0    0  501 -0.00000000000E+00 -0.00000000000E+00 -0.24844150330E+03  0.24844150332E+03  0.25500000000E-02 0.  1.
    8880023    1    1    2    0    0 -0.24288518256E+02  0.30225667611E+03  0.20502150574E+04  0.21746588281E+04  0.65864270000E+03 0. -1.
    8880022    1    1    2    0    0  0.24288518256E+02 -0.30225667611E+03 -0.31374649713E+02  0.34106458631E+03  0.15294330000E+03 0.  0.
<mgrwt>
<rscale>  0 0.59985034E+03</rscale>
<asrwt>0</asrwt>
<pdfrwt beam="1">  1        2 0.34881260E+00 0.72509257E+03</pdfrwt>
<pdfrwt beam="2">  1       -2 0.38221770E-01 0.72509257E+03</pdfrwt>
<totfact> 0.31846880E+01</totfact>
</mgrwt>
</event>
<event>
 4    2  0.3747163E-007  0.9074173E+03  0.7818608E-02  0.9514228E-01
         -2   -1    0    0    0  501 -0.00000000000E+00  0.00000000000E+00  0.74964397912E+03  0.74964397912E+03  0.25500000000E-02 0.  1.
          2   -1    0    0  501    0  0.00000000000E+00 -0.00000000000E+00 -0.14028185489E+04  0.14028185489E+04  0.25500000000E-02 0. -1.
    8880023    1    1    2    0    0 -0.62221141737E+03 -0.49486864513E+02 -0.10573103148E+04  0.13933094795E+04  0.65864270000E+03 0. -1.
    8880022    1    1    2    0    0  0.62221141737E+03  0.49486864513E+02  0.40413574500E+03  0.75915304852E+03  0.15294330000E+03 0.  0.
<mgrwt>
<rscale>  0 0.83242944E+03</rscale>
<asrwt>0</asrwt>
<pdfrwt beam="1">  1        2 0.21581824E+00 0.90741733E+03</pdfrwt>
<pdfrwt beam="2">  1       -2 0.11532984E+00 0.90741733E+03</pdfrwt>
<totfact> 0.84714895E+00</totfact>
</mgrwt>
</event>
<event>
 4    2  0.3747163E-007  0.7995960E+03  0.7818608E-02  0.9711670E-01
         -2   -1    0    0    0  501 -0.00000000000E+00  0.00000000000E+00  0.32908920161E+03  0.32908920162E+03  0.25500000000E-02 0.  1.
          2   -1    0    0  501    0  0.00000000000E+00 -0.00000000000E+00 -0.22009802757E+04  0.22009802757E+04  0.25500000000E-02 0. -1.
    8880023    1    1    2    0    0  0.35790511554E+02 -0.45195416785E+03 -0.18890315994E+04  0.20512908424E+04  0.65864270000E+03 0. -1.
    8880022    1    1    2    0    0 -0.35790511554E+02  0.45195416785E+03  0.17140525329E+02  0.47877863484E+03  0.15294330000E+03 0.  0.
<mgrwt>
<rscale>  0 0.70326179E+03</rscale>
<asrwt>0</asrwt>
<pdfrwt beam="1">  1        2 0.33861234E+00 0.79959598E+03</pdfrwt>
<pdfrwt beam="2">  1       -2 0.50629109E-01 0.79959598E+03</pdfrwt>
<totfact> 0.19621834E+01</totfact>
</mgrwt>
</event>
<event>
 4    2  0.3747163E-007  0.7247875E+03  0.7818608E-02  0.9906708E-01
         -2   -1    0    0    0  501 -0.00000000000E+00  0.00000000000E+00  0.11473657183E+04  0.11473657183E+04  0.25500000000E-02 0.  1.
          2   -1    0    0  501    0  0.00000000000E+00 -0.00000000000E+00 -0.14243822577E+04  0.14243822577E+04  0.25500000000E-02 0. -1.
    8880023    1    1    2    0    0  0.27035166066E+03  0.13570805532E+03 -0.13031124684E+04  0.14911133452E+04  0.65864270000E+03 0. -1.
    8880022    1    1    2    0    0 -0.27035166066E+03 -0.13570805532E+03  0.10260959290E+04  0.10806346308E+04  0.15294330000E+03 0.  0.
<mgrwt>
<rscale>  0 0.59937309E+03</rscale>
<asrwt>0</asrwt>
<pdfrwt beam="1">  1        2 0.21913573E+00 0.72478749E+03</pdfrwt>
<pdfrwt beam="2">  1       -2 0.17651780E+00 0.72478749E+03</pdfrwt>
<totfact> 0.27725952E+00</totfact>
</mgrwt>
</event>
<event>
 4    2  0.3747163E-007  0.7756141E+03  0.7818608E-02  0.9766242E-01
         -2   -1    0    0    0  501 -0.00000000000E+00  0.00000000000E+00  0.20928357873E+03  0.20928357875E+03  0.25500000000E-02 0.  1.
          2   -1    0    0  501    0  0.00000000000E+00 -0.00000000000E+00 -0.20295041487E+04  0.20295041487E+04  0.25500000000E-02 0. -1.
    8880023    1    1    2    0    0  0.38518472167E+03  0.13928301344E+03 -0.73394867874E+03  0.10678285897E+04  0.65864270000E+03 0.  1.
    8880022    1    1    2    0    0 -0.38518472167E+03 -0.13928301344E+03 -0.10862718913E+04  0.11709591378E+04  0.15294330000E+03 0. -1.
<mgrwt>
<rscale>  0 0.67206074E+03</rscale>
<asrwt>0</asrwt>
<pdfrwt beam="1">  1        2 0.31223139E+00 0.77561410E+03</pdfrwt>
<pdfrwt beam="2">  1       -2 0.32197475E-01 0.77561410E+03</pdfrwt>
<totfact> 0.59283402E+01</totfact>
</mgrwt>
</event>
<event>
 4    2  0.3747163E-007  0.8921990E+03  0.7818608E-02  0.9538673E-01
         -2   -1    0    0    0  501 -0.00000000000E+00  0.00000000000E+00  0.21507804371E+03  0.21507804372E+03  0.25500000000E-02 0.  1.
          2   -1    0    0  501    0  0.00000000000E+00 -0.00000000000E+00 -0.26934661076E+04  0.26934661076E+04  0.25500000000E-02 0. -1.
    8880023    1    1    2    0    0  0.53979695746E+03 -0.26613557663E+03 -0.13026457571E+04  0.15788936238E+04  0.65864270000E+03 0.  1.
    8880022    1    1    2    0    0 -0.53979695746E+03  0.26613557663E+03 -0.11757423068E+04  0.13296505276E+04  0.15294330000E+03 0. -1.
<mgrwt>
<rscale>  0 0.81491726E+03</rscale>
<asrwt>0</asrwt>
<pdfrwt beam="1">  1        2 0.41437938E+00 0.89219903E+03</pdfrwt>
<pdfrwt beam="2">  1       -2 0.33088932E-01 0.89219903E+03</pdfrwt>
<totfact> 0.23503522E+01</totfact>
</mgrwt>
</event>
<event>
 4    2  0.3747163E-007  0.1242693E+04  0.7818608E-02  0.9116699E-01
         -2   -1    0    0    0  501 -0.00000000000E+00  0.00000000000E+00  0.14287778975E+04  0.14287778975E+04  0.25500000000E-02 0.  1.
          2   -1    0    0  501    0  0.00000000000E+00 -0.00000000000E+00 -0.11096591087E+04  0.11096591087E+04  0.25500000000E-02 0. -1.
    8880023    1    1    2    0    0  0.77468560050E+02  0.10509397343E+04  0.67691893287E+03  0.14150989898E+04  0.65864270000E+03 0.  0.
    8880022    1    1    2    0    0 -0.77468560050E+02 -0.10509397343E+04 -0.35780014406E+03  0.11233380164E+04  0.15294330000E+03 0.  0.
<mgrwt>
<rscale>  0 0.11956200E+04</rscale>
<asrwt>0</asrwt>
<pdfrwt beam="1">  1        2 0.17071679E+00 0.12426930E+04</pdfrwt>
<pdfrwt beam="2">  1       -2 0.21981198E+00 0.12426930E+04</pdfrwt>
<totfact> 0.20612351E+00</totfact>
</mgrwt>
</event>
<event>
 4    2  0.3747163E-007  0.7803563E+03  0.7818608E-02  0.9755001E-01
          2   -1    0    0  501    0  0.00000000000E+00  0.00000000000E+00  0.12212316207E+04  0.12212316207E+04  0.25500000000E-02 0. -1.
         -2   -1    0    0    0  501 -0.00000000000E+00 -0.00000000000E+00 -0.88447397255E+03  0.88447397255E+03  0.25500000000E-02 0.  1.
    8880023    1    1    2    0    0  0.36315557400E+03  0.20799938797E+03  0.10235141630E+04  0.12870653303E+04  0.65864270000E+03 0. -1.
    8880022    1    1    2    0    0 -0.36315557400E+03 -0.20799938797E+03 -0.68675651489E+03  0.81864026292E+03  0.15294330000E+03 0.  0.
<mgrwt>
<rscale>  0 0.67834399E+03</rscale>
<asrwt>0</asrwt>
<pdfrwt beam="1">  1        2 0.18788179E+00 0.78035628E+03</pdfrwt>
<pdfrwt beam="2">  1       -2 0.13607292E+00 0.78035628E+03</pdfrwt>
<totfact> 0.72309233E+00</totfact>
</mgrwt>
</event>
<event>
 4    2  0.3747163E-007  0.8700396E+03  0.7818608E-02  0.9575949E-01
         -2   -1    0    0    0  501 -0.00000000000E+00  0.00000000000E+00  0.38545972665E+03  0.38545972666E+03  0.25500000000E-02 0.  1.
          2   -1    0    0  501    0  0.00000000000E+00 -0.00000000000E+00 -0.18308652890E+04  0.18308652890E+04  0.25500000000E-02 0. -1.
    8880023    1    1    2    0    0 -0.15090807323E+03  0.54807428035E+03 -0.13698746931E+04  0.16228140819E+04  0.65864270000E+03 0.  0.
    8880022    1    1    2    0    0  0.15090807323E+03 -0.54807428035E+03 -0.75530869320E+02  0.59351093383E+03  0.15294330000E+03 0.  0.
<mgrwt>
<rscale>  0 0.78908728E+03</rscale>
<asrwt>0</asrwt>
<pdfrwt beam="1">  1        2 0.28167158E+00 0.87003958E+03</pdfrwt>
<pdfrwt beam="2">  1       -2 0.59301498E-01 0.87003958E+03</pdfrwt>
<totfact> 0.22357297E+01</totfact>
</mgrwt>
</event>
<event>
 4    2  0.3747163E-007  0.7411487E+03  0.7818608E-02  0.9856614E-01
          2   -1    0    0  501    0  0.00000000000E+00  0.00000000000E+00  0.59736186936E+03  0.59736186937E+03  0.25500000000E-02 0. -1.
         -2   -1    0    0    0  501 -0.00000000000E+00 -0.00000000000E+00 -0.81221656311E+03  0.81221656311E+03  0.25500000000E-02 0.  1.
    8880023    1    1    2    0    0 -0.32467915706E+03  0.10037221544E+03  0.27810148571E+03  0.79160708643E+03  0.65864270000E+03 0. -1.
    8880022    1    1    2    0    0  0.32467915706E+03 -0.10037221544E+03 -0.49295617945E+03  0.61797134605E+03  0.15294330000E+03 0.  0.
<mgrwt>
<rscale>  0 0.62410843E+03</rscale>
<asrwt>0</asrwt>
<pdfrwt beam="1">  1        2 0.91901825E-01 0.74114866E+03</pdfrwt>
<pdfrwt beam="2">  1       -2 0.12495640E+00 0.74114866E+03</pdfrwt>
<totfact> 0.24260344E+01</totfact>
</mgrwt>
</event>
<event>
 4    2  0.3747163E-007  0.7365200E+03  0.7818608E-02  0.9870202E-01
         -2   -1    0    0    0  501 -0.00000000000E+00  0.00000000000E+00  0.36713543689E+03  0.36713543690E+03  0.25500000000E-02 0.  1.
          2   -1    0    0  501    0  0.00000000000E+00 -0.00000000000E+00 -0.13479552038E+04  0.13479552038E+04  0.25500000000E-02 0. -1.
    8880023    1    1    2    0    0 -0.16272205914E+03 -0.28665835525E+03 -0.11076896114E+04  0.13302022262E+04  0.65864270000E+03 0. -1.
    8880022    1    1    2    0    0  0.16272205914E+03  0.28665835525E+03  0.12686984447E+03  0.38488841450E+03  0.15294330000E+03 0.  0.
<mgrwt>
<rscale>  0 0.61727385E+03</rscale>
<asrwt>0</asrwt>
<pdfrwt beam="1">  1        2 0.20737772E+00 0.73651998E+03</pdfrwt>
<pdfrwt beam="2">  1       -2 0.56482376E-01 0.73651998E+03</pdfrwt>
<totfact> 0.46566195E+01</totfact>
</mgrwt>
</event>
<event>
 4    2  0.3747163E-007  0.7965951E+03  0.7818608E-02  0.9718207E-01
          2   -1    0    0  501    0  0.00000000000E+00  0.00000000000E+00  0.14323961125E+04  0.14323961125E+04  0.25500000000E-02 0. -1.
         -2   -1    0    0    0  501 -0.00000000000E+00 -0.00000000000E+00 -0.44895079573E+03  0.44895079573E+03  0.25500000000E-02 0.  1.
    8880023    1    1    2    0    0 -0.42449689841E+03  0.14337322056E+03  0.11328547126E+04  0.13848911522E+04  0.65864270000E+03 0.  0.
    8880022    1    1    2    0    0  0.42449689841E+03 -0.14337322056E+03 -0.14940939588E+03  0.49645575606E+03  0.15294330000E+03 0.  0.
<mgrwt>
<rscale>  0 0.69943020E+03</rscale>
<asrwt>0</asrwt>
<pdfrwt beam="1">  1        2 0.22036863E+00 0.79659507E+03</pdfrwt>
<pdfrwt beam="2">  1       -2 0.69069353E-01 0.79659507E+03</pdfrwt>
<totfact> 0.26995048E+01</totfact>
</mgrwt>
</event>
<event>
 4    2  0.3747163E-007  0.8608029E+03  0.7818608E-02  0.9592137E-01
          2   -1    0    0  501    0  0.00000000000E+00  0.00000000000E+00  0.15895459425E+04  0.15895459425E+04  0.25500000000E-02 0. -1.
         -2   -1    0    0    0  501 -0.00000000000E+00 -0.00000000000E+00 -0.47092275300E+03  0.47092275301E+03  0.25500000000E-02 0.  1.
    8880023    1    1    2    0    0  0.53194745133E+03  0.15557408819E+03  0.68837960595E+02  0.86355095911E+03  0.65864270000E+03 0.  0.
    8880022    1    1    2    0    0 -0.53194745133E+03 -0.15557408819E+03  0.10497852289E+04  0.11969177364E+04  0.15294330000E+03 0.  0.
<mgrwt>
<rscale>  0 0.77818807E+03</rscale>
<asrwt>0</asrwt>
<pdfrwt beam="1">  1        2 0.24454553E+00 0.86080288E+03</pdfrwt>
<pdfrwt beam="2">  1       -2 0.72449655E-01 0.86080288E+03</pdfrwt>
<totfact> 0.19726278E+01</totfact>
</mgrwt>
</event>
<event>
 4    2  0.3747163E-007  0.7686040E+03  0.7818608E-02  0.9783321E-01
         -2   -1    0    0    0  501 -0.00000000000E+00  0.00000000000E+00  0.23155879185E+03  0.23155879186E+03  0.25500000000E-02 0.  1.
          2   -1    0    0  501    0  0.00000000000E+00 -0.00000000000E+00 -0.23529833961E+04  0.23529833961E+04  0.25500000000E-02 0. -1.
    8880023    1    1    2    0    0 -0.12721764157E+02  0.39595461272E+03 -0.20003981610E+04  0.21429757132E+04  0.65864270000E+03 0.  0.
    8880022    1    1    2    0    0  0.12721764157E+02 -0.39595461272E+03 -0.12102644322E+03  0.44156647472E+03  0.15294330000E+03 0.  0.
<mgrwt>
<rscale>  0 0.66265358E+03</rscale>
<asrwt>0</asrwt>
<pdfrwt beam="1">  1        2 0.36199743E+00 0.76860400E+03</pdfrwt>
<pdfrwt beam="2">  1       -2 0.35624431E-01 0.76860400E+03</pdfrwt>
<totfact> 0.32476451E+01</totfact>
</mgrwt>
</event>
<event>
 4    2  0.3747163E-007  0.6590793E+03  0.7818608E-02  0.1025120E+00
          2   -1    0    0  501    0  0.00000000000E+00  0.00000000000E+00  0.46373277357E+03  0.46373277358E+03  0.25500000000E-02 0. -1.
         -2   -1    0    0    0  501 -0.00000000000E+00 -0.00000000000E+00 -0.37895481411E+03  0.37895481412E+03  0.25500000000E-02 0.  1.
    8880023    1    1    2    0    0 -0.30025259566E+01  0.23797541077E+02  0.14795152386E+03  0.67548145630E+03  0.65864270000E+03 0. -1.
    8880022    1    1    2    0    0  0.30025259566E+01 -0.23797541077E+02 -0.63173564397E+02  0.16720613140E+03  0.15294330000E+03 0.  0.
<mgrwt>
<rscale>  0 0.45883332E+03</rscale>
<asrwt>0</asrwt>
<pdfrwt beam="1">  1        2 0.71343503E-01 0.65907932E+03</pdfrwt>
<pdfrwt beam="2">  1       -2 0.58300741E-01 0.65907932E+03</pdfrwt>
<totfact> 0.18739497E+02</totfact>
</mgrwt>
</event>
<event>
 4    2  0.3747163E-007  0.9719856E+03  0.7818608E-02  0.9419163E-01
          2   -1    0    0  501    0  0.00000000000E+00  0.00000000000E+00  0.27139404984E+04  0.27139404984E+04  0.25500000000E-02 0. -1.
         -2   -1    0    0    0  501 -0.00000000000E+00 -0.00000000000E+00 -0.51554010485E+03  0.51554010486E+03  0.25500000000E-02 0.  1.
    8880023    1    1    2    0    0  0.62319434708E+03 -0.35010655442E+03  0.22948070134E+04  0.24921667738E+04  0.65864270000E+03 0.  0.
    8880022    1    1    2    0    0 -0.62319434708E+03  0.35010655442E+03 -0.96406619852E+02  0.73731382941E+03  0.15294330000E+03 0.  0.
<mgrwt>
<rscale>  0 0.90515264E+03</rscale>
<asrwt>0</asrwt>
<pdfrwt beam="1">  1        2 0.41752930E+00 0.97198560E+03</pdfrwt>
<pdfrwt beam="2">  1       -2 0.79313863E-01 0.97198560E+03</pdfrwt>
<totfact> 0.37403637E+00</totfact>
</mgrwt>
</event>
<event>
 4    2  0.3747163E-007  0.6805950E+03  0.7818608E-02  0.1008989E+00
          2   -1    0    0  501    0  0.00000000000E+00  0.00000000000E+00  0.16173489277E+04  0.16173489277E+04  0.25500000000E-02 0. -1.
         -2   -1    0    0    0  501 -0.00000000000E+00 -0.00000000000E+00 -0.31111569038E+03  0.31111569039E+03  0.25500000000E-02 0.  1.
    8880023    1    1    2    0    0  0.16209472046E+03 -0.55898270061E+02  0.14874996135E+04  0.16358070245E+04  0.65864270000E+03 0. -1.
    8880022    1    1    2    0    0 -0.16209472046E+03  0.55898270061E+02 -0.18126637611E+03  0.29265759365E+03  0.15294330000E+03 0.  0.
<mgrwt>
<rscale>  0 0.51878392E+03</rscale>
<asrwt>0</asrwt>
<pdfrwt beam="1">  1        2 0.24882291E+00 0.68059498E+03</pdfrwt>
<pdfrwt beam="2">  1       -2 0.47863953E-01 0.68059498E+03</pdfrwt>
<totfact> 0.46548180E+01</totfact>
</mgrwt>
</event>
<event>
 4    2  0.3747163E-007  0.6899241E+03  0.7818608E-02  0.1004189E+00
          2   -1    0    0  501    0  0.00000000000E+00  0.00000000000E+00  0.17754553188E+04  0.17754553188E+04  0.25500000000E-02 0. -1.
         -2   -1    0    0    0  501 -0.00000000000E+00 -0.00000000000E+00 -0.16589555750E+03  0.16589555752E+03  0.25500000000E-02 0.  1.
    8880023    1    1    2    0    0  0.20519566022E+03 -0.89343262148E+01  0.15213932590E+04  0.16705187027E+04  0.65864270000E+03 0. -1.
    8880022    1    1    2    0    0 -0.20519566022E+03  0.89343262148E+01  0.88166502325E+02  0.27083217369E+03  0.15294330000E+03 0.  0.
<mgrwt>
<rscale>  0 0.53851117E+03</rscale>
<asrwt>0</asrwt>
<pdfrwt beam="1">  1        2 0.27314698E+00 0.68992412E+03</pdfrwt>
<pdfrwt beam="2">  1       -2 0.25522392E-01 0.68992412E+03</pdfrwt>
<totfact> 0.12625600E+02</totfact>
</mgrwt>
</event>
<event>
 4    2  0.3747163E-007  0.6789105E+03  0.7818608E-02  0.1009947E+00
          2   -1    0    0  501    0  0.00000000000E+00  0.00000000000E+00  0.21317088274E+04  0.21317088274E+04  0.25500000000E-02 0. -1.
         -2   -1    0    0    0  501 -0.00000000000E+00 -0.00000000000E+00 -0.10606201091E+03  0.10606201094E+03  0.25500000000E-02 0.  1.
    8880023    1    1    2    0    0 -0.16092965971E+03  0.34797246438E+02  0.17787851485E+04  0.19039422298E+04  0.65864270000E+03 0. -1.
    8880022    1    1    2    0    0  0.16092965971E+03 -0.34797246438E+02  0.24686166804E+03  0.33382860857E+03  0.15294330000E+03 0.  1.
<mgrwt>
<rscale>  0 0.51495789E+03</rscale>
<asrwt>0</asrwt>
<pdfrwt beam="1">  1        2 0.32795519E+00 0.67891046E+03</pdfrwt>
<pdfrwt beam="2">  1       -2 0.16317233E-01 0.67891046E+03</pdfrwt>
<totfact> 0.17719167E+02</totfact>
</mgrwt>
</event>
<event>
 4    2  0.3747163E-007  0.6737357E+03  0.7818608E-02  0.1013115E+00
         -2   -1    0    0    0  501 -0.00000000000E+00  0.00000000000E+00  0.19632397398E+03  0.19632397400E+03  0.25500000000E-02 0.  1.
          2   -1    0    0  501    0  0.00000000000E+00 -0.00000000000E+00 -0.14008155179E+04  0.14008155179E+04  0.25500000000E-02 0. -1.
    8880023    1    1    2    0    0 -0.41835839236E+01  0.14174669848E+03 -0.12139251829E+04  0.13883566490E+04  0.65864270000E+03 0. -1.
    8880022    1    1    2    0    0  0.41835839236E+01 -0.14174669848E+03  0.94336390368E+01  0.20878284284E+03  0.15294330000E+03 0.  0.
<mgrwt>
<rscale>  0 0.50255077E+03</rscale>
<asrwt>0</asrwt>
<pdfrwt beam="1">  1        2 0.21551007E+00 0.67373573E+03</pdfrwt>
<pdfrwt beam="2">  1       -2 0.30203689E-01 0.67373573E+03</pdfrwt>
<totfact> 0.14945316E+02</totfact>
</mgrwt>
</event>
<event>
 4    2  0.3747163E-007  0.8222256E+03  0.7818608E-02  0.9664653E-01
         -2   -1    0    0    0  501 -0.00000000000E+00  0.00000000000E+00  0.26343916465E+03  0.26343916467E+03  0.25500000000E-02 0.  1.
          2   -1    0    0  501    0  0.00000000000E+00 -0.00000000000E+00 -0.46061798025E+04  0.46061798025E+04  0.25500000000E-02 0. -1.
    8880023    1    1    2    0    0  0.36072242035E+03 -0.33484932892E+03 -0.42707937450E+04  0.43492222473E+04  0.65864270000E+03 0.  1.
    8880022    1    1    2    0    0 -0.36072242035E+03  0.33484932892E+03 -0.71946892793E+02  0.52039671984E+03  0.15294330000E+03 0.  0.
<mgrwt>
<rscale>  0 0.73160926E+03</rscale>
<asrwt>0</asrwt>
<pdfrwt beam="1">  1        2 0.70864299E+00 0.82222560E+03</pdfrwt>
<pdfrwt beam="2">  1       -2 0.40529106E-01 0.82222560E+03</pdfrwt>
<totfact> 0.62500270E-01</totfact>
</mgrwt>
</event>
<event>
 4    2  0.3747163E-007  0.6860064E+03  0.7818608E-02  0.1006112E+00
          2   -1    0    0  501    0  0.00000000000E+00  0.00000000000E+00  0.11861072950E+04  0.11861072950E+04  0.25500000000E-02 0. -1.
         -2   -1    0    0    0  501 -0.00000000000E+00 -0.00000000000E+00 -0.61456504907E+03  0.61456504908E+03  0.25500000000E-02 0.  1.
    8880023    1    1    2    0    0  0.13713523409E+03 -0.13412118160E+03  0.10550619170E+04  0.12584754343E+04  0.65864270000E+03 0. -1.
    8880022    1    1    2    0    0 -0.13713523409E+03  0.13412118160E+03 -0.48351967100E+03  0.54219690984E+03  0.15294330000E+03 0.  0.
<mgrwt>
<rscale>  0 0.53049739E+03</rscale>
<asrwt>0</asrwt>
<pdfrwt beam="1">  1        2 0.18247805E+00 0.68600639E+03</pdfrwt>
<pdfrwt beam="2">  1       -2 0.94548469E-01 0.68600639E+03</pdfrwt>
<totfact> 0.18682595E+01</totfact>
</mgrwt>
</event>
<event>
 4    2  0.3747163E-007  0.7283592E+03  0.7818608E-02  0.9895254E-01
          2   -1    0    0  501    0  0.00000000000E+00  0.00000000000E+00  0.82367863730E+03  0.82367863731E+03  0.25500000000E-02 0. -1.
         -2   -1    0    0    0  501 -0.00000000000E+00 -0.00000000000E+00 -0.35498576051E+03  0.35498576052E+03  0.25500000000E-02 0.  1.
    8880023    1    1    2    0    0  0.32807626486E+02 -0.30922571001E+03  0.37727843123E+03  0.82027196772E+03  0.65864270000E+03 0.  0.
    8880022    1    1    2    0    0 -0.32807626486E+02  0.30922571001E+03  0.91414445568E+02  0.35839243011E+03  0.15294330000E+03 0.  0.
<mgrwt>
<rscale>  0 0.60491853E+03</rscale>
<asrwt>0</asrwt>
<pdfrwt beam="1">  1        2 0.12671979E+00 0.72835917E+03</pdfrwt>
<pdfrwt beam="2">  1       -2 0.54613195E-01 0.72835917E+03</pdfrwt>
<totfact> 0.10594216E+02</totfact>
</mgrwt>
</event>
<event>
 4    2  0.3747163E-007  0.7541126E+03  0.7818608E-02  0.9820595E-01
         -2   -1    0    0    0  501 -0.00000000000E+00  0.00000000000E+00  0.15231947114E+04  0.15231947114E+04  0.25500000000E-02 0.  1.
          2   -1    0    0  501    0  0.00000000000E+00 -0.00000000000E+00 -0.94804097684E+03  0.94804097685E+03  0.25500000000E-02 0. -1.
    8880023    1    1    2    0    0 -0.32400324017E+03 -0.17290890407E+03 -0.76444806348E+03  0.10738094043E+04  0.65864270000E+03 0. -1.
    8880022    1    1    2    0    0  0.32400324017E+03  0.17290890407E+03  0.13396017980E+04  0.13974262840E+04  0.15294330000E+03 0.  0.
<mgrwt>
<rscale>  0 0.64268923E+03</rscale>
<asrwt>0</asrwt>
<pdfrwt beam="1">  1        2 0.14585246E+00 0.75411259E+03</pdfrwt>
<pdfrwt beam="2">  1       -2 0.23433765E+00 0.75411259E+03</pdfrwt>
<totfact> 0.22513390E+00</totfact>
</mgrwt>
</event>
<event>
 4    2  0.3747163E-007  0.6620207E+03  0.7818608E-02  0.1022175E+00
          2   -1    0    0  501    0  0.00000000000E+00  0.00000000000E+00  0.25977993311E+04  0.25977993311E+04  0.25500000000E-02 0. -1.
         -2   -1    0    0    0  501 -0.00000000000E+00 -0.00000000000E+00 -0.11413542376E+03  0.11413542379E+03  0.25500000000E-02 0.  1.
    8880023    1    1    2    0    0 -0.45999088745E+02  0.48427747487E+02  0.24548803524E+04  0.25425791853E+04  0.65864270000E+03 0. -1.
    8880022    1    1    2    0    0  0.45999088745E+02 -0.48427747487E+02  0.28783554965E+02  0.16935556957E+03  0.15294330000E+03 0.  0.
<mgrwt>
<rscale>  0 0.46909662E+03</rscale>
<asrwt>0</asrwt>
<pdfrwt beam="1">  1        2 0.39966144E+00 0.66202067E+03</pdfrwt>
<pdfrwt beam="2">  1       -2 0.17559296E-01 0.66202067E+03</pdfrwt>
<totfact> 0.86078595E+01</totfact>
</mgrwt>
</event>
<event>
 4    2  0.3747163E-007  0.7617359E+03  0.7818608E-02  0.9800634E-01
         -2   -1    0    0    0  501 -0.00000000000E+00  0.00000000000E+00  0.31298408636E+03  0.31298408637E+03  0.25500000000E-02 0.  1.
          2   -1    0    0  501    0  0.00000000000E+00 -0.00000000000E+00 -0.15784245829E+04  0.15784245829E+04  0.25500000000E-02 0. -1.
    8880023    1    1    2    0    0 -0.37462046569E+03  0.78044322532E+02 -0.12681084293E+04  0.14793040946E+04  0.65864270000E+03 0.  0.
    8880022    1    1    2    0    0  0.37462046569E+03 -0.78044322532E+02  0.26679327332E+01  0.41210457468E+03  0.15294330000E+03 0.  0.
<mgrwt>
<rscale>  0 0.65328534E+03</rscale>
<asrwt>0</asrwt>
<pdfrwt beam="1">  1        2 0.24283455E+00 0.76173592E+03</pdfrwt>
<pdfrwt beam="2">  1       -2 0.48151399E-01 0.76173592E+03</pdfrwt>
<totfact> 0.47872151E+01</totfact>
</mgrwt>
</event>
<event>
 4    2  0.3747163E-007  0.7850405E+03  0.7818608E-02  0.9744127E-01
         -2   -1    0    0    0  501 -0.00000000000E+00  0.00000000000E+00  0.90444892664E+03  0.90444892664E+03  0.25500000000E-02 0.  1.
          2   -1    0    0  501    0  0.00000000000E+00 -0.00000000000E+00 -0.73107634863E+03  0.73107634864E+03  0.25500000000E-02 0. -1.
    8880023    1    1    2    0    0  0.40552053440E+03 -0.13428135227E+03 -0.41859839607E+03  0.88967028097E+03  0.65864270000E+03 0. -1.
    8880022    1    1    2    0    0 -0.40552053440E+03  0.13428135227E+03  0.59197097407E+03  0.74585499432E+03  0.15294330000E+03 0.  0.
<mgrwt>
<rscale>  0 0.68449171E+03</rscale>
<asrwt>0</asrwt>
<pdfrwt beam="1">  1        2 0.11247328E+00 0.78504050E+03</pdfrwt>
<pdfrwt beam="2">  1       -2 0.13914599E+00 0.78504050E+03</pdfrwt>
<totfact> 0.14303989E+01</totfact>
</mgrwt>
</event>
<event>
 4    2  0.3747163E-007  0.1536302E+04  0.7818608E-02  0.8884418E-01
         -2   -1    0    0    0  501 -0.00000000000E+00  0.00000000000E+00  0.15758629942E+04  0.15758629942E+04  0.25500000000E-02 0.  1.
          2   -1    0    0  501    0  0.00000000000E+00 -0.00000000000E+00 -0.16558985109E+04  0.16558985109E+04  0.25500000000E-02 0. -1.
    8880023    1    1    2    0    0 -0.43136177054E+03 -0.13192193840E+04  0.63573531826E+03  0.16626431853E+04  0.65864270000E+03 0.  0.
    8880022    1    1    2    0    0  0.43136177054E+03  0.13192193840E+04 -0.71577083498E+03  0.15691183198E+04  0.15294330000E+03 0.  0.
<mgrwt>
<rscale>  0 0.15000518E+04</rscale>
<asrwt>0</asrwt>
<pdfrwt beam="1">  1        2 0.25475362E+00 0.15363017E+04</pdfrwt>
<pdfrwt beam="2">  1       -2 0.24244046E+00 0.15363017E+04</pdfrwt>
<totfact> 0.69489019E-01</totfact>
</mgrwt>
</event>
<event>
 4    2  0.3747163E-007  0.8159799E+03  0.7818608E-02  0.9677253E-01
         -2   -1    0    0    0  501 -0.00000000000E+00  0.00000000000E+00  0.14109974343E+04  0.14109974343E+04  0.25500000000E-02 0.  1.
          2   -1    0    0  501    0  0.00000000000E+00 -0.00000000000E+00 -0.72677806305E+03  0.72677806305E+03  0.25500000000E-02 0. -1.
    8880023    1    1    2    0    0  0.45871143780E+03  0.14695863570E+03 -0.42414451782E+03  0.91963134029E+03  0.65864270000E+03 0. -1.
    8880022    1    1    2    0    0 -0.45871143780E+03 -0.14695863570E+03  0.11083638891E+04  0.12181441571E+04  0.15294330000E+03 0.  0.
<mgrwt>
<rscale>  0 0.72387439E+03</rscale>
<asrwt>0</asrwt>
<pdfrwt beam="1">  1        2 0.11181201E+00 0.81597992E+03</pdfrwt>
<pdfrwt beam="2">  1       -2 0.21707653E+00 0.81597992E+03</pdfrwt>
<totfact> 0.40906273E+00</totfact>
</mgrwt>
</event>
<event>
 4    2  0.3747163E-007  0.7710274E+03  0.7818608E-02  0.9777352E-01
          2   -1    0    0  501    0  0.00000000000E+00  0.00000000000E+00  0.16132667974E+04  0.16132667974E+04  0.25500000000E-02 0. -1.
         -2   -1    0    0    0  501 -0.00000000000E+00 -0.00000000000E+00 -0.47383767584E+03  0.47383767584E+03  0.25500000000E-02 0.  1.
    8880023    1    1    2    0    0  0.26848375303E+03 -0.29763986415E+03  0.13905373000E+04  0.15899928312E+04  0.65864270000E+03 0. -1.
    8880022    1    1    2    0    0 -0.26848375303E+03  0.29763986415E+03 -0.25110817842E+03  0.49711164204E+03  0.15294330000E+03 0.  0.
<mgrwt>
<rscale>  0 0.66592245E+03</rscale>
<asrwt>0</asrwt>
<pdfrwt beam="1">  1        2 0.24819489E+00 0.77102738E+03</pdfrwt>
<pdfrwt beam="2">  1       -2 0.72898104E-01 0.77102738E+03</pdfrwt>
<totfact> 0.19079008E+01</totfact>
</mgrwt>
</event>
<event>
 4    2  0.3747163E-007  0.9663010E+03  0.7818608E-02  0.9427038E-01
          2   -1    0    0  501    0  0.00000000000E+00  0.00000000000E+00  0.19584670874E+04  0.19584670874E+04  0.25500000000E-02 0. -1.
         -2   -1    0    0    0  501 -0.00000000000E+00 -0.00000000000E+00 -0.60003310563E+03  0.60003310563E+03  0.25500000000E-02 0.  1.
    8880023    1    1    2    0    0  0.36899877144E+03  0.60313123786E+03  0.15350284769E+04  0.18138495017E+04  0.65864270000E+03 0. -1.
    8880022    1    1    2    0    0 -0.36899877144E+03 -0.60313123786E+03 -0.17659449517E+03  0.74465069136E+03  0.15294330000E+03 0.  0.
<mgrwt>
<rscale>  0 0.89883533E+03</rscale>
<asrwt>0</asrwt>
<pdfrwt beam="1">  1        2 0.30130263E+00 0.96630098E+03</pdfrwt>
<pdfrwt beam="2">  1       -2 0.92312784E-01 0.96630098E+03</pdfrwt>
<totfact> 0.70537151E+00</totfact>
</mgrwt>
</event>
<event>
 4    2  0.3747163E-007  0.7583430E+03  0.7818608E-02  0.9809416E-01
          2   -1    0    0  501    0  0.00000000000E+00  0.00000000000E+00  0.14718512325E+04  0.14718512325E+04  0.25500000000E-02 0. -1.
         -2   -1    0    0    0  501 -0.00000000000E+00 -0.00000000000E+00 -0.32371002307E+03  0.32371002308E+03  0.25500000000E-02 0.  1.
    8880023    1    1    2    0    0  0.23783098280E+03 -0.29105042124E+03  0.11642555334E+04  0.13894513584E+04  0.65864270000E+03 0.  0.
    8880022    1    1    2    0    0 -0.23783098280E+03  0.29105042124E+03 -0.16114324030E+02  0.40610989712E+03  0.15294330000E+03 0.  1.
<mgrwt>
<rscale>  0 0.64859653E+03</rscale>
<asrwt>0</asrwt>
<pdfrwt beam="1">  1        2 0.22643865E+00 0.75834302E+03</pdfrwt>
<pdfrwt beam="2">  1       -2 0.49801543E-01 0.75834302E+03</pdfrwt>
<totfact> 0.51260412E+01</totfact>
</mgrwt>
</event>
<event>
 4    2  0.3747163E-007  0.7858314E+03  0.7818608E-02  0.9742313E-01
         -2   -1    0    0    0  501 -0.00000000000E+00  0.00000000000E+00  0.10157251357E+04  0.10157251357E+04  0.25500000000E-02 0.  1.
          2   -1    0    0  501    0  0.00000000000E+00 -0.00000000000E+00 -0.54231216199E+03  0.54231216200E+03  0.25500000000E-02 0. -1.
    8880023    1    1    2    0    0 -0.12246084357E+02  0.42845161477E+03  0.69752809814E+03  0.10507504017E+04  0.65864270000E+03 0.  0.
    8880022    1    1    2    0    0  0.12246084357E+02 -0.42845161477E+03 -0.22411512445E+03  0.50728689595E+03  0.15294330000E+03 0.  0.
<mgrwt>
<rscale>  0 0.68552420E+03</rscale>
<asrwt>0</asrwt>
<pdfrwt beam="1">  1        2 0.83432641E-01 0.78583138E+03</pdfrwt>
<pdfrwt beam="2">  1       -2 0.15626540E+00 0.78583138E+03</pdfrwt>
<totfact> 0.15200751E+01</totfact>
</mgrwt>
</event>
<event>
 4    2  0.3747163E-007  0.6967971E+03  0.7818608E-02  0.1001076E+00
          2   -1    0    0  501    0  0.00000000000E+00  0.00000000000E+00  0.87039212879E+03  0.87039212879E+03  0.25500000000E-02 0. -1.
         -2   -1    0    0    0  501 -0.00000000000E+00 -0.00000000000E+00 -0.27085892594E+03  0.27085892595E+03  0.25500000000E-02 0.  1.
    8880023    1    1    2    0    0 -0.86610849117E+02 -0.21027273044E+03  0.44150846007E+03  0.82489756148E+03  0.65864270000E+03 0.  1.
    8880022    1    1    2    0    0  0.86610849117E+02  0.21027273044E+03  0.15802474279E+03  0.31635349327E+03  0.15294330000E+03 0. -1.
<mgrwt>
<rscale>  0 0.55181098E+03</rscale>
<asrwt>0</asrwt>
<pdfrwt beam="1">  1        2 0.13390648E+00 0.69679715E+03</pdfrwt>
<pdfrwt beam="2">  1       -2 0.41670604E-01 0.69679715E+03</pdfrwt>
<totfact> 0.16993961E+02</totfact>
</mgrwt>
</event>
<event>
 4    2  0.3747163E-007  0.6914990E+03  0.7818608E-02  0.1003448E+00
          2   -1    0    0  501    0  0.00000000000E+00  0.00000000000E+00  0.10034297759E+04  0.10034297759E+04  0.25500000000E-02 0. -1.
         -2   -1    0    0    0  501 -0.00000000000E+00 -0.00000000000E+00 -0.32815100814E+03  0.32815100815E+03  0.25500000000E-02 0.  1.
    8880023    1    1    2    0    0  0.17282565302E+03 -0.12038256294E+03  0.78760124834E+03  0.10480871149E+04  0.65864270000E+03 0. -1.
    8880022    1    1    2    0    0 -0.17282565302E+03  0.12038256294E+03 -0.11232248056E+03  0.28349366916E+03  0.15294330000E+03 0.  0.
<mgrwt>
<rscale>  0 0.54163808E+03</rscale>
<asrwt>0</asrwt>
<pdfrwt beam="1">  1        2 0.15437381E+00 0.69149901E+03</pdfrwt>
<pdfrwt beam="2">  1       -2 0.50484770E-01 0.69149901E+03</pdfrwt>
<totfact> 0.94694621E+01</totfact>
</mgrwt>
</event>
<event>
 4    2  0.3747163E-007  0.8248229E+03  0.7818608E-02  0.9659491E-01
          2   -1    0    0  501    0  0.00000000000E+00  0.00000000000E+00  0.19144922356E+04  0.19144922356E+04  0.25500000000E-02 0. -1.
         -2   -1    0    0    0  501 -0.00000000000E+00 -0.00000000000E+00 -0.40173557838E+03  0.40173557838E+03  0.25500000000E-02 0.  1.
    8880023    1    1    2    0    0  0.33210657613E+03 -0.36909061940E+03  0.15897818432E+04  0.17910162419E+04  0.65864270000E+03 0.  0.
    8880022    1    1    2    0    0 -0.33210657613E+03  0.36909061940E+03 -0.77025185984E+02  0.52521157216E+03  0.15294330000E+03 0.  0.
<mgrwt>
<rscale>  0 0.73480785E+03</rscale>
<asrwt>0</asrwt>
<pdfrwt beam="1">  1        2 0.29453726E+00 0.82482293E+03</pdfrwt>
<pdfrwt beam="2">  1       -2 0.61805476E-01 0.82482293E+03</pdfrwt>
<totfact> 0.18532154E+01</totfact>
</mgrwt>
</event>
<event>
 4    2  0.3747163E-007  0.7658471E+03  0.7818608E-02  0.9790198E-01
          2   -1    0    0  501    0  0.00000000000E+00  0.00000000000E+00  0.15893784482E+04  0.15893784482E+04  0.25500000000E-02 0. -1.
         -2   -1    0    0    0  501 -0.00000000000E+00 -0.00000000000E+00 -0.52299916905E+03  0.52299916906E+03  0.25500000000E-02 0.  1.
    8880023    1    1    2    0    0 -0.38408291911E+03  0.72055181336E+02  0.13869171340E+04  0.15843171970E+04  0.65864270000E+03 0. -1.
    8880022    1    1    2    0    0  0.38408291911E+03 -0.72055181336E+02 -0.32053785492E+03  0.52806042018E+03  0.15294330000E+03 0.  0.
<mgrwt>
<rscale>  0 0.65891213E+03</rscale>
<asrwt>0</asrwt>
<pdfrwt beam="1">  1        2 0.24451976E+00 0.76584714E+03</pdfrwt>
<pdfrwt beam="2">  1       -2 0.80461411E-01 0.76584714E+03</pdfrwt>
<totfact> 0.15794496E+01</totfact>
</mgrwt>
</event>
<event>
 4    2  0.3747163E-007  0.6655372E+03  0.7818608E-02  0.1019087E+00
          2   -1    0    0  501    0  0.00000000000E+00  0.00000000000E+00  0.13175374501E+04  0.13175374501E+04  0.25500000000E-02 0. -1.
         -2   -1    0    0    0  501 -0.00000000000E+00 -0.00000000000E+00 -0.15403063935E+03  0.15403063937E+03  0.25500000000E-02 0.  1.
    8880023    1    1    2    0    0  0.63370905816E+02  0.71509581325E+02  0.10893775099E+04  0.12765904031E+04  0.65864270000E+03 0. -1.
    8880022    1    1    2    0    0 -0.63370905816E+02 -0.71509581325E+02  0.74129300829E+02  0.19497768637E+03  0.15294330000E+03 0.  0.
<mgrwt>
<rscale>  0 0.48017545E+03</rscale>
<asrwt>0</asrwt>
<pdfrwt beam="1">  1        2 0.20269807E+00 0.66553715E+03</pdfrwt>
<pdfrwt beam="2">  1       -2 0.23697021E-01 0.66553715E+03</pdfrwt>
<totfact> 0.25929961E+02</totfact>
</mgrwt>
</event>
<event>
 4    2  0.3747163E-007  0.6615817E+03  0.7818608E-02  0.1022591E+00
         -2   -1    0    0    0  501 -0.00000000000E+00  0.00000000000E+00  0.23120692967E+04  0.23120692967E+04  0.25500000000E-02 0.  1.
          2   -1    0    0  501    0  0.00000000000E+00 -0.00000000000E+00 -0.81871188439E+02  0.81871188478E+02  0.25500000000E-02 0. -1.
    8880023    1    1    2    0    0 -0.32505298443E+02  0.53136423850E+02  0.14128399999E+04  0.15600663913E+04  0.65864270000E+03 0. -1.
    8880022    1    1    2    0    0  0.32505298443E+02 -0.53136423850E+02  0.81735810838E+03  0.83387409381E+03  0.15294330000E+03 0. -1.
<mgrwt>
<rscale>  0 0.46762925E+03</rscale>
<asrwt>0</asrwt>
<pdfrwt beam="1">  1        2 0.12595569E-01 0.66158165E+03</pdfrwt>
<pdfrwt beam="2">  1       -2 0.35570293E+00 0.66158165E+03</pdfrwt>
<totfact> 0.75862910E+00</totfact>
</mgrwt>
</event>
<event>
 4    2  0.3747163E-007  0.6776158E+03  0.7818608E-02  0.1010706E+00
         -2   -1    0    0    0  501 -0.00000000000E+00  0.00000000000E+00  0.17486945542E+04  0.17486945542E+04  0.25500000000E-02 0.  1.
          2   -1    0    0  501    0  0.00000000000E+00 -0.00000000000E+00 -0.38567727741E+03  0.38567727742E+03  0.25500000000E-02 0. -1.
    8880023    1    1    2    0    0 -0.15918098198E+03 -0.37943402290E+01 -0.72949686560E+02  0.68153125026E+03  0.65864270000E+03 0. -1.
    8880022    1    1    2    0    0  0.15918098198E+03  0.37943402290E+01  0.14359669633E+04  0.14528405813E+04  0.15294330000E+03 0.  0.
<mgrwt>
<rscale>  0 0.51195112E+03</rscale>
<asrwt>0</asrwt>
<pdfrwt beam="1">  1        2 0.59334966E-01 0.67761581E+03</pdfrwt>
<pdfrwt beam="2">  1       -2 0.26902993E+00 0.67761581E+03</pdfrwt>
<totfact> 0.42468514E+00</totfact>
</mgrwt>
</event>
<event>
 4    2  0.3747163E-007  0.6663354E+03  0.7818608E-02  0.1018438E+00
          2   -1    0    0  501    0  0.00000000000E+00  0.00000000000E+00  0.56709800226E+03  0.56709800227E+03  0.25500000000E-02 0. -1.
         -2   -1    0    0    0  501 -0.00000000000E+00 -0.00000000000E+00 -0.65158800277E+03  0.65158800278E+03  0.25500000000E-02 0.  1.
    8880023    1    1    2    0    0 -0.23795336031E+02  0.98114316606E+02  0.34600003034E+03  0.75081213655E+03  0.65864270000E+03 0. -1.
    8880022    1    1    2    0    0  0.23795336031E+02 -0.98114316606E+02 -0.43049003085E+03  0.46787386849E+03  0.15294330000E+03 0.  0.
<mgrwt>
<rscale>  0 0.48254373E+03</rscale>
<asrwt>0</asrwt>
<pdfrwt beam="1">  1        2 0.87245847E-01 0.66633538E+03</pdfrwt>
<pdfrwt beam="2">  1       -2 0.10024431E+00 0.66633538E+03</pdfrwt>
<totfact> 0.44405710E+01</totfact>
</mgrwt>
</event>
<event>
 4    2  0.3747163E-007  0.8195656E+03  0.7818608E-02  0.9669986E-01
         -2   -1    0    0    0  501 -0.00000000000E+00  0.00000000000E+00  0.28381916872E+03  0.28381916873E+03  0.25500000000E-02 0.  1.
          2   -1    0    0  501    0  0.00000000000E+00 -0.00000000000E+00 -0.25511904809E+04  0.25511904809E+04  0.25500000000E-02 0. -1.
    8880023    1    1    2    0    0  0.42871467224E+03 -0.23255400509E+03 -0.21633471849E+04  0.23133868860E+04  0.65864270000E+03 0.  0.
    8880022    1    1    2    0    0 -0.42871467224E+03  0.23255400509E+03 -0.10402412724E+03  0.52162276363E+03  0.15294330000E+03 0.  0.
<mgrwt>
<rscale>  0 0.72832271E+03</rscale>
<asrwt>0</asrwt>
<pdfrwt beam="1">  1        2 0.39249083E+00 0.81956564E+03</pdfrwt>
<pdfrwt beam="2">  1       -2 0.43664489E-01 0.81956564E+03</pdfrwt>
<totfact> 0.16764330E+01</totfact>
</mgrwt>
</event>
<event>
 4    2  0.3747163E-007  0.7040823E+03  0.7818608E-02  0.9980670E-01
         -2   -1    0    0    0  501 -0.00000000000E+00  0.00000000000E+00  0.60831001800E+03  0.60831001800E+03  0.25500000000E-02 0.  1.
          2   -1    0    0  501    0  0.00000000000E+00 -0.00000000000E+00 -0.77438997175E+03  0.77438997175E+03  0.25500000000E-02 0. -1.
    8880023    1    1    2    0    0 -0.17046257092E+03  0.18128479283E+03 -0.55485076693E+03  0.89643250946E+03  0.65864270000E+03 0. -1.
    8880022    1    1    2    0    0  0.17046257092E+03 -0.18128479283E+03  0.38877081318E+03  0.48626748029E+03  0.15294330000E+03 0.  0.
<mgrwt>
<rscale>  0 0.56506013E+03</rscale>
<asrwt>0</asrwt>
<pdfrwt beam="1">  1        2 0.11913692E+00 0.70408229E+03</pdfrwt>
<pdfrwt beam="2">  1       -2 0.93586156E-01 0.70408229E+03</pdfrwt>
<totfact> 0.35333300E+01</totfact>
</mgrwt>
</event>
<event>
 4    2  0.3747163E-007  0.7759868E+03  0.7818608E-02  0.9765350E-01
         -2   -1    0    0    0  501 -0.00000000000E+00  0.00000000000E+00  0.30373373520E+03  0.30373373521E+03  0.25500000000E-02 0.  1.
          2   -1    0    0  501    0  0.00000000000E+00 -0.00000000000E+00 -0.33855433958E+04  0.33855433958E+04  0.25500000000E-02 0. -1.
    8880023    1    1    2    0    0  0.26201986015E+03 -0.31573868860E+03 -0.31517296967E+04  0.32458520628E+04  0.65864270000E+03 0.  0.
    8880022    1    1    2    0    0 -0.26201986015E+03  0.31573868860E+03  0.69920036115E+02  0.44342506814E+03  0.15294330000E+03 0.  0.
<mgrwt>
<rscale>  0 0.67255684E+03</rscale>
<asrwt>0</asrwt>
<pdfrwt beam="1">  1        2 0.52085281E+00 0.77598681E+03</pdfrwt>
<pdfrwt beam="2">  1       -2 0.46728269E-01 0.77598681E+03</pdfrwt>
<totfact> 0.45495409E+00</totfact>
</mgrwt>
</event>
<event>
 4    2  0.3747163E-007  0.9444241E+03  0.7818608E-02  0.9458182E-01
         -2   -1    0    0    0  501 -0.00000000000E+00  0.00000000000E+00  0.89217955812E+03  0.89217955813E+03  0.25500000000E-02 0.  1.
          2   -1    0    0  501    0  0.00000000000E+00 -0.00000000000E+00 -0.83393049023E+03  0.83393049023E+03  0.25500000000E-02 0. -1.
    8880023    1    1    2    0    0  0.67648851785E+03 -0.22135737671E+02 -0.23429010937E+03  0.97305126652E+03  0.65864270000E+03 0.  0.
    8880022    1    1    2    0    0 -0.67648851785E+03  0.22135737671E+02  0.29253917727E+03  0.75305878184E+03  0.15294330000E+03 0. -1.
<mgrwt>
<rscale>  0 0.87438341E+03</rscale>
<asrwt>0</asrwt>
<pdfrwt beam="1">  1        2 0.12829700E+00 0.94442412E+03</pdfrwt>
<pdfrwt beam="2">  1       -2 0.13725839E+00 0.94442412E+03</pdfrwt>
<totfact> 0.12276162E+01</totfact>
</mgrwt>
</event>
<event>
 4    2  0.3747163E-007  0.7063660E+03  0.7818608E-02  0.9971751E-01
         -2   -1    0    0    0  501 -0.00000000000E+00  0.00000000000E+00  0.35994508742E+03  0.35994508743E+03  0.25500000000E-02 0.  1.
          2   -1    0    0  501    0  0.00000000000E+00 -0.00000000000E+00 -0.86346173153E+03  0.86346173153E+03  0.25500000000E-02 0. -1.
    8880023    1    1    2    0    0 -0.25215880715E+03  0.39479925771E+02 -0.58248883288E+03  0.91555784921E+03  0.65864270000E+03 0. -1.
    8880022    1    1    2    0    0  0.25215880715E+03 -0.39479925771E+02  0.78972188769E+02  0.30784896975E+03  0.15294330000E+03 0.  0.
<mgrwt>
<rscale>  0 0.56906430E+03</rscale>
<asrwt>0</asrwt>
<pdfrwt beam="1">  1        2 0.13284027E+00 0.70636601E+03</pdfrwt>
<pdfrwt beam="2">  1       -2 0.55376168E-01 0.70636601E+03</pdfrwt>
<totfact> 0.96724195E+01</totfact>
</mgrwt>
</event>
<event>
 4    2  0.3747163E-007  0.7112965E+03  0.7818608E-02  0.9953218E-01
          2   -1    0    0  501    0  0.00000000000E+00  0.00000000000E+00  0.20657193178E+04  0.20657193178E+04  0.25500000000E-02 0. -1.
         -2   -1    0    0    0  501 -0.00000000000E+00 -0.00000000000E+00 -0.20348092773E+03  0.20348092775E+03  0.25500000000E-02 0.  1.
    8880023    1    1    2    0    0 -0.14999451292E+03 -0.22278720231E+03  0.18239874520E+04  0.19577724390E+04  0.65864270000E+03 0. -1.
    8880022    1    1    2    0    0  0.14999451292E+03  0.22278720231E+03  0.38250938027E+02  0.31142780655E+03  0.15294330000E+03 0.  0.
<mgrwt>
<rscale>  0 0.57750021E+03</rscale>
<asrwt>0</asrwt>
<pdfrwt beam="1">  1        2 0.31780299E+00 0.71129649E+03</pdfrwt>
<pdfrwt beam="2">  1       -2 0.31304756E-01 0.71129649E+03</pdfrwt>
<totfact> 0.60160169E+01</totfact>
</mgrwt>
</event>
<event>
 4    2  0.4559745E-007  0.1220903E+04  0.7818608E-02  0.9137066E-01
         -2   -1    0    0    0  501 -0.00000000000E+00  0.00000000000E+00  0.13952257230E+04  0.13952257230E+04  0.25500000000E-02 0.  1.
          2   -1    0    0  501    0  0.00000000000E+00 -0.00000000000E+00 -0.27856648661E+04  0.27856648661E+04  0.25500000000E-02 0. -1.
    8880023    1    1    2    0    0 -0.10211864071E+04  0.11820636137E+03 -0.24246438457E+04  0.27146827451E+04  0.65864270000E+03 0.  0.
    8880022    1    1    2    0    0  0.10211864071E+04 -0.11820636137E+03  0.10342047026E+04  0.14662078440E+04  0.15294330000E+03 0.  0.
<mgrwt>
<rscale>  0 0.11727306E+04</rscale>
<asrwt>0</asrwt>
<pdfrwt beam="1">  1        2 0.42856382E+00 0.12209032E+04</pdfrwt>
<pdfrwt beam="2">  1       -2 0.21465011E+00 0.12209032E+04</pdfrwt>
<totfact> 0.24626265E-01</totfact>
</mgrwt>
</event>
<event>
 4    2  0.3747163E-007  0.8274614E+03  0.7818608E-02  0.9654292E-01
         -2   -1    0    0    0  501 -0.00000000000E+00  0.00000000000E+00  0.37912772652E+03  0.37912772652E+03  0.25500000000E-02 0.  1.
          2   -1    0    0  501    0  0.00000000000E+00 -0.00000000000E+00 -0.12558101491E+04  0.12558101491E+04  0.25500000000E-02 0. -1.
    8880023    1    1    2    0    0  0.46821705291E+03  0.17791841844E+03 -0.69499247919E+03  0.10806048883E+04  0.65864270000E+03 0. -1.
    8880022    1    1    2    0    0 -0.46821705291E+03 -0.17791841844E+03 -0.18168994337E+03  0.55433298729E+03  0.15294330000E+03 0.  1.
<mgrwt>
<rscale>  0 0.73804672E+03</rscale>
<asrwt>0</asrwt>
<pdfrwt beam="1">  1        2 0.19320156E+00 0.82746141E+03</pdfrwt>
<pdfrwt beam="2">  1       -2 0.58327343E-01 0.82746141E+03</pdfrwt>
<totfact> 0.48786953E+01</totfact>
</mgrwt>
</event>
<event>
 4    2  0.3747163E-007  0.7085164E+03  0.7818608E-02  0.9963552E-01
          2   -1    0    0  501    0  0.00000000000E+00  0.00000000000E+00  0.34008885920E+04  0.34008885920E+04  0.25500000000E-02 0. -1.
         -2   -1    0    0    0  501 -0.00000000000E+00 -0.00000000000E+00 -0.90023907293E+02  0.90023907329E+02  0.25500000000E-02 0.  1.
    8880023    1    1    2    0    0 -0.72741458380E+02 -0.25078682423E+03  0.15503215570E+04  0.17045505235E+04  0.65864270000E+03 0.  1.
    8880022    1    1    2    0    0  0.72741458380E+02  0.25078682423E+03  0.17605431278E+04  0.17863619758E+04  0.15294330000E+03 0.  0.
<mgrwt>
<rscale>  0 0.57277725E+03</rscale>
<asrwt>0</asrwt>
<pdfrwt beam="1">  1        2 0.52321359E+00 0.70851645E+03</pdfrwt>
<pdfrwt beam="2">  1       -2 0.13849833E-01 0.70851645E+03</pdfrwt>
<totfact> 0.41155693E+01</totfact>
</mgrwt>
</event>
<event>
 4    2  0.3747163E-007  0.1069286E+04  0.7818608E-02  0.9296048E-01
          2   -1    0    0  501    0  0.00000000000E+00  0.00000000000E+00  0.30925833730E+04  0.30925833730E+04  0.25500000000E-02 0. -1.
         -2   -1    0    0    0  501 -0.00000000000E+00 -0.00000000000E+00 -0.36081372706E+03  0.36081372707E+03  0.25500000000E-02 0.  1.
    8880023    1    1    2    0    0  0.24868414603E+03 -0.80481005097E+03  0.21985654845E+04  0.24448033497E+04  0.65864270000E+03 0.  0.
    8880022    1    1    2    0    0 -0.24868414603E+03  0.80481005097E+03  0.53320416149E+03  0.10085937505E+04  0.15294330000E+03 0.  0.
<mgrwt>
<rscale>  0 0.10114750E+04</rscale>
<asrwt>0</asrwt>
<pdfrwt beam="1">  1        2 0.47578204E+00 0.10692863E+04</pdfrwt>
<pdfrwt beam="2">  1       -2 0.55509807E-01 0.10692863E+04</pdfrwt>
<totfact> 0.47113923E+00</totfact>
</mgrwt>
</event>
<event>
 4    2  0.3747163E-007  0.9705195E+03  0.7818608E-02  0.9421186E-01
         -2   -1    0    0    0  501 -0.00000000000E+00  0.00000000000E+00  0.20661324917E+04  0.20661324917E+04  0.25500000000E-02 0.  1.
          2   -1    0    0  501    0  0.00000000000E+00 -0.00000000000E+00 -0.98613852449E+03  0.98613852449E+03  0.25500000000E-02 0. -1.
    8880023    1    1    2    0    0  0.68947068748E+03 -0.18090876133E+03 -0.65463797220E+03  0.11706660026E+04  0.65864270000E+03 0. -1.
    8880022    1    1    2    0    0 -0.68947068748E+03  0.18090876133E+03  0.17346319395E+04  0.18816050136E+04  0.15294330000E+03 0.  0.
<mgrwt>
<rscale>  0 0.90352467E+03</rscale>
<asrwt>0</asrwt>
<pdfrwt beam="1">  1        2 0.15171362E+00 0.97051946E+03</pdfrwt>
<pdfrwt beam="2">  1       -2 0.31786653E+00 0.97051946E+03</pdfrwt>
<totfact> 0.64170439E-01</totfact>
</mgrwt>
</event>
<event>
 4    2  0.3747163E-007  0.6964600E+03  0.7818608E-02  0.1001222E+00
         -2   -1    0    0    0  501 -0.00000000000E+00  0.00000000000E+00  0.22748629402E+03  0.22748629404E+03  0.25500000000E-02 0.  1.
          2   -1    0    0  501    0  0.00000000000E+00 -0.00000000000E+00 -0.12543283749E+04  0.12543283749E+04  0.25500000000E-02 0. -1.
    8880023    1    1    2    0    0  0.19689686158E+03 -0.11170444790E+03 -0.98361004714E+03  0.12052158267E+04  0.65864270000E+03 0. -1.
    8880022    1    1    2    0    0 -0.19689686158E+03  0.11170444790E+03 -0.43232033736E+02  0.27659884226E+03  0.15294330000E+03 0.  0.
<mgrwt>
<rscale>  0 0.55117822E+03</rscale>
<asrwt>0</asrwt>
<pdfrwt beam="1">  1        2 0.19297359E+00 0.69645995E+03</pdfrwt>
<pdfrwt beam="2">  1       -2 0.34997892E-01 0.69645995E+03</pdfrwt>
<totfact> 0.13716765E+02</totfact>
</mgrwt>
</event>
<event>
 4    2  0.3747163E-007  0.7400103E+03  0.7818608E-02  0.9859917E-01
         -2   -1    0    0    0  501 -0.00000000000E+00  0.00000000000E+00  0.67959789737E+03  0.67959789737E+03  0.25500000000E-02 0.  1.
          2   -1    0    0  501    0  0.00000000000E+00 -0.00000000000E+00 -0.58138637189E+03  0.58138637189E+03  0.25500000000E-02 0. -1.
    8880023    1    1    2    0    0  0.59412773732E+02  0.33207705502E+03 -0.22068826680E+03  0.77221665711E+03  0.65864270000E+03 0.  0.
    8880022    1    1    2    0    0 -0.59412773732E+02 -0.33207705502E+03  0.31889979229E+03  0.48876761215E+03  0.15294330000E+03 0.  0.
<mgrwt>
<rscale>  0 0.62243827E+03</rscale>
<asrwt>0</asrwt>
<pdfrwt beam="1">  1        2 0.89444057E-01 0.74001031E+03</pdfrwt>
<pdfrwt beam="2">  1       -2 0.10455352E+00 0.74001031E+03</pdfrwt>
<totfact> 0.38765423E+01</totfact>
</mgrwt>
</event>
<event>
 4    2  0.3747163E-007  0.7447096E+03  0.7818608E-02  0.9846435E-01
          2   -1    0    0  501    0  0.00000000000E+00  0.00000000000E+00  0.79859286393E+03  0.79859286393E+03  0.25500000000E-02 0. -1.
         -2   -1    0    0    0  501 -0.00000000000E+00 -0.00000000000E+00 -0.83998885449E+03  0.83998885449E+03  0.25500000000E-02 0.  1.
    8880023    1    1    2    0    0 -0.18228877707E+03 -0.29589362158E+03 -0.60466961477E+03  0.95927982509E+03  0.65864270000E+03 0.  1.
    8880022    1    1    2    0    0  0.18228877707E+03  0.29589362158E+03  0.56327362421E+03  0.67930189333E+03  0.15294330000E+03 0.  0.
<mgrwt>
<rscale>  0 0.62929033E+03</rscale>
<asrwt>0</asrwt>
<pdfrwt beam="1">  1        2 0.12286044E+00 0.74470963E+03</pdfrwt>
<pdfrwt beam="2">  1       -2 0.12922905E+00 0.74470963E+03</pdfrwt>
<totfact> 0.15459629E+01</totfact>
</mgrwt>
</event>
<event>
 4    2  0.3747163E-007  0.9566719E+03  0.7818608E-02  0.9440579E-01
          2   -1    0    0  501    0  0.00000000000E+00  0.00000000000E+00  0.75278748147E+03  0.75278748147E+03  0.25500000000E-02 0. -1.
         -2   -1    0    0    0  501 -0.00000000000E+00 -0.00000000000E+00 -0.98962726303E+03  0.98962726304E+03  0.25500000000E-02 0.  1.
    8880023    1    1    2    0    0  0.64369150561E+03  0.25898310068E+03 -0.35838755614E+03  0.10215981830E+04  0.65864270000E+03 0. -1.
    8880022    1    1    2    0    0 -0.64369150561E+03 -0.25898310068E+03  0.12154777458E+03  0.72081656152E+03  0.15294330000E+03 0.  0.
<mgrwt>
<rscale>  0 0.88810125E+03</rscale>
<asrwt>0</asrwt>
<pdfrwt beam="1">  1        2 0.11581346E+00 0.95667194E+03</pdfrwt>
<pdfrwt beam="2">  1       -2 0.15225035E+00 0.95667194E+03</pdfrwt>
<totfact> 0.10702306E+01</totfact>
</mgrwt>
</event>
<event>
 4    2  0.3747163E-007  0.7587450E+03  0.7818608E-02  0.9808367E-01
          2   -1    0    0  501    0  0.00000000000E+00  0.00000000000E+00  0.92531347883E+03  0.92531347883E+03  0.25500000000E-02 0. -1.
         -2   -1    0    0    0  501 -0.00000000000E+00 -0.00000000000E+00 -0.66019129798E+03  0.66019129798E+03  0.25500000000E-02 0.  1.
    8880023    1    1    2    0    0 -0.28442540366E+03  0.24695328256E+03  0.66965020247E+03  0.10119907776E+04  0.65864270000E+03 0. -1.
    8880022    1    1    2    0    0  0.28442540366E+03 -0.24695328256E+03 -0.40452802162E+03  0.57351399922E+03  0.15294330000E+03 0.  0.
<mgrwt>
<rscale>  0 0.64915423E+03</rscale>
<asrwt>0</asrwt>
<pdfrwt beam="1">  1        2 0.14235592E+00 0.75874498E+03</pdfrwt>
<pdfrwt beam="2">  1       -2 0.10156789E+00 0.75874498E+03</pdfrwt>
<totfact> 0.22771577E+01</totfact>
</mgrwt>
</event>
<event>
 4    2  0.3747163E-007  0.6955384E+03  0.7818608E-02  0.1001624E+00
          2   -1    0    0  501    0  0.00000000000E+00  0.00000000000E+00  0.12143030496E+04  0.12143030496E+04  0.25500000000E-02 0. -1.
         -2   -1    0    0    0  501 -0.00000000000E+00 -0.00000000000E+00 -0.74020492030E+03  0.74020492031E+03  0.25500000000E-02 0.  1.
    8880023    1    1    2    0    0  0.81323042439E+02  0.20820666034E+03  0.10835544302E+04  0.12875806228E+04  0.65864270000E+03 0. -1.
    8880022    1    1    2    0    0 -0.81323042439E+02 -0.20820666034E+03 -0.60945630091E+03  0.66692734715E+03  0.15294330000E+03 0.  0.
<mgrwt>
<rscale>  0 0.54943918E+03</rscale>
<asrwt>0</asrwt>
<pdfrwt beam="1">  1        2 0.18681585E+00 0.69553839E+03</pdfrwt>
<pdfrwt beam="2">  1       -2 0.11387768E+00 0.69553839E+03</pdfrwt>
<totfact> 0.11519380E+01</totfact>
</mgrwt>
</event>
<event>
 4    2  0.3747163E-007  0.7340021E+03  0.7818608E-02  0.9877776E-01
          2   -1    0    0  501    0  0.00000000000E+00  0.00000000000E+00  0.16579990296E+04  0.16579990296E+04  0.25500000000E-02 0. -1.
         -2   -1    0    0    0  501 -0.00000000000E+00 -0.00000000000E+00 -0.50701817795E+03  0.50701817795E+03  0.25500000000E-02 0.  1.
    8880023    1    1    2    0    0  0.24826201060E+03  0.20812236153E+03 -0.20533873249E+03  0.76218314374E+03  0.65864270000E+03 0.  1.
    8880022    1    1    2    0    0 -0.24826201060E+03 -0.20812236153E+03  0.13563195842E+04  0.14028340639E+04  0.15294330000E+03 0.  0.
<mgrwt>
<rscale>  0 0.61350556E+03</rscale>
<asrwt>0</asrwt>
<pdfrwt beam="1">  1        2 0.25507677E+00 0.73400215E+03</pdfrwt>
<pdfrwt beam="2">  1       -2 0.78002798E-01 0.73400215E+03</pdfrwt>
<totfact> 0.15588426E+01</totfact>
</mgrwt>
</event>
<event>
 4    2  0.3747163E-007  0.6615281E+03  0.7818608E-02  0.1022643E+00
         -2   -1    0    0    0  501 -0.00000000000E+00  0.00000000000E+00  0.96338548684E+03  0.96338548685E+03  0.25500000000E-02 0.  1.
          2   -1    0    0  501    0  0.00000000000E+00 -0.00000000000E+00 -0.21478597547E+03  0.21478597549E+03  0.25500000000E-02 0. -1.
    8880023    1    1    2    0    0 -0.91917077847E+01  0.61030365998E+02  0.35355245153E+03  0.75007915270E+03  0.65864270000E+03 0. -1.
    8880022    1    1    2    0    0  0.91917077847E+01 -0.61030365998E+02  0.39504705984E+03  0.42809230963E+03  0.15294330000E+03 0.  0.
<mgrwt>
<rscale>  0 0.46744876E+03</rscale>
<asrwt>0</asrwt>
<pdfrwt beam="1">  1        2 0.33043995E-01 0.66152808E+03</pdfrwt>
<pdfrwt beam="2">  1       -2 0.14821316E+00 0.66152808E+03</pdfrwt>
<totfact> 0.50142722E+01</totfact>
</mgrwt>
</event>
<event>
 4    2  0.3747163E-007  0.8179356E+03  0.7818608E-02  0.9673278E-01
          2   -1    0    0  501    0  0.00000000000E+00  0.00000000000E+00  0.14146952961E+04  0.14146952961E+04  0.25500000000E-02 0. -1.
         -2   -1    0    0    0  501 -0.00000000000E+00 -0.00000000000E+00 -0.36864062637E+03  0.36864062638E+03  0.25500000000E-02 0.  1.
    8880023    1    1    2    0    0 -0.41971283533E+03  0.24300115701E+03  0.97052984930E+03  0.12692307990E+04  0.65864270000E+03 0.  0.
    8880022    1    1    2    0    0  0.41971283533E+03 -0.24300115701E+03  0.75524820389E+02  0.51410512345E+03  0.15294330000E+03 0.  0.
<mgrwt>
<rscale>  0 0.72630312E+03</rscale>
<asrwt>0</asrwt>
<pdfrwt beam="1">  1        2 0.21764542E+00 0.81793559E+03</pdfrwt>
<pdfrwt beam="2">  1       -2 0.56713944E-01 0.81793559E+03</pdfrwt>
<totfact> 0.41971007E+01</totfact>
</mgrwt>
</event>
<event>
 4    2  0.3747163E-007  0.7018454E+03  0.7818608E-02  0.9989630E-01
          2   -1    0    0  501    0  0.00000000000E+00  0.00000000000E+00  0.58724707747E+03  0.58724707747E+03  0.25500000000E-02 0. -1.
         -2   -1    0    0    0  501 -0.00000000000E+00 -0.00000000000E+00 -0.52923709052E+03  0.52923709052E+03  0.25500000000E-02 0.  1.
    8880023    1    1    2    0    0 -0.38447614433E+02  0.23937119248E+03  0.27825545424E+03  0.75499211315E+03  0.65864270000E+03 0. -1.
    8880022    1    1    2    0    0  0.38447614433E+02 -0.23937119248E+03 -0.22024546728E+03  0.36149205485E+03  0.15294330000E+03 0.  0.
<mgrwt>
<rscale>  0 0.56107282E+03</rscale>
<asrwt>0</asrwt>
<pdfrwt beam="1">  1        2 0.90345703E-01 0.70184542E+03</pdfrwt>
<pdfrwt beam="2">  1       -2 0.81421092E-01 0.70184542E+03</pdfrwt>
<totfact> 0.68644851E+01</totfact>
</mgrwt>
</event>
<event>
 4    2  0.3747163E-007  0.9542265E+03  0.7818608E-02  0.9444059E-01
         -2   -1    0    0    0  501 -0.00000000000E+00  0.00000000000E+00  0.29711901969E+03  0.29711901970E+03  0.25500000000E-02 0.  1.
          2   -1    0    0  501    0  0.00000000000E+00 -0.00000000000E+00 -0.32564840126E+04  0.32564840126E+04  0.25500000000E-02 0. -1.
    8880023    1    1    2    0    0  0.14857032279E+01 -0.69046055367E+03 -0.25805773124E+04  0.27513501149E+04  0.65864270000E+03 0. -1.
    8880022    1    1    2    0    0 -0.14857032279E+01  0.69046055367E+03 -0.37878768054E+03  0.80225291737E+03  0.15294330000E+03 0.  0.
<mgrwt>
<rscale>  0 0.88536821E+03</rscale>
<asrwt>0</asrwt>
<pdfrwt beam="1">  1        2 0.50099751E+00 0.95422649E+03</pdfrwt>
<pdfrwt beam="2">  1       -2 0.45710621E-01 0.95422649E+03</pdfrwt>
<totfact> 0.56030722E+00</totfact>
</mgrwt>
</event>
<event>
 4    2  0.3747163E-007  0.6719715E+03  0.7818608E-02  0.1014287E+00
          2   -1    0    0  501    0  0.00000000000E+00  0.00000000000E+00  0.10614678107E+04  0.10614678107E+04  0.25500000000E-02 0. -1.
         -2   -1    0    0    0  501 -0.00000000000E+00 -0.00000000000E+00 -0.56451684385E+03  0.56451684385E+03  0.25500000000E-02 0.  1.
    8880023    1    1    2    0    0 -0.12722391974E+03  0.39365297657E+02  0.93025478642E+03  0.11475712293E+04  0.65864270000E+03 0. -1.
    8880022    1    1    2    0    0  0.12722391974E+03 -0.39365297657E+02 -0.43330381955E+03  0.47841342526E+03  0.15294330000E+03 0.  0.
<mgrwt>
<rscale>  0 0.49805730E+03</rscale>
<asrwt>0</asrwt>
<pdfrwt beam="1">  1        2 0.16330274E+00 0.67197155E+03</pdfrwt>
<pdfrwt beam="2">  1       -2 0.86848746E-01 0.67197155E+03</pdfrwt>
<totfact> 0.27083114E+01</totfact>
</mgrwt>
</event>
<event>
 4    2  0.3747163E-007  0.6691258E+03  0.7818608E-02  0.1016297E+00
         -2   -1    0    0    0  501 -0.00000000000E+00  0.00000000000E+00  0.47224564355E+03  0.47224564356E+03  0.25500000000E-02 0.  1.
          2   -1    0    0  501    0  0.00000000000E+00 -0.00000000000E+00 -0.13170111299E+04  0.13170111299E+04  0.25500000000E-02 0. -1.
    8880023    1    1    2    0    0  0.76745056707E+02 -0.89606330819E+02 -0.12062455805E+04  0.13794048372E+04  0.65864270000E+03 0. -1.
    8880022    1    1    2    0    0 -0.76745056707E+02  0.89606330819E+02  0.36148009408E+03  0.40985193629E+03  0.15294330000E+03 0.  0.
<mgrwt>
<rscale>  0 0.49046731E+03</rscale>
<asrwt>0</asrwt>
<pdfrwt beam="1">  1        2 0.20261709E+00 0.66912578E+03</pdfrwt>
<pdfrwt beam="2">  1       -2 0.72653177E-01 0.66912578E+03</pdfrwt>
<totfact> 0.28513631E+01</totfact>
</mgrwt>
</event>
<event>
 4    2  0.3747163E-007  0.1329904E+04  0.7818608E-02  0.9040157E-01
         -2   -1    0    0    0  501 -0.00000000000E+00  0.00000000000E+00  0.14442130664E+04  0.14442130665E+04  0.25500000000E-02 0.  1.
          2   -1    0    0  501    0  0.00000000000E+00 -0.00000000000E+00 -0.16549046330E+04  0.16549046330E+04  0.25500000000E-02 0. -1.
    8880023    1    1    2    0    0 -0.54260138347E+03  0.10200085185E+04  0.80384051745E+03  0.15539637778E+04  0.65864270000E+03 0.  0.
    8880022    1    1    2    0    0  0.54260138347E+03 -0.10200085185E+04 -0.10145320840E+04  0.15451539217E+04  0.15294330000E+03 0.  0.
<mgrwt>
<rscale>  0 0.12867276E+04</rscale>
<asrwt>0</asrwt>
<pdfrwt beam="1">  1        2 0.25460071E+00 0.13299037E+04</pdfrwt>
<pdfrwt beam="2">  1       -2 0.22218663E+00 0.13299037E+04</pdfrwt>
<totfact> 0.95122014E-01</totfact>
</mgrwt>
</event>
<event>
 4    2  0.3747163E-007  0.7282118E+03  0.7818608E-02  0.9895720E-01
          2   -1    0    0  501    0  0.00000000000E+00  0.00000000000E+00  0.50905231904E+03  0.50905231904E+03  0.25500000000E-02 0. -1.
         -2   -1    0    0    0  501 -0.00000000000E+00 -0.00000000000E+00 -0.67253132375E+03  0.67253132375E+03  0.25500000000E-02 0.  1.
    8880023    1    1    2    0    0  0.30989929282E+03 -0.21087693599E+02  0.11502878709E+03  0.73724086338E+03  0.65864270000E+03 0. -1.
    8880022    1    1    2    0    0 -0.30989929282E+03  0.21087693599E+02 -0.27850779180E+03  0.44434277942E+03  0.15294330000E+03 0.  0.
<mgrwt>
<rscale>  0 0.60469153E+03</rscale>
<asrwt>0</asrwt>
<pdfrwt beam="1">  1        2 0.78315742E-01 0.72821183E+03</pdfrwt>
<pdfrwt beam="2">  1       -2 0.10346636E+00 0.72821183E+03</pdfrwt>
<totfact> 0.46535626E+01</totfact>
</mgrwt>
</event>
<event>
 4    2  0.3747163E-007  0.6631442E+03  0.7818608E-02  0.1021144E+00
          2   -1    0    0  501    0  0.00000000000E+00  0.00000000000E+00  0.15907936120E+04  0.15907936120E+04  0.25500000000E-02 0. -1.
         -2   -1    0    0    0  501 -0.00000000000E+00 -0.00000000000E+00 -0.39209492195E+03  0.39209492196E+03  0.25500000000E-02 0.  1.
    8880023    1    1    2    0    0  0.23360024170E+02 -0.73514155700E+02  0.14978971151E+04  0.16381257570E+04  0.65864270000E+03 0. -1.
    8880022    1    1    2    0    0 -0.23360024170E+02  0.73514155700E+02 -0.29919842509E+03  0.34476277700E+03  0.15294330000E+03 0.  0.
<mgrwt>
<rscale>  0 0.47276095E+03</rscale>
<asrwt>0</asrwt>
<pdfrwt beam="1">  1        2 0.24473748E+00 0.66314420E+03</pdfrwt>
<pdfrwt beam="2">  1       -2 0.60322296E-01 0.66314420E+03</pdfrwt>
<totfact> 0.29940831E+01</totfact>
</mgrwt>
</event>
<event>
 4    2  0.3747163E-007  0.1085190E+04  0.7818608E-02  0.9277727E-01
          2   -1    0    0  501    0  0.00000000000E+00  0.00000000000E+00  0.91755239142E+03  0.91755239142E+03  0.25500000000E-02 0. -1.
         -2   -1    0    0    0  501 -0.00000000000E+00 -0.00000000000E+00 -0.20936746298E+04  0.20936746298E+04  0.25500000000E-02 0.  1.
    8880023    1    1    2    0    0 -0.84083887301E+03  0.19187650579E+03  0.44159628053E+03  0.11715989438E+04  0.65864270000E+03 0.  0.
    8880022    1    1    2    0    0  0.84083887301E+03 -0.19187650579E+03 -0.16177185189E+04  0.18396280775E+04  0.15294330000E+03 0.  0.
<mgrwt>
<rscale>  0 0.10285943E+04</rscale>
<asrwt>0</asrwt>
<pdfrwt beam="1">  1        2 0.14116191E+00 0.10851898E+04</pdfrwt>
<pdfrwt beam="2">  1       -2 0.32210379E+00 0.10851898E+04</pdfrwt>
<totfact> 0.66005816E-01</totfact>
</mgrwt>
</event>
<event>
 4    2  0.3747163E-007  0.8218165E+03  0.7818608E-02  0.9665470E-01
         -2   -1    0    0    0  501 -0.00000000000E+00  0.00000000000E+00  0.28212842346E+04  0.28212842346E+04  0.25500000000E-02 0.  1.
          2   -1    0    0  501    0  0.00000000000E+00 -0.00000000000E+00 -0.24889878579E+03  0.24889878581E+03  0.25500000000E-02 0. -1.
    8880023    1    1    2    0    0 -0.39312666634E+03  0.29499769909E+03  0.56363174641E+03  0.99652554914E+03  0.65864270000E+03 0. -1.
    8880022    1    1    2    0    0  0.39312666634E+03 -0.29499769909E+03  0.20087537024E+04  0.20736574713E+04  0.15294330000E+03 0.  0.
<mgrwt>
<rscale>  0 0.73110456E+03</rscale>
<asrwt>0</asrwt>
<pdfrwt beam="1">  1        2 0.38292122E-01 0.82181654E+03</pdfrwt>
<pdfrwt beam="2">  1       -2 0.43404371E+00 0.82181654E+03</pdfrwt>
<totfact> 0.62945531E-01</totfact>
</mgrwt>
</event>
<event>
 4    2  0.3747163E-007  0.1018060E+04  0.7818608E-02  0.9358302E-01
         -2   -1    0    0    0  501 -0.00000000000E+00  0.00000000000E+00  0.67214175434E+03  0.67214175434E+03  0.25500000000E-02 0.  1.
          2   -1    0    0  501    0  0.00000000000E+00 -0.00000000000E+00 -0.36246978721E+04  0.36246978721E+04  0.25500000000E-02 0. -1.
    8880023    1    1    2    0    0 -0.70694513752E+03  0.32072466200E+03 -0.32846116841E+04  0.34387672003E+04  0.65864270000E+03 0.  0.
    8880022    1    1    2    0    0  0.70694513752E+03 -0.32072466200E+03  0.33205556636E+03  0.85807242611E+03  0.15294330000E+03 0.  0.
<mgrwt>
<rscale>  0 0.95588173E+03</rscale>
<asrwt>0</asrwt>
<pdfrwt beam="1">  1        2 0.55764581E+00 0.10180599E+04</pdfrwt>
<pdfrwt beam="2">  1       -2 0.10340643E+00 0.10180599E+04</pdfrwt>
<totfact> 0.52236764E-01</totfact>
</mgrwt>
</event>
<event>
 4    2  0.3747163E-007  0.8131409E+03  0.7818608E-02  0.9683071E-01
         -2   -1    0    0    0  501 -0.00000000000E+00  0.00000000000E+00  0.23080333590E+03  0.23080333591E+03  0.25500000000E-02 0.  1.
          2   -1    0    0  501    0  0.00000000000E+00 -0.00000000000E+00 -0.37155969633E+04  0.37155969633E+04  0.25500000000E-02 0. -1.
    8880023    1    1    2    0    0 -0.17077331061E+03  0.44522398612E+03 -0.33216293863E+04  0.34197105006E+04  0.65864270000E+03 0. -1.
    8880022    1    1    2    0    0  0.17077331061E+03 -0.44522398612E+03 -0.16316424113E+03  0.52668979868E+03  0.15294330000E+03 0.  0.
<mgrwt>
<rscale>  0 0.72033725E+03</rscale>
<asrwt>0</asrwt>
<pdfrwt beam="1">  1        2 0.57163026E+00 0.81314090E+03</pdfrwt>
<pdfrwt beam="2">  1       -2 0.35508208E-01 0.81314090E+03</pdfrwt>
<totfact> 0.45683035E+00</totfact>
</mgrwt>
</event>
<event>
 4    2  0.3747163E-007  0.6620988E+03  0.7818608E-02  0.1022102E+00
         -2   -1    0    0    0  501 -0.00000000000E+00  0.00000000000E+00  0.13426803514E+03  0.13426803517E+03  0.25500000000E-02 0.  1.
          2   -1    0    0  501    0  0.00000000000E+00 -0.00000000000E+00 -0.14850137190E+04  0.14850137190E+04  0.25500000000E-02 0. -1.
    8880023    1    1    2    0    0  0.63053684493E+02  0.24265610000E+02 -0.12730023117E+04  0.14348901277E+04  0.65864270000E+03 0. -1.
    8880022    1    1    2    0    0 -0.63053684493E+02 -0.24265610000E+02 -0.77743372189E+02  0.18439162641E+03  0.15294330000E+03 0.  0.
<mgrwt>
<rscale>  0 0.46935553E+03</rscale>
<asrwt>0</asrwt>
<pdfrwt beam="1">  1        2 0.22846364E+00 0.66209878E+03</pdfrwt>
<pdfrwt beam="2">  1       -2 0.20656622E-01 0.66209878E+03</pdfrwt>
<totfact> 0.26616976E+02</totfact>
</mgrwt>
</event>
<event>
 4    2  0.3747163E-007  0.7145720E+03  0.7818608E-02  0.9941400E-01
         -2   -1    0    0    0  501 -0.00000000000E+00  0.00000000000E+00  0.39851920409E+03  0.39851920410E+03  0.25500000000E-02 0.  1.
          2   -1    0    0  501    0  0.00000000000E+00 -0.00000000000E+00 -0.97022889779E+03  0.97022889780E+03  0.25500000000E-02 0. -1.
    8880023    1    1    2    0    0  0.98102344602E+02 -0.25918874423E+03 -0.72420741269E+03  0.10173934627E+04  0.65864270000E+03 0.  0.
    8880022    1    1    2    0    0 -0.98102344602E+02  0.25918874423E+03  0.15249771899E+03  0.35135463917E+03  0.15294330000E+03 0.  0.
<mgrwt>
<rscale>  0 0.58296164E+03</rscale>
<asrwt>0</asrwt>
<pdfrwt beam="1">  1        2 0.14926598E+00 0.71457196E+03</pdfrwt>
<pdfrwt beam="2">  1       -2 0.61310647E-01 0.71457196E+03</pdfrwt>
<totfact> 0.66288289E+01</totfact>
</mgrwt>
</event>
<event>
 4    2  0.3747163E-007  0.9172652E+03  0.7818608E-02  0.9498865E-01
         -2   -1    0    0    0  501 -0.00000000000E+00  0.00000000000E+00  0.13715464886E+04  0.13715464886E+04  0.25500000000E-02 0.  1.
          2   -1    0    0  501    0  0.00000000000E+00 -0.00000000000E+00 -0.90125914647E+03  0.90125914647E+03  0.25500000000E-02 0. -1.
    8880023    1    1    2    0    0 -0.13833790494E+03 -0.62323974986E+03 -0.54263779634E+03  0.10657537924E+04  0.65864270000E+03 0. -1.
    8880022    1    1    2    0    0  0.13833790494E+03  0.62323974986E+03  0.10129251385E+04  0.12070518427E+04  0.15294330000E+03 0.  0.
<mgrwt>
<rscale>  0 0.84367541E+03</rscale>
<asrwt>0</asrwt>
<pdfrwt beam="1">  1        2 0.13865525E+00 0.91726516E+03</pdfrwt>
<pdfrwt beam="2">  1       -2 0.21100715E+00 0.91726516E+03</pdfrwt>
<totfact> 0.33096469E+00</totfact>
</mgrwt>
</event>
<event>
 4    2  0.3747163E-007  0.6759582E+03  0.7818608E-02  0.1011709E+00
          2   -1    0    0  501    0  0.00000000000E+00  0.00000000000E+00  0.13149910660E+04  0.13149910660E+04  0.25500000000E-02 0. -1.
         -2   -1    0    0    0  501 -0.00000000000E+00 -0.00000000000E+00 -0.22216295315E+03  0.22216295316E+03  0.25500000000E-02 0.  1.
    8880023    1    1    2    0    0  0.72608217841E+02 -0.13355653844E+03  0.11315384126E+04  0.13180662683E+04  0.65864270000E+03 0. -1.
    8880022    1    1    2    0    0 -0.72608217841E+02  0.13355653844E+03 -0.38710299719E+02  0.21908775086E+03  0.15294330000E+03 0.  0.
<mgrwt>
<rscale>  0 0.50801042E+03</rscale>
<asrwt>0</asrwt>
<pdfrwt beam="1">  1        2 0.20230631E+00 0.67595822E+03</pdfrwt>
<pdfrwt beam="2">  1       -2 0.34178917E-01 0.67595822E+03</pdfrwt>
<totfact> 0.13259116E+02</totfact>
</mgrwt>
</event>
<event>
 4    2  0.3747163E-007  0.6686969E+03  0.7818608E-02  0.1016615E+00
         -2   -1    0    0    0  501 -0.00000000000E+00  0.00000000000E+00  0.21697996961E+03  0.21697996963E+03  0.25500000000E-02 0.  1.
          2   -1    0    0  501    0  0.00000000000E+00 -0.00000000000E+00 -0.10560045247E+04  0.10560045247E+04  0.25500000000E-02 0. -1.
    8880023    1    1    2    0    0 -0.70169187351E+02 -0.91769281323E+02 -0.84940040256E+03  0.10810349513E+04  0.65864270000E+03 0. -1.
    8880022    1    1    2    0    0  0.70169187351E+02  0.91769281323E+02  0.10375847444E+02  0.19194954304E+03  0.15294330000E+03 0.  0.
<mgrwt>
<rscale>  0 0.48928273E+03</rscale>
<asrwt>0</asrwt>
<pdfrwt beam="1">  1        2 0.16246223E+00 0.66869688E+03</pdfrwt>
<pdfrwt beam="2">  1       -2 0.33381534E-01 0.66869688E+03</pdfrwt>
<totfact> 0.19763818E+02</totfact>
</mgrwt>
</event>
<event>
 4    2  0.3747163E-007  0.1445447E+04  0.7818608E-02  0.8949150E-01
         -2   -1    0    0    0  501 -0.00000000000E+00  0.00000000000E+00  0.97621630856E+03  0.97621630856E+03  0.25500000000E-02 0.  1.
          2   -1    0    0  501    0  0.00000000000E+00 -0.00000000000E+00 -0.29744326659E+04  0.29744326659E+04  0.25500000000E-02 0. -1.
    8880023    1    1    2    0    0  0.62789900526E+03  0.11230535923E+04 -0.22070001665E+04  0.26382127422E+04  0.65864270000E+03 0.  0.
    8880022    1    1    2    0    0 -0.62789900526E+03 -0.11230535923E+04  0.20878380908E+03  0.13124362323E+04  0.15294330000E+03 0.  0.
<mgrwt>
<rscale>  0 0.14064673E+04</rscale>
<asrwt>0</asrwt>
<pdfrwt beam="1">  1        2 0.45760502E+00 0.14454469E+04</pdfrwt>
<pdfrwt beam="2">  1       -2 0.15018713E+00 0.14454469E+04</pdfrwt>
<totfact> 0.51442711E-01</totfact>
</mgrwt>
</event>
<event>
 4    2  0.3747163E-007  0.8361837E+03  0.7818608E-02  0.9637419E-01
          2   -1    0    0  501    0  0.00000000000E+00  0.00000000000E+00  0.19182673853E+04  0.19182673853E+04  0.25500000000E-02 0. -1.
         -2   -1    0    0    0  501 -0.00000000000E+00 -0.00000000000E+00 -0.52160309487E+03  0.52160309488E+03  0.25500000000E-02 0.  1.
    8880023    1    1    2    0    0  0.22183748266E+03 -0.46495279507E+03  0.16469444165E+04  0.18470595788E+04  0.65864270000E+03 0.  0.
    8880022    1    1    2    0    0 -0.22183748266E+03  0.46495279507E+03 -0.25028012601E+03  0.59281090143E+03  0.15294330000E+03 0.  0.
<mgrwt>
<rscale>  0 0.74868310E+03</rscale>
<asrwt>0</asrwt>
<pdfrwt beam="1">  1        2 0.29511806E+00 0.83618370E+03</pdfrwt>
<pdfrwt beam="2">  1       -2 0.80246629E-01 0.83618370E+03</pdfrwt>
<totfact> 0.10397147E+01</totfact>
</mgrwt>
</event>
<event>
 4    2  0.3747163E-007  0.7396245E+03  0.7818608E-02  0.9861042E-01
          2   -1    0    0  501    0  0.00000000000E+00  0.00000000000E+00  0.11068194474E+04  0.11068194474E+04  0.25500000000E-02 0. -1.
         -2   -1    0    0    0  501 -0.00000000000E+00 -0.00000000000E+00 -0.12791798758E+04  0.12791798758E+04  0.25500000000E-02 0.  1.
    8880023    1    1    2    0    0 -0.33630284315E+03 -0.11602618449E+02  0.95021260420E+03  0.12041380413E+04  0.65864270000E+03 0.  0.
    8880022    1    1    2    0    0  0.33630284315E+03  0.11602618449E+02 -0.11225730326E+04  0.11818612818E+04  0.15294330000E+03 0.  1.
<mgrwt>
<rscale>  0 0.62187070E+03</rscale>
<asrwt>0</asrwt>
<pdfrwt beam="1">  1        2 0.17027991E+00 0.73962452E+03</pdfrwt>
<pdfrwt beam="2">  1       -2 0.19679691E+00 0.73962452E+03</pdfrwt>
<totfact> 0.30933828E+00</totfact>
</mgrwt>
</event>
<event>
 4    2  0.3747163E-007  0.7964314E+03  0.7818608E-02  0.9718566E-01
         -2   -1    0    0    0  501 -0.00000000000E+00  0.00000000000E+00  0.20254974693E+03  0.20254974695E+03  0.25500000000E-02 0.  1.
          2   -1    0    0  501    0  0.00000000000E+00 -0.00000000000E+00 -0.23279448631E+04  0.23279448631E+04  0.25500000000E-02 0. -1.
    8880023    1    1    2    0    0  0.11185292941E+03  0.43356853927E+03 -0.17628311053E+04  0.19343930491E+04  0.65864270000E+03 0.  0.
    8880022    1    1    2    0    0 -0.11185292941E+03 -0.43356853927E+03 -0.36256401085E+03  0.59610156101E+03  0.15294330000E+03 0.  0.
<mgrwt>
<rscale>  0 0.69922067E+03</rscale>
<asrwt>0</asrwt>
<pdfrwt beam="1">  1        2 0.35814535E+00 0.79643139E+03</pdfrwt>
<pdfrwt beam="2">  1       -2 0.31161501E-01 0.79643139E+03</pdfrwt>
<totfact> 0.43037305E+01</totfact>
</mgrwt>
</event>
<event>
 4    2  0.3747163E-007  0.9199246E+03  0.7818608E-02  0.9494775E-01
          2   -1    0    0  501    0  0.00000000000E+00  0.00000000000E+00  0.20367795344E+04  0.20367795344E+04  0.25500000000E-02 0. -1.
         -2   -1    0    0    0  501 -0.00000000000E+00 -0.00000000000E+00 -0.11118107378E+04  0.11118107378E+04  0.25500000000E-02 0.  1.
    8880023    1    1    2    0    0 -0.56481107174E+03  0.30567870650E+03  0.18183145846E+04  0.20377755404E+04  0.65864270000E+03 0. -1.
    8880022    1    1    2    0    0  0.56481107174E+03 -0.30567870650E+03 -0.89334578799E+03  0.11108147318E+04  0.15294330000E+03 0.  0.
<mgrwt>
<rscale>  0 0.84670161E+03</rscale>
<asrwt>0</asrwt>
<pdfrwt beam="1">  1        2 0.31335069E+00 0.91992458E+03</pdfrwt>
<pdfrwt beam="2">  1       -2 0.17104781E+00 0.91992458E+03</pdfrwt>
<totfact> 0.13489866E+00</totfact>
</mgrwt>
</event>
<event>
 4    2  0.3747163E-007  0.6959987E+03  0.7818608E-02  0.1001422E+00
         -2   -1    0    0    0  501 -0.00000000000E+00  0.00000000000E+00  0.22774868548E+03  0.22774868550E+03  0.25500000000E-02 0.  1.
          2   -1    0    0  501    0  0.00000000000E+00 -0.00000000000E+00 -0.30940316224E+04  0.30940316224E+04  0.25500000000E-02 0. -1.
    8880023    1    1    2    0    0  0.51469398089E+02 -0.21898607904E+03 -0.29548429023E+04  0.30357059780E+04  0.65864270000E+03 0. -1.
    8880022    1    1    2    0    0 -0.51469398089E+02  0.21898607904E+03  0.88559965313E+02  0.28607432990E+03  0.15294330000E+03 0.  0.
<mgrwt>
<rscale>  0 0.55030962E+03</rscale>
<asrwt>0</asrwt>
<pdfrwt beam="1">  1        2 0.47600483E+00 0.69599871E+03</pdfrwt>
<pdfrwt beam="2">  1       -2 0.35038262E-01 0.69599871E+03</pdfrwt>
<totfact> 0.12482024E+01</totfact>
</mgrwt>
</event>
<event>
 4    2  0.3747163E-007  0.9312612E+03  0.7818608E-02  0.9477604E-01
         -2   -1    0    0    0  501 -0.00000000000E+00  0.00000000000E+00  0.59512538234E+03  0.59512538235E+03  0.25500000000E-02 0.  1.
          2   -1    0    0  501    0  0.00000000000E+00 -0.00000000000E+00 -0.14046829482E+04  0.14046829482E+04  0.25500000000E-02 0. -1.
    8880023    1    1    2    0    0 -0.26070558278E+03 -0.60454094149E+03 -0.92676861501E+03  0.13138292975E+04  0.65864270000E+03 0. -1.
    8880022    1    1    2    0    0  0.26070558278E+03  0.60454094149E+03  0.11721104913E+03  0.68597903312E+03  0.15294330000E+03 0.  0.
<mgrwt>
<rscale>  0 0.85955328E+03</rscale>
<asrwt>0</asrwt>
<pdfrwt beam="1">  1        2 0.21610507E+00 0.93126116E+03</pdfrwt>
<pdfrwt beam="2">  1       -2 0.91557751E-01 0.93126116E+03</pdfrwt>
<totfact> 0.14638845E+01</totfact>
</mgrwt>
</event>
<event>
 4    2  0.3747163E-007  0.8569114E+03  0.7818608E-02  0.9599081E-01
         -2   -1    0    0    0  501 -0.00000000000E+00  0.00000000000E+00  0.67304885279E+03  0.67304885280E+03  0.25500000000E-02 0.  1.
          2   -1    0    0  501    0  0.00000000000E+00 -0.00000000000E+00 -0.14223322383E+04  0.14223322383E+04  0.25500000000E-02 0. -1.
    8880023    1    1    2    0    0  0.41442930601E+03 -0.35879698182E+03 -0.11244469313E+04  0.14137460987E+04  0.65864270000E+03 0. -1.
    8880022    1    1    2    0    0 -0.41442930601E+03  0.35879698182E+03  0.37516354580E+03  0.68163499246E+03  0.15294330000E+03 0.  0.
<mgrwt>
<rscale>  0 0.77357017E+03</rscale>
<asrwt>0</asrwt>
<pdfrwt beam="1">  1        2 0.21882034E+00 0.85691139E+03</pdfrwt>
<pdfrwt beam="2">  1       -2 0.10354598E+00 0.85691139E+03</pdfrwt>
<totfact> 0.10785531E+01</totfact>
</mgrwt>
</event>
<event>
 4    2  0.3747163E-007  0.6826690E+03  0.7818608E-02  0.1007852E+00
          2   -1    0    0  501    0  0.00000000000E+00  0.00000000000E+00  0.87285192239E+03  0.87285192240E+03  0.25500000000E-02 0. -1.
         -2   -1    0    0    0  501 -0.00000000000E+00 -0.00000000000E+00 -0.15906475760E+04  0.15906475760E+04  0.25500000000E-02 0.  1.
    8880023    1    1    2    0    0 -0.12563682111E+03 -0.12822685959E+03  0.72834203477E+03  0.99825801485E+03  0.65864270000E+03 0. -1.
    8880022    1    1    2    0    0  0.12563682111E+03  0.12822685959E+03 -0.14461376884E+04  0.14652414836E+04  0.15294330000E+03 0.  0.
<mgrwt>
<rscale>  0 0.52337134E+03</rscale>
<asrwt>0</asrwt>
<pdfrwt beam="1">  1        2 0.13428491E+00 0.68266899E+03</pdfrwt>
<pdfrwt beam="2">  1       -2 0.24471501E+00 0.68266899E+03</pdfrwt>
<totfact> 0.22108616E+00</totfact>
</mgrwt>
</event>
<event>
 4    2  0.3747163E-007  0.6843704E+03  0.7818608E-02  0.1006952E+00
          2   -1    0    0  501    0  0.00000000000E+00  0.00000000000E+00  0.23334424447E+04  0.23334424447E+04  0.25500000000E-02 0. -1.
         -2   -1    0    0    0  501 -0.00000000000E+00 -0.00000000000E+00 -0.12043216602E+03  0.12043216604E+03  0.25500000000E-02 0.  1.
    8880023    1    1    2    0    0  0.41184301575E+01  0.18583793205E+03  0.20549241613E+04  0.21658892431E+04  0.65864270000E+03 0. -1.
    8880022    1    1    2    0    0 -0.41184301575E+01 -0.18583793205E+03  0.15808611742E+03  0.28798536767E+03  0.15294330000E+03 0.  0.
<mgrwt>
<rscale>  0 0.52704151E+03</rscale>
<asrwt>0</asrwt>
<pdfrwt beam="1">  1        2 0.35899112E+00 0.68437044E+03</pdfrwt>
<pdfrwt beam="2">  1       -2 0.18528027E-01 0.68437044E+03</pdfrwt>
<totfact> 0.11022339E+02</totfact>
</mgrwt>
</event>
<event>
 4    2  0.3747163E-007  0.9488194E+03  0.7818608E-02  0.9451815E-01
          2   -1    0    0  501    0  0.00000000000E+00  0.00000000000E+00  0.16789950998E+04  0.16789950998E+04  0.25500000000E-02 0. -1.
         -2   -1    0    0    0  501 -0.00000000000E+00 -0.00000000000E+00 -0.65895592810E+03  0.65895592810E+03  0.25500000000E-02 0.  1.
    8880023    1    1    2    0    0  0.24577434710E+03 -0.63721501986E+03 -0.16365037982E+03  0.96282899017E+03  0.65864270000E+03 0.  1.
    8880022    1    1    2    0    0 -0.24577434710E+03  0.63721501986E+03  0.11836895515E+04  0.13751220377E+04  0.15294330000E+03 0.  0.
<mgrwt>
<rscale>  0 0.87931484E+03</rscale>
<asrwt>0</asrwt>
<pdfrwt beam="1">  1        2 0.25830694E+00 0.94881938E+03</pdfrwt>
<pdfrwt beam="2">  1       -2 0.10137784E+00 0.94881938E+03</pdfrwt>
<totfact> 0.80749215E+00</totfact>
</mgrwt>
</event>
<event>
 4    2  0.3747163E-007  0.7281525E+03  0.7818608E-02  0.9895908E-01
          2   -1    0    0  501    0  0.00000000000E+00  0.00000000000E+00  0.66168047020E+03  0.66168047021E+03  0.25500000000E-02 0. -1.
         -2   -1    0    0    0  501 -0.00000000000E+00 -0.00000000000E+00 -0.21722340272E+04  0.21722340272E+04  0.25500000000E-02 0.  1.
    8880023    1    1    2    0    0  0.17550392784E+03  0.25611384015E+03  0.44141430901E+03  0.85150027966E+03  0.65864270000E+03 0. -1.
    8880022    1    1    2    0    0 -0.17550392784E+03 -0.25611384015E+03 -0.19519678660E+04  0.19824142178E+04  0.15294330000E+03 0.  0.
<mgrwt>
<rscale>  0 0.60460016E+03</rscale>
<asrwt>0</asrwt>
<pdfrwt beam="1">  1        2 0.10179700E+00 0.72815255E+03</pdfrwt>
<pdfrwt beam="2">  1       -2 0.33418985E+00 0.72815255E+03</pdfrwt>
<totfact> 0.90768706E-01</totfact>
</mgrwt>
</event>
<event>
 4    2  0.3747163E-007  0.7291319E+03  0.7818608E-02  0.9892817E-01
         -2   -1    0    0    0  501 -0.00000000000E+00  0.00000000000E+00  0.16616664052E+03  0.16616664054E+03  0.25500000000E-02 0.  1.
          2   -1    0    0  501    0  0.00000000000E+00 -0.00000000000E+00 -0.18815235368E+04  0.18815235368E+04  0.25500000000E-02 0. -1.
    8880023    1    1    2    0    0 -0.21874369316E+03  0.22354944572E+03 -0.13974271971E+04  0.15762094199E+04  0.65864270000E+03 0. -1.
    8880022    1    1    2    0    0  0.21874369316E+03 -0.22354944572E+03 -0.31792969919E+03  0.47148075742E+03  0.15294330000E+03 0.  1.
<mgrwt>
<rscale>  0 0.60610665E+03</rscale>
<asrwt>0</asrwt>
<pdfrwt beam="1">  1        2 0.28946514E+00 0.72913193E+03</pdfrwt>
<pdfrwt beam="2">  1       -2 0.25564100E-01 0.72913193E+03</pdfrwt>
<totfact> 0.10977557E+02</totfact>
</mgrwt>
</event>
<event>
 4    2  0.3747163E-007  0.7441105E+03  0.7818608E-02  0.9848131E-01
         -2   -1    0    0    0  501 -0.00000000000E+00  0.00000000000E+00  0.13182783841E+04  0.13182783841E+04  0.25500000000E-02 0.  1.
          2   -1    0    0  501    0  0.00000000000E+00 -0.00000000000E+00 -0.98304841033E+03  0.98304841033E+03  0.25500000000E-02 0. -1.
    8880023    1    1    2    0    0 -0.19324032467E+03  0.28731227858E+03 -0.80718297419E+03  0.10978363852E+04  0.65864270000E+03 0.  0.
    8880022    1    1    2    0    0  0.19324032467E+03 -0.28731227858E+03  0.11424129480E+04  0.12034904093E+04  0.15294330000E+03 0.  0.
<mgrwt>
<rscale>  0 0.62842281E+03</rscale>
<asrwt>0</asrwt>
<pdfrwt beam="1">  1        2 0.15123822E+00 0.74411046E+03</pdfrwt>
<pdfrwt beam="2">  1       -2 0.20281206E+00 0.74411046E+03</pdfrwt>
<totfact> 0.33763023E+00</totfact>
</mgrwt>
</event>
<event>
 4    2  0.3747163E-007  0.6638701E+03  0.7818608E-02  0.1020501E+00
          2   -1    0    0  501    0  0.00000000000E+00  0.00000000000E+00  0.25003664165E+03  0.25003664166E+03  0.25500000000E-02 0. -1.
         -2   -1    0    0    0  501 -0.00000000000E+00 -0.00000000000E+00 -0.21088022581E+04  0.21088022581E+04  0.25500000000E-02 0.  1.
    8880023    1    1    2    0    0  0.64483317675E+02  0.52490404768E+02 -0.20337976421E+03  0.69432476234E+03  0.65864270000E+03 0. -1.
    8880022    1    1    2    0    0 -0.64483317675E+02 -0.52490404768E+02 -0.16553858522E+04  0.16645141374E+04  0.15294330000E+03 0.  0.
<mgrwt>
<rscale>  0 0.47506345E+03</rscale>
<asrwt>0</asrwt>
<pdfrwt beam="1">  1        2 0.38467177E-01 0.66387013E+03</pdfrwt>
<pdfrwt beam="2">  1       -2 0.32443110E+00 0.66387013E+03</pdfrwt>
<totfact> 0.32023694E+00</totfact>
</mgrwt>
</event>
<event>
 4    2  0.3747163E-007  0.1570524E+04  0.7818608E-02  0.8861377E-01
          2   -1    0    0  501    0  0.00000000000E+00  0.00000000000E+00  0.37100203693E+04  0.37100203693E+04  0.25500000000E-02 0. -1.
         -2   -1    0    0    0  501 -0.00000000000E+00 -0.00000000000E+00 -0.76569439425E+03  0.76569439426E+03  0.25500000000E-02 0.  1.
    8880023    1    1    2    0    0 -0.11842287598E+04  0.79393888960E+03  0.51144370220E+03  0.16517026314E+04  0.65864270000E+03 0.  0.
    8880022    1    1    2    0    0  0.11842287598E+04 -0.79393888960E+03  0.24328822728E+04  0.28240121321E+04  0.15294330000E+03 0.  0.
<mgrwt>
<rscale>  0 0.15351994E+04</rscale>
<asrwt>0</asrwt>
<pdfrwt beam="1">  1        2 0.57077237E+00 0.15705244E+04</pdfrwt>
<pdfrwt beam="2">  1       -2 0.11779914E+00 0.15705244E+04</pdfrwt>
<totfact> 0.30406494E-01</totfact>
</mgrwt>
</event>
<event>
 4    2  0.3747163E-007  0.6737944E+03  0.7818608E-02  0.1013077E+00
          2   -1    0    0  501    0  0.00000000000E+00  0.00000000000E+00  0.13731780345E+04  0.13731780345E+04  0.25500000000E-02 0. -1.
         -2   -1    0    0    0  501 -0.00000000000E+00 -0.00000000000E+00 -0.28837782017E+03  0.28837782018E+03  0.25500000000E-02 0.  1.
    8880023    1    1    2    0    0  0.16611905700E+02  0.14111263597E+03  0.12333071893E+04  0.14053631420E+04  0.65864270000E+03 0. -1.
    8880022    1    1    2    0    0 -0.16611905700E+02 -0.14111263597E+03 -0.14850697492E+03  0.25619271273E+03  0.15294330000E+03 0.  0.
<mgrwt>
<rscale>  0 0.50269776E+03</rscale>
<asrwt>0</asrwt>
<pdfrwt beam="1">  1        2 0.21125816E+00 0.67379443E+03</pdfrwt>
<pdfrwt beam="2">  1       -2 0.44365818E-01 0.67379443E+03</pdfrwt>
<totfact> 0.74115478E+01</totfact>
</mgrwt>
</event>
<event>
 4    2  0.3747163E-007  0.7091413E+03  0.7818608E-02  0.9961203E-01
         -2   -1    0    0    0  501 -0.00000000000E+00  0.00000000000E+00  0.71910667885E+03  0.71910667885E+03  0.25500000000E-02 0.  1.
          2   -1    0    0  501    0  0.00000000000E+00 -0.00000000000E+00 -0.93573184240E+03  0.93573184240E+03  0.25500000000E-02 0. -1.
    8880023    1    1    2    0    0 -0.25546323061E+03 -0.61723385515E+02 -0.75544633092E+03  0.10361373479E+04  0.65864270000E+03 0.  0.
    8880022    1    1    2    0    0  0.25546323061E+03  0.61723385515E+02  0.53882116737E+03  0.61870117337E+03  0.15294330000E+03 0.  0.
<mgrwt>
<rscale>  0 0.57384624E+03</rscale>
<asrwt>0</asrwt>
<pdfrwt beam="1">  1        2 0.14395874E+00 0.70914134E+03</pdfrwt>
<pdfrwt beam="2">  1       -2 0.11063180E+00 0.70914134E+03</pdfrwt>
<totfact> 0.18345108E+01</totfact>
</mgrwt>
</event>
<event>
 4    2  0.3747163E-007  0.9112422E+03  0.7818608E-02  0.9508220E-01
         -2   -1    0    0    0  501 -0.00000000000E+00  0.00000000000E+00  0.37790650937E+03  0.37790650938E+03  0.25500000000E-02 0.  1.
          2   -1    0    0  501    0  0.00000000000E+00 -0.00000000000E+00 -0.19898351538E+04  0.19898351538E+04  0.25500000000E-02 0. -1.
    8880023    1    1    2    0    0 -0.30900189172E+03  0.54869838696E+03 -0.14282473562E+04  0.16941820462E+04  0.65864270000E+03 0.  0.
    8880022    1    1    2    0    0  0.30900189172E+03 -0.54869838696E+03 -0.18368128821E+03  0.67355961696E+03  0.15294330000E+03 0.  0.
<mgrwt>
<rscale>  0 0.83680496E+03</rscale>
<asrwt>0</asrwt>
<pdfrwt beam="1">  1        2 0.30612848E+00 0.91124217E+03</pdfrwt>
<pdfrwt beam="2">  1       -2 0.58139464E-01 0.91124217E+03</pdfrwt>
<totfact> 0.18984117E+01</totfact>
</mgrwt>
</event>
<event>
 4    2  0.3747163E-007  0.7319332E+03  0.7818608E-02  0.9884101E-01
          2   -1    0    0  501    0  0.00000000000E+00  0.00000000000E+00  0.12194754889E+04  0.12194754889E+04  0.25500000000E-02 0. -1.
         -2   -1    0    0    0  501 -0.00000000000E+00 -0.00000000000E+00 -0.27613178768E+03  0.27613178769E+03  0.25500000000E-02 0.  1.
    8880023    1    1    2    0    0  0.18313246814E+03  0.26149271711E+03  0.86488612185E+03  0.11330287516E+04  0.65864270000E+03 0. -1.
    8880022    1    1    2    0    0 -0.18313246814E+03 -0.26149271711E+03  0.78457579378E+02  0.36257852497E+03  0.15294330000E+03 0.  0.
<mgrwt>
<rscale>  0 0.61038063E+03</rscale>
<asrwt>0</asrwt>
<pdfrwt beam="1">  1        2 0.18761161E+00 0.73193316E+03</pdfrwt>
<pdfrwt beam="2">  1       -2 0.42481814E-01 0.73193316E+03</pdfrwt>
<totfact> 0.98495509E+01</totfact>
</mgrwt>
</event>
<event>
 4    2  0.5393034E-007  0.1058554E+04  0.7818608E-02  0.9308669E-01
          2   -1    0    0  501    0  0.00000000000E+00  0.00000000000E+00  0.37499153562E+04  0.37499153562E+04  0.25500000000E-02 0. -1.
         -2   -1    0    0    0  501 -0.00000000000E+00 -0.00000000000E+00 -0.11212646748E+04  0.11212646748E+04  0.25500000000E-02 0.  1.
    8880023    1    1    2    0    0  0.78304389933E+03 -0.27123402883E+03  0.35014503416E+04  0.36579625952E+04  0.65864270000E+03 0.  0.
    8880022    1    1    2    0    0 -0.78304389933E+03  0.27123402883E+03 -0.87279966020E+03  0.12132174358E+04  0.15294330000E+03 0.  0.
<mgrwt>
<rscale>  0 0.99988700E+03</rscale>
<asrwt>0</asrwt>
<pdfrwt beam="1">  1        2 0.57691005E+00 0.10585537E+04</pdfrwt>
<pdfrwt beam="2">  1       -2 0.17250226E+00 0.10585537E+04</pdfrwt>
<totfact> 0.11250476E-01</totfact>
</mgrwt>
</event>
<event>
 4    2  0.3747163E-007  0.8198454E+03  0.7818608E-02  0.9669423E-01
         -2   -1    0    0    0  501 -0.00000000000E+00  0.00000000000E+00  0.26951335281E+03  0.26951335283E+03  0.25500000000E-02 0.  1.
          2   -1    0    0  501    0  0.00000000000E+00 -0.00000000000E+00 -0.21203201807E+04  0.21203201807E+04  0.25500000000E-02 0. -1.
    8880023    1    1    2    0    0 -0.48794711520E+03  0.15617744345E+02 -0.16457938909E+04  0.18386908492E+04  0.65864270000E+03 0. -1.
    8880022    1    1    2    0    0  0.48794711520E+03 -0.15617744345E+02 -0.20501293695E+03  0.55114268434E+03  0.15294330000E+03 0.  0.
<mgrwt>
<rscale>  0 0.72866892E+03</rscale>
<asrwt>0</asrwt>
<pdfrwt beam="1">  1        2 0.32620309E+00 0.81984542E+03</pdfrwt>
<pdfrwt beam="2">  1       -2 0.41463594E-01 0.81984542E+03</pdfrwt>
<totfact> 0.32348023E+01</totfact>
</mgrwt>
</event>
<event>
 4    2  0.3747163E-007  0.9043072E+03  0.7818608E-02  0.9519152E-01
         -2   -1    0    0    0  501 -0.00000000000E+00  0.00000000000E+00  0.43656739787E+03  0.43656739788E+03  0.25500000000E-02 0.  1.
          2   -1    0    0  501    0  0.00000000000E+00 -0.00000000000E+00 -0.27330423452E+04  0.27330423452E+04  0.25500000000E-02 0. -1.
    8880023    1    1    2    0    0 -0.61956519434E+03 -0.10011654204E+02 -0.23608603153E+04  0.25281283389E+04  0.65864270000E+03 0. -1.
    8880022    1    1    2    0    0  0.61956519434E+03  0.10011654204E+02  0.64385368009E+02  0.64148140416E+03  0.15294330000E+03 0.  0.
<mgrwt>
<rscale>  0 0.82886411E+03</rscale>
<asrwt>0</asrwt>
<pdfrwt beam="1">  1        2 0.42046804E+00 0.90430718E+03</pdfrwt>
<pdfrwt beam="2">  1       -2 0.67164217E-01 0.90430718E+03</pdfrwt>
<totfact> 0.53166322E+00</totfact>
</mgrwt>
</event>
<event>
 4    2  0.3747163E-007  0.6813430E+03  0.7818608E-02  0.1008574E+00
         -2   -1    0    0    0  501 -0.00000000000E+00  0.00000000000E+00  0.25618858757E+03  0.25618858758E+03  0.25500000000E-02 0.  1.
          2   -1    0    0  501    0  0.00000000000E+00 -0.00000000000E+00 -0.82845478235E+03  0.82845478236E+03  0.25500000000E-02 0. -1.
    8880023    1    1    2    0    0  0.17440755542E+03 -0.19361033430E+00 -0.48702133594E+03  0.83750702731E+03  0.65864270000E+03 0.  0.
    8880022    1    1    2    0    0 -0.17440755542E+03  0.19361033430E+00 -0.85244858839E+02  0.24713634263E+03  0.15294330000E+03 0. -1.
<mgrwt>
<rscale>  0 0.52045345E+03</rscale>
<asrwt>0</asrwt>
<pdfrwt beam="1">  1        2 0.12745458E+00 0.68134297E+03</pdfrwt>
<pdfrwt beam="2">  1       -2 0.39413629E-01 0.68134297E+03</pdfrwt>
<totfact> 0.20275421E+02</totfact>
</mgrwt>
</event>
<event>
 4    2  0.3747163E-007  0.1041538E+04  0.7818608E-02  0.9329124E-01
          2   -1    0    0  501    0  0.00000000000E+00  0.00000000000E+00  0.18050902929E+04  0.18050902929E+04  0.25500000000E-02 0. -1.
         -2   -1    0    0    0  501 -0.00000000000E+00 -0.00000000000E+00 -0.65182226343E+03  0.65182226344E+03  0.25500000000E-02 0.  1.
    8880023    1    1    2    0    0  0.71686414200E+03  0.37026555896E+03  0.12533506834E+04  0.16296284620E+04  0.65864270000E+03 0. -1.
    8880022    1    1    2    0    0 -0.71686414200E+03 -0.37026555896E+03 -0.10008265387E+03  0.82728409441E+03  0.15294330000E+03 0.  0.
<mgrwt>
<rscale>  0 0.98145312E+03</rscale>
<asrwt>0</asrwt>
<pdfrwt beam="1">  1        2 0.27770620E+00 0.10415378E+04</pdfrwt>
<pdfrwt beam="2">  1       -2 0.10028035E+00 0.10415378E+04</pdfrwt>
<totfact> 0.69889576E+00</totfact>
</mgrwt>
</event>
<event>
 4    2  0.3747163E-007  0.6949996E+03  0.7818608E-02  0.1001861E+00
         -2   -1    0    0    0  501 -0.00000000000E+00  0.00000000000E+00  0.38845967927E+03  0.38845967928E+03  0.25500000000E-02 0.  1.
          2   -1    0    0  501    0  0.00000000000E+00 -0.00000000000E+00 -0.11876715025E+04  0.11876715025E+04  0.25500000000E-02 0. -1.
    8880023    1    1    2    0    0 -0.75995131751E+02 -0.20842004029E+03 -0.10155366621E+04  0.12305848575E+04  0.65864270000E+03 0. -1.
    8880022    1    1    2    0    0  0.75995131751E+02  0.20842004029E+03  0.21632483890E+03  0.34554632423E+03  0.15294330000E+03 0.  0.
<mgrwt>
<rscale>  0 0.54841564E+03</rscale>
<asrwt>0</asrwt>
<pdfrwt beam="1">  1        2 0.18271869E+00 0.69499955E+03</pdfrwt>
<pdfrwt beam="2">  1       -2 0.59763028E-01 0.69499955E+03</pdfrwt>
<totfact> 0.51471734E+01</totfact>
</mgrwt>
</event>
<event>
 4    2  0.3747163E-007  0.6719882E+03  0.7818608E-02  0.1014276E+00
          2   -1    0    0  501    0  0.00000000000E+00  0.00000000000E+00  0.92430036541E+03  0.92430036541E+03  0.25500000000E-02 0. -1.
         -2   -1    0    0    0  501 -0.00000000000E+00 -0.00000000000E+00 -0.76817581062E+03  0.76817581062E+03  0.25500000000E-02 0.  1.
    8880023    1    1    2    0    0  0.12257685005E+03  0.52276707073E+02  0.78403723874E+03  0.10326095759E+04  0.65864270000E+03 0. -1.
    8880022    1    1    2    0    0 -0.12257685005E+03 -0.52276707073E+02 -0.62791268395E+03  0.65986660012E+03  0.15294330000E+03 0.  0.
<mgrwt>
<rscale>  0 0.49810044E+03</rscale>
<asrwt>0</asrwt>
<pdfrwt beam="1">  1        2 0.14220006E+00 0.67198820E+03</pdfrwt>
<pdfrwt beam="2">  1       -2 0.11818089E+00 0.67198820E+03</pdfrwt>
<totfact> 0.15961896E+01</totfact>
</mgrwt>
</event>
<event>
 4    2  0.3747163E-007  0.7227875E+03  0.7818608E-02  0.9913265E-01
          2   -1    0    0  501    0  0.00000000000E+00  0.00000000000E+00  0.12858558402E+04  0.12858558402E+04  0.25500000000E-02 0. -1.
         -2   -1    0    0    0  501 -0.00000000000E+00 -0.00000000000E+00 -0.30525376397E+03  0.30525376398E+03  0.25500000000E-02 0.  1.
    8880023    1    1    2    0    0  0.21609532240E+03 -0.20472993986E+03  0.10242582203E+04  0.12536054581E+04  0.65864270000E+03 0. -1.
    8880022    1    1    2    0    0 -0.21609532240E+03  0.20472993986E+03 -0.43656144067E+02  0.33750414600E+03  0.15294330000E+03 0.  0.
<mgrwt>
<rscale>  0 0.59622717E+03</rscale>
<asrwt>0</asrwt>
<pdfrwt beam="1">  1        2 0.19782397E+00 0.72278748E+03</pdfrwt>
<pdfrwt beam="2">  1       -2 0.46962118E-01 0.72278748E+03</pdfrwt>
<totfact> 0.73860127E+01</totfact>
</mgrwt>
</event>
<event>
 4    2  0.3747163E-007  0.8994717E+03  0.7818608E-02  0.9526880E-01
         -2   -1    0    0    0  501 -0.00000000000E+00  0.00000000000E+00  0.37744974263E+03  0.37744974264E+03  0.25500000000E-02 0.  1.
          2   -1    0    0  501    0  0.00000000000E+00 -0.00000000000E+00 -0.30779503201E+04  0.30779503201E+04  0.25500000000E-02 0. -1.
    8880023    1    1    2    0    0 -0.49087365796E+03 -0.36644538871E+03 -0.26764720800E+04  0.28235708194E+04  0.65864270000E+03 0. -1.
    8880022    1    1    2    0    0  0.49087365796E+03  0.36644538871E+03 -0.24028497454E+02  0.63182924330E+03  0.15294330000E+03 0.  0.
<mgrwt>
<rscale>  0 0.82330735E+03</rscale>
<asrwt>0</asrwt>
<pdfrwt beam="1">  1        2 0.47353080E+00 0.89947172E+03</pdfrwt>
<pdfrwt beam="2">  1       -2 0.58069193E-01 0.89947172E+03</pdfrwt>
<totfact> 0.44892931E+00</totfact>
</mgrwt>
</event>
<event>
 4    2  0.3747163E-007  0.8320650E+03  0.7818608E-02  0.9645328E-01
          2   -1    0    0  501    0  0.00000000000E+00  0.00000000000E+00  0.21737732026E+04  0.21737732026E+04  0.25500000000E-02 0. -1.
         -2   -1    0    0    0  501 -0.00000000000E+00 -0.00000000000E+00 -0.56150031888E+03  0.56150031888E+03  0.25500000000E-02 0.  1.
    8880023    1    1    2    0    0 -0.19163259432E+03  0.47095540034E+03  0.19402848632E+04  0.21111697224E+04  0.65864270000E+03 0. -1.
    8880022    1    1    2    0    0  0.19163259432E+03 -0.47095540034E+03 -0.32801197946E+03  0.62410379906E+03  0.15294330000E+03 0.  0.
<mgrwt>
<rscale>  0 0.74367380E+03</rscale>
<asrwt>0</asrwt>
<pdfrwt beam="1">  1        2 0.33442664E+00 0.83206505E+03</pdfrwt>
<pdfrwt beam="2">  1       -2 0.86384666E-01 0.83206505E+03</pdfrwt>
<totfact> 0.63712815E+00</totfact>
</mgrwt>
</event>
<event>
 4    2  0.3747163E-007  0.8461402E+03  0.7818608E-02  0.9618709E-01
         -2   -1    0    0    0  501 -0.00000000000E+00  0.00000000000E+00  0.22752983187E+03  0.22752983188E+03  0.25500000000E-02 0.  1.
          2   -1    0    0  501    0  0.00000000000E+00 -0.00000000000E+00 -0.33841079051E+04  0.33841079051E+04  0.25500000000E-02 0. -1.
    8880023    1    1    2    0    0  0.51775133579E+03 -0.11864454393E+03 -0.28636972762E+04  0.29860869494E+04  0.65864270000E+03 0.  0.
    8880022    1    1    2    0    0 -0.51775133579E+03  0.11864454393E+03 -0.29288079700E+03  0.62555078753E+03  0.15294330000E+03 0.  0.
<mgrwt>
<rscale>  0 0.76070153E+03</rscale>
<asrwt>0</asrwt>
<pdfrwt beam="1">  1        2 0.52063195E+00 0.84614017E+03</pdfrwt>
<pdfrwt beam="2">  1       -2 0.35004592E-01 0.84614017E+03</pdfrwt>
<totfact> 0.79223408E+00</totfact>
</mgrwt>
</event>
<event>
 4    2  0.3747163E-007  0.9078296E+03  0.7818608E-02  0.9513578E-01
          2   -1    0    0  501    0  0.00000000000E+00  0.00000000000E+00  0.31546242395E+04  0.31546242395E+04  0.25500000000E-02 0. -1.
         -2   -1    0    0    0  501 -0.00000000000E+00 -0.00000000000E+00 -0.28937315938E+03  0.28937315939E+03  0.25500000000E-02 0.  1.
    8880023    1    1    2    0    0 -0.25438564750E+03  0.57064207512E+03  0.25897452197E+04  0.27442548979E+04  0.65864270000E+03 0.  0.
    8880022    1    1    2    0    0  0.25438564750E+03 -0.57064207512E+03  0.27550586047E+03  0.69974250101E+03  0.15294330000E+03 0.  0.
<mgrwt>
<rscale>  0 0.83290159E+03</rscale>
<asrwt>0</asrwt>
<pdfrwt beam="1">  1        2 0.48532680E+00 0.90782963E+03</pdfrwt>
<pdfrwt beam="2">  1       -2 0.44518948E-01 0.90782963E+03</pdfrwt>
<totfact> 0.69148700E+00</totfact>
</mgrwt>
</event>
<event>
 4    2  0.3747163E-007  0.8249513E+03  0.7818608E-02  0.9659237E-01
         -2   -1    0    0    0  501 -0.00000000000E+00  0.00000000000E+00  0.94901588353E+03  0.94901588354E+03  0.25500000000E-02 0.  1.
          2   -1    0    0  501    0  0.00000000000E+00 -0.00000000000E+00 -0.11083925463E+04  0.11083925463E+04  0.25500000000E-02 0. -1.
    8880023    1    1    2    0    0 -0.39321595701E+03  0.30350567733E+03 -0.85563863959E+03  0.11885546571E+04  0.65864270000E+03 0. -1.
    8880022    1    1    2    0    0  0.39321595701E+03 -0.30350567733E+03  0.69626197684E+03  0.86885377275E+03  0.15294330000E+03 0.  0.
<mgrwt>
<rscale>  0 0.73496570E+03</rscale>
<asrwt>0</asrwt>
<pdfrwt beam="1">  1        2 0.17052193E+00 0.82495133E+03</pdfrwt>
<pdfrwt beam="2">  1       -2 0.14600244E+00 0.82495133E+03</pdfrwt>
<totfact> 0.69979822E+00</totfact>
</mgrwt>
</event>
<event>
 4    2  0.3747163E-007  0.7963844E+03  0.7818608E-02  0.9718669E-01
          2   -1    0    0  501    0  0.00000000000E+00  0.00000000000E+00  0.12034145884E+04  0.12034145884E+04  0.25500000000E-02 0. -1.
         -2   -1    0    0    0  501 -0.00000000000E+00 -0.00000000000E+00 -0.69341118666E+03  0.69341118667E+03  0.25500000000E-02 0.  1.
    8880023    1    1    2    0    0 -0.27880442753E+02 -0.44681162186E+03  0.95765068535E+03  0.12455211704E+04  0.65864270000E+03 0.  0.
    8880022    1    1    2    0    0  0.27880442753E+02  0.44681162186E+03 -0.44764728361E+03  0.65130460467E+03  0.15294330000E+03 0.  0.
<mgrwt>
<rscale>  0 0.69916054E+03</rscale>
<asrwt>0</asrwt>
<pdfrwt beam="1">  1        2 0.18514071E+00 0.79638442E+03</pdfrwt>
<pdfrwt beam="2">  1       -2 0.10667864E+00 0.79638442E+03</pdfrwt>
<totfact> 0.13526500E+01</totfact>
</mgrwt>
</event>
<event>
 4    2  0.3747163E-007  0.7010255E+03  0.7818608E-02  0.9992973E-01
         -2   -1    0    0    0  501 -0.00000000000E+00  0.00000000000E+00  0.26508773445E+03  0.26508773447E+03  0.25500000000E-02 0.  1.
          2   -1    0    0  501    0  0.00000000000E+00 -0.00000000000E+00 -0.14324498943E+04  0.14324498943E+04  0.25500000000E-02 0. -1.
    8880023    1    1    2    0    0 -0.71750385670E+02 -0.22908173325E+03 -0.12209591703E+04  0.14078984552E+04  0.65864270000E+03 0. -1.
    8880022    1    1    2    0    0  0.71750385670E+02  0.22908173325E+03  0.53597010408E+02  0.28963917361E+03  0.15294330000E+03 0.  0.
<mgrwt>
<rscale>  0 0.55959419E+03</rscale>
<asrwt>0</asrwt>
<pdfrwt beam="1">  1        2 0.22037690E+00 0.70102551E+03</pdfrwt>
<pdfrwt beam="2">  1       -2 0.40782729E-01 0.70102551E+03</pdfrwt>
<totfact> 0.80792312E+01</totfact>
</mgrwt>
</event>
<event>
 4    2  0.3747163E-007  0.6946297E+03  0.7818608E-02  0.1002025E+00
          2   -1    0    0  501    0  0.00000000000E+00  0.00000000000E+00  0.18771943913E+04  0.18771943913E+04  0.25500000000E-02 0. -1.
         -2   -1    0    0    0  501 -0.00000000000E+00 -0.00000000000E+00 -0.76902913433E+03  0.76902913434E+03  0.25500000000E-02 0.  1.
    8880023    1    1    2    0    0 -0.29034724645E+02 -0.21876297256E+03  0.17864410929E+04  0.19167373941E+04  0.65864270000E+03 0. -1.
    8880022    1    1    2    0    0  0.29034724645E+02  0.21876297256E+03 -0.67827583594E+03  0.72948613149E+03  0.15294330000E+03 0.  0.
<mgrwt>
<rscale>  0 0.54771021E+03</rscale>
<asrwt>0</asrwt>
<pdfrwt beam="1">  1        2 0.28879913E+00 0.69462973E+03</pdfrwt>
<pdfrwt beam="2">  1       -2 0.11831218E+00 0.69462973E+03</pdfrwt>
<totfact> 0.44854765E+00</totfact>
</mgrwt>
</event>
<event>
 4    2  0.3747163E-007  0.7360066E+03  0.7818608E-02  0.9871736E-01
          2   -1    0    0  501    0  0.00000000000E+00  0.00000000000E+00  0.31721255837E+04  0.31721255837E+04  0.25500000000E-02 0. -1.
         -2   -1    0    0    0  501 -0.00000000000E+00 -0.00000000000E+00 -0.17572706349E+03  0.17572706351E+03  0.25500000000E-02 0.  1.
    8880023    1    1    2    0    0 -0.32639932938E+03  0.36863611115E+02  0.28719203298E+04  0.29647313597E+04  0.65864270000E+03 0.  0.
    8880022    1    1    2    0    0  0.32639932938E+03 -0.36863611115E+02  0.12447819038E+03  0.38312128751E+03  0.15294330000E+03 0.  0.
<mgrwt>
<rscale>  0 0.61650843E+03</rscale>
<asrwt>0</asrwt>
<pdfrwt beam="1">  1        2 0.48801929E+00 0.73600656E+03</pdfrwt>
<pdfrwt beam="2">  1       -2 0.27034934E-01 0.73600656E+03</pdfrwt>
<totfact> 0.17944552E+01</totfact>
</mgrwt>
</event>
<event>
 4    2  0.3747163E-007  0.8755380E+03  0.7818608E-02  0.9566500E-01
         -2   -1    0    0    0  501 -0.00000000000E+00  0.00000000000E+00  0.21863348288E+03  0.21863348290E+03  0.25500000000E-02 0.  1.
          2   -1    0    0  501    0  0.00000000000E+00 -0.00000000000E+00 -0.38905534442E+04  0.38905534442E+04  0.25500000000E-02 0. -1.
    8880023    1    1    2    0    0  0.28213911892E+03 -0.50314424557E+03 -0.32808985716E+04  0.33957123344E+04  0.65864270000E+03 0.  1.
    8880022    1    1    2    0    0 -0.28213911892E+03  0.50314424557E+03 -0.39102138973E+03  0.71347459276E+03  0.15294330000E+03 0.  0.
<mgrwt>
<rscale>  0 0.79553650E+03</rscale>
<asrwt>0</asrwt>
<pdfrwt beam="1">  1        2 0.59854663E+00 0.87553802E+03</pdfrwt>
<pdfrwt beam="2">  1       -2 0.33635923E-01 0.87553802E+03</pdfrwt>
<totfact> 0.37082890E+00</totfact>
</mgrwt>
</event>
<event>
 4    2  0.3747163E-007  0.7524124E+03  0.7818608E-02  0.9825162E-01
          2   -1    0    0  501    0  0.00000000000E+00  0.00000000000E+00  0.17913669667E+04  0.17913669667E+04  0.25500000000E-02 0. -1.
         -2   -1    0    0    0  501 -0.00000000000E+00 -0.00000000000E+00 -0.27371452855E+03  0.27371452857E+03  0.25500000000E-02 0.  1.
    8880023    1    1    2    0    0  0.31155356725E+03 -0.18774602593E+03  0.14903877749E+04  0.16695448845E+04  0.65864270000E+03 0. -1.
    8880022    1    1    2    0    0 -0.31155356725E+03  0.18774602593E+03  0.27264663157E+02  0.39553661068E+03  0.15294330000E+03 0.  0.
<mgrwt>
<rscale>  0 0.64029494E+03</rscale>
<asrwt>0</asrwt>
<pdfrwt beam="1">  1        2 0.27559492E+00 0.75241239E+03</pdfrwt>
<pdfrwt beam="2">  1       -2 0.42109926E-01 0.75241239E+03</pdfrwt>
<totfact> 0.47852315E+01</totfact>
</mgrwt>
</event>
<event>
 4    2  0.3747163E-007  0.7076911E+03  0.7818608E-02  0.9966677E-01
          2   -1    0    0  501    0  0.00000000000E+00  0.00000000000E+00  0.90087441501E+03  0.90087441501E+03  0.25500000000E-02 0. -1.
         -2   -1    0    0    0  501 -0.00000000000E+00 -0.00000000000E+00 -0.56486668831E+03  0.56486668831E+03  0.25500000000E-02 0.  1.
    8880023    1    1    2    0    0 -0.13270669803E+03  0.22227319668E+03  0.69878992379E+03  0.99455216330E+03  0.65864270000E+03 0. -1.
    8880022    1    1    2    0    0  0.13270669803E+03 -0.22227319668E+03 -0.36278219709E+03  0.47118894003E+03  0.15294330000E+03 0.  0.
<mgrwt>
<rscale>  0 0.57135851E+03</rscale>
<asrwt>0</asrwt>
<pdfrwt beam="1">  1        2 0.13859606E+00 0.70769107E+03</pdfrwt>
<pdfrwt beam="2">  1       -2 0.86902568E-01 0.70769107E+03</pdfrwt>
<totfact> 0.34177463E+01</totfact>
</mgrwt>
</event>
<event>
 4    2  0.3747163E-007  0.1038920E+04  0.7818608E-02  0.9332322E-01
          2   -1    0    0  501    0  0.00000000000E+00  0.00000000000E+00  0.10616535576E+04  0.10616535576E+04  0.25500000000E-02 0. -1.
         -2   -1    0    0    0  501 -0.00000000000E+00 -0.00000000000E+00 -0.10553505634E+04  0.10553505634E+04  0.25500000000E-02 0.  1.
    8880023    1    1    2    0    0  0.75735932427E+03  0.26823603754E+03  0.50907885286E+03  0.11569421777E+04  0.65864270000E+03 0. -1.
    8880022    1    1    2    0    0 -0.75735932427E+03 -0.26823603754E+03 -0.50277585868E+03  0.96006194331E+03  0.15294330000E+03 0.  0.
<mgrwt>
<rscale>  0 0.97860960E+03</rscale>
<asrwt>0</asrwt>
<pdfrwt beam="1">  1        2 0.16333132E+00 0.10389196E+04</pdfrwt>
<pdfrwt beam="2">  1       -2 0.16236163E+00 0.10389196E+04</pdfrwt>
<totfact> 0.54994015E+00</totfact>
</mgrwt>
</event>
<event>
 4    2  0.3747163E-007  0.7185078E+03  0.7818608E-02  0.9927668E-01
         -2   -1    0    0    0  501 -0.00000000000E+00  0.00000000000E+00  0.27620051317E+03  0.27620051318E+03  0.25500000000E-02 0.  1.
          2   -1    0    0  501    0  0.00000000000E+00 -0.00000000000E+00 -0.11727474196E+04  0.11727474196E+04  0.25500000000E-02 0. -1.
    8880023    1    1    2    0    0 -0.15628057722E+03  0.24087261534E+03 -0.86141317793E+03  0.11217335267E+04  0.65864270000E+03 0. -1.
    8880022    1    1    2    0    0  0.15628057722E+03 -0.24087261534E+03 -0.35133728515E+02  0.32721440606E+03  0.15294330000E+03 0.  1.
<mgrwt>
<rscale>  0 0.58938926E+03</rscale>
<asrwt>0</asrwt>
<pdfrwt beam="1">  1        2 0.18042268E+00 0.71850779E+03</pdfrwt>
<pdfrwt beam="2">  1       -2 0.42492387E-01 0.71850779E+03</pdfrwt>
<totfact> 0.10503769E+02</totfact>
</mgrwt>
</event>
<event>
 4    2  0.3747163E-007  0.8858315E+03  0.7818608E-02  0.9549170E-01
          2   -1    0    0  501    0  0.00000000000E+00  0.00000000000E+00  0.29812144212E+04  0.29812144212E+04  0.25500000000E-02 0. -1.
         -2   -1    0    0    0  501 -0.00000000000E+00 -0.00000000000E+00 -0.43775833810E+03  0.43775833810E+03  0.25500000000E-02 0.  1.
    8880023    1    1    2    0    0  0.41498400448E+03  0.42270017211E+03  0.26534247451E+04  0.27973845362E+04  0.65864270000E+03 0.  0.
    8880022    1    1    2    0    0 -0.41498400448E+03 -0.42270017211E+03 -0.10996866195E+03  0.62158822310E+03  0.15294330000E+03 0.  0.
<mgrwt>
<rscale>  0 0.80753755E+03</rscale>
<asrwt>0</asrwt>
<pdfrwt beam="1">  1        2 0.45864837E+00 0.88583145E+03</pdfrwt>
<pdfrwt beam="2">  1       -2 0.67347437E-01 0.88583145E+03</pdfrwt>
<totfact> 0.37622407E+00</totfact>
</mgrwt>
</event>
<event>
 4    2  0.3747163E-007  0.6609725E+03  0.7818608E-02  0.1023181E+00
         -2   -1    0    0    0  501 -0.00000000000E+00  0.00000000000E+00  0.22690271841E+03  0.22690271842E+03  0.25500000000E-02 0.  1.
          2   -1    0    0  501    0  0.00000000000E+00 -0.00000000000E+00 -0.95632548215E+03  0.95632548216E+03  0.25500000000E-02 0. -1.
    8880023    1    1    2    0    0  0.36453838487E+02  0.41779963371E+02 -0.77077455903E+03  0.10153709050E+04  0.65864270000E+03 0. -1.
    8880022    1    1    2    0    0 -0.36453838487E+02 -0.41779963371E+02  0.41351795279E+02  0.16785729554E+03  0.15294330000E+03 0.  0.
<mgrwt>
<rscale>  0 0.46555800E+03</rscale>
<asrwt>0</asrwt>
<pdfrwt beam="1">  1        2 0.14712700E+00 0.66097251E+03</pdfrwt>
<pdfrwt beam="2">  1       -2 0.34908111E-01 0.66097251E+03</pdfrwt>
<totfact> 0.21015452E+02</totfact>
</mgrwt>
</event>
<event>
 4    2  0.3747163E-007  0.7006094E+03  0.7818608E-02  0.9994682E-01
         -2   -1    0    0    0  501 -0.00000000000E+00  0.00000000000E+00  0.24435080283E+04  0.24435080283E+04  0.25500000000E-02 0.  1.
          2   -1    0    0  501    0  0.00000000000E+00 -0.00000000000E+00 -0.11614841057E+03  0.11614841060E+03  0.25500000000E-02 0. -1.
    8880023    1    1    2    0    0 -0.23437803973E+02 -0.23768479874E+03  0.11332769866E+04  0.13323551811E+04  0.65864270000E+03 0. -1.
    8880022    1    1    2    0    0  0.23437803973E+02  0.23768479874E+03  0.11940826312E+04  0.12273012578E+04  0.15294330000E+03 0.  0.
<mgrwt>
<rscale>  0 0.55884022E+03</rscale>
<asrwt>0</asrwt>
<pdfrwt beam="1">  1        2 0.17868987E-01 0.70060945E+03</pdfrwt>
<pdfrwt beam="2">  1       -2 0.37592430E+00 0.70060945E+03</pdfrwt>
<totfact> 0.36771694E+00</totfact>
</mgrwt>
</event>
<event>
 4    2  0.3747163E-007  0.7948196E+03  0.7818608E-02  0.9722111E-01
          2   -1    0    0  501    0  0.00000000000E+00  0.00000000000E+00  0.47157779861E+03  0.47157779862E+03  0.25500000000E-02 0. -1.
         -2   -1    0    0    0  501 -0.00000000000E+00 -0.00000000000E+00 -0.93185281020E+03  0.93185281020E+03  0.25500000000E-02 0.  1.
    8880023    1    1    2    0    0 -0.41225047033E+03 -0.16726485470E+03 -0.80616398299E+02  0.79889748519E+03  0.65864270000E+03 0. -1.
    8880022    1    1    2    0    0  0.41225047033E+03  0.16726485470E+03 -0.37965861329E+03  0.60453312363E+03  0.15294330000E+03 0.  0.
<mgrwt>
<rscale>  0 0.69715431E+03</rscale>
<asrwt>0</asrwt>
<pdfrwt beam="1">  1        2 0.72550430E-01 0.79481959E+03</pdfrwt>
<pdfrwt beam="2">  1       -2 0.14336197E+00 0.79481959E+03</pdfrwt>
<totfact> 0.22456226E+01</totfact>
</mgrwt>
</event>
<event>
 4    2  0.3747163E-007  0.6944385E+03  0.7818608E-02  0.1002110E+00
          2   -1    0    0  501    0  0.00000000000E+00  0.00000000000E+00  0.17053817194E+04  0.17053817194E+04  0.25500000000E-02 0. -1.
         -2   -1    0    0    0  501 -0.00000000000E+00 -0.00000000000E+00 -0.15080334245E+03  0.15080334247E+03  0.25500000000E-02 0.  1.
    8880023    1    1    2    0    0  0.20978947344E+03 -0.66505332678E+02  0.13530950268E+04  0.15208914952E+04  0.65864270000E+03 0.  0.
    8880022    1    1    2    0    0 -0.20978947344E+03  0.66505332678E+02  0.20148335018E+03  0.33529356667E+03  0.15294330000E+03 0.  0.
<mgrwt>
<rscale>  0 0.54734445E+03</rscale>
<asrwt>0</asrwt>
<pdfrwt beam="1">  1        2 0.26236644E+00 0.69443847E+03</pdfrwt>
<pdfrwt beam="2">  1       -2 0.23200512E-01 0.69443847E+03</pdfrwt>
<totfact> 0.16353008E+02</totfact>
</mgrwt>
</event>
<event>
 4    2  0.3747163E-007  0.7137438E+03  0.7818608E-02  0.9944353E-01
         -2   -1    0    0    0  501 -0.00000000000E+00  0.00000000000E+00  0.54044766057E+03  0.54044766058E+03  0.25500000000E-02 0.  1.
          2   -1    0    0  501    0  0.00000000000E+00 -0.00000000000E+00 -0.84460123234E+03  0.84460123234E+03  0.25500000000E-02 0. -1.
    8880023    1    1    2    0    0 -0.26746354028E+03 -0.63900498732E+02 -0.61543174777E+03  0.94243644960E+03  0.65864270000E+03 0. -1.
    8880022    1    1    2    0    0  0.26746354028E+03  0.63900498732E+02  0.31127817600E+03  0.44261244332E+03  0.15294330000E+03 0.  0.
<mgrwt>
<rscale>  0 0.58159085E+03</rscale>
<asrwt>0</asrwt>
<pdfrwt beam="1">  1        2 0.12993865E+00 0.71374381E+03</pdfrwt>
<pdfrwt beam="2">  1       -2 0.83145794E-01 0.71374381E+03</pdfrwt>
<totfact> 0.41267834E+01</totfact>
</mgrwt>
</event>
<event>
 4    2  0.3747163E-007  0.8181435E+03  0.7818608E-02  0.9672857E-01
         -2   -1    0    0    0  501 -0.00000000000E+00  0.00000000000E+00  0.13893672945E+04  0.13893672945E+04  0.25500000000E-02 0.  1.
          2   -1    0    0  501    0  0.00000000000E+00 -0.00000000000E+00 -0.76537517703E+03  0.76537517704E+03  0.25500000000E-02 0. -1.
    8880023    1    1    2    0    0  0.15415835313E+03 -0.46019970277E+03 -0.47331260668E+03  0.94518971332E+03  0.65864270000E+03 0. -1.
    8880022    1    1    2    0    0 -0.15415835313E+03  0.46019970277E+03  0.10973047242E+04  0.12095527582E+04  0.15294330000E+03 0.  0.
<mgrwt>
<rscale>  0 0.72656094E+03</rscale>
<asrwt>0</asrwt>
<pdfrwt beam="1">  1        2 0.11775003E+00 0.81814349E+03</pdfrwt>
<pdfrwt beam="2">  1       -2 0.21374881E+00 0.81814349E+03</pdfrwt>
<totfact> 0.40145335E+00</totfact>
</mgrwt>
</event>
<event>
 4    2  0.3747163E-007  0.6701507E+03  0.7818608E-02  0.1015555E+00
          2   -1    0    0  501    0  0.00000000000E+00  0.00000000000E+00  0.68506813746E+03  0.68506813747E+03  0.25500000000E-02 0. -1.
         -2   -1    0    0    0  501 -0.00000000000E+00 -0.00000000000E+00 -0.48491168337E+03  0.48491168337E+03  0.25500000000E-02 0.  1.
    8880023    1    1    2    0    0  0.12365476601E+03  0.11009065758E+01  0.48257665299E+03  0.82582210277E+03  0.65864270000E+03 0. -1.
    8880022    1    1    2    0    0 -0.12365476601E+03 -0.11009065758E+01 -0.28242019889E+03  0.34415771807E+03  0.15294330000E+03 0.  0.
<mgrwt>
<rscale>  0 0.49325316E+03</rscale>
<asrwt>0</asrwt>
<pdfrwt beam="1">  1        2 0.10539510E+00 0.67015067E+03</pdfrwt>
<pdfrwt beam="2">  1       -2 0.74601798E-01 0.67015067E+03</pdfrwt>
<totfact> 0.69277698E+01</totfact>
</mgrwt>
</event>
<event>
 4    2  0.3747163E-007  0.7744971E+03  0.7818608E-02  0.9768926E-01
          2   -1    0    0  501    0  0.00000000000E+00  0.00000000000E+00  0.21461238255E+04  0.21461238255E+04  0.25500000000E-02 0. -1.
         -2   -1    0    0    0  501 -0.00000000000E+00 -0.00000000000E+00 -0.61907990513E+03  0.61907990513E+03  0.25500000000E-02 0.  1.
    8880023    1    1    2    0    0  0.36510881372E+03 -0.18091752707E+03  0.19866145766E+04  0.21322484095E+04  0.65864270000E+03 0. -1.
    8880022    1    1    2    0    0 -0.36510881372E+03  0.18091752707E+03 -0.45957065625E+03  0.63295532114E+03  0.15294330000E+03 0.  0.
<mgrwt>
<rscale>  0 0.67057162E+03</rscale>
<asrwt>0</asrwt>
<pdfrwt beam="1">  1        2 0.33017290E+00 0.77449713E+03</pdfrwt>
<pdfrwt beam="2">  1       -2 0.95243063E-01 0.77449713E+03</pdfrwt>
<totfact> 0.53117719E+00</totfact>
</mgrwt>
</event>
<event>
 4    2  0.3747163E-007  0.6864816E+03  0.7818608E-02  0.1005872E+00
          2   -1    0    0  501    0  0.00000000000E+00  0.00000000000E+00  0.16930902723E+04  0.16930902723E+04  0.25500000000E-02 0. -1.
         -2   -1    0    0    0  501 -0.00000000000E+00 -0.00000000000E+00 -0.13349575543E+03  0.13349575546E+03  0.25500000000E-02 0.  1.
    8880023    1    1    2    0    0 -0.13527314755E+03  0.13837594610E+03  0.12892847489E+04  0.14606546810E+04  0.65864270000E+03 0.  0.
    8880022    1    1    2    0    0  0.13527314755E+03 -0.13837594610E+03  0.27030976791E+03  0.36593134677E+03  0.15294330000E+03 0.  0.
<mgrwt>
<rscale>  0 0.53148849E+03</rscale>
<asrwt>0</asrwt>
<pdfrwt beam="1">  1        2 0.26047542E+00 0.68648156E+03</pdfrwt>
<pdfrwt beam="2">  1       -2 0.20537809E-01 0.68648156E+03</pdfrwt>
<totfact> 0.20617203E+02</totfact>
</mgrwt>
</event>
<event>
 4    2  0.3747163E-007  0.7596150E+03  0.7818608E-02  0.9806105E-01
         -2   -1    0    0    0  501 -0.00000000000E+00  0.00000000000E+00  0.31214218883E+03  0.31214218884E+03  0.25500000000E-02 0.  1.
          2   -1    0    0  501    0  0.00000000000E+00 -0.00000000000E+00 -0.17935778767E+04  0.17935778767E+04  0.25500000000E-02 0. -1.
    8880023    1    1    2    0    0  0.37710534952E+03 -0.31565160573E+02 -0.15164438001E+04  0.16960591998E+04  0.65864270000E+03 0.  0.
    8880022    1    1    2    0    0 -0.37710534952E+03  0.31565160573E+02  0.35008112236E+02  0.40966086576E+03  0.15294330000E+03 0.  0.
<mgrwt>
<rscale>  0 0.65035935E+03</rscale>
<asrwt>0</asrwt>
<pdfrwt beam="1">  1        2 0.27593505E+00 0.75961504E+03</pdfrwt>
<pdfrwt beam="2">  1       -2 0.48021876E-01 0.75961504E+03</pdfrwt>
<totfact> 0.36691236E+01</totfact>
</mgrwt>
</event>
<event>
 4    2  0.3747163E-007  0.7600717E+03  0.7818608E-02  0.9804922E-01
          2   -1    0    0  501    0  0.00000000000E+00  0.00000000000E+00  0.16649102375E+04  0.16649102375E+04  0.25500000000E-02 0. -1.
         -2   -1    0    0    0  501 -0.00000000000E+00 -0.00000000000E+00 -0.38214055521E+03  0.38214055522E+03  0.25500000000E-02 0.  1.
    8880023    1    1    2    0    0  0.37597448436E+03  0.50418426893E+02  0.14241580017E+04  0.16142908817E+04  0.65864270000E+03 0. -1.
    8880022    1    1    2    0    0 -0.37597448436E+03 -0.50418426893E+02 -0.14138831945E+03  0.43275991098E+03  0.15294330000E+03 0.  0.
<mgrwt>
<rscale>  0 0.65099078E+03</rscale>
<asrwt>0</asrwt>
<pdfrwt beam="1">  1        2 0.25614004E+00 0.76007173E+03</pdfrwt>
<pdfrwt beam="2">  1       -2 0.58790855E-01 0.76007173E+03</pdfrwt>
<totfact> 0.28431165E+01</totfact>
</mgrwt>
</event>
<event>
 4    2  0.4095884E-007  0.7199718E+03  0.7818608E-02  0.9922682E-01
         -2   -1    0    0    0  501 -0.00000000000E+00  0.00000000000E+00  0.66012187452E+03  0.66012187452E+03  0.25500000000E-02 0.  1.
          2   -1    0    0  501    0  0.00000000000E+00 -0.00000000000E+00 -0.28678510418E+04  0.28678510418E+04  0.25500000000E-02 0. -1.
    8880023    1    1    2    0    0 -0.65148471853E+01 -0.29070032858E+03 -0.27780277122E+04  0.28698078856E+04  0.65864270000E+03 0. -1.
    8880022    1    1    2    0    0  0.65148471853E+01  0.29070032858E+03  0.57029854493E+03  0.65816503070E+03  0.15294330000E+03 0.  0.
<mgrwt>
<rscale>  0 0.59174526E+03</rscale>
<asrwt>0</asrwt>
<pdfrwt beam="1">  1        2 0.44120785E+00 0.71997176E+03</pdfrwt>
<pdfrwt beam="2">  1       -2 0.10155721E+00 0.71997176E+03</pdfrwt>
<totfact> 0.17906342E+00</totfact>
</mgrwt>
</event>
<event>
 4    2  0.3747163E-007  0.9166261E+03  0.7818608E-02  0.9499852E-01
         -2   -1    0    0    0  501 -0.00000000000E+00  0.00000000000E+00  0.88163795215E+03  0.88163795215E+03  0.25500000000E-02 0.  1.
          2   -1    0    0  501    0  0.00000000000E+00 -0.00000000000E+00 -0.19327094981E+04  0.19327094981E+04  0.25500000000E-02 0. -1.
    8880023    1    1    2    0    0 -0.61088843737E+03  0.18223211716E+03 -0.16749466689E+04  0.19093584727E+04  0.65864270000E+03 0. -1.
    8880022    1    1    2    0    0  0.61088843737E+03 -0.18223211716E+03  0.62387512294E+03  0.90498897754E+03  0.15294330000E+03 0.  0.
<mgrwt>
<rscale>  0 0.84294757E+03</rscale>
<asrwt>0</asrwt>
<pdfrwt beam="1">  1        2 0.29733992E+00 0.91662611E+03</pdfrwt>
<pdfrwt beam="2">  1       -2 0.13563661E+00 0.91662611E+03</pdfrwt>
<totfact> 0.28631306E+00</totfact>
</mgrwt>
</event>
<event>
 4    2  0.3747163E-007  0.1017691E+04  0.7818608E-02  0.9358769E-01
         -2   -1    0    0    0  501 -0.00000000000E+00  0.00000000000E+00  0.33135206829E+03  0.33135206830E+03  0.25500000000E-02 0.  1.
          2   -1    0    0  501    0  0.00000000000E+00 -0.00000000000E+00 -0.32685086650E+04  0.32685086650E+04  0.25500000000E-02 0. -1.
    8880023    1    1    2    0    0 -0.64793540266E+03 -0.42669067569E+03 -0.24934437244E+04  0.26931314546E+04  0.65864270000E+03 0.  0.
    8880022    1    1    2    0    0  0.64793540266E+03  0.42669067569E+03 -0.44371287226E+03  0.90672927866E+03  0.15294330000E+03 0.  0.
<mgrwt>
<rscale>  0 0.95547883E+03</rscale>
<asrwt>0</asrwt>
<pdfrwt beam="1">  1        2 0.50284747E+00 0.10176912E+04</pdfrwt>
<pdfrwt beam="2">  1       -2 0.50977243E-01 0.10176912E+04</pdfrwt>
<totfact> 0.43686255E+00</totfact>
</mgrwt>
</event>
<event>
 4    2  0.3747163E-007  0.8839661E+03  0.7818608E-02  0.9552277E-01
         -2   -1    0    0    0  501 -0.00000000000E+00  0.00000000000E+00  0.11036487503E+04  0.11036487503E+04  0.25500000000E-02 0.  1.
          2   -1    0    0  501    0  0.00000000000E+00 -0.00000000000E+00 -0.13980725937E+04  0.13980725937E+04  0.25500000000E-02 0. -1.
    8880023    1    1    2    0    0  0.58924383507E+03 -0.19430004633E+02 -0.11506267827E+04  0.14509782981E+04  0.65864270000E+03 0.  0.
    8880022    1    1    2    0    0 -0.58924383507E+03  0.19430004633E+02  0.85620293930E+03  0.10507430459E+04  0.15294330000E+03 0.  0.
<mgrwt>
<rscale>  0 0.80536943E+03</rscale>
<asrwt>0</asrwt>
<pdfrwt beam="1">  1        2 0.21508809E+00 0.88396608E+03</pdfrwt>
<pdfrwt beam="2">  1       -2 0.16979211E+00 0.88396608E+03</pdfrwt>
<totfact> 0.31228601E+00</totfact>
</mgrwt>
</event>
<event>
 4    2  0.3747163E-007  0.1126602E+04  0.7818608E-02  0.9232001E-01
          2   -1    0    0  501    0  0.00000000000E+00  0.00000000000E+00  0.12049018864E+04  0.12049018864E+04  0.25500000000E-02 0. -1.
         -2   -1    0    0    0  501 -0.00000000000E+00 -0.00000000000E+00 -0.99035021301E+03  0.99035021301E+03  0.25500000000E-02 0.  1.
    8880023    1    1    2    0    0 -0.59250010236E+02  0.91209137893E+03  0.48987225273E+03  0.12284975692E+04  0.65864270000E+03 0.  0.
    8880022    1    1    2    0    0  0.59250010236E+02 -0.91209137893E+03 -0.27532057937E+03  0.96675453020E+03  0.15294330000E+03 0.  0.
<mgrwt>
<rscale>  0 0.10729145E+04</rscale>
<asrwt>0</asrwt>
<pdfrwt beam="1">  1        2 0.18536952E+00 0.11266017E+04</pdfrwt>
<pdfrwt beam="2">  1       -2 0.15236157E+00 0.11266017E+04</pdfrwt>
<totfact> 0.52948659E+00</totfact>
</mgrwt>
</event>
<event>
 4    2  0.3747163E-007  0.7194853E+03  0.7818608E-02  0.9924331E-01
         -2   -1    0    0    0  501 -0.00000000000E+00  0.00000000000E+00  0.10041000290E+04  0.10041000290E+04  0.25500000000E-02 0.  1.
          2   -1    0    0  501    0  0.00000000000E+00 -0.00000000000E+00 -0.97679757247E+03  0.97679757247E+03  0.25500000000E-02 0. -1.
    8880023    1    1    2    0    0  0.27652305058E+03  0.85929707690E+02 -0.80906594989E+03  0.10827034819E+04  0.65864270000E+03 0. -1.
    8880022    1    1    2    0    0 -0.27652305058E+03 -0.85929707690E+02  0.83636840639E+03  0.89819411954E+03  0.15294330000E+03 0.  0.
<mgrwt>
<rscale>  0 0.59096442E+03</rscale>
<asrwt>0</asrwt>
<pdfrwt beam="1">  1        2 0.15027655E+00 0.71948531E+03</pdfrwt>
<pdfrwt beam="2">  1       -2 0.15447693E+00 0.71948531E+03</pdfrwt>
<totfact> 0.73856054E+00</totfact>
</mgrwt>
</event>
<event>
 4    2  0.3747163E-007  0.6984936E+03  0.7818608E-02  0.1000351E+00
         -2   -1    0    0    0  501 -0.00000000000E+00  0.00000000000E+00  0.28835107802E+03  0.28835107803E+03  0.25500000000E-02 0.  1.
          2   -1    0    0  501    0  0.00000000000E+00 -0.00000000000E+00 -0.93816698090E+03  0.93816698090E+03  0.25500000000E-02 0. -1.
    8880023    1    1    2    0    0 -0.21706812100E+03  0.83454058293E+02 -0.64099754481E+03  0.94803544645E+03  0.65864270000E+03 0. -1.
    8880022    1    1    2    0    0  0.21706812100E+03 -0.83454058293E+02 -0.88183580711E+01  0.27848261248E+03  0.15294330000E+03 0. -1.
<mgrwt>
<rscale>  0 0.55496667E+03</rscale>
<asrwt>0</asrwt>
<pdfrwt beam="1">  1        2 0.14433338E+00 0.69849363E+03</pdfrwt>
<pdfrwt beam="2">  1       -2 0.44361705E-01 0.69849363E+03</pdfrwt>
<totfact> 0.13526505E+02</totfact>
</mgrwt>
</event>
<event>
 4    2  0.4168137E-007  0.1107831E+04  0.7818608E-02  0.9252387E-01
         -2   -1    0    0    0  501 -0.00000000000E+00  0.00000000000E+00  0.16726416527E+04  0.16726416527E+04  0.25500000000E-02 0.  1.
          2   -1    0    0  501    0  0.00000000000E+00 -0.00000000000E+00 -0.15558880022E+04  0.15558880022E+04  0.25500000000E-02 0. -1.
    8880023    1    1    2    0    0  0.88757421753E+03  0.75445087135E+02 -0.11988779721E+04  0.16323598105E+04  0.65864270000E+03 0. -1.
    8880022    1    1    2    0    0 -0.88757421753E+03 -0.75445087135E+02  0.13156316225E+04  0.15961698444E+04  0.15294330000E+03 0.  0.
<mgrwt>
<rscale>  0 0.10528693E+04</rscale>
<asrwt>0</asrwt>
<pdfrwt beam="1">  1        2 0.23936739E+00 0.11078313E+04</pdfrwt>
<pdfrwt beam="2">  1       -2 0.25732948E+00 0.11078313E+04</pdfrwt>
<totfact> 0.67303985E-01</totfact>
</mgrwt>
</event>
<event>
 4    2  0.3747163E-007  0.6763959E+03  0.7818608E-02  0.1011440E+00
         -2   -1    0    0    0  501 -0.00000000000E+00  0.00000000000E+00  0.56409996937E+03  0.56409996937E+03  0.25500000000E-02 0.  1.
          2   -1    0    0  501    0  0.00000000000E+00 -0.00000000000E+00 -0.10612343362E+04  0.10612343362E+04  0.25500000000E-02 0. -1.
    8880023    1    1    2    0    0 -0.59734879585E+02  0.14189059728E+03 -0.92480035305E+03  0.11457604884E+04  0.65864270000E+03 0. -1.
    8880022    1    1    2    0    0  0.59734879585E+02 -0.14189059728E+03  0.42766598618E+03  0.47957381725E+03  0.15294330000E+03 0.  0.
<mgrwt>
<rscale>  0 0.50906131E+03</rscale>
<asrwt>0</asrwt>
<pdfrwt beam="1">  1        2 0.16326682E+00 0.67639589E+03</pdfrwt>
<pdfrwt beam="2">  1       -2 0.86784611E-01 0.67639589E+03</pdfrwt>
<totfact> 0.27124352E+01</totfact>
</mgrwt>
</event>
<event>
 4    2  0.3747163E-007  0.7556262E+03  0.7818608E-02  0.9816565E-01
         -2   -1    0    0    0  501 -0.00000000000E+00  0.00000000000E+00  0.52182797300E+03  0.52182797301E+03  0.25500000000E-02 0.  1.
          2   -1    0    0  501    0  0.00000000000E+00 -0.00000000000E+00 -0.10295225869E+04  0.10295225869E+04  0.25500000000E-02 0. -1.
    8880023    1    1    2    0    0 -0.14207441974E+03  0.34201693367E+03 -0.76491487279E+03  0.10752049537E+04  0.65864270000E+03 0. -1.
    8880022    1    1    2    0    0  0.14207441974E+03 -0.34201693367E+03  0.25722025891E+03  0.47614560616E+03  0.15294330000E+03 0.  0.
<mgrwt>
<rscale>  0 0.64481086E+03</rscale>
<asrwt>0</asrwt>
<pdfrwt beam="1">  1        2 0.15838809E+00 0.75562618E+03</pdfrwt>
<pdfrwt beam="2">  1       -2 0.80281227E-01 0.75562618E+03</pdfrwt>
<totfact> 0.33597598E+01</totfact>
</mgrwt>
</event>
<event>
 4    2  0.3747163E-007  0.1138669E+04  0.7818608E-02  0.9219177E-01
          2   -1    0    0  501    0  0.00000000000E+00  0.00000000000E+00  0.71173184179E+03  0.71173184179E+03  0.25500000000E-02 0. -1.
         -2   -1    0    0    0  501 -0.00000000000E+00 -0.00000000000E+00 -0.16455102853E+04  0.16455102853E+04  0.25500000000E-02 0.  1.
    8880023    1    1    2    0    0 -0.51340948563E+03 -0.77405878242E+03 -0.18326113581E+03  0.11533217889E+04  0.65864270000E+03 0.  0.
    8880022    1    1    2    0    0  0.51340948563E+03  0.77405878242E+03 -0.75051730772E+03  0.12039203382E+04  0.15294330000E+03 0.  0.
<mgrwt>
<rscale>  0 0.10857662E+04</rscale>
<asrwt>0</asrwt>
<pdfrwt beam="1">  1        2 0.10949721E+00 0.11386687E+04</pdfrwt>
<pdfrwt beam="2">  1       -2 0.25315543E+00 0.11386687E+04</pdfrwt>
<totfact> 0.24258081E+00</totfact>
</mgrwt>
</event>
<event>
 4    2  0.3747163E-007  0.6888183E+03  0.7818608E-02  0.1004719E+00
         -2   -1    0    0    0  501 -0.00000000000E+00  0.00000000000E+00  0.28521403508E+03  0.28521403509E+03  0.25500000000E-02 0.  1.
          2   -1    0    0  501    0  0.00000000000E+00 -0.00000000000E+00 -0.16054407918E+04  0.16054407918E+04  0.25500000000E-02 0. -1.
    8880023    1    1    2    0    0  0.19645279925E+03 -0.45461847489E+02 -0.14506930297E+04  0.16059205941E+04  0.65864270000E+03 0.  0.
    8880022    1    1    2    0    0 -0.19645279925E+03  0.45461847489E+02  0.13046627298E+03  0.28473423277E+03  0.15294330000E+03 0.  0.
<mgrwt>
<rscale>  0 0.53628447E+03</rscale>
<asrwt>0</asrwt>
<pdfrwt beam="1">  1        2 0.24699089E+00 0.68881833E+03</pdfrwt>
<pdfrwt beam="2">  1       -2 0.43879083E-01 0.68881833E+03</pdfrwt>
<totfact> 0.56163119E+01</totfact>
</mgrwt>
</event>
<event>
 4    2  0.3747163E-007  0.7459405E+03  0.7818608E-02  0.9842969E-01
          2   -1    0    0  501    0  0.00000000000E+00  0.00000000000E+00  0.33137346795E+03  0.33137346796E+03  0.25500000000E-02 0. -1.
         -2   -1    0    0    0  501 -0.00000000000E+00 -0.00000000000E+00 -0.14952521133E+04  0.14952521133E+04  0.25500000000E-02 0.  1.
    8880023    1    1    2    0    0  0.18081629303E+03  0.29987071669E+03 -0.17458040449E+03  0.76609758024E+03  0.65864270000E+03 0. -1.
    8880022    1    1    2    0    0 -0.18081629303E+03 -0.29987071669E+03 -0.98929824087E+03  0.10605280010E+04  0.15294330000E+03 0.  0.
<mgrwt>
<rscale>  0 0.63106696E+03</rscale>
<asrwt>0</asrwt>
<pdfrwt beam="1">  1        2 0.50980535E-01 0.74594047E+03</pdfrwt>
<pdfrwt beam="2">  1       -2 0.23003878E+00 0.74594047E+03</pdfrwt>
<totfact> 0.85947616E+00</totfact>
</mgrwt>
</event>
<event>
 4    2  0.3747163E-007  0.7506437E+03  0.7818608E-02  0.9829961E-01
         -2   -1    0    0    0  501 -0.00000000000E+00  0.00000000000E+00  0.80688523732E+03  0.80688523733E+03  0.25500000000E-02 0.  1.
          2   -1    0    0  501    0  0.00000000000E+00 -0.00000000000E+00 -0.17107424630E+04  0.17107424630E+04  0.25500000000E-02 0. -1.
    8880023    1    1    2    0    0  0.25288226140E+02  0.35918832442E+03 -0.15727666906E+04  0.17427165622E+04  0.65864270000E+03 0. -1.
    8880022    1    1    2    0    0 -0.25288226140E+02 -0.35918832442E+03  0.66890946491E+03  0.77491113816E+03  0.15294330000E+03 0.  0.
<mgrwt>
<rscale>  0 0.63779135E+03</rscale>
<asrwt>0</asrwt>
<pdfrwt beam="1">  1        2 0.26319115E+00 0.75064369E+03</pdfrwt>
<pdfrwt beam="2">  1       -2 0.12413619E+00 0.75064369E+03</pdfrwt>
<totfact> 0.48587888E+00</totfact>
</mgrwt>
</event>
<event>
 4    2  0.3747163E-007  0.8627251E+03  0.7818608E-02  0.9588734E-01
          2   -1    0    0  501    0  0.00000000000E+00  0.00000000000E+00  0.59168535157E+03  0.59168535157E+03  0.25500000000E-02 0. -1.
         -2   -1    0    0    0  501 -0.00000000000E+00 -0.00000000000E+00 -0.96534306428E+03  0.96534306429E+03  0.25500000000E-02 0.  1.
    8880023    1    1    2    0    0  0.21922669995E+03  0.51227347009E+03  0.11154975607E+02  0.86279724958E+03  0.65864270000E+03 0.  0.
    8880022    1    1    2    0    0 -0.21922669995E+03 -0.51227347009E+03 -0.38481268832E+03  0.69423116628E+03  0.15294330000E+03 0.  0.
<mgrwt>
<rscale>  0 0.78046334E+03</rscale>
<asrwt>0</asrwt>
<pdfrwt beam="1">  1        2 0.91028515E-01 0.86272514E+03</pdfrwt>
<pdfrwt beam="2">  1       -2 0.14851432E+00 0.86272514E+03</pdfrwt>
<totfact> 0.15580945E+01</totfact>
</mgrwt>
</event>
<event>
 4    2  0.3747163E-007  0.6653726E+03  0.7818608E-02  0.1019223E+00
         -2   -1    0    0    0  501 -0.00000000000E+00  0.00000000000E+00  0.16001807460E+03  0.16001807462E+03  0.25500000000E-02 0.  1.
          2   -1    0    0  501    0  0.00000000000E+00 -0.00000000000E+00 -0.16426096948E+04  0.16426096948E+04  0.25500000000E-02 0. -1.
    8880023    1    1    2    0    0 -0.13331694293E+02  0.93449338177E+02 -0.14802134193E+04  0.16228840026E+04  0.65864270000E+03 0. -1.
    8880022    1    1    2    0    0  0.13331694293E+02 -0.93449338177E+02 -0.23782009307E+01  0.17974376688E+03  0.15294330000E+03 0.  0.
<mgrwt>
<rscale>  0 0.47968115E+03</rscale>
<asrwt>0</asrwt>
<pdfrwt beam="1">  1        2 0.25270917E+00 0.66537262E+03</pdfrwt>
<pdfrwt beam="2">  1       -2 0.24618166E-01 0.66537262E+03</pdfrwt>
<totfact> 0.15958179E+02</totfact>
</mgrwt>
</event>
<event>
 4    2  0.3747163E-007  0.7016829E+03  0.7818608E-02  0.9990290E-01
          2   -1    0    0  501    0  0.00000000000E+00  0.00000000000E+00  0.91367322408E+03  0.91367322409E+03  0.25500000000E-02 0. -1.
         -2   -1    0    0    0  501 -0.00000000000E+00 -0.00000000000E+00 -0.27193047603E+03  0.27193047604E+03  0.25500000000E-02 0.  1.
    8880023    1    1    2    0    0  0.18175552821E+03 -0.15972976666E+03  0.52551332039E+03  0.87665450809E+03  0.65864270000E+03 0. -1.
    8880022    1    1    2    0    0 -0.18175552821E+03  0.15972976666E+03  0.11622942767E+03  0.30894919204E+03  0.15294330000E+03 0.  1.
<mgrwt>
<rscale>  0 0.56078046E+03</rscale>
<asrwt>0</asrwt>
<pdfrwt beam="1">  1        2 0.14056511E+00 0.70168289E+03</pdfrwt>
<pdfrwt beam="2">  1       -2 0.41835458E-01 0.70168289E+03</pdfrwt>
<totfact> 0.15761379E+02</totfact>
</mgrwt>
</event>
<event>
 4    2  0.3747163E-007  0.7070826E+03  0.7818608E-02  0.9968998E-01
         -2   -1    0    0    0  501 -0.00000000000E+00  0.00000000000E+00  0.34009289969E+03  0.34009289970E+03  0.25500000000E-02 0.  1.
          2   -1    0    0  501    0  0.00000000000E+00 -0.00000000000E+00 -0.17178681293E+04  0.17178681293E+04  0.25500000000E-02 0. -1.
    8880023    1    1    2    0    0 -0.19618645196E+03  0.16633221234E+03 -0.15563798107E+04  0.17094688796E+04  0.65864270000E+03 0.  0.
    8880022    1    1    2    0    0  0.19618645196E+03 -0.16633221234E+03  0.17860458110E+03  0.34849214941E+03  0.15294330000E+03 0.  0.
<mgrwt>
<rscale>  0 0.57030750E+03</rscale>
<asrwt>0</asrwt>
<pdfrwt beam="1">  1        2 0.26428740E+00 0.70708255E+03</pdfrwt>
<pdfrwt beam="2">  1       -2 0.52321985E-01 0.70708255E+03</pdfrwt>
<totfact> 0.34106146E+01</totfact>
</mgrwt>
</event>
<event>
 4    2  0.3747163E-007  0.1022639E+04  0.7818608E-02  0.9352521E-01
          2   -1    0    0  501    0  0.00000000000E+00  0.00000000000E+00  0.21993894005E+04  0.21993894005E+04  0.25500000000E-02 0. -1.
         -2   -1    0    0    0  501 -0.00000000000E+00 -0.00000000000E+00 -0.52138899570E+03  0.52138899571E+03  0.25500000000E-02 0.  1.
    8880023    1    1    2    0    0 -0.74841811152E+03  0.22770626834E+03  0.16274465184E+04  0.19220749702E+04  0.65864270000E+03 0.  0.
    8880022    1    1    2    0    0  0.74841811152E+03 -0.22770626834E+03  0.50553886328E+02  0.79870342601E+03  0.15294330000E+03 0.  0.
<mgrwt>
<rscale>  0 0.96088220E+03</rscale>
<asrwt>0</asrwt>
<pdfrwt beam="1">  1        2 0.33836760E+00 0.10226388E+04</pdfrwt>
<pdfrwt beam="2">  1       -2 0.80213693E-01 0.10226388E+04</pdfrwt>
<totfact> 0.71170103E+00</totfact>
</mgrwt>
</event>
<event>
 4    2  0.3747163E-007  0.6772305E+03  0.7818608E-02  0.1010936E+00
         -2   -1    0    0    0  501 -0.00000000000E+00  0.00000000000E+00  0.15921868595E+03  0.15921868597E+03  0.25500000000E-02 0.  1.
          2   -1    0    0  501    0  0.00000000000E+00 -0.00000000000E+00 -0.23101049507E+04  0.23101049507E+04  0.25500000000E-02 0. -1.
    8880023    1    1    2    0    0  0.11617077900E+02  0.15714949509E+03 -0.21452999599E+04  0.22496562059E+04  0.65864270000E+03 0. -1.
    8880022    1    1    2    0    0 -0.11617077900E+02 -0.15714949509E+03 -0.55863047572E+01  0.21966743073E+03  0.15294330000E+03 0.  0.
<mgrwt>
<rscale>  0 0.51104444E+03</rscale>
<asrwt>0</asrwt>
<pdfrwt beam="1">  1        2 0.35540074E+00 0.67723048E+03</pdfrwt>
<pdfrwt beam="2">  1       -2 0.24495184E-01 0.67723048E+03</pdfrwt>
<totfact> 0.69492600E+01</totfact>
</mgrwt>
</event>
<event>
 4    2  0.3747163E-007  0.7161266E+03  0.7818608E-02  0.9935917E-01
          2   -1    0    0  501    0  0.00000000000E+00  0.00000000000E+00  0.60990672190E+03  0.60990672191E+03  0.25500000000E-02 0. -1.
         -2   -1    0    0    0  501 -0.00000000000E+00 -0.00000000000E+00 -0.54419744056E+03  0.54419744056E+03  0.25500000000E-02 0.  1.
    8880023    1    1    2    0    0 -0.90853341250E+02  0.26603153428E+03  0.28003933428E+03  0.76893389953E+03  0.65864270000E+03 0. -1.
    8880022    1    1    2    0    0  0.90853341250E+02 -0.26603153428E+03 -0.21433005293E+03  0.38517026294E+03  0.15294330000E+03 0.  0.
<mgrwt>
<rscale>  0 0.58551739E+03</rscale>
<asrwt>0</asrwt>
<pdfrwt beam="1">  1        2 0.93831803E-01 0.71612660E+03</pdfrwt>
<pdfrwt beam="2">  1       -2 0.83722684E-01 0.71612660E+03</pdfrwt>
<totfact> 0.61515371E+01</totfact>
</mgrwt>
</event>
<event>
 4    2  0.3747163E-007  0.7281395E+03  0.7818608E-02  0.9895949E-01
         -2   -1    0    0    0  501 -0.00000000000E+00  0.00000000000E+00  0.50859772014E+03  0.50859772014E+03  0.25500000000E-02 0.  1.
          2   -1    0    0  501    0  0.00000000000E+00 -0.00000000000E+00 -0.15783870617E+04  0.15783870617E+04  0.25500000000E-02 0. -1.
    8880023    1    1    2    0    0 -0.29298206558E+03 -0.10265697270E+03 -0.14192653909E+04  0.15951493350E+04  0.65864270000E+03 0. -1.
    8880022    1    1    2    0    0  0.29298206558E+03  0.10265697270E+03  0.34947604930E+03  0.49183544692E+03  0.15294330000E+03 0.  0.
<mgrwt>
<rscale>  0 0.60458006E+03</rscale>
<asrwt>0</asrwt>
<pdfrwt beam="1">  1        2 0.24282878E+00 0.72813951E+03</pdfrwt>
<pdfrwt beam="2">  1       -2 0.78245804E-01 0.72813951E+03</pdfrwt>
<totfact> 0.17135483E+01</totfact>
</mgrwt>
</event>
<event>
 4    2  0.3747163E-007  0.7069736E+03  0.7818608E-02  0.9969415E-01
         -2   -1    0    0    0  501 -0.00000000000E+00  0.00000000000E+00  0.12765862909E+04  0.12765862909E+04  0.25500000000E-02 0.  1.
          2   -1    0    0  501    0  0.00000000000E+00 -0.00000000000E+00 -0.83930369413E+03  0.83930369413E+03  0.25500000000E-02 0. -1.
    8880023    1    1    2    0    0 -0.25584735972E+03 -0.23316451168E+02 -0.66693358704E+03  0.97191159277E+03  0.65864270000E+03 0.  0.
    8880022    1    1    2    0    0  0.25584735972E+03  0.23316451168E+02  0.11042161838E+04  0.11439783922E+04  0.15294330000E+03 0.  0.
<mgrwt>
<rscale>  0 0.57011894E+03</rscale>
<asrwt>0</asrwt>
<pdfrwt beam="1">  1        2 0.12912365E+00 0.70697364E+03</pdfrwt>
<pdfrwt beam="2">  1       -2 0.19639789E+00 0.70697364E+03</pdfrwt>
<totfact> 0.46629845E+00</totfact>
</mgrwt>
</event>
<event>
 4    2  0.3747163E-007  0.7164248E+03  0.7818608E-02  0.9934874E-01
         -2   -1    0    0    0  501 -0.00000000000E+00  0.00000000000E+00  0.60917977851E+03  0.60917977851E+03  0.25500000000E-02 0.  1.
          2   -1    0    0  501    0  0.00000000000E+00 -0.00000000000E+00 -0.12254271427E+04  0.12254271427E+04  0.25500000000E-02 0. -1.
    8880023    1    1    2    0    0  0.11553729470E+02  0.28163942980E+03 -0.10646929493E+04  0.12832909022E+04  0.65864270000E+03 0. -1.
    8880022    1    1    2    0    0 -0.11553729470E+02 -0.28163942980E+03  0.44844558508E+03  0.55131601906E+03  0.15294330000E+03 0.  0.
<mgrwt>
<rscale>  0 0.58600501E+03</rscale>
<asrwt>0</asrwt>
<pdfrwt beam="1">  1        2 0.18852725E+00 0.71642478E+03</pdfrwt>
<pdfrwt beam="2">  1       -2 0.93719967E-01 0.71642478E+03</pdfrwt>
<totfact> 0.18011111E+01</totfact>
</mgrwt>
</event>
<event>
 4    2  0.3747163E-007  0.6672239E+03  0.7818608E-02  0.1017736E+00
          2   -1    0    0  501    0  0.00000000000E+00  0.00000000000E+00  0.11396767808E+04  0.11396767808E+04  0.25500000000E-02 0. -1.
         -2   -1    0    0    0  501 -0.00000000000E+00 -0.00000000000E+00 -0.26504955700E+03  0.26504955701E+03  0.25500000000E-02 0.  1.
    8880023    1    1    2    0    0  0.10596723325E+03 -0.12186280672E+02  0.98375093403E+03  0.11886772760E+04  0.65864270000E+03 0.  0.
    8880022    1    1    2    0    0 -0.10596723325E+03  0.12186280672E+02 -0.10912371025E+03  0.21604906182E+03  0.15294330000E+03 0.  0.
<mgrwt>
<rscale>  0 0.48512434E+03</rscale>
<asrwt>0</asrwt>
<pdfrwt beam="1">  1        2 0.17533489E+00 0.66722393E+03</pdfrwt>
<pdfrwt beam="2">  1       -2 0.40776855E-01 0.66722393E+03</pdfrwt>
<totfact> 0.11970292E+02</totfact>
</mgrwt>
</event>
<event>
 4    2  0.3747163E-007  0.1009432E+04  0.7818608E-02  0.9369321E-01
          2   -1    0    0  501    0  0.00000000000E+00  0.00000000000E+00  0.11195941600E+04  0.11195941600E+04  0.25500000000E-02 0. -1.
         -2   -1    0    0    0  501 -0.00000000000E+00 -0.00000000000E+00 -0.16592557796E+04  0.16592557796E+04  0.25500000000E-02 0.  1.
    8880023    1    1    2    0    0  0.44011075825E+03 -0.62565569616E+03  0.75965769544E+03  0.12633418184E+04  0.65864270000E+03 0. -1.
    8880022    1    1    2    0    0 -0.44011075825E+03  0.62565569616E+03 -0.12993193151E+04  0.15155081211E+04  0.15294330000E+03 0.  0.
<mgrwt>
<rscale>  0 0.94644065E+03</rscale>
<asrwt>0</asrwt>
<pdfrwt beam="1">  1        2 0.17224525E+00 0.10094319E+04</pdfrwt>
<pdfrwt beam="2">  1       -2 0.25527012E+00 0.10094319E+04</pdfrwt>
<totfact> 0.12590003E+00</totfact>
</mgrwt>
</event>
<event>
 4    2  0.3747163E-007  0.9137017E+03  0.7818608E-02  0.9504384E-01
          2   -1    0    0  501    0  0.00000000000E+00  0.00000000000E+00  0.48246226884E+03  0.48246226885E+03  0.25500000000E-02 0. -1.
         -2   -1    0    0    0  501 -0.00000000000E+00 -0.00000000000E+00 -0.17101965764E+04  0.17101965764E+04  0.25500000000E-02 0.  1.
    8880023    1    1    2    0    0  0.61939589875E+03 -0.13186844287E+03 -0.13945832716E+03  0.92428318003E+03  0.65864270000E+03 0.  0.
    8880022    1    1    2    0    0 -0.61939589875E+03  0.13186844287E+03 -0.10882759804E+04  0.12683756653E+04  0.15294330000E+03 0.  0.
<mgrwt>
<rscale>  0 0.83961340E+03</rscale>
<asrwt>0</asrwt>
<pdfrwt beam="1">  1        2 0.74224965E-01 0.91370169E+03</pdfrwt>
<pdfrwt beam="2">  1       -2 0.26310716E+00 0.91370169E+03</pdfrwt>
<totfact> 0.34664933E+00</totfact>
</mgrwt>
</event>
<event>
 4    2  0.3747163E-007  0.1059850E+04  0.7818608E-02  0.9307133E-01
          2   -1    0    0  501    0  0.00000000000E+00  0.00000000000E+00  0.14165598799E+04  0.14165598799E+04  0.25500000000E-02 0. -1.
         -2   -1    0    0    0  501 -0.00000000000E+00 -0.00000000000E+00 -0.73679390705E+03  0.73679390706E+03  0.25500000000E-02 0.  1.
    8880023    1    1    2    0    0  0.62326373404E+03  0.54864811588E+03  0.76155953121E+03  0.13050883354E+04  0.65864270000E+03 0.  0.
    8880022    1    1    2    0    0 -0.62326373404E+03 -0.54864811588E+03 -0.81793558342E+02  0.84826545163E+03  0.15294330000E+03 0.  0.
<mgrwt>
<rscale>  0 0.10012885E+04</rscale>
<asrwt>0</asrwt>
<pdfrwt beam="1">  1        2 0.21793229E+00 0.10598503E+04</pdfrwt>
<pdfrwt beam="2">  1       -2 0.11335291E+00 0.10598503E+04</pdfrwt>
<totfact> 0.85451931E+00</totfact>
</mgrwt>
</event>
<event>
 4    2  0.3747163E-007  0.7723458E+03  0.7818608E-02  0.9774134E-01
          2   -1    0    0  501    0  0.00000000000E+00  0.00000000000E+00  0.22605286170E+04  0.22605286170E+04  0.25500000000E-02 0. -1.
         -2   -1    0    0    0  501 -0.00000000000E+00 -0.00000000000E+00 -0.25069953096E+03  0.25069953097E+03  0.25500000000E-02 0.  1.
    8880023    1    1    2    0    0 -0.29098900793E+03  0.27934431658E+03  0.19214624830E+04  0.20708781059E+04  0.65864270000E+03 0. -1.
    8880022    1    1    2    0    0  0.29098900793E+03 -0.27934431658E+03  0.88366603049E+02  0.44035004201E+03  0.15294330000E+03 0.  0.
<mgrwt>
<rscale>  0 0.66769327E+03</rscale>
<asrwt>0</asrwt>
<pdfrwt beam="1">  1        2 0.34777362E+00 0.77234581E+03</pdfrwt>
<pdfrwt beam="2">  1       -2 0.38569160E-01 0.77234581E+03</pdfrwt>
<totfact> 0.31362448E+01</totfact>
</mgrwt>
</event>
<event>
 4    2  0.3747163E-007  0.6600026E+03  0.7818608E-02  0.1024154E+00
          2   -1    0    0  501    0  0.00000000000E+00  0.00000000000E+00  0.14897057460E+04  0.14897057460E+04  0.25500000000E-02 0. -1.
         -2   -1    0    0    0  501 -0.00000000000E+00 -0.00000000000E+00 -0.15517909076E+03  0.15517909079E+03  0.25500000000E-02 0.  1.
    8880023    1    1    2    0    0  0.30891000421E+02 -0.28965097477E+02  0.13315657660E+04  0.14861597579E+04  0.65864270000E+03 0. -1.
    8880022    1    1    2    0    0 -0.30891000421E+02  0.28965097477E+02  0.29608892859E+01  0.15872507886E+03  0.15294330000E+03 0.  0.
<mgrwt>
<rscale>  0 0.46216998E+03</rscale>
<asrwt>0</asrwt>
<pdfrwt beam="1">  1        2 0.22918549E+00 0.66000260E+03</pdfrwt>
<pdfrwt beam="2">  1       -2 0.23873707E-01 0.66000260E+03</pdfrwt>
<totfact> 0.20478817E+02</totfact>
</mgrwt>
</event>
<event>
 4    2  0.3747163E-007  0.1013743E+04  0.7818608E-02  0.9363794E-01
          2   -1    0    0  501    0  0.00000000000E+00  0.00000000000E+00  0.33963895849E+04  0.33963895849E+04  0.25500000000E-02 0. -1.
         -2   -1    0    0    0  501 -0.00000000000E+00 -0.00000000000E+00 -0.27378590311E+03  0.27378590312E+03  0.25500000000E-02 0.  1.
    8880023    1    1    2    0    0 -0.37021084910E+03 -0.67587655473E+03  0.23893294761E+04  0.25954904626E+04  0.65864270000E+03 0. -1.
    8880022    1    1    2    0    0  0.37021084910E+03  0.67587655473E+03  0.73327420567E+03  0.10746850254E+04  0.15294330000E+03 0.  1.
<mgrwt>
<rscale>  0 0.95116141E+03</rscale>
<asrwt>0</asrwt>
<pdfrwt beam="1">  1        2 0.52252148E+00 0.10137433E+04</pdfrwt>
<pdfrwt beam="2">  1       -2 0.42120907E-01 0.10137433E+04</pdfrwt>
<totfact> 0.52851651E+00</totfact>
</mgrwt>
</event>
<event>
 4    2  0.3747163E-007  0.7925084E+03  0.7818608E-02  0.9727235E-01
          2   -1    0    0  501    0  0.00000000000E+00  0.00000000000E+00  0.17770729679E+04  0.17770729680E+04  0.25500000000E-02 0. -1.
         -2   -1    0    0    0  501 -0.00000000000E+00 -0.00000000000E+00 -0.25901484330E+03  0.25901484331E+03  0.25500000000E-02 0.  1.
    8880023    1    1    2    0    0 -0.30398176386E+01 -0.44073814334E+03  0.12967039878E+04  0.15197074685E+04  0.65864270000E+03 0.  0.
    8880022    1    1    2    0    0  0.30398176386E+01  0.44073814334E+03  0.22135413681E+03  0.51638034276E+03  0.15294330000E+03 0.  0.
<mgrwt>
<rscale>  0 0.69418142E+03</rscale>
<asrwt>0</asrwt>
<pdfrwt beam="1">  1        2 0.27339584E+00 0.79250840E+03</pdfrwt>
<pdfrwt beam="2">  1       -2 0.39848438E-01 0.79250840E+03</pdfrwt>
<totfact> 0.54048819E+01</totfact>
</mgrwt>
</event>
<event>
 4    2  0.3747163E-007  0.7209743E+03  0.7818608E-02  0.9919303E-01
         -2   -1    0    0    0  501 -0.00000000000E+00  0.00000000000E+00  0.28538253057E+03  0.28538253058E+03  0.25500000000E-02 0.  1.
          2   -1    0    0  501    0  0.00000000000E+00 -0.00000000000E+00 -0.14022583389E+04  0.14022583389E+04  0.25500000000E-02 0. -1.
    8880023    1    1    2    0    0  0.28693197763E+03  0.60529437184E+02 -0.11478128653E+04  0.13554624128E+04  0.65864270000E+03 0. -1.
    8880022    1    1    2    0    0 -0.28693197763E+03 -0.60529437184E+02  0.30937056978E+02  0.33217845665E+03  0.15294330000E+03 0.  0.
<mgrwt>
<rscale>  0 0.59334841E+03</rscale>
<asrwt>0</asrwt>
<pdfrwt beam="1">  1        2 0.21573205E+00 0.72097433E+03</pdfrwt>
<pdfrwt beam="2">  1       -2 0.43905006E-01 0.72097433E+03</pdfrwt>
<totfact> 0.72512028E+01</totfact>
</mgrwt>
</event>
<event>
 4    2  0.3747163E-007  0.8049168E+03  0.7818608E-02  0.9700264E-01
         -2   -1    0    0    0  501 -0.00000000000E+00  0.00000000000E+00  0.40131397048E+03  0.40131397049E+03  0.25500000000E-02 0.  1.
          2   -1    0    0  501    0  0.00000000000E+00 -0.00000000000E+00 -0.21143993549E+04  0.21143993549E+04  0.25500000000E-02 0. -1.
    8880023    1    1    2    0    0 -0.36359573032E+03  0.28614507260E+03 -0.18432363912E+04  0.20113208242E+04  0.65864270000E+03 0.  0.
    8880022    1    1    2    0    0  0.36359573032E+03 -0.28614507260E+03  0.13015100679E+03  0.50439250119E+03  0.15294330000E+03 0.  0.
<mgrwt>
<rscale>  0 0.71001073E+03</rscale>
<asrwt>0</asrwt>
<pdfrwt beam="1">  1        2 0.32529220E+00 0.80491681E+03</pdfrwt>
<pdfrwt beam="2">  1       -2 0.61740612E-01 0.80491681E+03</pdfrwt>
<totfact> 0.14472105E+01</totfact>
</mgrwt>
</event>
<event>
 4    2  0.3747163E-007  0.7576670E+03  0.7818608E-02  0.9811185E-01
         -2   -1    0    0    0  501 -0.00000000000E+00  0.00000000000E+00  0.20007492208E+03  0.20007492210E+03  0.25500000000E-02 0.  1.
          2   -1    0    0  501    0  0.00000000000E+00 -0.00000000000E+00 -0.17378935999E+04  0.17378935999E+04  0.25500000000E-02 0. -1.
    8880023    1    1    2    0    0  0.51911783601E+02 -0.37088309877E+03 -0.11528749792E+04  0.13795579111E+04  0.65864270000E+03 0. -1.
    8880022    1    1    2    0    0 -0.51911783601E+02  0.37088309877E+03 -0.38494369868E+03  0.55841061093E+03  0.15294330000E+03 0.  1.
<mgrwt>
<rscale>  0 0.64765724E+03</rscale>
<asrwt>0</asrwt>
<pdfrwt beam="1">  1        2 0.26736824E+00 0.75766702E+03</pdfrwt>
<pdfrwt beam="2">  1       -2 0.30780758E-01 0.75766702E+03</pdfrwt>
<totfact> 0.93214463E+01</totfact>
</mgrwt>
</event>
<event>
 4    2  0.3747163E-007  0.7116178E+03  0.7818608E-02  0.9952042E-01
         -2   -1    0    0    0  501 -0.00000000000E+00  0.00000000000E+00  0.23738994551E+03  0.23738994553E+03  0.25500000000E-02 0.  1.
          2   -1    0    0  501    0  0.00000000000E+00 -0.00000000000E+00 -0.17420784542E+04  0.17420784542E+04  0.25500000000E-02 0. -1.
    8880023    1    1    2    0    0 -0.20059865824E+02  0.26867694592E+03 -0.15103610914E+04  0.16696078977E+04  0.65864270000E+03 0. -1.
    8880022    1    1    2    0    0  0.20059865824E+02 -0.26867694592E+03  0.56725827120E+01  0.30986050199E+03  0.15294330000E+03 0.  0.
<mgrwt>
<rscale>  0 0.57804076E+03</rscale>
<asrwt>0</asrwt>
<pdfrwt beam="1">  1        2 0.26801206E+00 0.71161781E+03</pdfrwt>
<pdfrwt beam="2">  1       -2 0.36521531E-01 0.71161781E+03</pdfrwt>
<totfact> 0.67438485E+01</totfact>
</mgrwt>
</event>
<event>
 4    2  0.3747163E-007  0.8718960E+03  0.7818608E-02  0.9572743E-01
         -2   -1    0    0    0  501 -0.00000000000E+00  0.00000000000E+00  0.55016021783E+03  0.55016021784E+03  0.25500000000E-02 0.  1.
          2   -1    0    0  501    0  0.00000000000E+00 -0.00000000000E+00 -0.13328631554E+04  0.13328631554E+04  0.25500000000E-02 0. -1.
    8880023    1    1    2    0    0  0.56200435035E+03 -0.10268155646E+03 -0.92869713164E+03  0.12738449515E+04  0.65864270000E+03 0. -1.
    8880022    1    1    2    0    0 -0.56200435035E+03  0.10268155646E+03  0.14599419405E+03  0.60917842177E+03  0.15294330000E+03 0.  1.
<mgrwt>
<rscale>  0 0.79126782E+03</rscale>
<asrwt>0</asrwt>
<pdfrwt beam="1">  1        2 0.20505587E+00 0.87189598E+03</pdfrwt>
<pdfrwt beam="2">  1       -2 0.84640034E-01 0.87189598E+03</pdfrwt>
<totfact> 0.19395363E+01</totfact>
</mgrwt>
</event>
<event>
 4    2  0.3747163E-007  0.7023837E+03  0.7818608E-02  0.9987453E-01
         -2   -1    0    0    0  501 -0.00000000000E+00  0.00000000000E+00  0.52719336420E+03  0.52719336421E+03  0.25500000000E-02 0.  1.
          2   -1    0    0  501    0  0.00000000000E+00 -0.00000000000E+00 -0.24402681259E+04  0.24402681259E+04  0.25500000000E-02 0. -1.
    8880023    1    1    2    0    0  0.24234530733E+03 -0.28310067702E+02 -0.23452300882E+04  0.24481517683E+04  0.65864270000E+03 0. -1.
    8880022    1    1    2    0    0 -0.24234530733E+03  0.28310067702E+02  0.43215532649E+03  0.51930972179E+03  0.15294330000E+03 0.  0.
<mgrwt>
<rscale>  0 0.56203855E+03</rscale>
<asrwt>0</asrwt>
<pdfrwt beam="1">  1        2 0.37542586E+00 0.70238374E+03</pdfrwt>
<pdfrwt beam="2">  1       -2 0.81106673E-01 0.70238374E+03</pdfrwt>
<totfact> 0.53398627E+00</totfact>
</mgrwt>
</event>
<event>
 4    2  0.3747163E-007  0.8854631E+03  0.7818608E-02  0.9549783E-01
         -2   -1    0    0    0  501 -0.00000000000E+00  0.00000000000E+00  0.69224264933E+03  0.69224264934E+03  0.25500000000E-02 0.  1.
          2   -1    0    0  501    0  0.00000000000E+00 -0.00000000000E+00 -0.10366307024E+04  0.10366307024E+04  0.25500000000E-02 0. -1.
    8880023    1    1    2    0    0  0.22998304255E+03 -0.54529121350E+03  0.20290368731E+03  0.90841335303E+03  0.65864270000E+03 0.  1.
    8880022    1    1    2    0    0 -0.22998304255E+03  0.54529121350E+03 -0.54729174038E+03  0.82045999871E+03  0.15294330000E+03 0.  0.
<mgrwt>
<rscale>  0 0.80710965E+03</rscale>
<asrwt>0</asrwt>
<pdfrwt beam="1">  1        2 0.15948165E+00 0.88546311E+03</pdfrwt>
<pdfrwt beam="2">  1       -2 0.10649887E+00 0.88546311E+03</pdfrwt>
<totfact> 0.17014467E+01</totfact>
</mgrwt>
</event>
<event>
 4    2  0.3747163E-007  0.7907360E+03  0.7818608E-02  0.9731197E-01
          2   -1    0    0  501    0  0.00000000000E+00  0.00000000000E+00  0.11202299512E+04  0.11202299512E+04  0.25500000000E-02 0. -1.
         -2   -1    0    0    0  501 -0.00000000000E+00 -0.00000000000E+00 -0.98615901976E+03  0.98615901977E+03  0.25500000000E-02 0.  1.
    8880023    1    1    2    0    0 -0.41387311240E+02 -0.43559197683E+03  0.90814134610E+03  0.12041528934E+04  0.65864270000E+03 0. -1.
    8880022    1    1    2    0    0  0.41387311240E+02  0.43559197683E+03 -0.77407041468E+03  0.90223607759E+03  0.15294330000E+03 0.  0.
<mgrwt>
<rscale>  0 0.69189356E+03</rscale>
<asrwt>0</asrwt>
<pdfrwt beam="1">  1        2 0.17234307E+00 0.79073604E+03</pdfrwt>
<pdfrwt beam="2">  1       -2 0.15171677E+00 0.79073604E+03</pdfrwt>
<totfact> 0.62451268E+00</totfact>
</mgrwt>
</event>
<event>
 4    2  0.3747163E-007  0.7467371E+03  0.7818608E-02  0.9840740E-01
         -2   -1    0    0    0  501 -0.00000000000E+00  0.00000000000E+00  0.10520801580E+04  0.10520801580E+04  0.25500000000E-02 0.  1.
          2   -1    0    0  501    0  0.00000000000E+00 -0.00000000000E+00 -0.54586134152E+03  0.54586134152E+03  0.25500000000E-02 0. -1.
    8880023    1    1    2    0    0 -0.31532718809E+03  0.15612465219E+03 -0.21840066170E+03  0.77802004978E+03  0.65864270000E+03 0. -1.
    8880022    1    1    2    0    0  0.31532718809E+03 -0.15612465219E+03  0.72461947819E+03  0.81992144975E+03  0.15294330000E+03 0.  0.
<mgrwt>
<rscale>  0 0.63221308E+03</rscale>
<asrwt>0</asrwt>
<pdfrwt beam="1">  1        2 0.83978670E-01 0.74673714E+03</pdfrwt>
<pdfrwt beam="2">  1       -2 0.16185848E+00 0.74673714E+03</pdfrwt>
<totfact> 0.13764841E+01</totfact>
</mgrwt>
</event>
<event>
 4    2  0.3747163E-007  0.7013256E+03  0.7818608E-02  0.9991746E-01
          2   -1    0    0  501    0  0.00000000000E+00  0.00000000000E+00  0.16637756654E+04  0.16637756654E+04  0.25500000000E-02 0. -1.
         -2   -1    0    0    0  501 -0.00000000000E+00 -0.00000000000E+00 -0.16263139272E+03  0.16263139274E+03  0.25500000000E-02 0.  1.
    8880023    1    1    2    0    0  0.23937685415E+03  0.27314042034E+02  0.13005152242E+04  0.14775646821E+04  0.65864270000E+03 0. -1.
    8880022    1    1    2    0    0 -0.23937685415E+03 -0.27314042034E+02  0.20062904848E+03  0.34884237602E+03  0.15294330000E+03 0.  0.
<mgrwt>
<rscale>  0 0.56013640E+03</rscale>
<asrwt>0</asrwt>
<pdfrwt beam="1">  1        2 0.25596548E+00 0.70132556E+03</pdfrwt>
<pdfrwt beam="2">  1       -2 0.25020215E-01 0.70132556E+03</pdfrwt>
<totfact> 0.15040809E+02</totfact>
</mgrwt>
</event>
<event>
 4    2  0.3747163E-007  0.7234430E+03  0.7818608E-02  0.9911104E-01
         -2   -1    0    0    0  501 -0.00000000000E+00  0.00000000000E+00  0.10478596643E+03  0.10478596646E+03  0.25500000000E-02 0.  1.
          2   -1    0    0  501    0  0.00000000000E+00 -0.00000000000E+00 -0.38745898920E+04  0.38745898920E+04  0.25500000000E-02 0. -1.
    8880023    1    1    2    0    0  0.59038684327E+02  0.29338364805E+03 -0.34145207372E+04  0.34903182666E+04  0.65864270000E+03 0. -1.
    8880022    1    1    2    0    0 -0.59038684327E+02 -0.29338364805E+03 -0.35528318838E+03  0.48905759185E+03  0.15294330000E+03 0.  0.
<mgrwt>
<rscale>  0 0.59726158E+03</rscale>
<asrwt>0</asrwt>
<pdfrwt beam="1">  1        2 0.59609064E+00 0.72344297E+03</pdfrwt>
<pdfrwt beam="2">  1       -2 0.16120921E-01 0.72344297E+03</pdfrwt>
<totfact> 0.14671605E+01</totfact>
</mgrwt>
</event>
<event>
 4    2  0.3747163E-007  0.6681227E+03  0.7818608E-02  0.1017046E+00
          2   -1    0    0  501    0  0.00000000000E+00  0.00000000000E+00  0.91266375588E+03  0.91266375588E+03  0.25500000000E-02 0. -1.
         -2   -1    0    0    0  501 -0.00000000000E+00 -0.00000000000E+00 -0.23258139056E+03  0.23258139058E+03  0.25500000000E-02 0.  1.
    8880023    1    1    2    0    0  0.95524386037E+02  0.58760973333E+02  0.68316520171E+03  0.95556405301E+03  0.65864270000E+03 0. -1.
    8880022    1    1    2    0    0 -0.95524386037E+02 -0.58760973333E+02 -0.30828363979E+01  0.18968109344E+03  0.15294330000E+03 0.  0.
<mgrwt>
<rscale>  0 0.48767877E+03</rscale>
<asrwt>0</asrwt>
<pdfrwt beam="1">  1        2 0.14040981E+00 0.66812272E+03</pdfrwt>
<pdfrwt beam="2">  1       -2 0.35781752E-01 0.66812272E+03</pdfrwt>
<totfact> 0.21409140E+02</totfact>
</mgrwt>
</event>
<event>
 4    2  0.3747163E-007  0.7239980E+03  0.7818608E-02  0.9909283E-01
          2   -1    0    0  501    0  0.00000000000E+00  0.00000000000E+00  0.37393902506E+04  0.37393902506E+04  0.25500000000E-02 0. -1.
         -2   -1    0    0    0  501 -0.00000000000E+00 -0.00000000000E+00 -0.10698957462E+03  0.10698957465E+03  0.25500000000E-02 0.  1.
    8880023    1    1    2    0    0 -0.21315326301E+03 -0.21196363400E+03  0.32785549434E+04  0.33575430926E+04  0.65864270000E+03 0. -1.
    8880022    1    1    2    0    0  0.21315326301E+03  0.21196363400E+03  0.35384573251E+03  0.48883673257E+03  0.15294330000E+03 0.  0.
<mgrwt>
<rscale>  0 0.59813487E+03</rscale>
<asrwt>0</asrwt>
<pdfrwt beam="1">  1        2 0.57529083E+00 0.72399800E+03</pdfrwt>
<pdfrwt beam="2">  1       -2 0.16459934E-01 0.72399800E+03</pdfrwt>
<totfact> 0.17835023E+01</totfact>
</mgrwt>
</event>
<event>
 4    2  0.3747163E-007  0.7270829E+03  0.7818608E-02  0.9899310E-01
          2   -1    0    0  501    0  0.00000000000E+00  0.00000000000E+00  0.27138969089E+04  0.27138969089E+04  0.25500000000E-02 0. -1.
         -2   -1    0    0    0  501 -0.00000000000E+00 -0.00000000000E+00 -0.12732908877E+03  0.12732908879E+03  0.25500000000E-02 0.  1.
    8880023    1    1    2    0    0 -0.30545359927E+03 -0.39209377023E+02  0.11231246057E+04  0.13379306270E+04  0.65864270000E+03 0.  1.
    8880022    1    1    2    0    0  0.30545359927E+03  0.39209377023E+02  0.14634432145E+04  0.15032953707E+04  0.15294330000E+03 0.  0.
<mgrwt>
<rscale>  0 0.60294725E+03</rscale>
<asrwt>0</asrwt>
<pdfrwt beam="1">  1        2 0.41752258E+00 0.72708286E+03</pdfrwt>
<pdfrwt beam="2">  1       -2 0.19589092E-01 0.72708286E+03</pdfrwt>
<totfact> 0.60490443E+01</totfact>
</mgrwt>
</event>
<event>
 4    2  0.3747163E-007  0.7046358E+03  0.7818608E-02  0.9978488E-01
          2   -1    0    0  501    0  0.00000000000E+00  0.00000000000E+00  0.39534105458E+04  0.39534105458E+04  0.25500000000E-02 0. -1.
         -2   -1    0    0    0  501 -0.00000000000E+00 -0.00000000000E+00 -0.96331698064E+02  0.96331698098E+02  0.25500000000E-02 0.  1.
    8880023    1    1    2    0    0 -0.91657715029E+02 -0.23302404602E+03  0.35713124876E+04  0.36401626932E+04  0.65864270000E+03 0. -1.
    8880022    1    1    2    0    0  0.91657715029E+02  0.23302404602E+03  0.28576636019E+03  0.40957955073E+03  0.15294330000E+03 0.  0.
<mgrwt>
<rscale>  0 0.56603656E+03</rscale>
<asrwt>0</asrwt>
<pdfrwt beam="1">  1        2 0.60821687E+00 0.70463576E+03</pdfrwt>
<pdfrwt beam="2">  1       -2 0.14820264E-01 0.70463576E+03</pdfrwt>
<totfact> 0.14781932E+01</totfact>
</mgrwt>
</event>
<event>
 4    2  0.3747163E-007  0.9746872E+03  0.7818608E-02  0.9415450E-01
          2   -1    0    0  501    0  0.00000000000E+00  0.00000000000E+00  0.22129542651E+04  0.22129542651E+04  0.25500000000E-02 0. -1.
         -2   -1    0    0    0  501 -0.00000000000E+00 -0.00000000000E+00 -0.48111477755E+03  0.48111477756E+03  0.25500000000E-02 0.  1.
    8880023    1    1    2    0    0  0.63837000287E+03 -0.32967966077E+03  0.16990422616E+04  0.19587648537E+04  0.65864270000E+03 0. -1.
    8880022    1    1    2    0    0 -0.63837000287E+03  0.32967966077E+03  0.32797226028E+02  0.73530418899E+03  0.15294330000E+03 0.  0.
<mgrwt>
<rscale>  0 0.90815002E+03</rscale>
<asrwt>0</asrwt>
<pdfrwt beam="1">  1        2 0.34045451E+00 0.97468720E+03</pdfrwt>
<pdfrwt beam="2">  1       -2 0.74017657E-01 0.97468720E+03</pdfrwt>
<totfact> 0.84223557E+00</totfact>
</mgrwt>
</event>
<event>
 4    2  0.3747163E-007  0.7052550E+03  0.7818608E-02  0.9976062E-01
         -2   -1    0    0    0  501 -0.00000000000E+00  0.00000000000E+00  0.13352434398E+04  0.13352434398E+04  0.25500000000E-02 0.  1.
          2   -1    0    0  501    0  0.00000000000E+00 -0.00000000000E+00 -0.71929289419E+03  0.71929289419E+03  0.25500000000E-02 0. -1.
    8880023    1    1    2    0    0 -0.23462702035E+03  0.92328445383E+02 -0.52300644654E+03  0.87802068876E+03  0.65864270000E+03 0. -1.
    8880022    1    1    2    0    0  0.23462702035E+03 -0.92328445383E+02  0.11389569922E+04  0.11765156453E+04  0.15294330000E+03 0.  0.
<mgrwt>
<rscale>  0 0.56712439E+03</rscale>
<asrwt>0</asrwt>
<pdfrwt beam="1">  1        2 0.11066045E+00 0.70525498E+03</pdfrwt>
<pdfrwt beam="2">  1       -2 0.20542206E+00 0.70525498E+03</pdfrwt>
<totfact> 0.49884081E+00</totfact>
</mgrwt>
</event>
<event>
 4    2  0.3747163E-007  0.7246194E+03  0.7818608E-02  0.9907255E-01
         -2   -1    0    0    0  501 -0.00000000000E+00  0.00000000000E+00  0.53212075092E+03  0.53212075093E+03  0.25500000000E-02 0.  1.
          2   -1    0    0  501    0  0.00000000000E+00 -0.00000000000E+00 -0.20247003952E+04  0.20247003952E+04  0.25500000000E-02 0. -1.
    8880023    1    1    2    0    0  0.23374561991E+03 -0.19137937214E+03 -0.18962233710E+04  0.20299596937E+04  0.65864270000E+03 0. -1.
    8880022    1    1    2    0    0 -0.23374561991E+03  0.19137937214E+03  0.40364372675E+03  0.52686145244E+03  0.15294330000E+03 0.  0.
<mgrwt>
<rscale>  0 0.59910986E+03</rscale>
<asrwt>0</asrwt>
<pdfrwt beam="1">  1        2 0.31149236E+00 0.72461941E+03</pdfrwt>
<pdfrwt beam="2">  1       -2 0.81864732E-01 0.72461941E+03</pdfrwt>
<totfact> 0.88361206E+00</totfact>
</mgrwt>
</event>
<event>
 4    2  0.3747163E-007  0.8690255E+03  0.7818608E-02  0.9577706E-01
          2   -1    0    0  501    0  0.00000000000E+00  0.00000000000E+00  0.43512812591E+03  0.43512812592E+03  0.25500000000E-02 0. -1.
         -2   -1    0    0    0  501 -0.00000000000E+00 -0.00000000000E+00 -0.25154480705E+04  0.25154480705E+04  0.25500000000E-02 0.  1.
    8880023    1    1    2    0    0 -0.56645941659E+03  0.22779835620E+02 -0.87931134310E+02  0.87346281100E+03  0.65864270000E+03 0.  0.
    8880022    1    1    2    0    0  0.56645941659E+03 -0.22779835620E+02 -0.19923888103E+04  0.20771133854E+04  0.15294330000E+03 0.  0.
<mgrwt>
<rscale>  0 0.78789482E+03</rscale>
<asrwt>0</asrwt>
<pdfrwt beam="1">  1        2 0.66942790E-01 0.86902554E+03</pdfrwt>
<pdfrwt beam="2">  1       -2 0.38699200E+00 0.86902554E+03</pdfrwt>
<totfact> 0.67787870E-01</totfact>
</mgrwt>
</event>
<event>
 4    2  0.3747163E-007  0.6841286E+03  0.7818608E-02  0.1007078E+00
          2   -1    0    0  501    0  0.00000000000E+00  0.00000000000E+00  0.94765100099E+03  0.94765100099E+03  0.25500000000E-02 0. -1.
         -2   -1    0    0    0  501 -0.00000000000E+00 -0.00000000000E+00 -0.76874125803E+03  0.76874125804E+03  0.25500000000E-02 0.  1.
    8880023    1    1    2    0    0 -0.85249972643E+02  0.16417730028E+03  0.79876126798E+03  0.10516898370E+04  0.65864270000E+03 0. -1.
    8880022    1    1    2    0    0  0.85249972643E+02 -0.16417730028E+03 -0.61985152502E+03  0.66470242203E+03  0.15294330000E+03 0.  0.
<mgrwt>
<rscale>  0 0.52652470E+03</rscale>
<asrwt>0</asrwt>
<pdfrwt beam="1">  1        2 0.14579246E+00 0.68412861E+03</pdfrwt>
<pdfrwt beam="2">  1       -2 0.11826789E+00 0.68412861E+03</pdfrwt>
<totfact> 0.15357813E+01</totfact>
</mgrwt>
</event>
<event>
 4    2  0.3747163E-007  0.1017169E+04  0.7818608E-02  0.9359433E-01
          2   -1    0    0  501    0  0.00000000000E+00  0.00000000000E+00  0.38483177790E+03  0.38483177791E+03  0.25500000000E-02 0. -1.
         -2   -1    0    0    0  501 -0.00000000000E+00 -0.00000000000E+00 -0.22561147904E+04  0.22561147904E+04  0.25500000000E-02 0.  1.
    8880023    1    1    2    0    0  0.41421379184E+02 -0.77401927474E+03 -0.72640427309E+03  0.12499179743E+04  0.65864270000E+03 0.  0.
    8880022    1    1    2    0    0 -0.41421379184E+02  0.77401927474E+03 -0.11448787394E+04  0.13910285940E+04  0.15294330000E+03 0.  0.
<mgrwt>
<rscale>  0 0.95490749E+03</rscale>
<asrwt>0</asrwt>
<pdfrwt beam="1">  1        2 0.59204890E-01 0.10171685E+04</pdfrwt>
<pdfrwt beam="2">  1       -2 0.34709458E+00 0.10171685E+04</pdfrwt>
<totfact> 0.13661691E+00</totfact>
</mgrwt>
</event>
<event>
 4    2  0.3747163E-007  0.6712876E+03  0.7818608E-02  0.1014756E+00
          2   -1    0    0  501    0  0.00000000000E+00  0.00000000000E+00  0.51131142767E+03  0.51131142768E+03  0.25500000000E-02 0. -1.
         -2   -1    0    0    0  501 -0.00000000000E+00 -0.00000000000E+00 -0.68348596217E+03  0.68348596218E+03  0.25500000000E-02 0.  1.
    8880023    1    1    2    0    0  0.87897865295E+02  0.95345686034E+02  0.25880841324E+03  0.71945037049E+03  0.65864270000E+03 0. -1.
    8880022    1    1    2    0    0 -0.87897865295E+02 -0.95345686034E+02 -0.43098294774E+03  0.47534701937E+03  0.15294330000E+03 0.  0.
<mgrwt>
<rscale>  0 0.49627361E+03</rscale>
<asrwt>0</asrwt>
<pdfrwt beam="1">  1        2 0.78663297E-01 0.67128760E+03</pdfrwt>
<pdfrwt beam="2">  1       -2 0.10515169E+00 0.67128760E+03</pdfrwt>
<totfact> 0.44727598E+01</totfact>
</mgrwt>
</event>
<event>
 4    2  0.3747163E-007  0.6672215E+03  0.7818608E-02  0.1017738E+00
         -2   -1    0    0    0  501 -0.00000000000E+00  0.00000000000E+00  0.20936578927E+03  0.20936578929E+03  0.25500000000E-02 0.  1.
          2   -1    0    0  501    0  0.00000000000E+00 -0.00000000000E+00 -0.42671061834E+04  0.42671061834E+04  0.25500000000E-02 0. -1.
    8880023    1    1    2    0    0 -0.47924871183E+02 -0.95276332521E+02 -0.41932330406E+04  0.42459849165E+04  0.65864270000E+03 0. -1.
    8880022    1    1    2    0    0  0.47924871183E+02  0.95276332521E+02  0.13549264641E+03  0.23048705617E+03  0.15294330000E+03 0.  0.
<mgrwt>
<rscale>  0 0.48511748E+03</rscale>
<asrwt>0</asrwt>
<pdfrwt beam="1">  1        2 0.65647781E+00 0.66722154E+03</pdfrwt>
<pdfrwt beam="2">  1       -2 0.32210125E-01 0.66722154E+03</pdfrwt>
<totfact> 0.20878638E+00</totfact>
</mgrwt>
</event>
<event>
 4    2  0.3747163E-007  0.1090499E+04  0.7818608E-02  0.9271709E-01
         -2   -1    0    0    0  501 -0.00000000000E+00  0.00000000000E+00  0.47043463512E+03  0.47043463513E+03  0.25500000000E-02 0.  1.
          2   -1    0    0  501    0  0.00000000000E+00 -0.00000000000E+00 -0.34036492396E+04  0.34036492396E+04  0.25500000000E-02 0. -1.
    8880023    1    1    2    0    0  0.76441887653E+03  0.41357181911E+03 -0.27696156827E+04  0.29765683436E+04  0.65864270000E+03 0.  0.
    8880022    1    1    2    0    0 -0.76441887653E+03 -0.41357181911E+03 -0.16359892182E+03  0.89751553111E+03  0.15294330000E+03 0.  0.
<mgrwt>
<rscale>  0 0.10342965E+04</rscale>
<asrwt>0</asrwt>
<pdfrwt beam="1">  1        2 0.52363833E+00 0.10904990E+04</pdfrwt>
<pdfrwt beam="2">  1       -2 0.72374562E-01 0.10904990E+04</pdfrwt>
<totfact> 0.16676932E+00</totfact>
</mgrwt>
</event>
<event>
 4    2  0.3747163E-007  0.7188430E+03  0.7818608E-02  0.9926520E-01
         -2   -1    0    0    0  501 -0.00000000000E+00  0.00000000000E+00  0.25356903976E+03  0.25356903978E+03  0.25500000000E-02 0.  1.
          2   -1    0    0  501    0  0.00000000000E+00 -0.00000000000E+00 -0.29860569919E+04  0.29860569919E+04  0.25500000000E-02 0. -1.
    8880023    1    1    2    0    0  0.24023141175E+03  0.15878895034E+03 -0.28133103733E+04  0.29036960111E+04  0.65864270000E+03 0. -1.
    8880022    1    1    2    0    0 -0.24023141175E+03 -0.15878895034E+03  0.80822421191E+02  0.33593002058E+03  0.15294330000E+03 0.  0.
<mgrwt>
<rscale>  0 0.58993034E+03</rscale>
<asrwt>0</asrwt>
<pdfrwt beam="1">  1        2 0.45939336E+00 0.71884301E+03</pdfrwt>
<pdfrwt beam="2">  1       -2 0.39010624E-01 0.71884301E+03</pdfrwt>
<totfact> 0.11782756E+01</totfact>
</mgrwt>
</event>
<event>
 4    2  0.3747163E-007  0.1187161E+04  0.7818608E-02  0.9169705E-01
          2   -1    0    0  501    0  0.00000000000E+00  0.00000000000E+00  0.19480140080E+04  0.19480140081E+04  0.25500000000E-02 0. -1.
         -2   -1    0    0    0  501 -0.00000000000E+00 -0.00000000000E+00 -0.65384641371E+03  0.65384641372E+03  0.25500000000E-02 0.  1.
    8880023    1    1    2    0    0 -0.39289923499E+02 -0.98691342739E+03  0.10207828193E+04  0.15656786329E+04  0.65864270000E+03 0.  0.
    8880022    1    1    2    0    0  0.39289923499E+02  0.98691342739E+03  0.27338477506E+03  0.10361817888E+04  0.15294330000E+03 0.  0.
<mgrwt>
<rscale>  0 0.11371673E+04</rscale>
<asrwt>0</asrwt>
<pdfrwt beam="1">  1        2 0.29969446E+00 0.11871613E+04</pdfrwt>
<pdfrwt beam="2">  1       -2 0.10059176E+00 0.11871613E+04</pdfrwt>
<totfact> 0.56989748E+00</totfact>
</mgrwt>
</event>
<event>
 4    2  0.3747163E-007  0.7827791E+03  0.7818608E-02  0.9749349E-01
          2   -1    0    0  501    0  0.00000000000E+00  0.00000000000E+00  0.28084265990E+04  0.28084265990E+04  0.25500000000E-02 0. -1.
         -2   -1    0    0    0  501 -0.00000000000E+00 -0.00000000000E+00 -0.26264002315E+03  0.26264002316E+03  0.25500000000E-02 0.  1.
    8880023    1    1    2    0    0  0.28261262514E+03 -0.31474288307E+03  0.24991237525E+04  0.26188475929E+04  0.65864270000E+03 0.  1.
    8880022    1    1    2    0    0 -0.28261262514E+03  0.31474288307E+03  0.46662823371E+02  0.45221902927E+03  0.15294330000E+03 0.  0.
<mgrwt>
<rscale>  0 0.68153086E+03</rscale>
<asrwt>0</asrwt>
<pdfrwt beam="1">  1        2 0.43206564E+00 0.78277914E+03</pdfrwt>
<pdfrwt beam="2">  1       -2 0.40406157E-01 0.78277914E+03</pdfrwt>
<totfact> 0.13915726E+01</totfact>
</mgrwt>
</event>
<event>
 4    2  0.3747163E-007  0.1124605E+04  0.7818608E-02  0.9234143E-01
         -2   -1    0    0    0  501 -0.00000000000E+00  0.00000000000E+00  0.43414186562E+03  0.43414186563E+03  0.25500000000E-02 0.  1.
          2   -1    0    0  501    0  0.00000000000E+00 -0.00000000000E+00 -0.36024705712E+04  0.36024705712E+04  0.25500000000E-02 0. -1.
    8880023    1    1    2    0    0 -0.38595409524E+03 -0.82581259665E+03 -0.28419733118E+04  0.30563948566E+04  0.65864270000E+03 0.  0.
    8880022    1    1    2    0    0  0.38595409524E+03  0.82581259665E+03 -0.32635539375E+03  0.98021758016E+03  0.15294330000E+03 0.  0.
<mgrwt>
<rscale>  0 0.10707858E+04</rscale>
<asrwt>0</asrwt>
<pdfrwt beam="1">  1        2 0.55422622E+00 0.11246054E+04</pdfrwt>
<pdfrwt beam="2">  1       -2 0.66791059E-01 0.11246054E+04</pdfrwt>
<totfact> 0.14425302E+00</totfact>
</mgrwt>
</event>
<event>
 4    2  0.3747163E-007  0.7150934E+03  0.7818608E-02  0.9939552E-01
         -2   -1    0    0    0  501 -0.00000000000E+00  0.00000000000E+00  0.22560032423E+03  0.22560032425E+03  0.25500000000E-02 0.  1.
          2   -1    0    0  501    0  0.00000000000E+00 -0.00000000000E+00 -0.25798779530E+04  0.25798779530E+04  0.25500000000E-02 0. -1.
    8880023    1    1    2    0    0  0.16412535015E+03 -0.22496954546E+03 -0.23815570491E+04  0.24865986028E+04  0.65864270000E+03 0. -1.
    8880022    1    1    2    0    0 -0.16412535015E+03  0.22496954546E+03  0.27279420416E+02  0.31887967439E+03  0.15294330000E+03 0.  0.
<mgrwt>
<rscale>  0 0.58382146E+03</rscale>
<asrwt>0</asrwt>
<pdfrwt beam="1">  1        2 0.39690428E+00 0.71509344E+03</pdfrwt>
<pdfrwt beam="2">  1       -2 0.34707744E-01 0.71509344E+03</pdfrwt>
<totfact> 0.25606973E+01</totfact>
</mgrwt>
</event>
<event>
 4    2  0.3747163E-007  0.1149361E+04  0.7818608E-02  0.9207992E-01
         -2   -1    0    0    0  501 -0.00000000000E+00  0.00000000000E+00  0.37096542381E+03  0.37096542382E+03  0.25500000000E-02 0.  1.
          2   -1    0    0  501    0  0.00000000000E+00 -0.00000000000E+00 -0.38084040389E+04  0.38084040389E+04  0.25500000000E-02 0. -1.
    8880023    1    1    2    0    0  0.93265184852E+03 -0.13183312610E+03 -0.28135552403E+04  0.30392635194E+04  0.65864270000E+03 0. -1.
    8880022    1    1    2    0    0 -0.93265184852E+03  0.13183312610E+03 -0.62388337477E+03  0.11401059433E+04  0.15294330000E+03 0.  0.
<mgrwt>
<rscale>  0 0.10971319E+04</rscale>
<asrwt>0</asrwt>
<pdfrwt beam="1">  1        2 0.58590829E+00 0.11493605E+04</pdfrwt>
<pdfrwt beam="2">  1       -2 0.57071606E-01 0.11493605E+04</pdfrwt>
<totfact> 0.14237565E+00</totfact>
</mgrwt>
</event>
<event>
 4    2  0.3747163E-007  0.6712143E+03  0.7818608E-02  0.1014807E+00
          2   -1    0    0  501    0  0.00000000000E+00  0.00000000000E+00  0.15604327145E+04  0.15604327145E+04  0.25500000000E-02 0. -1.
         -2   -1    0    0    0  501 -0.00000000000E+00 -0.00000000000E+00 -0.20583767799E+03  0.20583767801E+03  0.25500000000E-02 0.  1.
    8880023    1    1    2    0    0 -0.52988293795E+02  0.11794355609E+03  0.14073025532E+04  0.15591757836E+04  0.65864270000E+03 0. -1.
    8880022    1    1    2    0    0  0.52988293795E+02 -0.11794355609E+03 -0.52707516688E+02  0.20709460890E+03  0.15294330000E+03 0.  0.
<mgrwt>
<rscale>  0 0.49608102E+03</rscale>
<asrwt>0</asrwt>
<pdfrwt beam="1">  1        2 0.24006658E+00 0.67121431E+03</pdfrwt>
<pdfrwt beam="2">  1       -2 0.31667333E-01 0.67121431E+03</pdfrwt>
<totfact> 0.11155903E+02</totfact>
</mgrwt>
</event>
<event>
 4    2  0.3747163E-007  0.6748743E+03  0.7818608E-02  0.1012386E+00
          2   -1    0    0  501    0  0.00000000000E+00  0.00000000000E+00  0.22317066771E+03  0.22317066772E+03  0.25500000000E-02 0. -1.
         -2   -1    0    0    0  501 -0.00000000000E+00 -0.00000000000E+00 -0.11023483927E+04  0.11023483927E+04  0.25500000000E-02 0.  1.
    8880023    1    1    2    0    0  0.50683578983E+02  0.13811704393E+03 -0.36054200015E+03  0.76514435444E+03  0.65864270000E+03 0. -1.
    8880022    1    1    2    0    0 -0.50683578983E+02 -0.13811704393E+03 -0.51863572489E+03  0.56037470602E+03  0.15294330000E+03 0.  0.
<mgrwt>
<rscale>  0 0.50537425E+03</rscale>
<asrwt>0</asrwt>
<pdfrwt beam="1">  1        2 0.34333949E-01 0.67487432E+03</pdfrwt>
<pdfrwt beam="2">  1       -2 0.16959206E+00 0.67487432E+03</pdfrwt>
<totfact> 0.33383275E+01</totfact>
</mgrwt>
</event>
<event>
 4    2  0.3747163E-007  0.6826787E+03  0.7818608E-02  0.1007847E+00
         -2   -1    0    0    0  501 -0.00000000000E+00  0.00000000000E+00  0.10455325648E+03  0.10455325651E+03  0.25500000000E-02 0.  1.
          2   -1    0    0  501    0  0.00000000000E+00 -0.00000000000E+00 -0.25935159092E+04  0.25935159092E+04  0.25500000000E-02 0. -1.
    8880023    1    1    2    0    0  0.15005859208E+03  0.98602234823E+02 -0.22896914234E+04  0.23892963405E+04  0.65864270000E+03 0. -1.
    8880022    1    1    2    0    0 -0.15005859208E+03 -0.98602234823E+02 -0.19927122929E+03  0.30877282524E+03  0.15294330000E+03 0.  0.
<mgrwt>
<rscale>  0 0.52339249E+03</rscale>
<asrwt>0</asrwt>
<pdfrwt beam="1">  1        2 0.39900240E+00 0.68267869E+03</pdfrwt>
<pdfrwt beam="2">  1       -2 0.16085118E-01 0.68267869E+03</pdfrwt>
<totfact> 0.10028387E+02</totfact>
</mgrwt>
</event>
<event>
 4    2  0.3747163E-007  0.9922594E+03  0.7818608E-02  0.9391756E-01
         -2   -1    0    0    0  501 -0.00000000000E+00  0.00000000000E+00  0.94505820166E+03  0.94505820166E+03  0.25500000000E-02 0.  1.
          2   -1    0    0  501    0  0.00000000000E+00 -0.00000000000E+00 -0.17460937866E+04  0.17460937866E+04  0.25500000000E-02 0. -1.
    8880023    1    1    2    0    0 -0.72690067489E+03 -0.14961248128E+03 -0.14064625536E+04  0.17212540797E+04  0.65864270000E+03 0. -1.
    8880022    1    1    2    0    0  0.72690067489E+03  0.14961248128E+03  0.60542696868E+03  0.96989790861E+03  0.15294330000E+03 0.  0.
<mgrwt>
<rscale>  0 0.92757288E+03</rscale>
<asrwt>0</asrwt>
<pdfrwt beam="1">  1        2 0.26862981E+00 0.99225939E+03</pdfrwt>
<pdfrwt beam="2">  1       -2 0.14539357E+00 0.99225939E+03</pdfrwt>
<totfact> 0.29953339E+00</totfact>
</mgrwt>
</event>
<event>
 4    2  0.3747163E-007  0.8473568E+03  0.7818608E-02  0.9616461E-01
          2   -1    0    0  501    0  0.00000000000E+00  0.00000000000E+00  0.79631617028E+03  0.79631617028E+03  0.25500000000E-02 0. -1.
         -2   -1    0    0    0  501 -0.00000000000E+00 -0.00000000000E+00 -0.63526027051E+03  0.63526027051E+03  0.25500000000E-02 0.  1.
    8880023    1    1    2    0    0  0.43357580661E+03 -0.31018598713E+03 -0.21683229955E+02  0.84763417546E+03  0.65864270000E+03 0.  0.
    8880022    1    1    2    0    0 -0.43357580661E+03  0.31018598713E+03  0.18273912972E+03  0.58394226533E+03  0.15294330000E+03 0.  1.
<mgrwt>
<rscale>  0 0.76216174E+03</rscale>
<asrwt>0</asrwt>
<pdfrwt beam="1">  1        2 0.12251018E+00 0.84735679E+03</pdfrwt>
<pdfrwt beam="2">  1       -2 0.97732349E-01 0.84735679E+03</pdfrwt>
<totfact> 0.30401308E+01</totfact>
</mgrwt>
</event>
<event>
 4    2  0.3747163E-007  0.1535524E+04  0.7818608E-02  0.8884950E-01
         -2   -1    0    0    0  501 -0.00000000000E+00  0.00000000000E+00  0.22256333883E+04  0.22256333883E+04  0.25500000000E-02 0.  1.
          2   -1    0    0  501    0  0.00000000000E+00 -0.00000000000E+00 -0.12336030583E+04  0.12336030583E+04  0.25500000000E-02 0. -1.
    8880023    1    1    2    0    0  0.12857634243E+04 -0.52041981267E+03 -0.29181855629E+03  0.15630075626E+04  0.65864270000E+03 0.  0.
    8880022    1    1    2    0    0 -0.12857634243E+04  0.52041981267E+03  0.12838488863E+04  0.18962288840E+04  0.15294330000E+03 0.  0.
<mgrwt>
<rscale>  0 0.14992527E+04</rscale>
<asrwt>0</asrwt>
<pdfrwt beam="1">  1        2 0.18978509E+00 0.15355242E+04</pdfrwt>
<pdfrwt beam="2">  1       -2 0.34240513E+00 0.15355242E+04</pdfrwt>
<totfact> 0.29577386E-01</totfact>
</mgrwt>
</event>
<event>
 4    2  0.3747163E-007  0.7037543E+03  0.7818608E-02  0.9981969E-01
         -2   -1    0    0    0  501 -0.00000000000E+00  0.00000000000E+00  0.27668475552E+03  0.27668475553E+03  0.25500000000E-02 0.  1.
          2   -1    0    0  501    0  0.00000000000E+00 -0.00000000000E+00 -0.12556088836E+04  0.12556088836E+04  0.25500000000E-02 0. -1.
    8880023    1    1    2    0    0  0.13230866139E+03 -0.20965285730E+03 -0.10188521665E+04  0.12382769666E+04  0.65864270000E+03 0.  0.
    8880022    1    1    2    0    0 -0.13230866139E+03  0.20965285730E+03  0.39928038471E+02  0.29401667253E+03  0.15294330000E+03 0.  0.
<mgrwt>
<rscale>  0 0.56447962E+03</rscale>
<asrwt>0</asrwt>
<pdfrwt beam="1">  1        2 0.19317059E+00 0.70375430E+03</pdfrwt>
<pdfrwt beam="2">  1       -2 0.42566886E-01 0.70375430E+03</pdfrwt>
<totfact> 0.93675881E+01</totfact>
</mgrwt>
</event>
<event>
 4    2  0.3747163E-007  0.1252761E+04  0.7818608E-02  0.9107466E-01
          2   -1    0    0  501    0  0.00000000000E+00  0.00000000000E+00  0.15352035384E+04  0.15352035384E+04  0.25500000000E-02 0. -1.
         -2   -1    0    0    0  501 -0.00000000000E+00 -0.00000000000E+00 -0.25103710058E+04  0.25103710058E+04  0.25500000000E-02 0.  1.
    8880023    1    1    2    0    0 -0.98711194380E+03 -0.40150985976E+03  0.11261538654E+04  0.16845274981E+04  0.65864270000E+03 0.  0.
    8880022    1    1    2    0    0  0.98711194380E+03  0.40150985976E+03 -0.21013213328E+04  0.23610470461E+04  0.15294330000E+03 0.  0.
<mgrwt>
<rscale>  0 0.12061775E+04</rscale>
<asrwt>0</asrwt>
<pdfrwt beam="1">  1        2 0.23618516E+00 0.12527611E+04</pdfrwt>
<pdfrwt beam="2">  1       -2 0.38621092E+00 0.12527611E+04</pdfrwt>
<totfact> 0.10788403E-01</totfact>
</mgrwt>
</event>
<event>
 4    2  0.3747163E-007  0.7190692E+03  0.7818608E-02  0.9925748E-01
          2   -1    0    0  501    0  0.00000000000E+00  0.00000000000E+00  0.13306301836E+04  0.13306301836E+04  0.25500000000E-02 0. -1.
         -2   -1    0    0    0  501 -0.00000000000E+00 -0.00000000000E+00 -0.51607126773E+03  0.51607126774E+03  0.25500000000E-02 0.  1.
    8880023    1    1    2    0    0 -0.20350730007E+03 -0.20453611944E+03  0.11641439682E+04  0.13683170796E+04  0.65864270000E+03 0. -1.
    8880022    1    1    2    0    0  0.20350730007E+03  0.20453611944E+03 -0.34958505231E+03  0.47838437177E+03  0.15294330000E+03 0.  0.
<mgrwt>
<rscale>  0 0.59029483E+03</rscale>
<asrwt>0</asrwt>
<pdfrwt beam="1">  1        2 0.20471234E+00 0.71906916E+03</pdfrwt>
<pdfrwt beam="2">  1       -2 0.79395580E-01 0.71906916E+03</pdfrwt>
<totfact> 0.22858683E+01</totfact>
</mgrwt>
</event>
<event>
 4    2  0.3747163E-007  0.6671495E+03  0.7818608E-02  0.1017794E+00
          2   -1    0    0  501    0  0.00000000000E+00  0.00000000000E+00  0.37253880623E+03  0.37253880624E+03  0.25500000000E-02 0. -1.
         -2   -1    0    0    0  501 -0.00000000000E+00 -0.00000000000E+00 -0.59375538827E+03  0.59375538827E+03  0.25500000000E-02 0.  1.
    8880023    1    1    2    0    0 -0.10612481844E+03  0.39635976229E+01  0.12759395569E+02  0.66727145573E+03  0.65864270000E+03 0. -1.
    8880022    1    1    2    0    0  0.10612481844E+03 -0.39635976229E+01 -0.23397597760E+03  0.29902273878E+03  0.15294330000E+03 0.  0.
<mgrwt>
<rscale>  0 0.48491021E+03</rscale>
<asrwt>0</asrwt>
<pdfrwt beam="1">  1        2 0.57313662E-01 0.66714945E+03</pdfrwt>
<pdfrwt beam="2">  1       -2 0.91346983E-01 0.66714945E+03</pdfrwt>
<totfact> 0.89278605E+01</totfact>
</mgrwt>
</event>
<event>
 4    2  0.3747163E-007  0.1614891E+04  0.7818608E-02  0.8832498E-01
         -2   -1    0    0    0  501 -0.00000000000E+00  0.00000000000E+00  0.23454696653E+04  0.23454696653E+04  0.25500000000E-02 0.  1.
          2   -1    0    0  501    0  0.00000000000E+00 -0.00000000000E+00 -0.13731937099E+04  0.13731937099E+04  0.25500000000E-02 0. -1.
    8880023    1    1    2    0    0  0.86004608027E+03 -0.11976574936E+04 -0.43734259388E+03  0.16730635024E+04  0.65864270000E+03 0.  0.
    8880022    1    1    2    0    0 -0.86004608027E+03  0.11976574936E+04  0.14096185493E+04  0.20455998729E+04  0.15294330000E+03 0.  0.
<mgrwt>
<rscale>  0 0.15806925E+04</rscale>
<asrwt>0</asrwt>
<pdfrwt beam="1">  1        2 0.21126057E+00 0.16148910E+04</pdfrwt>
<pdfrwt beam="2">  1       -2 0.36084149E+00 0.16148910E+04</pdfrwt>
<totfact> 0.18558313E-01</totfact>
</mgrwt>
</event>
<event>
 4    2  0.3747163E-007  0.7786428E+03  0.7818608E-02  0.9759035E-01
         -2   -1    0    0    0  501 -0.00000000000E+00  0.00000000000E+00  0.54911179783E+03  0.54911179783E+03  0.25500000000E-02 0.  1.
          2   -1    0    0  501    0  0.00000000000E+00 -0.00000000000E+00 -0.15083798323E+04  0.15083798323E+04  0.25500000000E-02 0. -1.
    8880023    1    1    2    0    0  0.40911377648E+03  0.71416190448E+02 -0.12887744069E+04  0.15057303984E+04  0.65864270000E+03 0.  0.
    8880022    1    1    2    0    0 -0.40911377648E+03 -0.71416190448E+02  0.32950637246E+03  0.55176123176E+03  0.15294330000E+03 0.  0.
<mgrwt>
<rscale>  0 0.67608076E+03</rscale>
<asrwt>0</asrwt>
<pdfrwt beam="1">  1        2 0.23205843E+00 0.77864277E+03</pdfrwt>
<pdfrwt beam="2">  1       -2 0.84478739E-01 0.77864277E+03</pdfrwt>
<totfact> 0.15660956E+01</totfact>
</mgrwt>
</event>
<event>
 4    2  0.3747163E-007  0.7330625E+03  0.7818608E-02  0.9880637E-01
         -2   -1    0    0    0  501 -0.00000000000E+00  0.00000000000E+00  0.30476211846E+03  0.30476211847E+03  0.25500000000E-02 0.  1.
          2   -1    0    0  501    0  0.00000000000E+00 -0.00000000000E+00 -0.24417428541E+04  0.24417428541E+04  0.25500000000E-02 0. -1.
    8880023    1    1    2    0    0  0.30399656865E+03 -0.10562462988E+03 -0.22549918234E+04  0.23711534759E+04  0.65864270000E+03 0. -1.
    8880022    1    1    2    0    0 -0.30399656865E+03  0.10562462988E+03  0.11801108782E+03  0.37535149667E+03  0.15294330000E+03 0.  0.
<mgrwt>
<rscale>  0 0.61208966E+03</rscale>
<asrwt>0</asrwt>
<pdfrwt beam="1">  1        2 0.37565273E+00 0.73306254E+03</pdfrwt>
<pdfrwt beam="2">  1       -2 0.46886481E-01 0.73306254E+03</pdfrwt>
<totfact> 0.16996873E+01</totfact>
</mgrwt>
</event>
<event>
 4    2  0.3747163E-007  0.7382105E+03  0.7818608E-02  0.9865191E-01
          2   -1    0    0  501    0  0.00000000000E+00  0.00000000000E+00  0.25903698945E+04  0.25903698945E+04  0.25500000000E-02 0. -1.
         -2   -1    0    0    0  501 -0.00000000000E+00 -0.00000000000E+00 -0.49262570810E+03  0.49262570811E+03  0.25500000000E-02 0.  1.
    8880023    1    1    2    0    0  0.78822084696E+02 -0.32393139618E+03  0.24594550896E+04  0.25678539707E+04  0.65864270000E+03 0. -1.
    8880022    1    1    2    0    0 -0.78822084696E+02  0.32393139618E+03 -0.36171090322E+03  0.51514163197E+03  0.15294330000E+03 0.  0.
<mgrwt>
<rscale>  0 0.61978350E+03</rscale>
<asrwt>0</asrwt>
<pdfrwt beam="1">  1        2 0.39851843E+00 0.73821046E+03</pdfrwt>
<pdfrwt beam="2">  1       -2 0.75788572E-01 0.73821046E+03</pdfrwt>
<totfact> 0.50739233E+00</totfact>
</mgrwt>
</event>
<event>
 4    2  0.3747163E-007  0.6888884E+03  0.7818608E-02  0.1004685E+00
          2   -1    0    0  501    0  0.00000000000E+00  0.00000000000E+00  0.15589911096E+04  0.15589911096E+04  0.25500000000E-02 0. -1.
         -2   -1    0    0    0  501 -0.00000000000E+00 -0.00000000000E+00 -0.20514176331E+03  0.20514176333E+03  0.25500000000E-02 0.  1.
    8880023    1    1    2    0    0 -0.97154335792E+02  0.17696897390E+03  0.13444691188E+04  0.15106834216E+04  0.65864270000E+03 0. -1.
    8880022    1    1    2    0    0  0.97154335792E+02 -0.17696897390E+03  0.93802274876E+01  0.25344945131E+03  0.15294330000E+03 0.  1.
<mgrwt>
<rscale>  0 0.53642631E+03</rscale>
<asrwt>0</asrwt>
<pdfrwt beam="1">  1        2 0.23984479E+00 0.68888837E+03</pdfrwt>
<pdfrwt beam="2">  1       -2 0.31560271E-01 0.68888837E+03</pdfrwt>
<totfact> 0.11227561E+02</totfact>
</mgrwt>
</event>
<event>
 4    2  0.3747163E-007  0.1035683E+04  0.7818608E-02  0.9336293E-01
          2   -1    0    0  501    0  0.00000000000E+00  0.00000000000E+00  0.11996277285E+04  0.11996277285E+04  0.25500000000E-02 0. -1.
         -2   -1    0    0    0  501 -0.00000000000E+00 -0.00000000000E+00 -0.90064272337E+03  0.90064272337E+03  0.25500000000E-02 0.  1.
    8880023    1    1    2    0    0 -0.45686388202E+03 -0.65582383059E+03  0.64050877460E+03  0.12177402022E+04  0.65864270000E+03 0. -1.
    8880022    1    1    2    0    0  0.45686388202E+03  0.65582383059E+03 -0.34152376946E+03  0.88253024968E+03  0.15294330000E+03 0.  0.
<mgrwt>
<rscale>  0 0.97509198E+03</rscale>
<asrwt>0</asrwt>
<pdfrwt beam="1">  1        2 0.18455811E+00 0.10356832E+04</pdfrwt>
<pdfrwt beam="2">  1       -2 0.13856042E+00 0.10356832E+04</pdfrwt>
<totfact> 0.69094332E+00</totfact>
</mgrwt>
</event>
<event>
 4    2  0.3747163E-007  0.1021625E+04  0.7818608E-02  0.9353797E-01
          2   -1    0    0  501    0  0.00000000000E+00  0.00000000000E+00  0.22848885606E+04  0.22848885606E+04  0.25500000000E-02 0. -1.
         -2   -1    0    0    0  501 -0.00000000000E+00 -0.00000000000E+00 -0.46669820411E+03  0.46669820412E+03  0.25500000000E-02 0.  1.
    8880023    1    1    2    0    0  0.76449108155E+03 -0.15956143452E+03  0.34698602572E+03  0.10789420621E+04  0.65864270000E+03 0.  0.
    8880022    1    1    2    0    0 -0.76449108155E+03  0.15956143452E+03  0.14712043307E+04  0.16726447025E+04  0.15294330000E+03 0.  0.
<mgrwt>
<rscale>  0 0.95977516E+03</rscale>
<asrwt>0</asrwt>
<pdfrwt beam="1">  1        2 0.35152131E+00 0.10216245E+04</pdfrwt>
<pdfrwt beam="2">  1       -2 0.71799725E-01 0.10216245E+04</pdfrwt>
<totfact> 0.81666206E+00</totfact>
</mgrwt>
</event>
<event>
 4    2  0.3747163E-007  0.8899741E+03  0.7818608E-02  0.9542322E-01
          2   -1    0    0  501    0  0.00000000000E+00  0.00000000000E+00  0.67417296756E+03  0.67417296756E+03  0.25500000000E-02 0. -1.
         -2   -1    0    0    0  501 -0.00000000000E+00 -0.00000000000E+00 -0.10594973389E+04  0.10594973389E+04  0.25500000000E-02 0.  1.
    8880023    1    1    2    0    0 -0.59094424828E+03  0.95018907131E+02 -0.60707661680E+03  0.10773095758E+04  0.65864270000E+03 0.  0.
    8880022    1    1    2    0    0  0.59094424828E+03 -0.95018907131E+02  0.22175224547E+03  0.65636073060E+03  0.15294330000E+03 0.  0.
<mgrwt>
<rscale>  0 0.81234236E+03</rscale>
<asrwt>0</asrwt>
<pdfrwt beam="1">  1        2 0.10371892E+00 0.88997410E+03</pdfrwt>
<pdfrwt beam="2">  1       -2 0.16299959E+00 0.88997410E+03</pdfrwt>
<totfact> 0.10307150E+01</totfact>
</mgrwt>
</event>
<event>
 4    2  0.3747163E-007  0.8967672E+03  0.7818608E-02  0.9531241E-01
          2   -1    0    0  501    0  0.00000000000E+00  0.00000000000E+00  0.17106131334E+04  0.17106131334E+04  0.25500000000E-02 0. -1.
         -2   -1    0    0    0  501 -0.00000000000E+00 -0.00000000000E+00 -0.46724668889E+03  0.46724668890E+03  0.25500000000E-02 0.  1.
    8880023    1    1    2    0    0  0.60858116255E+03 -0.31785470043E+01  0.12642417317E+04  0.15499995152E+04  0.65864270000E+03 0. -1.
    8880022    1    1    2    0    0 -0.60858116255E+03  0.31785470043E+01 -0.20875287257E+02  0.62786030708E+03  0.15294330000E+03 0.  0.
<mgrwt>
<rscale>  0 0.82019192E+03</rscale>
<asrwt>0</asrwt>
<pdfrwt beam="1">  1        2 0.26317125E+00 0.89676716E+03</pdfrwt>
<pdfrwt beam="2">  1       -2 0.71884106E-01 0.89676716E+03</pdfrwt>
<totfact> 0.17139955E+01</totfact>
</mgrwt>
</event>
<event>
 4    2  0.3747163E-007  0.7419025E+03  0.7818608E-02  0.9854440E-01
         -2   -1    0    0    0  501 -0.00000000000E+00  0.00000000000E+00  0.23950894352E+03  0.23950894353E+03  0.25500000000E-02 0.  1.
          2   -1    0    0  501    0  0.00000000000E+00 -0.00000000000E+00 -0.19574732695E+04  0.19574732695E+04  0.25500000000E-02 0. -1.
    8880023    1    1    2    0    0 -0.59217400952E+02  0.33630702550E+03 -0.16601395285E+04  0.18183736075E+04  0.65864270000E+03 0. -1.
    8880022    1    1    2    0    0  0.59217400952E+02 -0.33630702550E+03 -0.57824797462E+02  0.37860860555E+03  0.15294330000E+03 0.  0.
<mgrwt>
<rscale>  0 0.62521074E+03</rscale>
<asrwt>0</asrwt>
<pdfrwt beam="1">  1        2 0.30114972E+00 0.74190250E+03</pdfrwt>
<pdfrwt beam="2">  1       -2 0.36847531E-01 0.74190250E+03</pdfrwt>
<totfact> 0.50426497E+01</totfact>
</mgrwt>
</event>
<event>
 4    2  0.3747163E-007  0.1266648E+04  0.7818608E-02  0.9094910E-01
         -2   -1    0    0    0  501 -0.00000000000E+00  0.00000000000E+00  0.10981779714E+04  0.10981779714E+04  0.25500000000E-02 0.  1.
          2   -1    0    0  501    0  0.00000000000E+00 -0.00000000000E+00 -0.17476033084E+04  0.17476033084E+04  0.25500000000E-02 0. -1.
    8880023    1    1    2    0    0  0.10529162791E+04 -0.24890588803E+03  0.40247182442E+03  0.13290525225E+04  0.65864270000E+03 0.  1.
    8880022    1    1    2    0    0 -0.10529162791E+04  0.24890588803E+03 -0.10518971615E+04  0.15167287573E+04  0.15294330000E+03 0.  0.
<mgrwt>
<rscale>  0 0.12207213E+04</rscale>
<asrwt>0</asrwt>
<pdfrwt beam="1">  1        2 0.26886205E+00 0.12666480E+04</pdfrwt>
<pdfrwt beam="2">  1       -2 0.16895046E+00 0.12666480E+04</pdfrwt>
<totfact> 0.19290891E+00</totfact>
</mgrwt>
</event>
<event>
 4    2  0.3747163E-007  0.7541579E+03  0.7818608E-02  0.9820474E-01
          2   -1    0    0  501    0  0.00000000000E+00  0.00000000000E+00  0.22651563217E+04  0.22651563217E+04  0.25500000000E-02 0. -1.
         -2   -1    0    0    0  501 -0.00000000000E+00 -0.00000000000E+00 -0.23421223863E+03  0.23421223864E+03  0.25500000000E-02 0.  1.
    8880023    1    1    2    0    0 -0.31358178607E+03  0.19133829430E+03  0.19534584303E+04  0.20939804021E+04  0.65864270000E+03 0.  0.
    8880022    1    1    2    0    0  0.31358178607E+03 -0.19133829430E+03  0.77485652795E+02  0.40538815822E+03  0.15294330000E+03 0.  0.
<mgrwt>
<rscale>  0 0.64275283E+03</rscale>
<asrwt>0</asrwt>
<pdfrwt beam="1">  1        2 0.34848561E+00 0.75415787E+03</pdfrwt>
<pdfrwt beam="2">  1       -2 0.36032650E-01 0.75415787E+03</pdfrwt>
<totfact> 0.35628346E+01</totfact>
</mgrwt>
</event>
<event>
 4    2  0.3747163E-007  0.7650414E+03  0.7818608E-02  0.9792226E-01
         -2   -1    0    0    0  501 -0.00000000000E+00  0.00000000000E+00  0.11506716985E+04  0.11506716985E+04  0.25500000000E-02 0.  1.
          2   -1    0    0  501    0  0.00000000000E+00 -0.00000000000E+00 -0.82167687726E+03  0.82167687726E+03  0.25500000000E-02 0. -1.
    8880023    1    1    2    0    0 -0.35530309400E+03 -0.15886424074E+03  0.95243739624E+03  0.12216486138E+04  0.65864270000E+03 0.  1.
    8880022    1    1    2    0    0  0.35530309400E+03  0.15886424074E+03 -0.62344257498E+03  0.75069996197E+03  0.15294330000E+03 0.  0.
<mgrwt>
<rscale>  0 0.65781391E+03</rscale>
<asrwt>0</asrwt>
<pdfrwt beam="1">  1        2 0.12641183E+00 0.76504140E+03</pdfrwt>
<pdfrwt beam="2">  1       -2 0.17702642E+00 0.76504140E+03</pdfrwt>
<totfact> 0.64275381E+00</totfact>
</mgrwt>
</event>
<event>
 4    2  0.3747163E-007  0.7108528E+03  0.7818608E-02  0.9954848E-01
         -2   -1    0    0    0  501 -0.00000000000E+00  0.00000000000E+00  0.15784517561E+04  0.15784517561E+04  0.25500000000E-02 0.  1.
          2   -1    0    0  501    0  0.00000000000E+00 -0.00000000000E+00 -0.99917647589E+03  0.99917647589E+03  0.25500000000E-02 0. -1.
    8880023    1    1    2    0    0  0.19729003399E+03 -0.18049411998E+03 -0.85427775292E+03  0.11113515062E+04  0.65864270000E+03 0. -1.
    8880022    1    1    2    0    0 -0.19729003399E+03  0.18049411998E+03  0.14335530331E+04  0.14662767258E+04  0.15294330000E+03 0.  0.
<mgrwt>
<rscale>  0 0.57675200E+03</rscale>
<asrwt>0</asrwt>
<pdfrwt beam="1">  1        2 0.15371946E+00 0.71085279E+03</pdfrwt>
<pdfrwt beam="2">  1       -2 0.24283873E+00 0.71085279E+03</pdfrwt>
<totfact> 0.18647108E+00</totfact>
</mgrwt>
</event>
<event>
 4    2  0.3747163E-007  0.6628365E+03  0.7818608E-02  0.1021422E+00
          2   -1    0    0  501    0  0.00000000000E+00  0.00000000000E+00  0.11020487980E+04  0.11020487980E+04  0.25500000000E-02 0. -1.
         -2   -1    0    0    0  501 -0.00000000000E+00 -0.00000000000E+00 -0.21573890692E+03  0.21573890693E+03  0.25500000000E-02 0.  1.
    8880023    1    1    2    0    0  0.64454715252E+02 -0.37251282857E+02  0.93012092107E+03  0.11421371207E+04  0.65864270000E+03 0. -1.
    8880022    1    1    2    0    0 -0.64454715252E+02  0.37251282857E+02 -0.43811029962E+02  0.17565058427E+03  0.15294330000E+03 0.  0.
<mgrwt>
<rscale>  0 0.47177005E+03</rscale>
<asrwt>0</asrwt>
<pdfrwt beam="1">  1        2 0.16954597E+00 0.66283654E+03</pdfrwt>
<pdfrwt beam="2">  1       -2 0.33190601E-01 0.66283654E+03</pdfrwt>
<totfact> 0.18726505E+02</totfact>
</mgrwt>
</event>
<event>
 4    2  0.3747163E-007  0.6910274E+03  0.7818608E-02  0.1003668E+00
          2   -1    0    0  501    0  0.00000000000E+00  0.00000000000E+00  0.90356073754E+03  0.90356073755E+03  0.25500000000E-02 0. -1.
         -2   -1    0    0    0  501 -0.00000000000E+00 -0.00000000000E+00 -0.11994418065E+04  0.11994418065E+04  0.25500000000E-02 0.  1.
    8880023    1    1    2    0    0  0.88058051267E+02 -0.18961671964E+03  0.75334358698E+03  0.10222746632E+04  0.65864270000E+03 0. -1.
    8880022    1    1    2    0    0 -0.88058051267E+02  0.18961671964E+03 -0.10492246559E+04  0.10807278808E+04  0.15294330000E+03 0.  0.
<mgrwt>
<rscale>  0 0.54070712E+03</rscale>
<asrwt>0</asrwt>
<pdfrwt beam="1">  1        2 0.13900934E+00 0.69102744E+03</pdfrwt>
<pdfrwt beam="2">  1       -2 0.18452951E+00 0.69102744E+03</pdfrwt>
<totfact> 0.50659101E+00</totfact>
</mgrwt>
</event>
<event>
 4    2  0.3747163E-007  0.7311550E+03  0.7818608E-02  0.9886504E-01
          2   -1    0    0  501    0  0.00000000000E+00  0.00000000000E+00  0.26620588124E+04  0.26620588124E+04  0.25500000000E-02 0. -1.
         -2   -1    0    0    0  501 -0.00000000000E+00 -0.00000000000E+00 -0.49965160363E+03  0.49965160364E+03  0.25500000000E-02 0.  1.
    8880023    1    1    2    0    0 -0.19318553612E+03  0.25190614082E+03  0.25412387466E+04  0.26443301475E+04  0.65864270000E+03 0.  0.
    8880022    1    1    2    0    0  0.19318553612E+03 -0.25190614082E+03 -0.37883153790E+03  0.51738026854E+03  0.15294330000E+03 0.  0.
<mgrwt>
<rscale>  0 0.60919835E+03</rscale>
<asrwt>0</asrwt>
<pdfrwt beam="1">  1        2 0.40954751E+00 0.73115495E+03</pdfrwt>
<pdfrwt beam="2">  1       -2 0.76869477E-01 0.73115495E+03</pdfrwt>
<totfact> 0.44766716E+00</totfact>
</mgrwt>
</event>
<event>
 4    2  0.3747163E-007  0.8162774E+03  0.7818608E-02  0.9676647E-01
         -2   -1    0    0    0  501 -0.00000000000E+00  0.00000000000E+00  0.12100495194E+04  0.12100495194E+04  0.25500000000E-02 0.  1.
          2   -1    0    0  501    0  0.00000000000E+00 -0.00000000000E+00 -0.97587584254E+03  0.97587584255E+03  0.25500000000E-02 0. -1.
    8880023    1    1    2    0    0 -0.47138255632E+03  0.10147477592E+03 -0.73130426655E+03  0.10959538225E+04  0.65864270000E+03 0. -1.
    8880022    1    1    2    0    0  0.47138255632E+03 -0.10147477592E+03  0.96547794336E+03  0.10899715394E+04  0.15294330000E+03 0.  0.
<mgrwt>
<rscale>  0 0.72424427E+03</rscale>
<asrwt>0</asrwt>
<pdfrwt beam="1">  1        2 0.15013475E+00 0.81627743E+03</pdfrwt>
<pdfrwt beam="2">  1       -2 0.18616146E+00 0.81627743E+03</pdfrwt>
<totfact> 0.43511328E+00</totfact>
</mgrwt>
</event>
<event>
 4    2  0.3747163E-007  0.1300779E+04  0.7818608E-02  0.9064887E-01
         -2   -1    0    0    0  501 -0.00000000000E+00  0.00000000000E+00  0.16438413713E+04  0.16438413713E+04  0.25500000000E-02 0.  1.
          2   -1    0    0  501    0  0.00000000000E+00 -0.00000000000E+00 -0.12431724839E+04  0.12431724839E+04  0.25500000000E-02 0. -1.
    8880023    1    1    2    0    0 -0.80081347497E+03 -0.78543901862E+03 -0.54654023846E+03  0.14109334188E+04  0.65864270000E+03 0.  0.
    8880022    1    1    2    0    0  0.80081347497E+03  0.78543901862E+03  0.94720912584E+03  0.14760804364E+04  0.15294330000E+03 0.  0.
<mgrwt>
<rscale>  0 0.12563832E+04</rscale>
<asrwt>0</asrwt>
<pdfrwt beam="1">  1        2 0.19125731E+00 0.13007793E+04</pdfrwt>
<pdfrwt beam="2">  1       -2 0.25289867E+00 0.13007793E+04</pdfrwt>
<totfact> 0.10591959E+00</totfact>
</mgrwt>
</event>
<event>
 4    2  0.3747163E-007  0.7084952E+03  0.7818608E-02  0.9963632E-01
         -2   -1    0    0    0  501 -0.00000000000E+00  0.00000000000E+00  0.13155537727E+04  0.13155537727E+04  0.25500000000E-02 0.  1.
          2   -1    0    0  501    0  0.00000000000E+00 -0.00000000000E+00 -0.10069439169E+04  0.10069439169E+04  0.25500000000E-02 0. -1.
    8880023    1    1    2    0    0  0.15936563027E+03  0.20677966480E+03 -0.86063128286E+03  0.11147428606E+04  0.65864270000E+03 0. -1.
    8880022    1    1    2    0    0 -0.15936563027E+03 -0.20677966480E+03  0.11692411387E+04  0.12077548291E+04  0.15294330000E+03 0.  0.
<mgrwt>
<rscale>  0 0.57274081E+03</rscale>
<asrwt>0</asrwt>
<pdfrwt beam="1">  1        2 0.15491445E+00 0.70849519E+03</pdfrwt>
<pdfrwt beam="2">  1       -2 0.20239289E+00 0.70849519E+03</pdfrwt>
<totfact> 0.32980341E+00</totfact>
</mgrwt>
</event>
<event>
 4    2  0.3747163E-007  0.6945830E+03  0.7818608E-02  0.1002046E+00
          2   -1    0    0  501    0  0.00000000000E+00  0.00000000000E+00  0.10662025522E+04  0.10662025522E+04  0.25500000000E-02 0. -1.
         -2   -1    0    0    0  501 -0.00000000000E+00 -0.00000000000E+00 -0.42412863193E+03  0.42412863194E+03  0.25500000000E-02 0.  1.
    8880023    1    1    2    0    0 -0.20723919700E+03 -0.75413976274E+02  0.88727173070E+03  0.11268081837E+04  0.65864270000E+03 0. -1.
    8880022    1    1    2    0    0  0.20723919700E+03  0.75413976274E+02 -0.24519781041E+03  0.36352300042E+03  0.15294330000E+03 0.  0.
<mgrwt>
<rscale>  0 0.54762093E+03</rscale>
<asrwt>0</asrwt>
<pdfrwt beam="1">  1        2 0.16403116E+00 0.69458301E+03</pdfrwt>
<pdfrwt beam="2">  1       -2 0.65250559E-01 0.69458301E+03</pdfrwt>
<totfact> 0.50567974E+01</totfact>
</mgrwt>
</event>
<event>
 4    2  0.3747163E-007  0.9398425E+03  0.7818608E-02  0.9464882E-01
         -2   -1    0    0    0  501 -0.00000000000E+00  0.00000000000E+00  0.49481096080E+03  0.49481096080E+03  0.25500000000E-02 0.  1.
          2   -1    0    0  501    0  0.00000000000E+00 -0.00000000000E+00 -0.15335773239E+04  0.15335773239E+04  0.25500000000E-02 0. -1.
    8880023    1    1    2    0    0 -0.64641761789E+03  0.17787066230E+03 -0.23150088904E+03  0.96793418016E+03  0.65864270000E+03 0.  0.
    8880022    1    1    2    0    0  0.64641761789E+03 -0.17787066230E+03 -0.80726547409E+03  0.10604541046E+04  0.15294330000E+03 0.  0.
<mgrwt>
<rscale>  0 0.86923217E+03</rscale>
<asrwt>0</asrwt>
<pdfrwt beam="1">  1        2 0.23593497E+00 0.93984250E+03</pdfrwt>
<pdfrwt beam="2">  1       -2 0.76124764E-01 0.93984250E+03</pdfrwt>
<totfact> 0.18836818E+01</totfact>
</mgrwt>
</event>
<event>
 4    2  0.3747163E-007  0.7203647E+03  0.7818608E-02  0.9921354E-01
          2   -1    0    0  501    0  0.00000000000E+00  0.00000000000E+00  0.13009864718E+04  0.13009864718E+04  0.25500000000E-02 0. -1.
         -2   -1    0    0    0  501 -0.00000000000E+00 -0.00000000000E+00 -0.35830641952E+03  0.35830641953E+03  0.25500000000E-02 0.  1.
    8880023    1    1    2    0    0  0.83690088790E+02  0.27948350915E+03  0.10834489597E+04  0.13010714498E+04  0.65864270000E+03 0. -1.
    8880022    1    1    2    0    0 -0.83690088790E+02 -0.27948350915E+03 -0.14076890746E+03  0.35822144153E+03  0.15294330000E+03 0.  0.
<mgrwt>
<rscale>  0 0.59237454E+03</rscale>
<asrwt>0</asrwt>
<pdfrwt beam="1">  1        2 0.20015177E+00 0.72036468E+03</pdfrwt>
<pdfrwt beam="2">  1       -2 0.55124064E-01 0.72036468E+03</pdfrwt>
<totfact> 0.52202756E+01</totfact>
</mgrwt>
</event>
<event>
 4    2  0.3747163E-007  0.9308544E+03  0.7818608E-02  0.9478213E-01
          2   -1    0    0  501    0  0.00000000000E+00  0.00000000000E+00  0.27923645221E+04  0.27923645221E+04  0.25500000000E-02 0. -1.
         -2   -1    0    0    0  501 -0.00000000000E+00 -0.00000000000E+00 -0.98716428927E+03  0.98716428927E+03  0.25500000000E-02 0.  1.
    8880023    1    1    2    0    0 -0.14854899459E+03  0.64079083804E+03  0.25852684355E+04  0.27477450376E+04  0.65864270000E+03 0. -1.
    8880022    1    1    2    0    0  0.14854899459E+03 -0.64079083804E+03 -0.78006820268E+03  0.10317837737E+04  0.15294330000E+03 0.  0.
<mgrwt>
<rscale>  0 0.85909346E+03</rscale>
<asrwt>0</asrwt>
<pdfrwt beam="1">  1        2 0.42959454E+00 0.93085440E+03</pdfrwt>
<pdfrwt beam="2">  1       -2 0.15187143E+00 0.93085440E+03</pdfrwt>
<totfact> 0.69387578E-01</totfact>
</mgrwt>
</event>
<event>
 4    2  0.3747163E-007  0.9488217E+03  0.7818608E-02  0.9451811E-01
         -2   -1    0    0    0  501 -0.00000000000E+00  0.00000000000E+00  0.14610542811E+04  0.14610542811E+04  0.25500000000E-02 0.  1.
          2   -1    0    0  501    0  0.00000000000E+00 -0.00000000000E+00 -0.11012234778E+04  0.11012234778E+04  0.25500000000E-02 0. -1.
    8880023    1    1    2    0    0 -0.65705549498E+03  0.18636117883E+03 -0.77760803915E+03  0.12267586891E+04  0.65864270000E+03 0.  0.
    8880022    1    1    2    0    0  0.65705549498E+03 -0.18636117883E+03  0.11374388425E+04  0.13355190698E+04  0.15294330000E+03 0.  0.
<mgrwt>
<rscale>  0 0.87931744E+03</rscale>
<asrwt>0</asrwt>
<pdfrwt beam="1">  1        2 0.16941900E+00 0.94882170E+03</pdfrwt>
<pdfrwt beam="2">  1       -2 0.22477758E+00 0.94882170E+03</pdfrwt>
<totfact> 0.20061881E+00</totfact>
</mgrwt>
</event>
<event>
 4    2  0.3747163E-007  0.1092266E+04  0.7818608E-02  0.9269716E-01
         -2   -1    0    0    0  501 -0.00000000000E+00  0.00000000000E+00  0.52835519113E+03  0.52835519114E+03  0.25500000000E-02 0.  1.
          2   -1    0    0  501    0  0.00000000000E+00 -0.00000000000E+00 -0.29118609305E+04  0.29118609305E+04  0.25500000000E-02 0. -1.
    8880023    1    1    2    0    0 -0.76583038015E+03  0.41561890759E+03 -0.23577763037E+03  0.11174240667E+04  0.65864270000E+03 0.  0.
    8880022    1    1    2    0    0  0.76583038015E+03 -0.41561890759E+03 -0.21477281090E+04  0.23227920550E+04  0.15294330000E+03 0.  0.
<mgrwt>
<rscale>  0 0.10361932E+04</rscale>
<asrwt>0</asrwt>
<pdfrwt beam="1">  1        2 0.44797859E+00 0.10922662E+04</pdfrwt>
<pdfrwt beam="2">  1       -2 0.81285416E-01 0.10922662E+04</pdfrwt>
<totfact> 0.26493626E+00</totfact>
</mgrwt>
</event>
<event>
 4    2  0.3747163E-007  0.7826736E+03  0.7818608E-02  0.9749594E-01
          2   -1    0    0  501    0  0.00000000000E+00  0.00000000000E+00  0.26935637713E+04  0.26935637713E+04  0.25500000000E-02 0. -1.
         -2   -1    0    0    0  501 -0.00000000000E+00 -0.00000000000E+00 -0.24629214478E+03  0.24629214480E+03  0.25500000000E-02 0.  1.
    8880023    1    1    2    0    0  0.32931407466E+03  0.26517925797E+03  0.23539432359E+04  0.24806504717E+04  0.65864270000E+03 0. -1.
    8880022    1    1    2    0    0 -0.32931407466E+03 -0.26517925797E+03  0.93328390575E+02  0.45920544436E+03  0.15294330000E+03 0.  0.
<mgrwt>
<rscale>  0 0.68139239E+03</rscale>
<asrwt>0</asrwt>
<pdfrwt beam="1">  1        2 0.41439442E+00 0.78267363E+03</pdfrwt>
<pdfrwt beam="2">  1       -2 0.37891100E-01 0.78267363E+03</pdfrwt>
<totfact> 0.18417423E+01</totfact>
</mgrwt>
</event>
<event>
 4    2  0.3747163E-007  0.9330183E+03  0.7818608E-02  0.9474980E-01
          2   -1    0    0  501    0  0.00000000000E+00  0.00000000000E+00  0.20206121157E+04  0.20206121157E+04  0.25500000000E-02 0. -1.
         -2   -1    0    0    0  501 -0.00000000000E+00 -0.00000000000E+00 -0.10912625531E+04  0.10912625531E+04  0.25500000000E-02 0.  1.
    8880023    1    1    2    0    0  0.35597793325E+03  0.55676986212E+03  0.17884950635E+04  0.20172351788E+04  0.65864270000E+03 0. -1.
    8880022    1    1    2    0    0 -0.35597793325E+03 -0.55676986212E+03 -0.85914550083E+03  0.10946394899E+04  0.15294330000E+03 0.  0.
<mgrwt>
<rscale>  0 0.86153852E+03</rscale>
<asrwt>0</asrwt>
<pdfrwt beam="1">  1        2 0.31086340E+00 0.93301831E+03</pdfrwt>
<pdfrwt beam="2">  1       -2 0.16788655E+00 0.93301831E+03</pdfrwt>
<totfact> 0.14471959E+00</totfact>
</mgrwt>
</event>
<event>
 4    2  0.3747163E-007  0.8136294E+03  0.7818608E-02  0.9682066E-01
          2   -1    0    0  501    0  0.00000000000E+00  0.00000000000E+00  0.24959922902E+04  0.24959922902E+04  0.25500000000E-02 0. -1.
         -2   -1    0    0    0  501 -0.00000000000E+00 -0.00000000000E+00 -0.32860478136E+03  0.32860478137E+03  0.25500000000E-02 0.  1.
    8880023    1    1    2    0    0  0.75224499468E+02 -0.47172440056E+03  0.21758045389E+04  0.23229546343E+04  0.65864270000E+03 0. -1.
    8880022    1    1    2    0    0 -0.75224499468E+02  0.47172440056E+03 -0.84170300726E+01  0.50164243722E+03  0.15294330000E+03 0.  0.
<mgrwt>
<rscale>  0 0.72094688E+03</rscale>
<asrwt>0</asrwt>
<pdfrwt beam="1">  1        2 0.38399881E+00 0.81362943E+03</pdfrwt>
<pdfrwt beam="2">  1       -2 0.50554582E-01 0.81362943E+03</pdfrwt>
<totfact> 0.13431037E+01</totfact>
</mgrwt>
</event>
<event>
 4    2  0.3747163E-007  0.7054027E+03  0.7818608E-02  0.9975486E-01
         -2   -1    0    0    0  501 -0.00000000000E+00  0.00000000000E+00  0.54318897993E+03  0.54318897994E+03  0.25500000000E-02 0.  1.
          2   -1    0    0  501    0  0.00000000000E+00 -0.00000000000E+00 -0.15828641330E+04  0.15828641330E+04  0.25500000000E-02 0. -1.
    8880023    1    1    2    0    0  0.15397652213E+03  0.20018481691E+03 -0.14547070720E+04  0.16167144466E+04  0.65864270000E+03 0. -1.
    8880022    1    1    2    0    0 -0.15397652213E+03 -0.20018481691E+03  0.41503191892E+03  0.50933866634E+03  0.15294330000E+03 0.  0.
<mgrwt>
<rscale>  0 0.56738316E+03</rscale>
<asrwt>0</asrwt>
<pdfrwt beam="1">  1        2 0.24351756E+00 0.70540268E+03</pdfrwt>
<pdfrwt beam="2">  1       -2 0.83567536E-01 0.70540268E+03</pdfrwt>
<totfact> 0.14736902E+01</totfact>
</mgrwt>
</event>
<event>
 4    2  0.3747163E-007  0.8132388E+03  0.7818608E-02  0.9682870E-01
         -2   -1    0    0    0  501 -0.00000000000E+00  0.00000000000E+00  0.76574779918E+03  0.76574779918E+03  0.25500000000E-02 0.  1.
          2   -1    0    0  501    0  0.00000000000E+00 -0.00000000000E+00 -0.99963063317E+03  0.99963063318E+03  0.25500000000E-02 0. -1.
    8880023    1    1    2    0    0  0.47021027590E+03 -0.80308152876E+02  0.44083099943E+03  0.92503474492E+03  0.65864270000E+03 0.  0.
    8880022    1    1    2    0    0 -0.47021027590E+03  0.80308152876E+02 -0.67471383343E+03  0.84034368744E+03  0.15294330000E+03 0.  0.
<mgrwt>
<rscale>  0 0.72045942E+03</rscale>
<asrwt>0</asrwt>
<pdfrwt beam="1">  1        2 0.15378933E+00 0.81323878E+03</pdfrwt>
<pdfrwt beam="2">  1       -2 0.11780735E+00 0.81323878E+03</pdfrwt>
<totfact> 0.14148053E+01</totfact>
</mgrwt>
</event>
<event>
 4    2  0.3747163E-007  0.7411562E+03  0.7818608E-02  0.9856592E-01
         -2   -1    0    0    0  501 -0.00000000000E+00  0.00000000000E+00  0.66368512887E+03  0.66368512887E+03  0.25500000000E-02 0.  1.
          2   -1    0    0  501    0  0.00000000000E+00 -0.00000000000E+00 -0.11488007020E+04  0.11488007020E+04  0.25500000000E-02 0. -1.
    8880023    1    1    2    0    0 -0.16051624799E+03  0.29956110284E+03 -0.95747047112E+03  0.12108105672E+04  0.65864270000E+03 0.  0.
    8880022    1    1    2    0    0  0.16051624799E+03 -0.29956110284E+03  0.47235489803E+03  0.60167526367E+03  0.15294330000E+03 0.  0.
<mgrwt>
<rscale>  0 0.62411948E+03</rscale>
<asrwt>0</asrwt>
<pdfrwt beam="1">  1        2 0.17673857E+00 0.74115621E+03</pdfrwt>
<pdfrwt beam="2">  1       -2 0.10210540E+00 0.74115621E+03</pdfrwt>
<totfact> 0.16298059E+01</totfact>
</mgrwt>
</event>
<event>
 4    2  0.3747163E-007  0.8152525E+03  0.7818608E-02  0.9678738E-01
          2   -1    0    0  501    0  0.00000000000E+00  0.00000000000E+00  0.15939532804E+04  0.15939532804E+04  0.25500000000E-02 0. -1.
         -2   -1    0    0    0  501 -0.00000000000E+00 -0.00000000000E+00 -0.61971308135E+03  0.61971308136E+03  0.25500000000E-02 0.  1.
    8880023    1    1    2    0    0  0.43506012510E+03 -0.20383605130E+03  0.13553415874E+04  0.15816407535E+04  0.65864270000E+03 0. -1.
    8880022    1    1    2    0    0 -0.43506012510E+03  0.20383605130E+03 -0.38110138837E+03  0.63202560826E+03  0.15294330000E+03 0.  0.
<mgrwt>
<rscale>  0 0.72296940E+03</rscale>
<asrwt>0</asrwt>
<pdfrwt beam="1">  1        2 0.24522358E+00 0.81525251E+03</pdfrwt>
<pdfrwt beam="2">  1       -2 0.95340474E-01 0.81525251E+03</pdfrwt>
<totfact> 0.10570765E+01</totfact>
</mgrwt>
</event>
<event>
 4    2  0.3747163E-007  0.7211162E+03  0.7818608E-02  0.9918827E-01
          2   -1    0    0  501    0  0.00000000000E+00  0.00000000000E+00  0.99859470072E+03  0.99859470072E+03  0.25500000000E-02 0. -1.
         -2   -1    0    0    0  501 -0.00000000000E+00 -0.00000000000E+00 -0.15433642212E+04  0.15433642212E+04  0.25500000000E-02 0.  1.
    8880023    1    1    2    0    0  0.23063373562E+03  0.18167691637E+03  0.84640462764E+03  0.11119394866E+04  0.65864270000E+03 0. -1.
    8880022    1    1    2    0    0 -0.23063373562E+03 -0.18167691637E+03 -0.13911741481E+04  0.14300194353E+04  0.15294330000E+03 0.  0.
<mgrwt>
<rscale>  0 0.59357467E+03</rscale>
<asrwt>0</asrwt>
<pdfrwt beam="1">  1        2 0.15362995E+00 0.72111624E+03</pdfrwt>
<pdfrwt beam="2">  1       -2 0.23744065E+00 0.72111624E+03</pdfrwt>
<totfact> 0.20095884E+00</totfact>
</mgrwt>
</event>
<event>
 4    2  0.3747163E-007  0.8983744E+03  0.7818608E-02  0.9528646E-01
          2   -1    0    0  501    0  0.00000000000E+00  0.00000000000E+00  0.42022534870E+04  0.42022534870E+04  0.25500000000E-02 0. -1.
         -2   -1    0    0    0  501 -0.00000000000E+00 -0.00000000000E+00 -0.24631270084E+03  0.24631270086E+03  0.25500000000E-02 0.  1.
    8880023    1    1    2    0    0 -0.43489695795E+03  0.42910481963E+03  0.36298032965E+04  0.37393246032E+04  0.65864270000E+03 0. -1.
    8880022    1    1    2    0    0  0.43489695795E+03 -0.42910481963E+03  0.32613748963E+03  0.70924158467E+03  0.15294330000E+03 0.  0.
<mgrwt>
<rscale>  0 0.82204395E+03</rscale>
<asrwt>0</asrwt>
<pdfrwt beam="1">  1        2 0.64650048E+00 0.89837437E+03</pdfrwt>
<pdfrwt beam="2">  1       -2 0.37894265E-01 0.89837437E+03</pdfrwt>
<totfact> 0.16486459E+00</totfact>
</mgrwt>
</event>
<event>
 4    2  0.4960284E-007  0.7967064E+03  0.7818608E-02  0.9717963E-01
         -2   -1    0    0    0  501 -0.00000000000E+00  0.00000000000E+00  0.13653419878E+04  0.13653419878E+04  0.25500000000E-02 0.  1.
          2   -1    0    0  501    0  0.00000000000E+00 -0.00000000000E+00 -0.28601986651E+04  0.28601986651E+04  0.25500000000E-02 0. -1.
    8880023    1    1    2    0    0 -0.35068484826E+03 -0.27919711354E+03 -0.27610327337E+04  0.28736810634E+04  0.65864270000E+03 0.  0.
    8880022    1    1    2    0    0  0.35068484826E+03  0.27919711354E+03  0.12661760565E+04  0.13518595896E+04  0.15294330000E+03 0.  0.
<mgrwt>
<rscale>  0 0.69957269E+03</rscale>
<asrwt>0</asrwt>
<pdfrwt beam="1">  1        2 0.44003056E+00 0.79670641E+03</pdfrwt>
<pdfrwt beam="2">  1       -2 0.21005261E+00 0.79670641E+03</pdfrwt>
<totfact> 0.25777996E-01</totfact>
</mgrwt>
</event>
<event>
 4    2  0.3747163E-007  0.1093245E+04  0.7818608E-02  0.9268615E-01
          2   -1    0    0  501    0  0.00000000000E+00  0.00000000000E+00  0.59575153241E+03  0.59575153242E+03  0.25500000000E-02 0. -1.
         -2   -1    0    0    0  501 -0.00000000000E+00 -0.00000000000E+00 -0.22975212279E+04  0.22975212279E+04  0.25500000000E-02 0.  1.
    8880023    1    1    2    0    0 -0.48539898342E+03 -0.72509440752E+03 -0.14597423614E+03  0.11029473046E+04  0.65864270000E+03 0.  0.
    8880022    1    1    2    0    0  0.48539898342E+03  0.72509440752E+03 -0.15557954593E+04  0.17903254557E+04  0.15294330000E+03 0.  0.
<mgrwt>
<rscale>  0 0.10372432E+04</rscale>
<asrwt>0</asrwt>
<pdfrwt beam="1">  1        2 0.91654083E-01 0.10932448E+04</pdfrwt>
<pdfrwt beam="2">  1       -2 0.35346480E+00 0.10932448E+04</pdfrwt>
<totfact> 0.74132504E-01</totfact>
</mgrwt>
</event>
<event>
 4    2  0.3747163E-007  0.7380489E+03  0.7818608E-02  0.9865667E-01
          2   -1    0    0  501    0  0.00000000000E+00  0.00000000000E+00  0.15319611389E+04  0.15319611389E+04  0.25500000000E-02 0. -1.
         -2   -1    0    0    0  501 -0.00000000000E+00 -0.00000000000E+00 -0.26280558048E+03  0.26280558049E+03  0.25500000000E-02 0.  1.
    8880023    1    1    2    0    0 -0.33294393024E+03 -0.73734961785E+01  0.12188132523E+04  0.14248585822E+04  0.65864270000E+03 0.  0.
    8880022    1    1    2    0    0  0.33294393024E+03  0.73734961785E+01  0.50342306112E+02  0.36990813715E+03  0.15294330000E+03 0.  0.
<mgrwt>
<rscale>  0 0.61954440E+03</rscale>
<asrwt>0</asrwt>
<pdfrwt beam="1">  1        2 0.23568633E+00 0.73804894E+03</pdfrwt>
<pdfrwt beam="2">  1       -2 0.40431628E-01 0.73804894E+03</pdfrwt>
<totfact> 0.72048371E+01</totfact>
</mgrwt>
</event>
<event>
 4    2  0.3747163E-007  0.7566398E+03  0.7818608E-02  0.9813886E-01
         -2   -1    0    0    0  501 -0.00000000000E+00  0.00000000000E+00  0.38299585193E+03  0.38299585193E+03  0.25500000000E-02 0.  1.
          2   -1    0    0  501    0  0.00000000000E+00 -0.00000000000E+00 -0.10649988686E+04  0.10649988686E+04  0.25500000000E-02 0. -1.
    8880023    1    1    2    0    0  0.36133663263E+03  0.90163315852E+02 -0.13465556598E+03  0.76852840762E+03  0.65864270000E+03 0.  1.
    8880022    1    1    2    0    0 -0.36133663263E+03 -0.90163315852E+02 -0.54734745072E+03  0.67946631295E+03  0.15294330000E+03 0.  0.
<mgrwt>
<rscale>  0 0.64622659E+03</rscale>
<asrwt>0</asrwt>
<pdfrwt beam="1">  1        2 0.16384598E+00 0.75663980E+03</pdfrwt>
<pdfrwt beam="2">  1       -2 0.58922439E-01 0.75663980E+03</pdfrwt>
<totfact> 0.62569999E+01</totfact>
</mgrwt>
</event>
<event>
 4    2  0.3747163E-007  0.1764845E+04  0.7818608E-02  0.8742236E-01
          2   -1    0    0  501    0  0.00000000000E+00  0.00000000000E+00  0.34550828750E+04  0.34550828750E+04  0.25500000000E-02 0. -1.
         -2   -1    0    0    0  501 -0.00000000000E+00 -0.00000000000E+00 -0.24761062085E+04  0.24761062085E+04  0.25500000000E-02 0.  1.
    8880023    1    1    2    0    0  0.13753237831E+04 -0.88845570987E+03  0.29047286139E+04  0.33988420945E+04  0.65864270000E+03 0.  0.
    8880022    1    1    2    0    0 -0.13753237831E+04  0.88845570987E+03 -0.19257519474E+04  0.25323469890E+04  0.15294330000E+03 0.  0.
<mgrwt>
<rscale>  0 0.17339480E+04</rscale>
<asrwt>0</asrwt>
<pdfrwt beam="1">  1        2 0.53155121E+00 0.17648454E+04</pdfrwt>
<pdfrwt beam="2">  1       -2 0.38093942E+00 0.17648454E+04</pdfrwt>
<totfact> 0.78427418E-03</totfact>
</mgrwt>
</event>
<event>
 4    2  0.3747163E-007  0.8420819E+03  0.7818608E-02  0.9626267E-01
          2   -1    0    0  501    0  0.00000000000E+00  0.00000000000E+00  0.23855997328E+04  0.23855997328E+04  0.25500000000E-02 0. -1.
         -2   -1    0    0    0  501 -0.00000000000E+00 -0.00000000000E+00 -0.41395555726E+03  0.41395555726E+03  0.25500000000E-02 0.  1.
    8880023    1    1    2    0    0 -0.45505489209E+03  0.26118323798E+03  0.20785765719E+04  0.22426730503E+04  0.65864270000E+03 0. -1.
    8880022    1    1    2    0    0  0.45505489209E+03 -0.26118323798E+03 -0.10693239639E+03  0.55688223983E+03  0.15294330000E+03 0.  0.
<mgrwt>
<rscale>  0 0.75581777E+03</rscale>
<asrwt>0</asrwt>
<pdfrwt beam="1">  1        2 0.36701534E+00 0.84208185E+03</pdfrwt>
<pdfrwt beam="2">  1       -2 0.63685471E-01 0.84208185E+03</pdfrwt>
<totfact> 0.95262797E+00</totfact>
</mgrwt>
</event>
<event>
 4    2  0.3747163E-007  0.7945753E+03  0.7818608E-02  0.9722650E-01
         -2   -1    0    0    0  501 -0.00000000000E+00  0.00000000000E+00  0.58425983332E+03  0.58425983332E+03  0.25500000000E-02 0.  1.
          2   -1    0    0  501    0  0.00000000000E+00 -0.00000000000E+00 -0.19245583875E+04  0.19245583875E+04  0.25500000000E-02 0. -1.
    8880023    1    1    2    0    0 -0.44291411022E+03  0.36971087421E+02 -0.17264400419E+04  0.19005118244E+04  0.65864270000E+03 0. -1.
    8880022    1    1    2    0    0  0.44291411022E+03 -0.36971087421E+02  0.38614148771E+03  0.60830639638E+03  0.15294330000E+03 0.  0.
<mgrwt>
<rscale>  0 0.69684069E+03</rscale>
<asrwt>0</asrwt>
<pdfrwt beam="1">  1        2 0.29608590E+00 0.79457534E+03</pdfrwt>
<pdfrwt beam="2">  1       -2 0.89886129E-01 0.79457534E+03</pdfrwt>
<totfact> 0.80101028E+00</totfact>
</mgrwt>
</event>
<event>
 4    2  0.3747163E-007  0.7470692E+03  0.7818608E-02  0.9839814E-01
         -2   -1    0    0    0  501 -0.00000000000E+00  0.00000000000E+00  0.15803142292E+03  0.15803142294E+03  0.25500000000E-02 0.  1.
          2   -1    0    0  501    0  0.00000000000E+00 -0.00000000000E+00 -0.24171773211E+04  0.24171773211E+04  0.25500000000E-02 0. -1.
    8880023    1    1    2    0    0  0.32417790203E+03  0.13860321828E+03 -0.19288266298E+04  0.20684497911E+04  0.65864270000E+03 0. -1.
    8880022    1    1    2    0    0 -0.32417790203E+03 -0.13860321828E+03 -0.33031926837E+03  0.50675895291E+03  0.15294330000E+03 0.  0.
<mgrwt>
<rscale>  0 0.63268991E+03</rscale>
<asrwt>0</asrwt>
<pdfrwt beam="1">  1        2 0.37187341E+00 0.74706919E+03</pdfrwt>
<pdfrwt beam="2">  1       -2 0.24312528E-01 0.74706919E+03</pdfrwt>
<totfact> 0.60823445E+01</totfact>
</mgrwt>
</event>
<event>
 4    2  0.3747163E-007  0.8485320E+03  0.7818608E-02  0.9614298E-01
         -2   -1    0    0    0  501 -0.00000000000E+00  0.00000000000E+00  0.11601567302E+04  0.11601567302E+04  0.25500000000E-02 0.  1.
          2   -1    0    0  501    0  0.00000000000E+00 -0.00000000000E+00 -0.11522955004E+04  0.11522955004E+04  0.25500000000E-02 0. -1.
    8880023    1    1    2    0    0 -0.41327639125E+03  0.33970420114E+03 -0.90677306941E+03  0.12418711389E+04  0.65864270000E+03 0.  0.
    8880022    1    1    2    0    0  0.41327639125E+03 -0.33970420114E+03  0.91463429919E+03  0.10705810918E+04  0.15294330000E+03 0.  0.
<mgrwt>
<rscale>  0 0.76357055E+03</rscale>
<asrwt>0</asrwt>
<pdfrwt beam="1">  1        2 0.17727623E+00 0.84853198E+03</pdfrwt>
<pdfrwt beam="2">  1       -2 0.17848565E+00 0.84853198E+03</pdfrwt>
<totfact> 0.37947147E+00</totfact>
</mgrwt>
</event>
<event>
 4    2  0.3747163E-007  0.8785158E+03  0.7818608E-02  0.9561440E-01
          2   -1    0    0  501    0  0.00000000000E+00  0.00000000000E+00  0.19875304443E+04  0.19875304444E+04  0.25500000000E-02 0. -1.
         -2   -1    0    0    0  501 -0.00000000000E+00 -0.00000000000E+00 -0.83494332255E+03  0.83494332255E+03  0.25500000000E-02 0.  1.
    8880023    1    1    2    0    0  0.23585518028E+03  0.53136809620E+03  0.17605036009E+04  0.19675270912E+04  0.65864270000E+03 0. -1.
    8880022    1    1    2    0    0 -0.23585518028E+03 -0.53136809620E+03 -0.60791647907E+03  0.85494667569E+03  0.15294330000E+03 0.  0.
<mgrwt>
<rscale>  0 0.79901767E+03</rscale>
<asrwt>0</asrwt>
<pdfrwt beam="1">  1        2 0.30577391E+00 0.87851575E+03</pdfrwt>
<pdfrwt beam="2">  1       -2 0.12845282E+00 0.87851575E+03</pdfrwt>
<totfact> 0.30854280E+00</totfact>
</mgrwt>
</event>
<event>
 4    2  0.3747163E-007  0.7526360E+03  0.7818608E-02  0.9824559E-01
         -2   -1    0    0    0  501 -0.00000000000E+00  0.00000000000E+00  0.98885996208E+03  0.98885996208E+03  0.25500000000E-02 0.  1.
          2   -1    0    0  501    0  0.00000000000E+00 -0.00000000000E+00 -0.15071499768E+04  0.15071499768E+04  0.25500000000E-02 0. -1.
    8880023    1    1    2    0    0  0.31825530093E+01  0.36419864352E+03 -0.13666504903E+04  0.15601905491E+04  0.65864270000E+03 0. -1.
    8880022    1    1    2    0    0 -0.31825530093E+01 -0.36419864352E+03  0.84836047563E+03  0.93581938974E+03  0.15294330000E+03 0.  0.
<mgrwt>
<rscale>  0 0.64061056E+03</rscale>
<asrwt>0</asrwt>
<pdfrwt beam="1">  1        2 0.23186923E+00 0.75263603E+03</pdfrwt>
<pdfrwt beam="2">  1       -2 0.15213230E+00 0.75263603E+03</pdfrwt>
<totfact> 0.37253343E+00</totfact>
</mgrwt>
</event>
<event>
 4    2  0.3747163E-007  0.1135360E+04  0.7818608E-02  0.9222672E-01
          2   -1    0    0  501    0  0.00000000000E+00  0.00000000000E+00  0.23140992882E+04  0.23140992882E+04  0.25500000000E-02 0. -1.
         -2   -1    0    0    0  501 -0.00000000000E+00 -0.00000000000E+00 -0.10751277480E+04  0.10751277480E+04  0.25500000000E-02 0.  1.
    8880023    1    1    2    0    0 -0.53606583092E+03  0.75356804514E+03  0.19200190151E+04  0.22305861558E+04  0.65864270000E+03 0. -1.
    8880022    1    1    2    0    0  0.53606583092E+03 -0.75356804514E+03 -0.68104747487E+03  0.11586408804E+04  0.15294330000E+03 0.  0.
<mgrwt>
<rscale>  0 0.10822446E+04</rscale>
<asrwt>0</asrwt>
<pdfrwt beam="1">  1        2 0.35601527E+00 0.11353597E+04</pdfrwt>
<pdfrwt beam="2">  1       -2 0.16540427E+00 0.11353597E+04</pdfrwt>
<totfact> 0.10061403E+00</totfact>
</mgrwt>
</event>
<event>
 4    2  0.3747163E-007  0.6961420E+03  0.7818608E-02  0.1001360E+00
         -2   -1    0    0    0  501 -0.00000000000E+00  0.00000000000E+00  0.12251533459E+03  0.12251533462E+03  0.25500000000E-02 0.  1.
          2   -1    0    0  501    0  0.00000000000E+00 -0.00000000000E+00 -0.19493312552E+04  0.19493312552E+04  0.25500000000E-02 0. -1.
    8880023    1    1    2    0    0  0.17762647593E+03 -0.13875272242E+03 -0.11804207361E+04  0.13704038834E+04  0.65864270000E+03 0.  1.
    8880022    1    1    2    0    0 -0.17762647593E+03  0.13875272242E+03 -0.64639518443E+03  0.70144270642E+03  0.15294330000E+03 0.  1.
<mgrwt>
<rscale>  0 0.55057984E+03</rscale>
<asrwt>0</asrwt>
<pdfrwt beam="1">  1        2 0.29989709E+00 0.69614200E+03</pdfrwt>
<pdfrwt beam="2">  1       -2 0.18848514E-01 0.69614200E+03</pdfrwt>
<totfact> 0.17355742E+02</totfact>
</mgrwt>
</event>
<event>
 4    2  0.3747163E-007  0.8122658E+03  0.7818608E-02  0.9684877E-01
          2   -1    0    0  501    0  0.00000000000E+00  0.00000000000E+00  0.82871892143E+03  0.82871892143E+03  0.25500000000E-02 0. -1.
         -2   -1    0    0    0  501 -0.00000000000E+00 -0.00000000000E+00 -0.78961824499E+03  0.78961824499E+03  0.25500000000E-02 0.  1.
    8880023    1    1    2    0    0  0.45559250976E+03 -0.13565019180E+03  0.48739480946E+03  0.94727473103E+03  0.65864270000E+03 0.  0.
    8880022    1    1    2    0    0 -0.45559250976E+03  0.13565019180E+03 -0.44829413302E+03  0.67106243540E+03  0.15294330000E+03 0.  0.
<mgrwt>
<rscale>  0 0.71924418E+03</rscale>
<asrwt>0</asrwt>
<pdfrwt beam="1">  1        2 0.12749522E+00 0.81226579E+03</pdfrwt>
<pdfrwt beam="2">  1       -2 0.12147973E+00 0.81226579E+03</pdfrwt>
<totfact> 0.17070174E+01</totfact>
</mgrwt>
</event>
<event>
 4    2  0.3747163E-007  0.8014217E+03  0.7818608E-02  0.9707730E-01
          2   -1    0    0  501    0  0.00000000000E+00  0.00000000000E+00  0.11314527453E+04  0.11314527453E+04  0.25500000000E-02 0. -1.
         -2   -1    0    0    0  501 -0.00000000000E+00 -0.00000000000E+00 -0.44202781530E+03  0.44202781531E+03  0.25500000000E-02 0.  1.
    8880023    1    1    2    0    0  0.27147994584E+03  0.36710384863E+03  0.73807853327E+03  0.10895121496E+04  0.65864270000E+03 0. -1.
    8880022    1    1    2    0    0 -0.27147994584E+03 -0.36710384863E+03 -0.48653603301E+02  0.48396841095E+03  0.15294330000E+03 0.  0.
<mgrwt>
<rscale>  0 0.70558389E+03</rscale>
<asrwt>0</asrwt>
<pdfrwt beam="1">  1        2 0.17406965E+00 0.80142174E+03</pdfrwt>
<pdfrwt beam="2">  1       -2 0.68004281E-01 0.80142174E+03</pdfrwt>
<totfact> 0.41770818E+01</totfact>
</mgrwt>
</event>
<event>
 4    2  0.3747163E-007  0.6749779E+03  0.7818608E-02  0.1012320E+00
         -2   -1    0    0    0  501 -0.00000000000E+00  0.00000000000E+00  0.31686420112E+03  0.31686420113E+03  0.25500000000E-02 0.  1.
          2   -1    0    0  501    0  0.00000000000E+00 -0.00000000000E+00 -0.21056831568E+04  0.21056831568E+04  0.25500000000E-02 0. -1.
    8880023    1    1    2    0    0  0.10336038552E+03  0.10536395892E+03 -0.20072933685E+04  0.21177397872E+04  0.65864270000E+03 0. -1.
    8880022    1    1    2    0    0 -0.10336038552E+03 -0.10536395892E+03  0.21847441274E+03  0.30480757072E+03  0.15294330000E+03 0.  0.
<mgrwt>
<rscale>  0 0.50562825E+03</rscale>
<asrwt>0</asrwt>
<pdfrwt beam="1">  1        2 0.32395125E+00 0.67497788E+03</pdfrwt>
<pdfrwt beam="2">  1       -2 0.48748340E-01 0.67497788E+03</pdfrwt>
<totfact> 0.24338202E+01</totfact>
</mgrwt>
</event>
<event>
 4    2  0.3747163E-007  0.1235773E+04  0.7818608E-02  0.9123109E-01
          2   -1    0    0  501    0  0.00000000000E+00  0.00000000000E+00  0.41122533844E+04  0.41122533844E+04  0.25500000000E-02 0. -1.
         -2   -1    0    0    0  501 -0.00000000000E+00 -0.00000000000E+00 -0.51148757895E+03  0.51148757896E+03  0.25500000000E-02 0.  1.
    8880023    1    1    2    0    0 -0.10326652119E+04 -0.16409637275E+03  0.47456254284E+03  0.13237616374E+04  0.65864270000E+03 0.  1.
    8880022    1    1    2    0    0  0.10326652119E+04  0.16409637275E+03  0.31262032626E+04  0.32999793259E+04  0.15294330000E+03 0.  0.
<mgrwt>
<rscale>  0 0.11883570E+04</rscale>
<asrwt>0</asrwt>
<pdfrwt beam="1">  1        2 0.63265433E+00 0.12357731E+04</pdfrwt>
<pdfrwt beam="2">  1       -2 0.78690402E-01 0.12357731E+04</pdfrwt>
<totfact> 0.40212435E-01</totfact>
</mgrwt>
</event>
<event>
 4    2  0.3747163E-007  0.7124638E+03  0.7818608E-02  0.9948963E-01
         -2   -1    0    0    0  501 -0.00000000000E+00  0.00000000000E+00  0.41135811322E+03  0.41135811322E+03  0.25500000000E-02 0.  1.
          2   -1    0    0  501    0  0.00000000000E+00 -0.00000000000E+00 -0.98970744938E+03  0.98970744938E+03  0.25500000000E-02 0. -1.
    8880023    1    1    2    0    0  0.18084340962E+03  0.20270713741E+03 -0.75880223535E+03  0.10408580888E+04  0.65864270000E+03 0.  0.
    8880022    1    1    2    0    0 -0.18084340962E+03 -0.20270713741E+03  0.18045289918E+03  0.36020747382E+03  0.15294330000E+03 0.  0.
<mgrwt>
<rscale>  0 0.57945896E+03</rscale>
<asrwt>0</asrwt>
<pdfrwt beam="1">  1        2 0.15226268E+00 0.71246384E+03</pdfrwt>
<pdfrwt beam="2">  1       -2 0.63285864E-01 0.71246384E+03</pdfrwt>
<totfact> 0.60213415E+01</totfact>
</mgrwt>
</event>
<event>
 4    2  0.3747163E-007  0.8477002E+03  0.7818608E-02  0.9615828E-01
          2   -1    0    0  501    0  0.00000000000E+00  0.00000000000E+00  0.34638625464E+04  0.34638625464E+04  0.25500000000E-02 0. -1.
         -2   -1    0    0    0  501 -0.00000000000E+00 -0.00000000000E+00 -0.14210789408E+03  0.14210789410E+03  0.25500000000E-02 0.  1.
    8880023    1    1    2    0    0 -0.53275171182E+03 -0.31001098730E+02  0.20471429347E+04  0.22157142993E+04  0.65864270000E+03 0.  0.
    8880022    1    1    2    0    0  0.53275171182E+03  0.31001098730E+02  0.12746117176E+04  0.13902561412E+04  0.15294330000E+03 0.  0.
<mgrwt>
<rscale>  0 0.76257360E+03</rscale>
<asrwt>0</asrwt>
<pdfrwt beam="1">  1        2 0.53290192E+00 0.84770022E+03</pdfrwt>
<pdfrwt beam="2">  1       -2 0.21862753E-01 0.84770022E+03</pdfrwt>
<totfact> 0.16627440E+01</totfact>
</mgrwt>
</event>
<event>
 4    2  0.3747163E-007  0.6752695E+03  0.7818608E-02  0.1012137E+00
         -2   -1    0    0    0  501 -0.00000000000E+00  0.00000000000E+00  0.12090421440E+04  0.12090421440E+04  0.25500000000E-02 0.  1.
          2   -1    0    0  501    0  0.00000000000E+00 -0.00000000000E+00 -0.70715786706E+03  0.70715786707E+03  0.25500000000E-02 0. -1.
    8880023    1    1    2    0    0  0.82142449618E+02 -0.12422271255E+03 -0.53253100964E+03  0.85998729458E+03  0.65864270000E+03 0. -1.
    8880022    1    1    2    0    0 -0.82142449618E+02  0.12422271255E+03  0.10344152866E+04  0.10562127165E+04  0.15294330000E+03 0.  0.
<mgrwt>
<rscale>  0 0.50634100E+03</rscale>
<asrwt>0</asrwt>
<pdfrwt beam="1">  1        2 0.10879352E+00 0.67526948E+03</pdfrwt>
<pdfrwt beam="2">  1       -2 0.18600648E+00 0.67526948E+03</pdfrwt>
<totfact> 0.68629611E+00</totfact>
</mgrwt>
</event>
<event>
 4    2  0.3747163E-007  0.6841821E+03  0.7818608E-02  0.1007050E+00
          2   -1    0    0  501    0  0.00000000000E+00  0.00000000000E+00  0.21793930866E+04  0.21793930866E+04  0.25500000000E-02 0. -1.
         -2   -1    0    0    0  501 -0.00000000000E+00 -0.00000000000E+00 -0.42341145647E+03  0.42341145647E+03  0.25500000000E-02 0.  1.
    8880023    1    1    2    0    0  0.18458278853E+03 -0.14970850952E+02  0.20856038047E+04  0.21949597647E+04  0.65864270000E+03 0. -1.
    8880022    1    1    2    0    0 -0.18458278853E+03  0.14970850952E+02 -0.32962217461E+03  0.40784477833E+03  0.15294330000E+03 0.  0.
<mgrwt>
<rscale>  0 0.52663914E+03</rscale>
<asrwt>0</asrwt>
<pdfrwt beam="1">  1        2 0.33529124E+00 0.68418209E+03</pdfrwt>
<pdfrwt beam="2">  1       -2 0.65140225E-01 0.68418209E+03</pdfrwt>
<totfact> 0.12108372E+01</totfact>
</mgrwt>
</event>
<event>
 4    2  0.3747163E-007  0.7216338E+03  0.7818608E-02  0.9917096E-01
         -2   -1    0    0    0  501 -0.00000000000E+00  0.00000000000E+00  0.72307569935E+03  0.72307569936E+03  0.25500000000E-02 0.  1.
          2   -1    0    0  501    0  0.00000000000E+00 -0.00000000000E+00 -0.99597732632E+03  0.99597732633E+03  0.25500000000E-02 0. -1.
    8880023    1    1    2    0    0  0.27812654954E+03 -0.97932490426E+02 -0.81169486290E+03  0.10860957172E+04  0.65864270000E+03 0.  0.
    8880022    1    1    2    0    0 -0.27812654954E+03  0.97932490426E+02  0.53879323593E+03  0.63295730846E+03  0.15294330000E+03 0.  1.
<mgrwt>
<rscale>  0 0.59439850E+03</rscale>
<asrwt>0</asrwt>
<pdfrwt beam="1">  1        2 0.15322728E+00 0.72163381E+03</pdfrwt>
<pdfrwt beam="2">  1       -2 0.11124242E+00 0.72163381E+03</pdfrwt>
<totfact> 0.16522587E+01</totfact>
</mgrwt>
</event>
<event>
 4    2  0.3747163E-007  0.1091314E+04  0.7818608E-02  0.9270789E-01
          2   -1    0    0  501    0  0.00000000000E+00  0.00000000000E+00  0.15579821513E+04  0.15579821513E+04  0.25500000000E-02 0. -1.
         -2   -1    0    0    0  501 -0.00000000000E+00 -0.00000000000E+00 -0.13581798342E+04  0.13581798342E+04  0.25500000000E-02 0.  1.
    8880023    1    1    2    0    0  0.84288371310E+03 -0.21610930312E+03  0.11727305334E+04  0.16019560840E+04  0.65864270000E+03 0.  0.
    8880022    1    1    2    0    0 -0.84288371310E+03  0.21610930312E+03 -0.97292821622E+03  0.13142059015E+04  0.15294330000E+03 0.  0.
<mgrwt>
<rscale>  0 0.10351714E+04</rscale>
<asrwt>0</asrwt>
<pdfrwt beam="1">  1        2 0.23968956E+00 0.10913141E+04</pdfrwt>
<pdfrwt beam="2">  1       -2 0.20895074E+00 0.10913141E+04</pdfrwt>
<totfact> 0.13457287E+00</totfact>
</mgrwt>
</event>
<event>
 4    2  0.3747163E-007  0.6624617E+03  0.7818608E-02  0.1021765E+00
          2   -1    0    0  501    0  0.00000000000E+00  0.00000000000E+00  0.77650172907E+03  0.77650172907E+03  0.25500000000E-02 0. -1.
         -2   -1    0    0    0  501 -0.00000000000E+00 -0.00000000000E+00 -0.22478306877E+03  0.22478306879E+03  0.25500000000E-02 0.  1.
    8880023    1    1    2    0    0  0.66191145372E+02 -0.25769591223E+02  0.47976585986E+03  0.81794304576E+03  0.65864270000E+03 0. -1.
    8880022    1    1    2    0    0 -0.66191145372E+02  0.25769591223E+02  0.71952800440E+02  0.18334175210E+03  0.15294330000E+03 0. -1.
<mgrwt>
<rscale>  0 0.47055030E+03</rscale>
<asrwt>0</asrwt>
<pdfrwt beam="1">  1        2 0.11946180E+00 0.66246173E+03</pdfrwt>
<pdfrwt beam="2">  1       -2 0.34582011E-01 0.66246173E+03</pdfrwt>
<totfact> 0.28417492E+02</totfact>
</mgrwt>
</event>
<event>
 4    2  0.3747163E-007  0.7594431E+03  0.7818608E-02  0.9806551E-01
          2   -1    0    0  501    0  0.00000000000E+00  0.00000000000E+00  0.13690653515E+04  0.13690653515E+04  0.25500000000E-02 0. -1.
         -2   -1    0    0    0  501 -0.00000000000E+00 -0.00000000000E+00 -0.91899870743E+03  0.91899870743E+03  0.25500000000E-02 0.  1.
    8880023    1    1    2    0    0  0.35390328754E+03 -0.13302686903E+03  0.12082759632E+04  0.14271246247E+04  0.65864270000E+03 0. -1.
    8880022    1    1    2    0    0 -0.35390328754E+03  0.13302686903E+03 -0.75820931914E+03  0.86093943426E+03  0.15294330000E+03 0.  0.
<mgrwt>
<rscale>  0 0.65012148E+03</rscale>
<asrwt>0</asrwt>
<pdfrwt beam="1">  1        2 0.21062544E+00 0.75944315E+03</pdfrwt>
<pdfrwt beam="2">  1       -2 0.14138442E+00 0.75944315E+03</pdfrwt>
<totfact> 0.53944735E+00</totfact>
</mgrwt>
</event>
<event>
 4    2  0.3747163E-007  0.6753270E+03  0.7818608E-02  0.1012101E+00
          2   -1    0    0  501    0  0.00000000000E+00  0.00000000000E+00  0.16847505917E+04  0.16847505917E+04  0.25500000000E-02 0. -1.
         -2   -1    0    0    0  501 -0.00000000000E+00 -0.00000000000E+00 -0.42842188281E+03  0.42842188281E+03  0.25500000000E-02 0.  1.
    8880023    1    1    2    0    0  0.14899555956E+03  0.75325352901E+01  0.15840261963E+04  0.17219772393E+04  0.65864270000E+03 0. -1.
    8880022    1    1    2    0    0 -0.14899555956E+03 -0.75325352901E+01 -0.32769748735E+03  0.39119523526E+03  0.15294330000E+03 0.  0.
<mgrwt>
<rscale>  0 0.50648129E+03</rscale>
<asrwt>0</asrwt>
<pdfrwt beam="1">  1        2 0.25919240E+00 0.67532705E+03</pdfrwt>
<pdfrwt beam="2">  1       -2 0.65911059E-01 0.67532705E+03</pdfrwt>
<totfact> 0.21984248E+01</totfact>
</mgrwt>
</event>
<event>
 4    2  0.3747163E-007  0.9307507E+03  0.7818608E-02  0.9478368E-01
          2   -1    0    0  501    0  0.00000000000E+00  0.00000000000E+00  0.15456627951E+04  0.15456627951E+04  0.25500000000E-02 0. -1.
         -2   -1    0    0    0  501 -0.00000000000E+00 -0.00000000000E+00 -0.41748661750E+03  0.41748661751E+03  0.25500000000E-02 0.  1.
    8880023    1    1    2    0    0 -0.26047079594E+03 -0.60385565777E+03  0.62590255261E+03  0.11216286830E+04  0.65864270000E+03 0. -1.
    8880022    1    1    2    0    0  0.26047079594E+03  0.60385565777E+03  0.50227362500E+03  0.84152072960E+03  0.15294330000E+03 0.  1.
<mgrwt>
<rscale>  0 0.85897625E+03</rscale>
<asrwt>0</asrwt>
<pdfrwt beam="1">  1        2 0.23779428E+00 0.93075072E+03</pdfrwt>
<pdfrwt beam="2">  1       -2 0.64228709E-01 0.93075072E+03</pdfrwt>
<totfact> 0.26929138E+01</totfact>
</mgrwt>
</event>
<event>
 4    2  0.3747163E-007  0.8486731E+03  0.7818608E-02  0.9614038E-01
          2   -1    0    0  501    0  0.00000000000E+00  0.00000000000E+00  0.60758198182E+03  0.60758198182E+03  0.25500000000E-02 0. -1.
         -2   -1    0    0    0  501 -0.00000000000E+00 -0.00000000000E+00 -0.11189272075E+04  0.11189272075E+04  0.25500000000E-02 0.  1.
    8880023    1    1    2    0    0  0.18519235169E+02  0.53487656187E+03  0.15028930438E+03  0.86187758979E+03  0.65864270000E+03 0.  0.
    8880022    1    1    2    0    0 -0.18519235169E+02 -0.53487656187E+03 -0.66163453005E+03  0.86463159951E+03  0.15294330000E+03 0.  0.
<mgrwt>
<rscale>  0 0.76373967E+03</rscale>
<asrwt>0</asrwt>
<pdfrwt beam="1">  1        2 0.93474151E-01 0.84867314E+03</pdfrwt>
<pdfrwt beam="2">  1       -2 0.17214265E+00 0.84867314E+03</pdfrwt>
<totfact> 0.10117284E+01</totfact>
</mgrwt>
</event>
<event>
 4    2  0.5663227E-007  0.7391839E+03  0.7818608E-02  0.9862331E-01
          2   -1    0    0  501    0  0.00000000000E+00  0.00000000000E+00  0.22914459381E+04  0.22914459381E+04  0.25500000000E-02 0. -1.
         -2   -1    0    0    0  501 -0.00000000000E+00 -0.00000000000E+00 -0.10754066908E+04  0.10754066908E+04  0.25500000000E-02 0.  1.
    8880023    1    1    2    0    0 -0.33310359670E+03 -0.40306525634E+02  0.21974552610E+04  0.23184482855E+04  0.65864270000E+03 0.  0.
    8880022    1    1    2    0    0  0.33310359670E+03  0.40306525634E+02 -0.98141601376E+03  0.10484043434E+04  0.15294330000E+03 0.  0.
<mgrwt>
<rscale>  0 0.62122148E+03</rscale>
<asrwt>0</asrwt>
<pdfrwt beam="1">  1        2 0.35253014E+00 0.73918389E+03</pdfrwt>
<pdfrwt beam="2">  1       -2 0.16544718E+00 0.73918389E+03</pdfrwt>
<totfact> 0.11058916E+00</totfact>
</mgrwt>
</event>
<event>
 4    2  0.3747163E-007  0.7660890E+03  0.7818608E-02  0.9789591E-01
          2   -1    0    0  501    0  0.00000000000E+00  0.00000000000E+00  0.17821839204E+04  0.17821839204E+04  0.25500000000E-02 0. -1.
         -2   -1    0    0    0  501 -0.00000000000E+00 -0.00000000000E+00 -0.22479246802E+03  0.22479246804E+03  0.25500000000E-02 0.  1.
    8880023    1    1    2    0    0 -0.50920299758E+02  0.38792954417E+03  0.13152586152E+04  0.15221030317E+04  0.65864270000E+03 0. -1.
    8880022    1    1    2    0    0  0.50920299758E+02 -0.38792954417E+03  0.24213283719E+03  0.48487335669E+03  0.15294330000E+03 0.  0.
<mgrwt>
<rscale>  0 0.65924142E+03</rscale>
<asrwt>0</asrwt>
<pdfrwt beam="1">  1        2 0.27418215E+00 0.76608904E+03</pdfrwt>
<pdfrwt beam="2">  1       -2 0.34583456E-01 0.76608904E+03</pdfrwt>
<totfact> 0.70743980E+01</totfact>
</mgrwt>
</event>
<event>
 4    2  0.3747163E-007  0.6628532E+03  0.7818608E-02  0.1021407E+00
          2   -1    0    0  501    0  0.00000000000E+00  0.00000000000E+00  0.13726713428E+04  0.13726713428E+04  0.25500000000E-02 0. -1.
         -2   -1    0    0    0  501 -0.00000000000E+00 -0.00000000000E+00 -0.12909672748E+03  0.12909672751E+03  0.25500000000E-02 0.  1.
    8880023    1    1    2    0    0 -0.40242844321E+02 -0.62806893724E+02  0.10701208623E+04  0.12587823714E+04  0.65864270000E+03 0.  0.
    8880022    1    1    2    0    0  0.40242844321E+02  0.62806893724E+02  0.17345375310E+03  0.24298569896E+03  0.15294330000E+03 0. -1.
<mgrwt>
<rscale>  0 0.47182404E+03</rscale>
<asrwt>0</asrwt>
<pdfrwt beam="1">  1        2 0.21118020E+00 0.66285323E+03</pdfrwt>
<pdfrwt beam="2">  1       -2 0.19861036E-01 0.66285323E+03</pdfrwt>
<totfact> 0.32955505E+02</totfact>
</mgrwt>
</event>
<event>
 4    2  0.3747163E-007  0.7064400E+03  0.7818608E-02  0.9971466E-01
         -2   -1    0    0    0  501 -0.00000000000E+00  0.00000000000E+00  0.45758498927E+03  0.45758498928E+03  0.25500000000E-02 0.  1.
          2   -1    0    0  501    0  0.00000000000E+00 -0.00000000000E+00 -0.12122503799E+04  0.12122503799E+04  0.25500000000E-02 0. -1.
    8880023    1    1    2    0    0 -0.25532850121E+03 -0.73875131493E+01 -0.10401424878E+04  0.12573598610E+04  0.65864270000E+03 0.  0.
    8880022    1    1    2    0    0  0.25532850121E+03  0.73875131493E+01  0.28547709712E+03  0.41247550821E+03  0.15294330000E+03 0.  0.
<mgrwt>
<rscale>  0 0.56919290E+03</rscale>
<asrwt>0</asrwt>
<pdfrwt beam="1">  1        2 0.18650006E+00 0.70643997E+03</pdfrwt>
<pdfrwt beam="2">  1       -2 0.70397691E-01 0.70643997E+03</pdfrwt>
<totfact> 0.34990295E+01</totfact>
</mgrwt>
</event>
<event>
 4    2  0.3747163E-007  0.8819885E+03  0.7818608E-02  0.9555587E-01
         -2   -1    0    0    0  501 -0.00000000000E+00  0.00000000000E+00  0.39396220655E+03  0.39396220656E+03  0.25500000000E-02 0.  1.
          2   -1    0    0  501    0  0.00000000000E+00 -0.00000000000E+00 -0.22026878717E+04  0.22026878717E+04  0.25500000000E-02 0. -1.
    8880023    1    1    2    0    0 -0.38161436649E+02  0.58535228698E+03 -0.17837953211E+04  0.19899320464E+04  0.65864270000E+03 0.  0.
    8880022    1    1    2    0    0  0.38161436649E+02 -0.58535228698E+03 -0.24930343957E+02  0.60671803186E+03  0.15294330000E+03 0.  0.
<mgrwt>
<rscale>  0 0.80306777E+03</rscale>
<asrwt>0</asrwt>
<pdfrwt beam="1">  1        2 0.33887505E+00 0.88198855E+03</pdfrwt>
<pdfrwt beam="2">  1       -2 0.60609572E-01 0.88198855E+03</pdfrwt>
<totfact> 0.13317019E+01</totfact>
</mgrwt>
</event>
<event>
 4    2  0.3747163E-007  0.9520037E+03  0.7818608E-02  0.9447237E-01
          2   -1    0    0  501    0  0.00000000000E+00  0.00000000000E+00  0.11116604702E+04  0.11116604702E+04  0.25500000000E-02 0. -1.
         -2   -1    0    0    0  501 -0.00000000000E+00 -0.00000000000E+00 -0.65107147728E+03  0.65107147728E+03  0.25500000000E-02 0.  1.
    8880023    1    1    2    0    0  0.53681377613E+03  0.42933882691E+03  0.46279500099E+03  0.10585321335E+04  0.65864270000E+03 0.  0.
    8880022    1    1    2    0    0 -0.53681377613E+03 -0.42933882691E+03 -0.22060080293E+01  0.70419981398E+03  0.15294330000E+03 0.  0.
<mgrwt>
<rscale>  0 0.88288152E+03</rscale>
<asrwt>0</asrwt>
<pdfrwt beam="1">  1        2 0.17102469E+00 0.95200371E+03</pdfrwt>
<pdfrwt beam="2">  1       -2 0.10016484E+00 0.95200371E+03</pdfrwt>
<totfact> 0.17596857E+01</totfact>
</mgrwt>
</event>
<event>
 4    2  0.3747163E-007  0.6833290E+03  0.7818608E-02  0.1007500E+00
          2   -1    0    0  501    0  0.00000000000E+00  0.00000000000E+00  0.78379387757E+03  0.78379387758E+03  0.25500000000E-02 0. -1.
         -2   -1    0    0    0  501 -0.00000000000E+00 -0.00000000000E+00 -0.44795443081E+03  0.44795443082E+03  0.25500000000E-02 0.  1.
    8880023    1    1    2    0    0  0.17953674178E+03 -0.29915110467E+02  0.57608070281E+03  0.89376033582E+03  0.65864270000E+03 0. -1.
    8880022    1    1    2    0    0 -0.17953674178E+03  0.29915110467E+02 -0.24024125604E+03  0.33798797257E+03  0.15294330000E+03 0.  0.
<mgrwt>
<rscale>  0 0.52480466E+03</rscale>
<asrwt>0</asrwt>
<pdfrwt beam="1">  1        2 0.12058367E+00 0.68332903E+03</pdfrwt>
<pdfrwt beam="2">  1       -2 0.68916066E-01 0.68332903E+03</pdfrwt>
<totfact> 0.69315511E+01</totfact>
</mgrwt>
</event>
<event>
 4    2  0.3747163E-007  0.8406749E+03  0.7818608E-02  0.9628909E-01
          2   -1    0    0  501    0  0.00000000000E+00  0.00000000000E+00  0.13296422798E+04  0.13296422799E+04  0.25500000000E-02 0. -1.
         -2   -1    0    0    0  501 -0.00000000000E+00 -0.00000000000E+00 -0.70087339427E+03  0.70087339428E+03  0.25500000000E-02 0.  1.
    8880023    1    1    2    0    0 -0.48289434911E+03  0.19934174426E+03  0.10479458332E+04  0.13434748822E+04  0.65864270000E+03 0. -1.
    8880022    1    1    2    0    0  0.48289434911E+03 -0.19934174426E+03 -0.41917694762E+03  0.68704079197E+03  0.15294330000E+03 0.  0.
<mgrwt>
<rscale>  0 0.75411990E+03</rscale>
<asrwt>0</asrwt>
<pdfrwt beam="1">  1        2 0.20456035E+00 0.84067490E+03</pdfrwt>
<pdfrwt beam="2">  1       -2 0.10782668E+00 0.84067490E+03</pdfrwt>
<totfact> 0.11070112E+01</totfact>
</mgrwt>
</event>
<event>
 4    2  0.3747163E-007  0.6694316E+03  0.7818608E-02  0.1016074E+00
         -2   -1    0    0    0  501 -0.00000000000E+00  0.00000000000E+00  0.94869903076E+03  0.94869903076E+03  0.25500000000E-02 0.  1.
          2   -1    0    0  501    0  0.00000000000E+00 -0.00000000000E+00 -0.50539192995E+03  0.50539192996E+03  0.25500000000E-02 0. -1.
    8880023    1    1    2    0    0 -0.97718506545E+02  0.69134774412E+02 -0.26474823182E+03  0.71988218208E+03  0.65864270000E+03 0. -1.
    8880022    1    1    2    0    0  0.97718506545E+02 -0.69134774412E+02  0.70805533263E+03  0.73420877864E+03  0.15294330000E+03 0.  0.
<mgrwt>
<rscale>  0 0.49130524E+03</rscale>
<asrwt>0</asrwt>
<pdfrwt beam="1">  1        2 0.77752605E-01 0.66943165E+03</pdfrwt>
<pdfrwt beam="2">  1       -2 0.14595370E+00 0.66943165E+03</pdfrwt>
<totfact> 0.19997939E+01</totfact>
</mgrwt>
</event>
<event>
 4    2  0.3747163E-007  0.9313576E+03  0.7818608E-02  0.9477460E-01
         -2   -1    0    0    0  501 -0.00000000000E+00  0.00000000000E+00  0.42840516745E+03  0.42840516746E+03  0.25500000000E-02 0.  1.
          2   -1    0    0  501    0  0.00000000000E+00 -0.00000000000E+00 -0.15645001234E+04  0.15645001235E+04  0.25500000000E-02 0. -1.
    8880023    1    1    2    0    0 -0.14739973921E+03  0.64178661948E+03 -0.84250170343E+03  0.12558805973E+04  0.65864270000E+03 0. -1.
    8880022    1    1    2    0    0  0.14739973921E+03 -0.64178661948E+03 -0.29359325257E+03  0.73702469364E+03  0.15294330000E+03 0.  1.
<mgrwt>
<rscale>  0 0.85966227E+03</rscale>
<asrwt>0</asrwt>
<pdfrwt beam="1">  1        2 0.24069232E+00 0.93135759E+03</pdfrwt>
<pdfrwt beam="2">  1       -2 0.65908488E-01 0.93135759E+03</pdfrwt>
<totfact> 0.24861720E+01</totfact>
</mgrwt>
</event>
<event>
 4    2  0.3747163E-007  0.6752751E+03  0.7818608E-02  0.1012133E+00
          2   -1    0    0  501    0  0.00000000000E+00  0.00000000000E+00  0.19719225005E+04  0.19719225005E+04  0.25500000000E-02 0. -1.
         -2   -1    0    0    0  501 -0.00000000000E+00 -0.00000000000E+00 -0.10063645256E+03  0.10063645259E+03  0.25500000000E-02 0.  1.
    8880023    1    1    2    0    0  0.11610186913E+03 -0.93309256782E+02  0.13573983298E+04  0.15160892762E+04  0.65864270000E+03 0. -1.
    8880022    1    1    2    0    0 -0.11610186913E+03  0.93309256782E+02  0.51388771806E+03  0.55646967680E+03  0.15294330000E+03 0.  1.
<mgrwt>
<rscale>  0 0.50635472E+03</rscale>
<asrwt>0</asrwt>
<pdfrwt beam="1">  1        2 0.30337270E+00 0.67527511E+03</pdfrwt>
<pdfrwt beam="2">  1       -2 0.15482531E-01 0.67527511E+03</pdfrwt>
<totfact> 0.23683712E+02</totfact>
</mgrwt>
</event>
<event>
 4    2  0.3747163E-007  0.7633669E+03  0.7818608E-02  0.9796468E-01
         -2   -1    0    0    0  501 -0.00000000000E+00  0.00000000000E+00  0.78660132908E+03  0.78660132908E+03  0.25500000000E-02 0.  1.
          2   -1    0    0  501    0  0.00000000000E+00 -0.00000000000E+00 -0.19465473395E+04  0.19465473395E+04  0.25500000000E-02 0. -1.
    8880023    1    1    2    0    0 -0.29827267284E+03  0.24485149047E+03 -0.18085675698E+04  0.19630704777E+04  0.65864270000E+03 0. -1.
    8880022    1    1    2    0    0  0.29827267284E+03 -0.24485149047E+03  0.64862155937E+03  0.77007819086E+03  0.15294330000E+03 0.  0.
<mgrwt>
<rscale>  0 0.65552456E+03</rscale>
<asrwt>0</asrwt>
<pdfrwt beam="1">  1        2 0.29946882E+00 0.76336691E+03</pdfrwt>
<pdfrwt beam="2">  1       -2 0.12101559E+00 0.76336691E+03</pdfrwt>
<totfact> 0.38422550E+00</totfact>
</mgrwt>
</event>
<event>
 4    2  0.3747163E-007  0.8758956E+03  0.7818608E-02  0.9565891E-01
          2   -1    0    0  501    0  0.00000000000E+00  0.00000000000E+00  0.40010342248E+03  0.40010342249E+03  0.25500000000E-02 0. -1.
         -2   -1    0    0    0  501 -0.00000000000E+00 -0.00000000000E+00 -0.15761962715E+04  0.15761962715E+04  0.25500000000E-02 0.  1.
    8880023    1    1    2    0    0 -0.11301826711E+03  0.56622418433E+03 -0.32019397022E+03  0.93258637158E+03  0.65864270000E+03 0.  0.
    8880022    1    1    2    0    0  0.11301826711E+03 -0.56622418433E+03 -0.85589887879E+03  0.10437133224E+04  0.15294330000E+03 0.  0.
<mgrwt>
<rscale>  0 0.79595500E+03</rscale>
<asrwt>0</asrwt>
<pdfrwt beam="1">  1        2 0.61554373E-01 0.87589563E+03</pdfrwt>
<pdfrwt beam="2">  1       -2 0.24249173E+00 0.87589563E+03</pdfrwt>
<totfact> 0.57534306E+00</totfact>
</mgrwt>
</event>
<event>
 4    2  0.3747163E-007  0.6665599E+03  0.7818608E-02  0.1018259E+00
          2   -1    0    0  501    0  0.00000000000E+00  0.00000000000E+00  0.22915699265E+04  0.22915699265E+04  0.25500000000E-02 0. -1.
         -2   -1    0    0    0  501 -0.00000000000E+00 -0.00000000000E+00 -0.48720291652E+03  0.48720291653E+03  0.25500000000E-02 0.  1.
    8880023    1    1    2    0    0 -0.50058914473E+02  0.89364398226E+02  0.22233604692E+04  0.23211277157E+04  0.65864270000E+03 0. -1.
    8880022    1    1    2    0    0  0.50058914473E+02 -0.89364398226E+02 -0.41899345925E+03  0.45764512725E+03  0.15294330000E+03 0.  0.
<mgrwt>
<rscale>  0 0.48320118E+03</rscale>
<asrwt>0</asrwt>
<pdfrwt beam="1">  1        2 0.35254922E+00 0.66655990E+03</pdfrwt>
<pdfrwt beam="2">  1       -2 0.74954295E-01 0.66655990E+03</pdfrwt>
<totfact> 0.77599570E+00</totfact>
</mgrwt>
</event>
<event>
 4    2  0.3747163E-007  0.1255230E+04  0.7818608E-02  0.9105219E-01
         -2   -1    0    0    0  501 -0.00000000000E+00  0.00000000000E+00  0.64666558614E+03  0.64666558615E+03  0.25500000000E-02 0.  1.
          2   -1    0    0  501    0  0.00000000000E+00 -0.00000000000E+00 -0.28982542388E+04  0.28982542388E+04  0.25500000000E-02 0. -1.
    8880023    1    1    2    0    0  0.26274647105E+03 -0.10357399698E+04 -0.21115039824E+04  0.24564307984E+04  0.65864270000E+03 0.  0.
    8880022    1    1    2    0    0 -0.26274647105E+03  0.10357399698E+04 -0.14008467024E+03  0.10884890266E+04  0.15294330000E+03 0.  0.
<mgrwt>
<rscale>  0 0.12087651E+04</rscale>
<asrwt>0</asrwt>
<pdfrwt beam="1">  1        2 0.44588526E+00 0.12552303E+04</pdfrwt>
<pdfrwt beam="2">  1       -2 0.99487015E-01 0.12552303E+04</pdfrwt>
<totfact> 0.16538554E+00</totfact>
</mgrwt>
</event>
<event>
 4    2  0.3747163E-007  0.6759988E+03  0.7818608E-02  0.1011684E+00
          2   -1    0    0  501    0  0.00000000000E+00  0.00000000000E+00  0.92150026439E+03  0.92150026439E+03  0.25500000000E-02 0. -1.
         -2   -1    0    0    0  501 -0.00000000000E+00 -0.00000000000E+00 -0.41301445710E+03  0.41301445711E+03  0.25500000000E-02 0.  1.
    8880023    1    1    2    0    0 -0.38314583961E+02 -0.14729628688E+03  0.75064802317E+03  0.10101717005E+04  0.65864270000E+03 0. -1.
    8880022    1    1    2    0    0  0.38314583961E+02  0.14729628688E+03 -0.24216221589E+03  0.32434302103E+03  0.15294330000E+03 0.  0.
<mgrwt>
<rscale>  0 0.50810825E+03</rscale>
<asrwt>0</asrwt>
<pdfrwt beam="1">  1        2 0.14176927E+00 0.67599882E+03</pdfrwt>
<pdfrwt beam="2">  1       -2 0.63540686E-01 0.67599882E+03</pdfrwt>
<totfact> 0.66335243E+01</totfact>
</mgrwt>
</event>
<event>
 4    2  0.3747163E-007  0.1364912E+04  0.7818608E-02  0.9011438E-01
         -2   -1    0    0    0  501 -0.00000000000E+00  0.00000000000E+00  0.20465463930E+04  0.20465463930E+04  0.25500000000E-02 0.  1.
          2   -1    0    0  501    0  0.00000000000E+00 -0.00000000000E+00 -0.14686069045E+04  0.14686069045E+04  0.25500000000E-02 0. -1.
    8880023    1    1    2    0    0 -0.45931114482E+03 -0.11037239910E+04 -0.87965747052E+03  0.16238167531E+04  0.65864270000E+03 0.  0.
    8880022    1    1    2    0    0  0.45931114482E+03  0.11037239910E+04  0.14575969591E+04  0.18913365444E+04  0.15294330000E+03 0.  0.
<mgrwt>
<rscale>  0 0.13231081E+04</rscale>
<asrwt>0</asrwt>
<pdfrwt beam="1">  1        2 0.22593953E+00 0.13649116E+04</pdfrwt>
<pdfrwt beam="2">  1       -2 0.31485329E+00 0.13649116E+04</pdfrwt>
<totfact> 0.32581066E-01</totfact>
</mgrwt>
</event>
<event>
 4    2  0.3747163E-007  0.7096658E+03  0.7818608E-02  0.9959244E-01
         -2   -1    0    0    0  501 -0.00000000000E+00  0.00000000000E+00  0.27198378476E+03  0.27198378477E+03  0.25500000000E-02 0.  1.
          2   -1    0    0  501    0  0.00000000000E+00 -0.00000000000E+00 -0.28830431915E+04  0.28830431915E+04  0.25500000000E-02 0. -1.
    8880023    1    1    2    0    0  0.21444345168E+03 -0.15436757025E+03 -0.27349696098E+04  0.28255414195E+04  0.65864270000E+03 0. -1.
    8880022    1    1    2    0    0 -0.21444345168E+03  0.15436757025E+03  0.12391020301E+03  0.32948555679E+03  0.15294330000E+03 0.  0.
<mgrwt>
<rscale>  0 0.57474006E+03</rscale>
<asrwt>0</asrwt>
<pdfrwt beam="1">  1        2 0.44354509E+00 0.70966580E+03</pdfrwt>
<pdfrwt beam="2">  1       -2 0.41843661E-01 0.70966580E+03</pdfrwt>
<totfact> 0.11878009E+01</totfact>
</mgrwt>
</event>
<event>
 4    2  0.3747163E-007  0.7235930E+03  0.7818608E-02  0.9910611E-01
          2   -1    0    0  501    0  0.00000000000E+00  0.00000000000E+00  0.22009999776E+04  0.22009999776E+04  0.25500000000E-02 0. -1.
         -2   -1    0    0    0  501 -0.00000000000E+00 -0.00000000000E+00 -0.23279888820E+03  0.23279888821E+03  0.25500000000E-02 0.  1.
    8880023    1    1    2    0    0 -0.26835392006E+03 -0.13327704724E+03  0.19686222531E+04  0.20973937111E+04  0.65864270000E+03 0. -1.
    8880022    1    1    2    0    0  0.26835392006E+03  0.13327704724E+03 -0.42116366929E+00  0.33640515473E+03  0.15294330000E+03 0.  0.
<mgrwt>
<rscale>  0 0.59749783E+03</rscale>
<asrwt>0</asrwt>
<pdfrwt beam="1">  1        2 0.33861539E+00 0.72359298E+03</pdfrwt>
<pdfrwt beam="2">  1       -2 0.35815213E-01 0.72359298E+03</pdfrwt>
<totfact> 0.39266697E+01</totfact>
</mgrwt>
</event>
<event>
 4    2  0.3747163E-007  0.7263998E+03  0.7818608E-02  0.9901497E-01
         -2   -1    0    0    0  501 -0.00000000000E+00  0.00000000000E+00  0.31757729344E+03  0.31757729345E+03  0.25500000000E-02 0.  1.
          2   -1    0    0  501    0  0.00000000000E+00 -0.00000000000E+00 -0.13561835353E+04  0.13561835353E+04  0.25500000000E-02 0. -1.
    8880023    1    1    2    0    0  0.30299935496E+03  0.45143325809E+02 -0.11075299288E+04  0.13244920832E+04  0.65864270000E+03 0. -1.
    8880022    1    1    2    0    0 -0.30299935496E+03 -0.45143325809E+02  0.68923686966E+02  0.34926874554E+03  0.15294330000E+03 0.  0.
<mgrwt>
<rscale>  0 0.60188766E+03</rscale>
<asrwt>0</asrwt>
<pdfrwt beam="1">  1        2 0.20864362E+00 0.72639985E+03</pdfrwt>
<pdfrwt beam="2">  1       -2 0.48858046E-01 0.72639985E+03</pdfrwt>
<totfact> 0.62123761E+01</totfact>
</mgrwt>
</event>
<event>
 4    2  0.3747163E-007  0.6991780E+03  0.7818608E-02  0.1000063E+00
          2   -1    0    0  501    0  0.00000000000E+00  0.00000000000E+00  0.46395028288E+03  0.46395028288E+03  0.25500000000E-02 0. -1.
         -2   -1    0    0    0  501 -0.00000000000E+00 -0.00000000000E+00 -0.89625826052E+03  0.89625826052E+03  0.25500000000E-02 0.  1.
    8880023    1    1    2    0    0 -0.19193384066E+03 -0.13491147226E+03  0.14907044969E+03  0.71489293588E+03  0.65864270000E+03 0.  0.
    8880022    1    1    2    0    0  0.19193384066E+03  0.13491147226E+03 -0.58137842733E+03  0.64531560753E+03  0.15294330000E+03 0.  0.
<mgrwt>
<rscale>  0 0.55622697E+03</rscale>
<asrwt>0</asrwt>
<pdfrwt beam="1">  1        2 0.71376967E-01 0.69917803E+03</pdfrwt>
<pdfrwt beam="2">  1       -2 0.13788589E+00 0.69917803E+03</pdfrwt>
<totfact> 0.25513822E+01</totfact>
</mgrwt>
</event>
<event>
 4    2  0.6120275E-007  0.7500190E+03  0.7818608E-02  0.9831668E-01
         -2   -1    0    0    0  501 -0.00000000000E+00  0.00000000000E+00  0.11339867601E+04  0.11339867601E+04  0.25500000000E-02 0.  1.
          2   -1    0    0  501    0  0.00000000000E+00 -0.00000000000E+00 -0.19311839800E+04  0.19311839800E+04  0.25500000000E-02 0. -1.
    8880023    1    1    2    0    0  0.35419181701E+03 -0.57153316880E+02 -0.18211013540E+04  0.19695021434E+04  0.65864270000E+03 0. -1.
    8880022    1    1    2    0    0 -0.35419181701E+03  0.57153316880E+02  0.10239041342E+04  0.10956685967E+04  0.15294330000E+03 0.  0.
<mgrwt>
<rscale>  0 0.63690394E+03</rscale>
<asrwt>0</asrwt>
<pdfrwt beam="1">  1        2 0.29710523E+00 0.75001903E+03</pdfrwt>
<pdfrwt beam="2">  1       -2 0.17445950E+00 0.75001903E+03</pdfrwt>
<totfact> 0.15019528E+00</totfact>
</mgrwt>
</event>
<event>
 4    2  0.3747163E-007  0.6981630E+03  0.7818608E-02  0.1000491E+00
         -2   -1    0    0    0  501 -0.00000000000E+00  0.00000000000E+00  0.38565916305E+03  0.38565916306E+03  0.25500000000E-02 0.  1.
          2   -1    0    0  501    0  0.00000000000E+00 -0.00000000000E+00 -0.10417284781E+04  0.10417284781E+04  0.25500000000E-02 0. -1.
    8880023    1    1    2    0    0 -0.13898818417E+03 -0.18521242857E+03 -0.84165926705E+03  0.10935364133E+04  0.65864270000E+03 0. -1.
    8880022    1    1    2    0    0  0.13898818417E+03  0.18521242857E+03  0.18558995204E+03  0.33385122787E+03  0.15294330000E+03 0.  0.
<mgrwt>
<rscale>  0 0.55435521E+03</rscale>
<asrwt>0</asrwt>
<pdfrwt beam="1">  1        2 0.16026592E+00 0.69816299E+03</pdfrwt>
<pdfrwt beam="2">  1       -2 0.59332180E-01 0.69816299E+03</pdfrwt>
<totfact> 0.64081034E+01</totfact>
</mgrwt>
</event>
<event>
 4    2  0.3747163E-007  0.1291335E+04  0.7818608E-02  0.9073079E-01
         -2   -1    0    0    0  501 -0.00000000000E+00  0.00000000000E+00  0.43080714492E+04  0.43080714492E+04  0.25500000000E-02 0.  1.
          2   -1    0    0  501    0  0.00000000000E+00 -0.00000000000E+00 -0.10343580488E+04  0.10343580488E+04  0.25500000000E-02 0. -1.
    8880023    1    1    2    0    0 -0.11057858575E+04 -0.10475853299E+03 -0.51579090887E+03  0.13905348542E+04  0.65864270000E+03 0.  0.
    8880022    1    1    2    0    0  0.11057858575E+04  0.10475853299E+03  0.37895043093E+04  0.39518946438E+04  0.15294330000E+03 0.  0.
<mgrwt>
<rscale>  0 0.12465271E+04</rscale>
<asrwt>0</asrwt>
<pdfrwt beam="1">  1        2 0.15913201E+00 0.12913353E+04</pdfrwt>
<pdfrwt beam="2">  1       -2 0.66278023E+00 0.12913353E+04</pdfrwt>
<totfact> 0.69062789E-03</totfact>
</mgrwt>
</event>
<event>
 4    2  0.3747163E-007  0.7078996E+03  0.7818608E-02  0.9965885E-01
         -2   -1    0    0    0  501 -0.00000000000E+00  0.00000000000E+00  0.40474351483E+03  0.40474351484E+03  0.25500000000E-02 0.  1.
          2   -1    0    0  501    0  0.00000000000E+00 -0.00000000000E+00 -0.72433680858E+03  0.72433680859E+03  0.25500000000E-02 0. -1.
    8880023    1    1    2    0    0 -0.38214891587E+01 -0.25941669707E+03 -0.40560903438E+03  0.81586795594E+03  0.65864270000E+03 0. -1.
    8880022    1    1    2    0    0  0.38214891587E+01  0.25941669707E+03  0.86015740623E+02  0.31321236749E+03  0.15294330000E+03 0.  0.
<mgrwt>
<rscale>  0 0.57171768E+03</rscale>
<asrwt>0</asrwt>
<pdfrwt beam="1">  1        2 0.11143643E+00 0.70789959E+03</pdfrwt>
<pdfrwt beam="2">  1       -2 0.62268233E-01 0.70789959E+03</pdfrwt>
<totfact> 0.95283367E+01</totfact>
</mgrwt>
</event>
<event>
 4    2  0.3747163E-007  0.1545582E+04  0.7818608E-02  0.8878102E-01
          2   -1    0    0  501    0  0.00000000000E+00  0.00000000000E+00  0.15018282137E+04  0.15018282137E+04  0.25500000000E-02 0. -1.
         -2   -1    0    0    0  501 -0.00000000000E+00 -0.00000000000E+00 -0.14878241184E+04  0.14878241184E+04  0.25500000000E-02 0.  1.
    8880023    1    1    2    0    0 -0.13867418184E+04  0.17877810780E+03 -0.22837448551E+03  0.15623634643E+04  0.65864270000E+03 0.  1.
    8880022    1    1    2    0    0  0.13867418184E+04 -0.17877810780E+03  0.24237858079E+03  0.14272888678E+04  0.15294330000E+03 0. -1.
<mgrwt>
<rscale>  0 0.15095884E+04</rscale>
<asrwt>0</asrwt>
<pdfrwt beam="1">  1        2 0.23105049E+00 0.15455823E+04</pdfrwt>
<pdfrwt beam="2">  1       -2 0.22889602E+00 0.15455823E+04</pdfrwt>
<totfact> 0.10307793E+00</totfact>
</mgrwt>
</event>
<event>
 4    2  0.3747163E-007  0.8801711E+03  0.7818608E-02  0.9558644E-01
          2   -1    0    0  501    0  0.00000000000E+00  0.00000000000E+00  0.69795006062E+03  0.69795006063E+03  0.25500000000E-02 0. -1.
         -2   -1    0    0    0  501 -0.00000000000E+00 -0.00000000000E+00 -0.79163577617E+03  0.79163577617E+03  0.25500000000E-02 0.  1.
    8880023    1    1    2    0    0  0.12932712017E+02  0.58371549209E+03 -0.10128520407E+03  0.88597964400E+03  0.65864270000E+03 0.  1.
    8880022    1    1    2    0    0 -0.12932712017E+02 -0.58371549209E+03  0.75994885274E+01  0.60360619280E+03  0.15294330000E+03 0. -1.
<mgrwt>
<rscale>  0 0.80094955E+03</rscale>
<asrwt>0</asrwt>
<pdfrwt beam="1">  1        2 0.10737693E+00 0.88017114E+03</pdfrwt>
<pdfrwt beam="2">  1       -2 0.12179012E+00 0.88017114E+03</pdfrwt>
<totfact> 0.21101797E+01</totfact>
</mgrwt>
</event>
<event>
 4    2  0.3747163E-007  0.7910167E+03  0.7818608E-02  0.9730567E-01
         -2   -1    0    0    0  501 -0.00000000000E+00  0.00000000000E+00  0.96454456070E+03  0.96454456070E+03  0.25500000000E-02 0.  1.
          2   -1    0    0  501    0  0.00000000000E+00 -0.00000000000E+00 -0.67869578692E+03  0.67869578692E+03  0.25500000000E-02 0. -1.
    8880023    1    1    2    0    0 -0.16673905232E+03 -0.40508673404E+03 -0.34263473361E+03  0.86203592768E+03  0.65864270000E+03 0. -1.
    8880022    1    1    2    0    0  0.16673905232E+03  0.40508673404E+03  0.62848350739E+03  0.78120441995E+03  0.15294330000E+03 0.  0.
<mgrwt>
<rscale>  0 0.69225630E+03</rscale>
<asrwt>0</asrwt>
<pdfrwt beam="1">  1        2 0.10441474E+00 0.79101667E+03</pdfrwt>
<pdfrwt beam="2">  1       -2 0.14839147E+00 0.79101667E+03</pdfrwt>
<totfact> 0.13276724E+01</totfact>
</mgrwt>
</event>
<event>
 4    2  0.3747163E-007  0.1145185E+04  0.7818608E-02  0.9212341E-01
         -2   -1    0    0    0  501 -0.00000000000E+00  0.00000000000E+00  0.91020018940E+03  0.91020018941E+03  0.25500000000E-02 0.  1.
          2   -1    0    0  501    0  0.00000000000E+00 -0.00000000000E+00 -0.16646000309E+04  0.16646000309E+04  0.25500000000E-02 0. -1.
    8880023    1    1    2    0    0  0.92341941441E+03  0.15790916876E+03 -0.10771898406E+04  0.15721917438E+04  0.65864270000E+03 0. -1.
    8880022    1    1    2    0    0 -0.92341941441E+03 -0.15790916876E+03  0.32278999911E+03  0.10026084764E+04  0.15294330000E+03 0.  0.
<mgrwt>
<rscale>  0 0.10926956E+04</rscale>
<asrwt>0</asrwt>
<pdfrwt beam="1">  1        2 0.25609231E+00 0.11451851E+04</pdfrwt>
<pdfrwt beam="2">  1       -2 0.14003080E+00 0.11451851E+04</pdfrwt>
<totfact> 0.36040878E+00</totfact>
</mgrwt>
</event>
<event>
 4    2  0.3747163E-007  0.7417416E+03  0.7818608E-02  0.9854903E-01
         -2   -1    0    0    0  501 -0.00000000000E+00  0.00000000000E+00  0.26914812716E+03  0.26914812717E+03  0.25500000000E-02 0.  1.
          2   -1    0    0  501    0  0.00000000000E+00 -0.00000000000E+00 -0.20125718976E+04  0.20125718976E+04  0.25500000000E-02 0. -1.
    8880023    1    1    2    0    0  0.28211232526E+03 -0.19178905470E+03 -0.17574943754E+04  0.19076076880E+04  0.65864270000E+03 0. -1.
    8880022    1    1    2    0    0 -0.28211232526E+03  0.19178905470E+03  0.14070604967E+02  0.37411233675E+03  0.15294330000E+03 0.  0.
<mgrwt>
<rscale>  0 0.62497571E+03</rscale>
<asrwt>0</asrwt>
<pdfrwt beam="1">  1        2 0.30962644E+00 0.74174161E+03</pdfrwt>
<pdfrwt beam="2">  1       -2 0.41407406E-01 0.74174161E+03</pdfrwt>
<totfact> 0.37517565E+01</totfact>
</mgrwt>
</event>
<event>
 4    2  0.3747163E-007  0.9213609E+03  0.7818608E-02  0.9492576E-01
          2   -1    0    0  501    0  0.00000000000E+00  0.00000000000E+00  0.16221226226E+04  0.16221226226E+04  0.25500000000E-02 0. -1.
         -2   -1    0    0    0  501 -0.00000000000E+00 -0.00000000000E+00 -0.11446217136E+04  0.11446217136E+04  0.25500000000E-02 0.  1.
    8880023    1    1    2    0    0  0.60533348132E+03 -0.22060599817E+03  0.13727047808E+04  0.16532465792E+04  0.65864270000E+03 0.  0.
    8880022    1    1    2    0    0 -0.60533348132E+03  0.22060599817E+03 -0.89520387171E+03  0.11134977571E+04  0.15294330000E+03 0.  0.
<mgrwt>
<rscale>  0 0.84833414E+03</rscale>
<asrwt>0</asrwt>
<pdfrwt beam="1">  1        2 0.24955733E+00 0.92136086E+03</pdfrwt>
<pdfrwt beam="2">  1       -2 0.17609565E+00 0.92136086E+03</pdfrwt>
<totfact> 0.21010197E+00</totfact>
</mgrwt>
</event>
<event>
 4    2  0.3747163E-007  0.6962030E+03  0.7818608E-02  0.1001333E+00
          2   -1    0    0  501    0  0.00000000000E+00  0.00000000000E+00  0.15764968731E+04  0.15764968731E+04  0.25500000000E-02 0. -1.
         -2   -1    0    0    0  501 -0.00000000000E+00 -0.00000000000E+00 -0.29921122745E+03  0.29921122746E+03  0.25500000000E-02 0.  1.
    8880023    1    1    2    0    0  0.20681451365E+02 -0.22463453371E+03  0.14100418175E+04  0.15725509625E+04  0.65864270000E+03 0. -1.
    8880022    1    1    2    0    0 -0.20681451365E+02  0.22463453371E+03 -0.13275617190E+03  0.30315713806E+03  0.15294330000E+03 0.  0.
<mgrwt>
<rscale>  0 0.55069475E+03</rscale>
<asrwt>0</asrwt>
<pdfrwt beam="1">  1        2 0.24253798E+00 0.69620299E+03</pdfrwt>
<pdfrwt beam="2">  1       -2 0.46032497E-01 0.69620299E+03</pdfrwt>
<totfact> 0.52914529E+01</totfact>
</mgrwt>
</event>
<event>
 4    2  0.3747163E-007  0.9760534E+03  0.7818608E-02  0.9413580E-01
          2   -1    0    0  501    0  0.00000000000E+00  0.00000000000E+00  0.19276141061E+04  0.19276141061E+04  0.25500000000E-02 0. -1.
         -2   -1    0    0    0  501 -0.00000000000E+00 -0.00000000000E+00 -0.51561842404E+03  0.51561842405E+03  0.25500000000E-02 0.  1.
    8880023    1    1    2    0    0 -0.36334337748E+02 -0.71940939799E+03  0.14001156302E+04  0.17067524865E+04  0.65864270000E+03 0.  0.
    8880022    1    1    2    0    0  0.36334337748E+02  0.71940939799E+03  0.11880051835E+02  0.73648004363E+03  0.15294330000E+03 0.  0.
<mgrwt>
<rscale>  0 0.90966463E+03</rscale>
<asrwt>0</asrwt>
<pdfrwt beam="1">  1        2 0.29655602E+00 0.97605342E+03</pdfrwt>
<pdfrwt beam="2">  1       -2 0.79325910E-01 0.97605342E+03</pdfrwt>
<totfact> 0.10367823E+01</totfact>
</mgrwt>
</event>
<event>
 4    2  0.3747163E-007  0.1178193E+04  0.7818608E-02  0.9178617E-01
         -2   -1    0    0    0  501 -0.00000000000E+00  0.00000000000E+00  0.14470959692E+04  0.14470959692E+04  0.25500000000E-02 0.  1.
          2   -1    0    0  501    0  0.00000000000E+00 -0.00000000000E+00 -0.12117246016E+04  0.12117246016E+04  0.25500000000E-02 0. -1.
    8880023    1    1    2    0    0 -0.46574746106E+03  0.85872490247E+03 -0.63773336670E+03  0.13397175855E+04  0.65864270000E+03 0.  0.
    8880022    1    1    2    0    0  0.46574746106E+03 -0.85872490247E+03  0.87310473430E+03  0.13191029852E+04  0.15294330000E+03 0.  0.
<mgrwt>
<rscale>  0 0.11276888E+04</rscale>
<asrwt>0</asrwt>
<pdfrwt beam="1">  1        2 0.18641917E+00 0.11781933E+04</pdfrwt>
<pdfrwt beam="2">  1       -2 0.22263015E+00 0.11781933E+04</pdfrwt>
<totfact> 0.17260215E+00</totfact>
</mgrwt>
</event>
<event>
 4    2  0.3747163E-007  0.1278171E+04  0.7818608E-02  0.9084643E-01
          2   -1    0    0  501    0  0.00000000000E+00  0.00000000000E+00  0.10968555289E+04  0.10968555289E+04  0.25500000000E-02 0. -1.
         -2   -1    0    0    0  501 -0.00000000000E+00 -0.00000000000E+00 -0.25396702286E+04  0.25396702286E+04  0.25500000000E-02 0.  1.
    8880023    1    1    2    0    0  0.84929045738E+03 -0.69182179013E+03  0.52291469449E+03  0.13810002369E+04  0.65864270000E+03 0. -1.
    8880022    1    1    2    0    0 -0.84929045738E+03  0.69182179013E+03 -0.19657293941E+04  0.22555255206E+04  0.15294330000E+03 0.  1.
<mgrwt>
<rscale>  0 0.12327743E+04</rscale>
<asrwt>0</asrwt>
<pdfrwt beam="1">  1        2 0.16874701E+00 0.12781713E+04</pdfrwt>
<pdfrwt beam="2">  1       -2 0.39071850E+00 0.12781713E+04</pdfrwt>
<totfact> 0.18188901E-01</totfact>
</mgrwt>
</event>
<event>
 4    2  0.3747163E-007  0.1123870E+04  0.7818608E-02  0.9234934E-01
         -2   -1    0    0    0  501 -0.00000000000E+00  0.00000000000E+00  0.78865861823E+03  0.78865861823E+03  0.25500000000E-02 0.  1.
          2   -1    0    0  501    0  0.00000000000E+00 -0.00000000000E+00 -0.13959323650E+04  0.13959323650E+04  0.25500000000E-02 0. -1.
    8880023    1    1    2    0    0 -0.16910509449E+03 -0.89480559259E+03 -0.57069795204E+03  0.12604681433E+04  0.65864270000E+03 0.  0.
    8880022    1    1    2    0    0  0.16910509449E+03  0.89480559259E+03 -0.36575794714E+02  0.92412283993E+03  0.15294330000E+03 0.  0.
<mgrwt>
<rscale>  0 0.10700015E+04</rscale>
<asrwt>0</asrwt>
<pdfrwt beam="1">  1        2 0.21475882E+00 0.11238700E+04</pdfrwt>
<pdfrwt beam="2">  1       -2 0.12133210E+00 0.11238700E+04</pdfrwt>
<totfact> 0.73771211E+00</totfact>
</mgrwt>
</event>
<event>
 4    2  0.3747163E-007  0.8458376E+03  0.7818608E-02  0.9619270E-01
          2   -1    0    0  501    0  0.00000000000E+00  0.00000000000E+00  0.23038636047E+04  0.23038636047E+04  0.25500000000E-02 0. -1.
         -2   -1    0    0    0  501 -0.00000000000E+00 -0.00000000000E+00 -0.22829453907E+03  0.22829453909E+03  0.25500000000E-02 0.  1.
    8880023    1    1    2    0    0  0.53068582016E+03  0.18964425993E+01  0.15702901056E+04  0.17836065312E+04  0.65864270000E+03 0.  0.
    8880022    1    1    2    0    0 -0.53068582016E+03 -0.18964425993E+01  0.50527896001E+03  0.74855161255E+03  0.15294330000E+03 0.  0.
<mgrwt>
<rscale>  0 0.76033811E+03</rscale>
<asrwt>0</asrwt>
<pdfrwt beam="1">  1        2 0.35444056E+00 0.84583760E+03</pdfrwt>
<pdfrwt beam="2">  1       -2 0.35122236E-01 0.84583760E+03</pdfrwt>
<totfact> 0.35195955E+01</totfact>
</mgrwt>
</event>
