<event>
 4    5  0.6615028E-008  0.6706832E+03  0.7818608E-02  0.1015178E+00
         -2   -1    0    0    0  501 -0.00000000000E+00  0.00000000000E+00  0.79693242899E+03  0.79693242900E+03  0.25500000000E-02 0.  1.
          2   -1    0    0  501    0  0.00000000000E+00 -0.00000000000E+00 -0.76166487013E+03  0.76166487013E+03  0.25500000000E-02 0. -1.
    8880023    1    1    2    0    0  0.32519730537E+01  0.12647188362E+03 -0.59576788535E+03  0.89708154153E+03  0.65864270000E+03 0. -1.
    8880022    1    1    2    0    0 -0.32519730537E+01 -0.12647188362E+03  0.63103544422E+03  0.66151575760E+03  0.15294330000E+03 0.  0.
<mgrwt>
<rscale>  0 0.49467670E+03</rscale>
<asrwt>0</asrwt>
<pdfrwt beam="1">  1        2 0.11717921E+00 0.67068317E+03</pdfrwt>
<pdfrwt beam="2">  1       -2 0.12260499E+00 0.67068317E+03</pdfrwt>
<totfact> 0.18918121E+01</totfact>
</mgrwt>
</event>
<event>
 4    5  0.6615028E-008  0.6610543E+03  0.7818608E-02  0.1023101E+00
         -2   -1    0    0    0  501 -0.00000000000E+00  0.00000000000E+00  0.56348089256E+03  0.56348089257E+03  0.25500000000E-02 0.  1.
          2   -1    0    0  501    0  0.00000000000E+00 -0.00000000000E+00 -0.72378903727E+03  0.72378903727E+03  0.25500000000E-02 0. -1.
    8880023    1    1    2    0    0 -0.56249136982E+02  0.43070549328E+01 -0.55314496359E+03  0.86195247731E+03  0.65864270000E+03 0. -1.
    8880022    1    1    2    0    0  0.56249136982E+02 -0.43070549328E+01  0.39283681889E+03  0.42531745253E+03  0.15294330000E+03 0.  0.
<mgrwt>
<rscale>  0 0.46583840E+03</rscale>
<asrwt>0</asrwt>
<pdfrwt beam="1">  1        2 0.11135216E+00 0.66105425E+03</pdfrwt>
<pdfrwt beam="2">  1       -2 0.86689367E-01 0.66105425E+03</pdfrwt>
<totfact> 0.46162300E+01</totfact>
</mgrwt>
</event>
<event>
 4    5  0.6615028E-008  0.6790776E+03  0.7818608E-02  0.1009850E+00
         -2   -1    0    0    0  501 -0.00000000000E+00  0.00000000000E+00  0.66045730594E+03  0.66045730594E+03  0.25500000000E-02 0.  1.
          2   -1    0    0  501    0  0.00000000000E+00 -0.00000000000E+00 -0.39785042320E+03  0.39785042321E+03  0.25500000000E-02 0. -1.
    8880023    1    1    2    0    0  0.10292384076E+03 -0.12939397287E+03  0.40611101930E+03  0.79124742241E+03  0.65864270000E+03 0.  0.
    8880022    1    1    2    0    0 -0.10292384076E+03  0.12939397287E+03 -0.14350413656E+03  0.26706030674E+03  0.15294330000E+03 0.  0.
<mgrwt>
<rscale>  0 0.51534166E+03</rscale>
<asrwt>0</asrwt>
<pdfrwt beam="1">  1        2 0.61207758E-01 0.67907755E+03</pdfrwt>
<pdfrwt beam="2">  1       -2 0.10160882E+00 0.67907755E+03</pdfrwt>
<totfact> 0.64588808E+01</totfact>
</mgrwt>
</event>
<event>
 4    5  0.6615028E-008  0.1545760E+04  0.7818608E-02  0.8877981E-01
          2   -1    0    0  501    0  0.00000000000E+00  0.00000000000E+00  0.37052901098E+04  0.37052901098E+04  0.25500000000E-02 0. -1.
         -2   -1    0    0    0  501 -0.00000000000E+00 -0.00000000000E+00 -0.84528201746E+03  0.84528201746E+03  0.25500000000E-02 0.  1.
    8880023    1    1    2    0    0  0.13966572789E+04 -0.70090248694E+02  0.27307499741E+04  0.31378925770E+04  0.65864270000E+03 0.  0.
    8880022    1    1    2    0    0 -0.13966572789E+04  0.70090248694E+02  0.12925811828E+03  0.14126795503E+04  0.15294330000E+03 0.  0.
<mgrwt>
<rscale>  0 0.15097710E+04</rscale>
<asrwt>0</asrwt>
<pdfrwt beam="1">  1        2 0.57004463E+00 0.15457601E+04</pdfrwt>
<pdfrwt beam="2">  1       -2 0.13004339E+00 0.15457601E+04</pdfrwt>
<totfact> 0.23938220E-01</totfact>
</mgrwt>
</event>
<event>
 4    5  0.6615028E-008  0.8195938E+03  0.7818608E-02  0.9669929E-01
          2   -1    0    0  501    0  0.00000000000E+00  0.00000000000E+00  0.81540964401E+03  0.81540964401E+03  0.25500000000E-02 0. -1.
         -2   -1    0    0    0  501 -0.00000000000E+00 -0.00000000000E+00 -0.23096738463E+04  0.23096738463E+04  0.25500000000E-02 0.  1.
    8880023    1    1    2    0    0  0.40915359597E+03  0.26555067197E+03  0.57009752409E+03  0.99837128250E+03  0.65864270000E+03 0.  0.
    8880022    1    1    2    0    0 -0.40915359597E+03 -0.26555067197E+03 -0.20643617264E+04  0.21267122078E+04  0.15294330000E+03 0.  0.
<mgrwt>
<rscale>  0 0.72835759E+03</rscale>
<asrwt>0</asrwt>
<pdfrwt beam="1">  1        2 0.12544764E+00 0.81959382E+03</pdfrwt>
<pdfrwt beam="2">  1       -2 0.35533444E+00 0.81959382E+03</pdfrwt>
<totfact> 0.50455623E-01</totfact>
</mgrwt>
</event>
<event>
 4    5  0.6615028E-008  0.1422433E+04  0.7818608E-02  0.8966445E-01
          2   -1    0    0  501    0  0.00000000000E+00  0.00000000000E+00  0.27018941821E+04  0.27018941821E+04  0.25500000000E-02 0. -1.
         -2   -1    0    0    0  501 -0.00000000000E+00 -0.00000000000E+00 -0.11533611589E+04  0.11533611589E+04  0.25500000000E-02 0.  1.
    8880023    1    1    2    0    0 -0.11851413106E+04 -0.43005282887E+03  0.20455177798E+04  0.24914771834E+04  0.65864270000E+03 0.  0.
    8880022    1    1    2    0    0  0.11851413106E+04  0.43005282887E+03 -0.49698475666E+03  0.13637781576E+04  0.15294330000E+03 0.  0.
<mgrwt>
<rscale>  0 0.13826896E+04</rscale>
<asrwt>0</asrwt>
<pdfrwt beam="1">  1        2 0.41567603E+00 0.14224330E+04</pdfrwt>
<pdfrwt beam="2">  1       -2 0.17744018E+00 0.14224330E+04</pdfrwt>
<totfact> 0.47579609E-01</totfact>
</mgrwt>
</event>
<event>
 4    5  0.6615028E-008  0.1284570E+04  0.7818608E-02  0.9079001E-01
         -2   -1    0    0    0  501 -0.00000000000E+00  0.00000000000E+00  0.13799321146E+04  0.13799321146E+04  0.25500000000E-02 0.  1.
          2   -1    0    0  501    0  0.00000000000E+00 -0.00000000000E+00 -0.20420104769E+04  0.20420104769E+04  0.25500000000E-02 0. -1.
    8880023    1    1    2    0    0 -0.84652559801E+03  0.70689677569E+03 -0.15390034490E+04  0.20046571931E+04  0.65864270000E+03 0.  0.
    8880022    1    1    2    0    0  0.84652559801E+03 -0.70689677569E+03  0.87692508673E+03  0.14172853983E+04  0.15294330000E+03 0.  0.
<mgrwt>
<rscale>  0 0.12394608E+04</rscale>
<asrwt>0</asrwt>
<pdfrwt beam="1">  1        2 0.31415546E+00 0.12845695E+04</pdfrwt>
<pdfrwt beam="2">  1       -2 0.21229725E+00 0.12845695E+04</pdfrwt>
<totfact> 0.67362682E-01</totfact>
</mgrwt>
</event>
<event>
 4    5  0.6615028E-008  0.1701216E+04  0.7818608E-02  0.8779242E-01
          2   -1    0    0  501    0  0.00000000000E+00  0.00000000000E+00  0.20358252679E+04  0.20358252679E+04  0.25500000000E-02 0. -1.
         -2   -1    0    0    0  501 -0.00000000000E+00 -0.00000000000E+00 -0.15570213042E+04  0.15570213042E+04  0.25500000000E-02 0.  1.
    8880023    1    1    2    0    0 -0.25288242917E+03 -0.15480237733E+04  0.94927057064E+03  0.19481406388E+04  0.65864270000E+03 0.  0.
    8880022    1    1    2    0    0  0.25288242917E+03  0.15480237733E+04 -0.47046660701E+03  0.16447059333E+04  0.15294330000E+03 0.  0.
<mgrwt>
<rscale>  0 0.16690044E+04</rscale>
<asrwt>0</asrwt>
<pdfrwt beam="1">  1        2 0.31320389E+00 0.17012164E+04</pdfrwt>
<pdfrwt beam="2">  1       -2 0.23954174E+00 0.17012164E+04</pdfrwt>
<totfact> 0.43712913E-01</totfact>
</mgrwt>
</event>
<event>
 4    5  0.6615028E-008  0.7007532E+03  0.7818608E-02  0.9994091E-01
         -2   -1    0    0    0  501 -0.00000000000E+00  0.00000000000E+00  0.26126751475E+03  0.26126751477E+03  0.25500000000E-02 0.  1.
          2   -1    0    0  501    0  0.00000000000E+00 -0.00000000000E+00 -0.30370871582E+04  0.30370871582E+04  0.25500000000E-02 0. -1.
    8880023    1    1    2    0    0 -0.42203041770E+02 -0.23550754060E+03 -0.29036004559E+04  0.29869634601E+04  0.65864270000E+03 0. -1.
    8880022    1    1    2    0    0  0.42203041770E+02  0.23550754060E+03  0.12778081242E+03  0.31139121287E+03  0.15294330000E+03 0.  0.
<mgrwt>
<rscale>  0 0.55910108E+03</rscale>
<asrwt>0</asrwt>
<pdfrwt beam="1">  1        2 0.46724415E+00 0.70075324E+03</pdfrwt>
<pdfrwt beam="2">  1       -2 0.40195004E-01 0.70075324E+03</pdfrwt>
<totfact> 0.10381206E+01</totfact>
</mgrwt>
</event>
<event>
 4    5  0.6615028E-008  0.1084184E+04  0.7818608E-02  0.9278873E-01
         -2   -1    0    0    0  501 -0.00000000000E+00  0.00000000000E+00  0.10317318389E+04  0.10317318389E+04  0.25500000000E-02 0.  1.
          2   -1    0    0  501    0  0.00000000000E+00 -0.00000000000E+00 -0.20017335289E+04  0.20017335290E+04  0.25500000000E-02 0. -1.
    8880023    1    1    2    0    0  0.77268972625E+03 -0.38025568469E+03 -0.16160758544E+04  0.19460614513E+04  0.65864270000E+03 0.  0.
    8880022    1    1    2    0    0 -0.77268972625E+03  0.38025568469E+03  0.64607416436E+03  0.10874039165E+04  0.15294330000E+03 0.  0.
<mgrwt>
<rscale>  0 0.10275130E+04</rscale>
<asrwt>0</asrwt>
<pdfrwt beam="1">  1        2 0.30795900E+00 0.10841836E+04</pdfrwt>
<pdfrwt beam="2">  1       -2 0.15872798E+00 0.10841836E+04</pdfrwt>
<totfact> 0.16928601E+00</totfact>
</mgrwt>
</event>
<event>
 4    5  0.6615028E-008  0.8437052E+03  0.7818608E-02  0.9623233E-01
          2   -1    0    0  501    0  0.00000000000E+00  0.00000000000E+00  0.90138895776E+03  0.90138895777E+03  0.25500000000E-02 0. -1.
         -2   -1    0    0    0  501 -0.00000000000E+00 -0.00000000000E+00 -0.18811887812E+04  0.18811887812E+04  0.25500000000E-02 0.  1.
    8880023    1    1    2    0    0 -0.21037677716E+03 -0.48349751821E+03  0.64854733485E+03  0.10641673225E+04  0.65864270000E+03 0. -1.
    8880022    1    1    2    0    0  0.21037677716E+03  0.48349751821E+03 -0.16283471583E+04  0.17184104165E+04  0.15294330000E+03 0.  0.
<mgrwt>
<rscale>  0 0.75777370E+03</rscale>
<asrwt>0</asrwt>
<pdfrwt beam="1">  1        2 0.13867522E+00 0.84370519E+03</pdfrwt>
<pdfrwt beam="2">  1       -2 0.28941366E+00 0.84370519E+03</pdfrwt>
<totfact> 0.11072990E+00</totfact>
</mgrwt>
</event>
<event>
 4    5  0.6615028E-008  0.6870586E+03  0.7818608E-02  0.1005583E+00
          2   -1    0    0  501    0  0.00000000000E+00  0.00000000000E+00  0.15645090737E+04  0.15645090737E+04  0.25500000000E-02 0. -1.
         -2   -1    0    0    0  501 -0.00000000000E+00 -0.00000000000E+00 -0.90362116685E+03  0.90362116685E+03  0.25500000000E-02 0.  1.
    8880023    1    1    2    0    0  0.89712544545E+02 -0.17375530176E+03  0.14695448482E+04  0.16222242486E+04  0.65864270000E+03 0. -1.
    8880022    1    1    2    0    0 -0.89712544545E+02  0.17375530176E+03 -0.80865694132E+03  0.84590599200E+03  0.15294330000E+03 0.  0.
<mgrwt>
<rscale>  0 0.53268458E+03</rscale>
<asrwt>0</asrwt>
<pdfrwt beam="1">  1        2 0.24069370E+00 0.68705855E+03</pdfrwt>
<pdfrwt beam="2">  1       -2 0.13901864E+00 0.68705855E+03</pdfrwt>
<totfact> 0.44317864E+00</totfact>
</mgrwt>
</event>
<event>
 4    5  0.6615028E-008  0.7462889E+03  0.7818608E-02  0.9841992E-01
          2   -1    0    0  501    0  0.00000000000E+00  0.00000000000E+00  0.14524956521E+04  0.14524956521E+04  0.25500000000E-02 0. -1.
         -2   -1    0    0    0  501 -0.00000000000E+00 -0.00000000000E+00 -0.44698111225E+03  0.44698111226E+03  0.25500000000E-02 0.  1.
    8880023    1    1    2    0    0  0.59517888822E+02  0.34582452704E+03  0.12424040616E+04  0.14493153698E+04  0.65864270000E+03 0.  0.
    8880022    1    1    2    0    0 -0.59517888822E+02 -0.34582452704E+03 -0.23688952178E+03  0.45016139454E+03  0.15294330000E+03 0.  1.
<mgrwt>
<rscale>  0 0.63156866E+03</rscale>
<asrwt>0</asrwt>
<pdfrwt beam="1">  1        2 0.22346087E+00 0.74628894E+03</pdfrwt>
<pdfrwt beam="2">  1       -2 0.68766324E-01 0.74628894E+03</pdfrwt>
<totfact> 0.26703864E+01</totfact>
</mgrwt>
</event>
<event>
 4    5  0.6615028E-008  0.8433851E+03  0.7818608E-02  0.9623830E-01
          2   -1    0    0  501    0  0.00000000000E+00  0.00000000000E+00  0.11955271801E+04  0.11955271801E+04  0.25500000000E-02 0. -1.
         -2   -1    0    0    0  501 -0.00000000000E+00 -0.00000000000E+00 -0.66118701862E+03  0.66118701862E+03  0.25500000000E-02 0.  1.
    8880023    1    1    2    0    0  0.32215422770E+03  0.41677923045E+03  0.87156727520E+03  0.12128182035E+04  0.65864270000E+03 0. -1.
    8880022    1    1    2    0    0 -0.32215422770E+03 -0.41677923045E+03 -0.33722711373E+03  0.64389599518E+03  0.15294330000E+03 0.  0.
<mgrwt>
<rscale>  0 0.75738833E+03</rscale>
<asrwt>0</asrwt>
<pdfrwt beam="1">  1        2 0.18392726E+00 0.84338513E+03</pdfrwt>
<pdfrwt beam="2">  1       -2 0.10172108E+00 0.84338513E+03</pdfrwt>
<totfact> 0.15249170E+01</totfact>
</mgrwt>
</event>
<event>
 4    5  0.6615028E-008  0.7143942E+03  0.7818608E-02  0.9942032E-01
         -2   -1    0    0    0  501 -0.00000000000E+00  0.00000000000E+00  0.53895785313E+03  0.53895785314E+03  0.25500000000E-02 0.  1.
          2   -1    0    0  501    0  0.00000000000E+00 -0.00000000000E+00 -0.17312498781E+04  0.17312498781E+04  0.25500000000E-02 0. -1.
    8880023    1    1    2    0    0  0.11725468987E+03 -0.25059962160E+03 -0.16012035380E+04  0.17533430380E+04  0.65864270000E+03 0. -1.
    8880022    1    1    2    0    0 -0.11725468987E+03  0.25059962160E+03  0.40891151300E+03  0.51686469324E+03  0.15294330000E+03 0.  0.
<mgrwt>
<rscale>  0 0.58266792E+03</rscale>
<asrwt>0</asrwt>
<pdfrwt beam="1">  1        2 0.26634613E+00 0.71439418E+03</pdfrwt>
<pdfrwt beam="2">  1       -2 0.82916594E-01 0.71439418E+03</pdfrwt>
<totfact> 0.12423191E+01</totfact>
</mgrwt>
</event>
<event>
 4    5  0.6615028E-008  0.8427744E+03  0.7818608E-02  0.9624971E-01
         -2   -1    0    0    0  501 -0.00000000000E+00  0.00000000000E+00  0.69700451727E+03  0.69700451728E+03  0.25500000000E-02 0.  1.
          2   -1    0    0  501    0  0.00000000000E+00 -0.00000000000E+00 -0.11588808670E+04  0.11588808670E+04  0.25500000000E-02 0. -1.
    8880023    1    1    2    0    0  0.53452402153E+02 -0.52306908634E+03 -0.84041561939E+03  0.11901962225E+04  0.65864270000E+03 0. -1.
    8880022    1    1    2    0    0 -0.53452402153E+02  0.52306908634E+03  0.37853926971E+03  0.66568916178E+03  0.15294330000E+03 0.  0.
<mgrwt>
<rscale>  0 0.75665257E+03</rscale>
<asrwt>0</asrwt>
<pdfrwt beam="1">  1        2 0.17828936E+00 0.84277437E+03</pdfrwt>
<pdfrwt beam="2">  1       -2 0.10723146E+00 0.84277437E+03</pdfrwt>
<totfact> 0.14131127E+01</totfact>
</mgrwt>
</event>
<event>
 4    5  0.6615028E-008  0.8231822E+03  0.7818608E-02  0.9662746E-01
         -2   -1    0    0    0  501 -0.00000000000E+00  0.00000000000E+00  0.64657406523E+03  0.64657406523E+03  0.25500000000E-02 0.  1.
          2   -1    0    0  501    0  0.00000000000E+00 -0.00000000000E+00 -0.86905369943E+03  0.86905369943E+03  0.25500000000E-02 0. -1.
    8880023    1    1    2    0    0 -0.47591045000E+03 -0.13163568177E+03  0.20102389136E+03  0.84737212622E+03  0.65864270000E+03 0.  0.
    8880022    1    1    2    0    0  0.47591045000E+03  0.13163568177E+03 -0.42350352557E+03  0.66825563845E+03  0.15294330000E+03 0.  0.
<mgrwt>
<rscale>  0 0.73278848E+03</rscale>
<asrwt>0</asrwt>
<pdfrwt beam="1">  1        2 0.13370057E+00 0.82318219E+03</pdfrwt>
<pdfrwt beam="2">  1       -2 0.99472933E-01 0.82318219E+03</pdfrwt>
<totfact> 0.25961861E+01</totfact>
</mgrwt>
</event>
<event>
 4    5  0.6615028E-008  0.7782957E+03  0.7818608E-02  0.9759856E-01
          2   -1    0    0  501    0  0.00000000000E+00  0.00000000000E+00  0.14702115023E+04  0.14702115023E+04  0.25500000000E-02 0. -1.
         -2   -1    0    0    0  501 -0.00000000000E+00 -0.00000000000E+00 -0.27390767158E+03  0.27390767159E+03  0.25500000000E-02 0.  1.
    8880023    1    1    2    0    0 -0.30346335057E+03  0.28256691036E+03  0.98177409907E+03  0.12528466194E+04  0.65864270000E+03 0.  0.
    8880022    1    1    2    0    0  0.30346335057E+03 -0.28256691036E+03  0.21452973163E+03  0.49127255443E+03  0.15294330000E+03 0.  0.
<mgrwt>
<rscale>  0 0.67562144E+03</rscale>
<asrwt>0</asrwt>
<pdfrwt beam="1">  1        2 0.22618639E+00 0.77829575E+03</pdfrwt>
<pdfrwt beam="2">  1       -2 0.42139641E-01 0.77829575E+03</pdfrwt>
<totfact> 0.71629821E+01</totfact>
</mgrwt>
</event>
<event>
 4    5  0.6615028E-008  0.7583581E+03  0.7818608E-02  0.9809377E-01
         -2   -1    0    0    0  501 -0.00000000000E+00  0.00000000000E+00  0.42845573818E+03  0.42845573819E+03  0.25500000000E-02 0.  1.
          2   -1    0    0  501    0  0.00000000000E+00 -0.00000000000E+00 -0.10872842183E+04  0.10872842183E+04  0.25500000000E-02 0. -1.
    8880023    1    1    2    0    0 -0.31351830374E+03  0.20737171717E+03 -0.19646539620E+02  0.75861251548E+03  0.65864270000E+03 0.  1.
    8880022    1    1    2    0    0  0.31351830374E+03 -0.20737171717E+03 -0.63918194054E+03  0.75712744105E+03  0.15294330000E+03 0.  0.
<mgrwt>
<rscale>  0 0.64861743E+03</rscale>
<asrwt>0</asrwt>
<pdfrwt beam="1">  1        2 0.16727449E+00 0.75835807E+03</pdfrwt>
<pdfrwt beam="2">  1       -2 0.65916268E-01 0.75835807E+03</pdfrwt>
<totfact> 0.47732382E+01</totfact>
</mgrwt>
</event>
<event>
 4    5  0.6615028E-008  0.6920033E+03  0.7818608E-02  0.1003215E+00
         -2   -1    0    0    0  501 -0.00000000000E+00  0.00000000000E+00  0.18206326914E+03  0.18206326915E+03  0.25500000000E-02 0.  1.
          2   -1    0    0  501    0  0.00000000000E+00 -0.00000000000E+00 -0.15795924722E+04  0.15795924722E+04  0.25500000000E-02 0. -1.
    8880023    1    1    2    0    0  0.48384935943E+02  0.20668150238E+03 -0.13173001073E+04  0.14880013859E+04  0.65864270000E+03 0. -1.
    8880022    1    1    2    0    0 -0.48384935943E+02 -0.20668150238E+03 -0.80229095791E+02  0.27365435549E+03  0.15294330000E+03 0.  0.
<mgrwt>
<rscale>  0 0.54262875E+03</rscale>
<asrwt>0</asrwt>
<pdfrwt beam="1">  1        2 0.24301422E+00 0.69200329E+03</pdfrwt>
<pdfrwt beam="2">  1       -2 0.28009735E-01 0.69200329E+03</pdfrwt>
<totfact> 0.13638016E+02</totfact>
</mgrwt>
</event>
<event>
 4    5  0.6615028E-008  0.7980586E+03  0.7818608E-02  0.9715010E-01
          2   -1    0    0  501    0  0.00000000000E+00  0.00000000000E+00  0.29677848742E+04  0.29677848742E+04  0.25500000000E-02 0. -1.
         -2   -1    0    0    0  501 -0.00000000000E+00 -0.00000000000E+00 -0.29545413606E+03  0.29545413607E+03  0.25500000000E-02 0.  1.
    8880023    1    1    2    0    0  0.26370017967E+03  0.36544422360E+03  0.26706470683E+04  0.27873380195E+04  0.65864270000E+03 0. -1.
    8880022    1    1    2    0    0 -0.26370017967E+03 -0.36544422360E+03  0.16836699080E+01  0.47590099084E+03  0.15294330000E+03 0.  0.
<mgrwt>
<rscale>  0 0.70130114E+03</rscale>
<asrwt>0</asrwt>
<pdfrwt beam="1">  1        2 0.45658231E+00 0.79805856E+03</pdfrwt>
<pdfrwt beam="2">  1       -2 0.45454481E-01 0.79805856E+03</pdfrwt>
<totfact> 0.88223309E+00</totfact>
</mgrwt>
</event>
<event>
 4    5  0.6615028E-008  0.1216882E+04  0.7818608E-02  0.9140884E-01
          2   -1    0    0  501    0  0.00000000000E+00  0.00000000000E+00  0.20720295834E+04  0.20720295834E+04  0.25500000000E-02 0. -1.
         -2   -1    0    0    0  501 -0.00000000000E+00 -0.00000000000E+00 -0.13568294783E+04  0.13568294783E+04  0.25500000000E-02 0.  1.
    8880023    1    1    2    0    0 -0.99673466198E+03 -0.23132798952E+03  0.16393389106E+04  0.20416255521E+04  0.65864270000E+03 0.  0.
    8880022    1    1    2    0    0  0.99673466198E+03  0.23132798952E+03 -0.92413880548E+03  0.13872335095E+04  0.15294330000E+03 0.  0.
<mgrwt>
<rscale>  0 0.11685006E+04</rscale>
<asrwt>0</asrwt>
<pdfrwt beam="1">  1        2 0.31877378E+00 0.12168824E+04</pdfrwt>
<pdfrwt beam="2">  1       -2 0.20874300E+00 0.12168824E+04</pdfrwt>
<totfact> 0.68912807E-01</totfact>
</mgrwt>
</event>
<event>
 4    5  0.6615028E-008  0.1168832E+04  0.7818608E-02  0.9188032E-01
         -2   -1    0    0    0  501 -0.00000000000E+00  0.00000000000E+00  0.76606628800E+03  0.76606628801E+03  0.25500000000E-02 0.  1.
          2   -1    0    0  501    0  0.00000000000E+00 -0.00000000000E+00 -0.18934440262E+04  0.18934440262E+04  0.25500000000E-02 0. -1.
    8880023    1    1    2    0    0  0.86737283251E+03 -0.42429031243E+03 -0.12050773796E+04  0.16788030250E+04  0.65864270000E+03 0.  0.
    8880022    1    1    2    0    0 -0.86737283251E+03  0.42429031243E+03  0.77699641367E+02  0.98070728920E+03  0.15294330000E+03 0.  0.
<mgrwt>
<rscale>  0 0.11177819E+04</rscale>
<asrwt>0</asrwt>
<pdfrwt beam="1">  1        2 0.29129908E+00 0.11688319E+04</pdfrwt>
<pdfrwt beam="2">  1       -2 0.11785635E+00 0.11688319E+04</pdfrwt>
<totfact> 0.41630506E+00</totfact>
</mgrwt>
</event>
<event>
 4    5  0.6615028E-008  0.7890826E+03  0.7818608E-02  0.9734919E-01
          2   -1    0    0  501    0  0.00000000000E+00  0.00000000000E+00  0.18662688259E+04  0.18662688259E+04  0.25500000000E-02 0. -1.
         -2   -1    0    0    0  501 -0.00000000000E+00 -0.00000000000E+00 -0.53337012244E+03  0.53337012245E+03  0.25500000000E-02 0.  1.
    8880023    1    1    2    0    0 -0.36153699522E+03 -0.24110599137E+03  0.16577268567E+04  0.18359492464E+04  0.65864270000E+03 0. -1.
    8880022    1    1    2    0    0  0.36153699522E+03  0.24110599137E+03 -0.32482815315E+03  0.56368970195E+03  0.15294330000E+03 0.  0.
<mgrwt>
<rscale>  0 0.68975267E+03</rscale>
<asrwt>0</asrwt>
<pdfrwt beam="1">  1        2 0.28711828E+00 0.78908257E+03</pdfrwt>
<pdfrwt beam="2">  1       -2 0.82056941E-01 0.78908257E+03</pdfrwt>
<totfact> 0.10622380E+01</totfact>
</mgrwt>
</event>
<event>
 4    5  0.6615028E-008  0.1572749E+04  0.7818608E-02  0.8859903E-01
         -2   -1    0    0    0  501 -0.00000000000E+00  0.00000000000E+00  0.16113383464E+04  0.16113383464E+04  0.25500000000E-02 0.  1.
          2   -1    0    0  501    0  0.00000000000E+00 -0.00000000000E+00 -0.23459583239E+04  0.23459583239E+04  0.25500000000E-02 0. -1.
    8880023    1    1    2    0    0 -0.58542506916E+03  0.13026922176E+04  0.87517535988E+03  0.17998532280E+04  0.65864270000E+03 0.  0.
    8880022    1    1    2    0    0  0.58542506916E+03 -0.13026922176E+04 -0.16097953374E+04  0.21574434423E+04  0.15294330000E+03 0.  0.
<mgrwt>
<rscale>  0 0.15374825E+04</rscale>
<asrwt>0</asrwt>
<pdfrwt beam="1">  1        2 0.36091666E+00 0.15727491E+04</pdfrwt>
<pdfrwt beam="2">  1       -2 0.24789821E+00 0.15727491E+04</pdfrwt>
<totfact> 0.26273400E-01</totfact>
</mgrwt>
</event>
<event>
 4    5  0.6615028E-008  0.1606126E+04  0.7818608E-02  0.8838118E-01
          2   -1    0    0  501    0  0.00000000000E+00  0.00000000000E+00  0.12567855984E+04  0.12567855984E+04  0.25500000000E-02 0. -1.
         -2   -1    0    0    0  501 -0.00000000000E+00 -0.00000000000E+00 -0.27941301281E+04  0.27941301281E+04  0.25500000000E-02 0.  1.
    8880023    1    1    2    0    0  0.14065460723E+04 -0.40921619427E+03  0.36300657720E+03  0.16466370967E+04  0.65864270000E+03 0.  0.
    8880022    1    1    2    0    0 -0.14065460723E+04  0.40921619427E+03 -0.19003511069E+04  0.24042786298E+04  0.15294330000E+03 0.  0.
<mgrwt>
<rscale>  0 0.15717108E+04</rscale>
<asrwt>0</asrwt>
<pdfrwt beam="1">  1        2 0.19335163E+00 0.16061258E+04</pdfrwt>
<pdfrwt beam="2">  1       -2 0.42986617E+00 0.16061258E+04</pdfrwt>
<totfact> 0.77160649E-02</totfact>
</mgrwt>
</event>
<event>
 4    5  0.6615028E-008  0.7143918E+03  0.7818608E-02  0.9942040E-01
         -2   -1    0    0    0  501 -0.00000000000E+00  0.00000000000E+00  0.16659555580E+04  0.16659555580E+04  0.25500000000E-02 0.  1.
          2   -1    0    0  501    0  0.00000000000E+00 -0.00000000000E+00 -0.18144398971E+04  0.18144398971E+04  0.25500000000E-02 0. -1.
    8880023    1    1    2    0    0  0.17473552428E+03 -0.21450609958E+03 -0.17278450777E+04  0.18697069794E+04  0.65864270000E+03 0.  0.
    8880022    1    1    2    0    0 -0.17473552428E+03  0.21450609958E+03  0.15793607385E+04  0.16106884757E+04  0.15294330000E+03 0.  0.
<mgrwt>
<rscale>  0 0.58266392E+03</rscale>
<asrwt>0</asrwt>
<pdfrwt beam="1">  1        2 0.27914460E+00 0.71439175E+03</pdfrwt>
<pdfrwt beam="2">  1       -2 0.25630085E+00 0.71439175E+03</pdfrwt>
<totfact> 0.52742919E-01</totfact>
</mgrwt>
</event>
<event>
 4    5  0.6615028E-008  0.1589066E+04  0.7818608E-02  0.8849176E-01
         -2   -1    0    0    0  501 -0.00000000000E+00  0.00000000000E+00  0.78437303144E+03  0.78437303145E+03  0.25500000000E-02 0.  1.
          2   -1    0    0  501    0  0.00000000000E+00 -0.00000000000E+00 -0.34576367130E+04  0.34576367130E+04  0.25500000000E-02 0. -1.
    8880023    1    1    2    0    0 -0.74836015723E+03  0.12374476303E+04 -0.57668833694E+03  0.16904730719E+04  0.65864270000E+03 0.  0.
    8880022    1    1    2    0    0  0.74836015723E+03 -0.12374476303E+04 -0.20965753446E+04  0.25515366726E+04  0.15294330000E+03 0.  0.
<mgrwt>
<rscale>  0 0.15542210E+04</rscale>
<asrwt>0</asrwt>
<pdfrwt beam="1">  1        2 0.53194410E+00 0.15890657E+04</pdfrwt>
<pdfrwt beam="2">  1       -2 0.12067278E+00 0.15890657E+04</pdfrwt>
<totfact> 0.43177547E-01</totfact>
</mgrwt>
</event>
<event>
 4    5  0.6615028E-008  0.9466019E+03  0.7818608E-02  0.9455020E-01
          2   -1    0    0  501    0  0.00000000000E+00  0.00000000000E+00  0.16418532087E+04  0.16418532087E+04  0.25500000000E-02 0. -1.
         -2   -1    0    0    0  501 -0.00000000000E+00 -0.00000000000E+00 -0.14426243943E+04  0.14426243943E+04  0.25500000000E-02 0.  1.
    8880023    1    1    2    0    0  0.62220758598E+03 -0.27404856845E+03  0.14036310378E+04  0.16929959227E+04  0.65864270000E+03 0.  0.
    8880022    1    1    2    0    0 -0.62220758598E+03  0.27404856845E+03 -0.12044022234E+04  0.13914816803E+04  0.15294330000E+03 0.  0.
<mgrwt>
<rscale>  0 0.87682806E+03</rscale>
<asrwt>0</asrwt>
<pdfrwt beam="1">  1        2 0.25259280E+00 0.94660187E+03</pdfrwt>
<pdfrwt beam="2">  1       -2 0.22194221E+00 0.94660187E+03</pdfrwt>
<totfact> 0.10196438E+00</totfact>
</mgrwt>
</event>
<event>
 4    5  0.6615028E-008  0.8618334E+03  0.7818608E-02  0.9590310E-01
          2   -1    0    0  501    0  0.00000000000E+00  0.00000000000E+00  0.13047010275E+04  0.13047010275E+04  0.25500000000E-02 0. -1.
         -2   -1    0    0    0  501 -0.00000000000E+00 -0.00000000000E+00 -0.62922543476E+03  0.62922543476E+03  0.25500000000E-02 0.  1.
    8880023    1    1    2    0    0  0.48398878587E+03  0.27331570133E+03  0.96079900910E+03  0.12906942161E+04  0.65864270000E+03 0. -1.
    8880022    1    1    2    0    0 -0.48398878587E+03 -0.27331570133E+03 -0.28532341640E+03  0.64323224608E+03  0.15294330000E+03 0.  0.
<mgrwt>
<rscale>  0 0.77940832E+03</rscale>
<asrwt>0</asrwt>
<pdfrwt beam="1">  1        2 0.20072323E+00 0.86183341E+03</pdfrwt>
<pdfrwt beam="2">  1       -2 0.96803913E-01 0.86183341E+03</pdfrwt>
<totfact> 0.14769146E+01</totfact>
</mgrwt>
</event>
<event>
 4    5  0.6615028E-008  0.7632563E+03  0.7818608E-02  0.9796749E-01
         -2   -1    0    0    0  501 -0.00000000000E+00  0.00000000000E+00  0.71594850920E+03  0.71594850921E+03  0.25500000000E-02 0.  1.
          2   -1    0    0  501    0  0.00000000000E+00 -0.00000000000E+00 -0.23172013091E+04  0.23172013091E+04  0.25500000000E-02 0. -1.
    8880023    1    1    2    0    0 -0.14775527820E+02  0.38539801684E+03 -0.21864235708E+04  0.23158169584E+04  0.65864270000E+03 0. -1.
    8880022    1    1    2    0    0  0.14775527820E+02 -0.38539801684E+03  0.58517077096E+03  0.71733285984E+03  0.15294330000E+03 0.  0.
<mgrwt>
<rscale>  0 0.65537296E+03</rscale>
<asrwt>0</asrwt>
<pdfrwt beam="1">  1        2 0.35649251E+00 0.76325628E+03</pdfrwt>
<pdfrwt beam="2">  1       -2 0.11014593E+00 0.76325628E+03</pdfrwt>
<totfact> 0.30263235E+00</totfact>
</mgrwt>
</event>
<event>
 4    5  0.6615028E-008  0.8383126E+03  0.7818608E-02  0.9633370E-01
         -2   -1    0    0    0  501 -0.00000000000E+00  0.00000000000E+00  0.18374683119E+04  0.18374683119E+04  0.25500000000E-02 0.  1.
          2   -1    0    0  501    0  0.00000000000E+00 -0.00000000000E+00 -0.60174096548E+03  0.60174096549E+03  0.25500000000E-02 0. -1.
    8880023    1    1    2    0    0 -0.44709034907E+03 -0.26280804229E+03 -0.23633420432E+03  0.87098904110E+03  0.65864270000E+03 0. -1.
    8880022    1    1    2    0    0  0.44709034907E+03  0.26280804229E+03  0.14720615507E+04  0.15682202363E+04  0.15294330000E+03 0.  0.
<mgrwt>
<rscale>  0 0.75126352E+03</rscale>
<asrwt>0</asrwt>
<pdfrwt beam="1">  1        2 0.92575534E-01 0.83831262E+03</pdfrwt>
<pdfrwt beam="2">  1       -2 0.28268743E+00 0.83831262E+03</pdfrwt>
<totfact> 0.20530023E+00</totfact>
</mgrwt>
</event>
<event>
 4    5  0.6615028E-008  0.6822906E+03  0.7818608E-02  0.1008057E+00
         -2   -1    0    0    0  501 -0.00000000000E+00  0.00000000000E+00  0.79100775613E+03  0.79100775613E+03  0.25500000000E-02 0.  1.
          2   -1    0    0  501    0  0.00000000000E+00 -0.00000000000E+00 -0.36071853184E+03  0.36071853185E+03  0.25500000000E-02 0. -1.
    8880023    1    1    2    0    0  0.17797623631E+03  0.58886305881E+01  0.24255289859E+02  0.68272156990E+03  0.65864270000E+03 0. -1.
    8880022    1    1    2    0    0 -0.17797623631E+03 -0.58886305881E+01  0.40603393443E+03  0.46900471808E+03  0.15294330000E+03 0.  0.
<mgrwt>
<rscale>  0 0.52254394E+03</rscale>
<asrwt>0</asrwt>
<pdfrwt beam="1">  1        2 0.55495159E-01 0.68229057E+03</pdfrwt>
<pdfrwt beam="2">  1       -2 0.12169350E+00 0.68229057E+03</pdfrwt>
<totfact> 0.46520151E+01</totfact>
</mgrwt>
</event>
<event>
 4    5  0.6615028E-008  0.1552017E+04  0.7818608E-02  0.8873752E-01
         -2   -1    0    0    0  501 -0.00000000000E+00  0.00000000000E+00  0.16925745699E+04  0.16925745699E+04  0.25500000000E-02 0.  1.
          2   -1    0    0  501    0  0.00000000000E+00 -0.00000000000E+00 -0.18810099669E+04  0.18810099669E+04  0.25500000000E-02 0. -1.
    8880023    1    1    2    0    0 -0.99061601212E+03  0.99680793486E+03 -0.10903560681E+04  0.18967426562E+04  0.65864270000E+03 0.  0.
    8880022    1    1    2    0    0  0.99061601212E+03 -0.99680793486E+03  0.90192067107E+03  0.16768418806E+04  0.15294330000E+03 0.  0.
<mgrwt>
<rscale>  0 0.15161981E+04</rscale>
<asrwt>0</asrwt>
<pdfrwt beam="1">  1        2 0.28938615E+00 0.15520169E+04</pdfrwt>
<pdfrwt beam="2">  1       -2 0.26039609E+00 0.15520169E+04</pdfrwt>
<totfact> 0.40259162E-01</totfact>
</mgrwt>
</event>
<event>
 4    5  0.6615028E-008  0.6629307E+03  0.7818608E-02  0.1021336E+00
          2   -1    0    0  501    0  0.00000000000E+00  0.00000000000E+00  0.10320679313E+04  0.10320679313E+04  0.25500000000E-02 0. -1.
         -2   -1    0    0    0  501 -0.00000000000E+00 -0.00000000000E+00 -0.35482411203E+03  0.35482411204E+03  0.25500000000E-02 0.  1.
    8880023    1    1    2    0    0  0.67669990212E+02 -0.32980409952E+02  0.89284172421E+03  0.11120447319E+04  0.65864270000E+03 0. -1.
    8880022    1    1    2    0    0 -0.67669990212E+02  0.32980409952E+02 -0.21559790489E+03  0.27484731148E+03  0.15294330000E+03 0.  0.
<mgrwt>
<rscale>  0 0.47207437E+03</rscale>
<asrwt>0</asrwt>
<pdfrwt beam="1">  1        2 0.15877968E+00 0.66293072E+03</pdfrwt>
<pdfrwt beam="2">  1       -2 0.54588326E-01 0.66293072E+03</pdfrwt>
<totfact> 0.77564069E+01</totfact>
</mgrwt>
</event>
<event>
 4    5  0.6615028E-008  0.7722859E+03  0.7818608E-02  0.9774280E-01
          2   -1    0    0  501    0  0.00000000000E+00  0.00000000000E+00  0.10905617543E+04  0.10905617543E+04  0.25500000000E-02 0. -1.
         -2   -1    0    0    0  501 -0.00000000000E+00 -0.00000000000E+00 -0.90348459531E+03  0.90348459531E+03  0.25500000000E-02 0.  1.
    8880023    1    1    2    0    0 -0.32011105162E+03 -0.24524327234E+03  0.88439670226E+03  0.11741307769E+04  0.65864270000E+03 0. -1.
    8880022    1    1    2    0    0  0.32011105162E+03  0.24524327234E+03 -0.69731954325E+03  0.81991557274E+03  0.15294330000E+03 0.  0.
<mgrwt>
<rscale>  0 0.66761295E+03</rscale>
<asrwt>0</asrwt>
<pdfrwt beam="1">  1        2 0.16777873E+00 0.77228593E+03</pdfrwt>
<pdfrwt beam="2">  1       -2 0.13899763E+00 0.77228593E+03</pdfrwt>
<totfact> 0.82105823E+00</totfact>
</mgrwt>
</event>
<event>
 4    5  0.6615028E-008  0.8947959E+03  0.7818608E-02  0.9534438E-01
          2   -1    0    0  501    0  0.00000000000E+00  0.00000000000E+00  0.95234708932E+03  0.95234708933E+03  0.25500000000E-02 0. -1.
         -2   -1    0    0    0  501 -0.00000000000E+00 -0.00000000000E+00 -0.91446174814E+03  0.91446174815E+03  0.25500000000E-02 0.  1.
    8880023    1    1    2    0    0  0.48651442334E+03  0.36076761586E+03  0.55749661437E+03  0.10542590944E+04  0.65864270000E+03 0.  0.
    8880022    1    1    2    0    0 -0.48651442334E+03 -0.36076761586E+03 -0.51961127319E+03  0.81254974310E+03  0.15294330000E+03 0.  0.
<mgrwt>
<rscale>  0 0.81791777E+03</rscale>
<asrwt>0</asrwt>
<pdfrwt beam="1">  1        2 0.14651494E+00 0.89479593E+03</pdfrwt>
<pdfrwt beam="2">  1       -2 0.14068642E+00 0.89479593E+03</pdfrwt>
<totfact> 0.96073731E+00</totfact>
</mgrwt>
</event>
<event>
 4    5  0.6615028E-008  0.1211085E+04  0.7818608E-02  0.9146421E-01
          2   -1    0    0  501    0  0.00000000000E+00  0.00000000000E+00  0.36395568095E+04  0.36395568095E+04  0.25500000000E-02 0. -1.
         -2   -1    0    0    0  501 -0.00000000000E+00 -0.00000000000E+00 -0.58301704239E+03  0.58301704240E+03  0.25500000000E-02 0.  1.
    8880023    1    1    2    0    0  0.77864934761E+03 -0.65316325421E+03  0.29504563460E+04  0.31893447445E+04  0.65864270000E+03 0. -1.
    8880022    1    1    2    0    0 -0.77864934761E+03  0.65316325421E+03  0.10608342111E+03  0.10332291074E+04  0.15294330000E+03 0.  1.
<mgrwt>
<rscale>  0 0.11623980E+04</rscale>
<asrwt>0</asrwt>
<pdfrwt beam="1">  1        2 0.55993180E+00 0.12110852E+04</pdfrwt>
<pdfrwt beam="2">  1       -2 0.89694932E-01 0.12110852E+04</pdfrwt>
<totfact> 0.69100250E-01</totfact>
</mgrwt>
</event>
<event>
 4    5  0.6615028E-008  0.7215612E+03  0.7818608E-02  0.9917339E-01
         -2   -1    0    0    0  501 -0.00000000000E+00  0.00000000000E+00  0.17809138089E+04  0.17809138089E+04  0.25500000000E-02 0.  1.
          2   -1    0    0  501    0  0.00000000000E+00 -0.00000000000E+00 -0.75003495782E+03  0.75003495783E+03  0.25500000000E-02 0. -1.
    8880023    1    1    2    0    0 -0.25263530607E+03 -0.15170929940E+03 -0.55523431933E+03  0.91045904083E+03  0.65864270000E+03 0. -1.
    8880022    1    1    2    0    0  0.25263530607E+03  0.15170929940E+03  0.15861131704E+04  0.16204897259E+04  0.15294330000E+03 0.  0.
<mgrwt>
<rscale>  0 0.59428300E+03</rscale>
<asrwt>0</asrwt>
<pdfrwt beam="1">  1        2 0.11539000E+00 0.72156117E+03</pdfrwt>
<pdfrwt beam="2">  1       -2 0.27398674E+00 0.72156117E+03</pdfrwt>
<totfact> 0.17903444E+00</totfact>
</mgrwt>
</event>
<event>
 4    5  0.6615028E-008  0.1007846E+04  0.7818608E-02  0.9371364E-01
          2   -1    0    0  501    0  0.00000000000E+00  0.00000000000E+00  0.14744051241E+04  0.14744051241E+04  0.25500000000E-02 0. -1.
         -2   -1    0    0    0  501 -0.00000000000E+00 -0.00000000000E+00 -0.99564956407E+03  0.99564956407E+03  0.25500000000E-02 0.  1.
    8880023    1    1    2    0    0 -0.40441195477E+03 -0.64683376915E+03  0.10871091389E+04  0.14824167566E+04  0.65864270000E+03 0. -1.
    8880022    1    1    2    0    0  0.40441195477E+03  0.64683376915E+03 -0.60835357884E+03  0.98763793162E+03  0.15294330000E+03 0.  0.
<mgrwt>
<rscale>  0 0.94470237E+03</rscale>
<asrwt>0</asrwt>
<pdfrwt beam="1">  1        2 0.22683156E+00 0.10078458E+04</pdfrwt>
<pdfrwt beam="2">  1       -2 0.15317686E+00 0.10078458E+04</pdfrwt>
<totfact> 0.36876031E+00</totfact>
</mgrwt>
</event>
<event>
 4    5  0.6615028E-008  0.7028136E+03  0.7818608E-02  0.9985724E-01
          2   -1    0    0  501    0  0.00000000000E+00  0.00000000000E+00  0.11852788608E+04  0.11852788608E+04  0.25500000000E-02 0. -1.
         -2   -1    0    0    0  501 -0.00000000000E+00 -0.00000000000E+00 -0.89200532837E+03  0.89200532837E+03  0.25500000000E-02 0.  1.
    8880023    1    1    2    0    0 -0.18615897667E+03 -0.15962950975E+03  0.10521178096E+04  0.12652663106E+04  0.65864270000E+03 0. -1.
    8880022    1    1    2    0    0  0.18615897667E+03  0.15962950975E+03 -0.75884427726E+03  0.81201787857E+03  0.15294330000E+03 0.  0.
<mgrwt>
<rscale>  0 0.56280686E+03</rscale>
<asrwt>0</asrwt>
<pdfrwt beam="1">  1        2 0.18235059E+00 0.70281360E+03</pdfrwt>
<pdfrwt beam="2">  1       -2 0.13723159E+00 0.70281360E+03</pdfrwt>
<totfact> 0.75079686E+00</totfact>
</mgrwt>
</event>
<event>
 4    5  0.6615028E-008  0.8410063E+03  0.7818608E-02  0.9628286E-01
         -2   -1    0    0    0  501 -0.00000000000E+00  0.00000000000E+00  0.41452811988E+03  0.41452811989E+03  0.25500000000E-02 0.  1.
          2   -1    0    0  501    0  0.00000000000E+00 -0.00000000000E+00 -0.13915776232E+04  0.13915776232E+04  0.25500000000E-02 0. -1.
    8880023    1    1    2    0    0  0.50218082362E+03  0.14593064372E+03 -0.93804757554E+03  0.12598510994E+04  0.65864270000E+03 0. -1.
    8880022    1    1    2    0    0 -0.50218082362E+03 -0.14593064372E+03 -0.39001927777E+02  0.54625464371E+03  0.15294330000E+03 0.  0.
<mgrwt>
<rscale>  0 0.75452000E+03</rscale>
<asrwt>0</asrwt>
<pdfrwt beam="1">  1        2 0.21408886E+00 0.84100627E+03</pdfrwt>
<pdfrwt beam="2">  1       -2 0.63773557E-01 0.84100627E+03</pdfrwt>
<totfact> 0.33671800E+01</totfact>
</mgrwt>
</event>
<event>
 4    5  0.6615028E-008  0.9581909E+03  0.7818608E-02  0.9438426E-01
         -2   -1    0    0    0  501 -0.00000000000E+00  0.00000000000E+00  0.39114889020E+03  0.39114889021E+03  0.25500000000E-02 0.  1.
          2   -1    0    0  501    0  0.00000000000E+00 -0.00000000000E+00 -0.23298254574E+04  0.23298254574E+04  0.25500000000E-02 0. -1.
    8880023    1    1    2    0    0 -0.67231974781E+03  0.17973806657E+03 -0.17314712928E+04  0.19789195689E+04  0.65864270000E+03 0.  0.
    8880022    1    1    2    0    0  0.67231974781E+03 -0.17973806657E+03 -0.20720527432E+03  0.74205477870E+03  0.15294330000E+03 0.  0.
<mgrwt>
<rscale>  0 0.88979741E+03</rscale>
<asrwt>0</asrwt>
<pdfrwt beam="1">  1        2 0.35843468E+00 0.95819091E+03</pdfrwt>
<pdfrwt beam="2">  1       -2 0.60176754E-01 0.95819091E+03</pdfrwt>
<totfact> 0.11376181E+01</totfact>
</mgrwt>
</event>
<event>
 4    5  0.6615028E-008  0.7255143E+03  0.7818608E-02  0.9904351E-01
          2   -1    0    0  501    0  0.00000000000E+00  0.00000000000E+00  0.24744279254E+03  0.24744279255E+03  0.25500000000E-02 0. -1.
         -2   -1    0    0    0  501 -0.00000000000E+00 -0.00000000000E+00 -0.11532493155E+04  0.11532493155E+04  0.25500000000E-02 0.  1.
    8880023    1    1    2    0    0  0.29547853480E+03 -0.72479271343E+02 -0.57238867077E+03  0.92412109920E+03  0.65864270000E+03 0.  0.
    8880022    1    1    2    0    0 -0.29547853480E+03  0.72479271343E+02 -0.33341785219E+03  0.47657100885E+03  0.15294330000E+03 0. -1.
<mgrwt>
<rscale>  0 0.60050895E+03</rscale>
<asrwt>0</asrwt>
<pdfrwt beam="1">  1        2 0.38068122E-01 0.72551431E+03</pdfrwt>
<pdfrwt beam="2">  1       -2 0.17742297E+00 0.72551431E+03</pdfrwt>
<totfact> 0.26123220E+01</totfact>
</mgrwt>
</event>
<event>
 4    5  0.6615028E-008  0.1604045E+04  0.7818608E-02  0.8839458E-01
          2   -1    0    0  501    0  0.00000000000E+00  0.00000000000E+00  0.23290591054E+04  0.23290591054E+04  0.25500000000E-02 0. -1.
         -2   -1    0    0    0  501 -0.00000000000E+00 -0.00000000000E+00 -0.13252141209E+04  0.13252141209E+04  0.25500000000E-02 0.  1.
    8880023    1    1    2    0    0  0.15226477095E+03 -0.14546360010E+04  0.14024097652E+04  0.21306604168E+04  0.65864270000E+03 0.  0.
    8880022    1    1    2    0    0 -0.15226477095E+03  0.14546360010E+04 -0.39856478067E+03  0.15236128095E+04  0.15294330000E+03 0.  0.
<mgrwt>
<rscale>  0 0.15695784E+04</rscale>
<asrwt>0</asrwt>
<pdfrwt beam="1">  1        2 0.35831678E+00 0.16040451E+04</pdfrwt>
<pdfrwt beam="2">  1       -2 0.20387910E+00 0.16040451E+04</pdfrwt>
<totfact> 0.50857435E-01</totfact>
</mgrwt>
</event>
<event>
 4    5  0.6615028E-008  0.9425155E+03  0.7818608E-02  0.9460965E-01
         -2   -1    0    0    0  501 -0.00000000000E+00  0.00000000000E+00  0.12129343159E+04  0.12129343159E+04  0.25500000000E-02 0.  1.
          2   -1    0    0  501    0  0.00000000000E+00 -0.00000000000E+00 -0.86316201226E+03  0.86316201227E+03  0.25500000000E-02 0. -1.
    8880023    1    1    2    0    0  0.62986884378E+03  0.24039652706E+03 -0.42830566700E+03  0.10352686614E+04  0.65864270000E+03 0.  0.
    8880022    1    1    2    0    0 -0.62986884378E+03 -0.24039652706E+03  0.77807797066E+03  0.10408276668E+04  0.15294330000E+03 0.  0.
<mgrwt>
<rscale>  0 0.87223884E+03</rscale>
<asrwt>0</asrwt>
<pdfrwt beam="1">  1        2 0.13279416E+00 0.94251549E+03</pdfrwt>
<pdfrwt beam="2">  1       -2 0.18660528E+00 0.94251549E+03</pdfrwt>
<totfact> 0.50663305E+00</totfact>
</mgrwt>
</event>
<event>
 4    5  0.6615028E-008  0.1256855E+04  0.7818608E-02  0.9103743E-01
          2   -1    0    0  501    0  0.00000000000E+00  0.00000000000E+00  0.21254305427E+04  0.21254305427E+04  0.25500000000E-02 0. -1.
         -2   -1    0    0    0  501 -0.00000000000E+00 -0.00000000000E+00 -0.12035347023E+04  0.12035347023E+04  0.25500000000E-02 0.  1.
    8880023    1    1    2    0    0  0.10664268392E+04 -0.92782810595E+02  0.16135966983E+04  0.20453311136E+04  0.65864270000E+03 0.  0.
    8880022    1    1    2    0    0 -0.10664268392E+04  0.92782810595E+02 -0.69170085794E+03  0.12836341313E+04  0.15294330000E+03 0.  0.
<mgrwt>
<rscale>  0 0.12104675E+04</rscale>
<asrwt>0</asrwt>
<pdfrwt beam="1">  1        2 0.32698931E+00 0.12568552E+04</pdfrwt>
<pdfrwt beam="2">  1       -2 0.18515919E+00 0.12568552E+04</pdfrwt>
<totfact> 0.91768314E-01</totfact>
</mgrwt>
</event>
<event>
 4    5  0.6615028E-008  0.6929053E+03  0.7818608E-02  0.1002801E+00
         -2   -1    0    0    0  501 -0.00000000000E+00  0.00000000000E+00  0.18625453674E+03  0.18625453675E+03  0.25500000000E-02 0.  1.
          2   -1    0    0  501    0  0.00000000000E+00 -0.00000000000E+00 -0.42592182098E+04  0.42592182098E+04  0.25500000000E-02 0. -1.
    8880023    1    1    2    0    0 -0.19937477840E+03 -0.80977036004E+02 -0.41195251414E+04  0.41773921505E+04  0.65864270000E+03 0. -1.
    8880022    1    1    2    0    0  0.19937477840E+03  0.80977036004E+02  0.46561468308E+02  0.26808059603E+03  0.15294330000E+03 0.  0.
<mgrwt>
<rscale>  0 0.54438848E+03</rscale>
<asrwt>0</asrwt>
<pdfrwt beam="1">  1        2 0.65526427E+00 0.69290532E+03</pdfrwt>
<pdfrwt beam="2">  1       -2 0.28654547E-01 0.69290532E+03</pdfrwt>
<totfact> 0.26172030E+00</totfact>
</mgrwt>
</event>
<event>
 4    5  0.6615028E-008  0.1008075E+04  0.7818608E-02  0.9371069E-01
         -2   -1    0    0    0  501 -0.00000000000E+00  0.00000000000E+00  0.50617893384E+03  0.50617893384E+03  0.25500000000E-02 0.  1.
          2   -1    0    0  501    0  0.00000000000E+00 -0.00000000000E+00 -0.17994225143E+04  0.17994225143E+04  0.25500000000E-02 0. -1.
    8880023    1    1    2    0    0  0.43207233298E+03 -0.62906101180E+03 -0.11225933913E+04  0.15087844067E+04  0.65864270000E+03 0. -1.
    8880022    1    1    2    0    0 -0.43207233298E+03  0.62906101180E+03 -0.17065018922E+03  0.79681704148E+03  0.15294330000E+03 0.  0.
<mgrwt>
<rscale>  0 0.94495321E+03</rscale>
<asrwt>0</asrwt>
<pdfrwt beam="1">  1        2 0.27683423E+00 0.10080746E+04</pdfrwt>
<pdfrwt beam="2">  1       -2 0.77873683E-01 0.10080746E+04</pdfrwt>
<totfact> 0.12668723E+01</totfact>
</mgrwt>
</event>
<event>
 4    5  0.6615028E-008  0.1179391E+04  0.7818608E-02  0.9177420E-01
          2   -1    0    0  501    0  0.00000000000E+00  0.00000000000E+00  0.50969023938E+03  0.50969023939E+03  0.25500000000E-02 0. -1.
         -2   -1    0    0    0  501 -0.00000000000E+00 -0.00000000000E+00 -0.31101557051E+04  0.31101557051E+04  0.25500000000E-02 0.  1.
    8880023    1    1    2    0    0 -0.19132098297E+03  0.95945292858E+03 -0.46831078992E+03  0.12689676288E+04  0.65864270000E+03 0.  0.
    8880022    1    1    2    0    0  0.19132098297E+03 -0.95945292858E+03 -0.21321546758E+04  0.23508783157E+04  0.15294330000E+03 0.  0.
<mgrwt>
<rscale>  0 0.11289557E+04</rscale>
<asrwt>0</asrwt>
<pdfrwt beam="1">  1        2 0.78413885E-01 0.11793913E+04</pdfrwt>
<pdfrwt beam="2">  1       -2 0.47848548E+00 0.11793913E+04</pdfrwt>
<totfact> 0.13494813E-01</totfact>
</mgrwt>
</event>
<event>
 4    5  0.6615028E-008  0.1320508E+04  0.7818608E-02  0.9048050E-01
         -2   -1    0    0    0  501 -0.00000000000E+00  0.00000000000E+00  0.75159234084E+03  0.75159234085E+03  0.25500000000E-02 0.  1.
          2   -1    0    0  501    0  0.00000000000E+00 -0.00000000000E+00 -0.32707405295E+04  0.32707405295E+04  0.25500000000E-02 0. -1.
    8880023    1    1    2    0    0  0.10621290125E+04  0.42639405776E+03 -0.25451762391E+04  0.28673441067E+04  0.65864270000E+03 0.  0.
    8880022    1    1    2    0    0 -0.10621290125E+04 -0.42639405776E+03  0.26028050464E+02  0.11549887637E+04  0.15294330000E+03 0.  0.
<mgrwt>
<rscale>  0 0.12769460E+04</rscale>
<asrwt>0</asrwt>
<pdfrwt beam="1">  1        2 0.50319084E+00 0.13205075E+04</pdfrwt>
<pdfrwt beam="2">  1       -2 0.11562959E+00 0.13205075E+04</pdfrwt>
<totfact> 0.66233497E-01</totfact>
</mgrwt>
</event>
<event>
 4    5  0.6615028E-008  0.6628386E+03  0.7818608E-02  0.1021420E+00
         -2   -1    0    0    0  501 -0.00000000000E+00  0.00000000000E+00  0.80694366859E+03  0.80694366859E+03  0.25500000000E-02 0.  1.
          2   -1    0    0  501    0  0.00000000000E+00 -0.00000000000E+00 -0.16600528485E+04  0.16600528485E+04  0.25500000000E-02 0. -1.
    8880023    1    1    2    0    0  0.52179303040E+02  0.53123583676E+02 -0.15837245602E+04  0.17168396790E+04  0.65864270000E+03 0. -1.
    8880022    1    1    2    0    0 -0.52179303040E+02 -0.53123583676E+02  0.73061538025E+03  0.75015683806E+03  0.15294330000E+03 0.  0.
<mgrwt>
<rscale>  0 0.47177670E+03</rscale>
<asrwt>0</asrwt>
<pdfrwt beam="1">  1        2 0.25539275E+00 0.66283859E+03</pdfrwt>
<pdfrwt beam="2">  1       -2 0.12414518E+00 0.66283859E+03</pdfrwt>
<totfact> 0.52542097E+00</totfact>
</mgrwt>
</event>
<event>
 4    5  0.6615028E-008  0.6719763E+03  0.7818608E-02  0.1014284E+00
         -2   -1    0    0    0  501 -0.00000000000E+00  0.00000000000E+00  0.70185178489E+03  0.70185178489E+03  0.25500000000E-02 0.  1.
          2   -1    0    0  501    0  0.00000000000E+00 -0.00000000000E+00 -0.57664589060E+03  0.57664589061E+03  0.25500000000E-02 0. -1.
    8880023    1    1    2    0    0 -0.11122857712E+02  0.13273389527E+03 -0.35300583772E+03  0.75905555307E+03  0.65864270000E+03 0. -1.
    8880022    1    1    2    0    0  0.11122857712E+02 -0.13273389527E+03  0.47821173200E+03  0.51944212243E+03  0.15294330000E+03 0.  0.
<mgrwt>
<rscale>  0 0.49806974E+03</rscale>
<asrwt>0</asrwt>
<pdfrwt beam="1">  1        2 0.88714753E-01 0.67197635E+03</pdfrwt>
<pdfrwt beam="2">  1       -2 0.10797720E+00 0.67197635E+03</pdfrwt>
<totfact> 0.36428613E+01</totfact>
</mgrwt>
</event>
<event>
 4    5  0.6615028E-008  0.9717811E+03  0.7818608E-02  0.9419445E-01
          2   -1    0    0  501    0  0.00000000000E+00  0.00000000000E+00  0.14216735755E+04  0.14216735755E+04  0.25500000000E-02 0. -1.
         -2   -1    0    0    0  501 -0.00000000000E+00 -0.00000000000E+00 -0.17374649664E+04  0.17374649664E+04  0.25500000000E-02 0.  1.
    8880023    1    1    2    0    0 -0.46282253103E+03  0.54437449908E+03  0.11594543903E+04  0.15128426819E+04  0.65864270000E+03 0. -1.
    8880022    1    1    2    0    0  0.46282253103E+03 -0.54437449908E+03 -0.14752457813E+04  0.16462958600E+04  0.15294330000E+03 0.  0.
<mgrwt>
<rscale>  0 0.90492562E+03</rscale>
<asrwt>0</asrwt>
<pdfrwt beam="1">  1        2 0.21871901E+00 0.97178110E+03</pdfrwt>
<pdfrwt beam="2">  1       -2 0.26730230E+00 0.97178110E+03</pdfrwt>
<totfact> 0.71108901E-01</totfact>
</mgrwt>
</event>
<event>
 4    5  0.6615028E-008  0.7359759E+03  0.7818608E-02  0.9871828E-01
          2   -1    0    0  501    0  0.00000000000E+00  0.00000000000E+00  0.85816311520E+03  0.85816311520E+03  0.25500000000E-02 0. -1.
         -2   -1    0    0    0  501 -0.00000000000E+00 -0.00000000000E+00 -0.17177048771E+04  0.17177048771E+04  0.25500000000E-02 0.  1.
    8880023    1    1    2    0    0  0.32639048006E+03  0.36325366566E+02  0.67530414323E+03  0.99884742071E+03  0.65864270000E+03 0.  0.
    8880022    1    1    2    0    0 -0.32639048006E+03 -0.36325366566E+02 -0.15348459051E+04  0.15770205716E+04  0.15294330000E+03 0.  1.
<mgrwt>
<rscale>  0 0.61646264E+03</rscale>
<asrwt>0</asrwt>
<pdfrwt beam="1">  1        2 0.13202509E+00 0.73597587E+03</pdfrwt>
<pdfrwt beam="2">  1       -2 0.26426229E+00 0.73597587E+03</pdfrwt>
<totfact> 0.17087131E+00</totfact>
</mgrwt>
</event>
<event>
 4    5  0.6615028E-008  0.8125297E+03  0.7818608E-02  0.9684331E-01
          2   -1    0    0  501    0  0.00000000000E+00  0.00000000000E+00  0.76262674905E+03  0.76262674905E+03  0.25500000000E-02 0. -1.
         -2   -1    0    0    0  501 -0.00000000000E+00 -0.00000000000E+00 -0.10546835139E+04  0.10546835140E+04  0.25500000000E-02 0.  1.
    8880023    1    1    2    0    0  0.27782903910E+03 -0.38627114371E+03  0.44528761244E+03  0.92654499917E+03  0.65864270000E+03 0.  0.
    8880022    1    1    2    0    0 -0.27782903910E+03  0.38627114371E+03 -0.73734437734E+03  0.89076526383E+03  0.15294330000E+03 0.  0.
<mgrwt>
<rscale>  0 0.71957401E+03</rscale>
<asrwt>0</asrwt>
<pdfrwt beam="1">  1        2 0.11732719E+00 0.81252974E+03</pdfrwt>
<pdfrwt beam="2">  1       -2 0.16225900E+00 0.81252974E+03</pdfrwt>
<totfact> 0.89827960E+00</totfact>
</mgrwt>
</event>
<event>
 4    5  0.6615028E-008  0.1101029E+04  0.7818608E-02  0.9259912E-01
          2   -1    0    0  501    0  0.00000000000E+00  0.00000000000E+00  0.20701633895E+04  0.20701633895E+04  0.25500000000E-02 0. -1.
         -2   -1    0    0    0  501 -0.00000000000E+00 -0.00000000000E+00 -0.10828095002E+04  0.10828095002E+04  0.25500000000E-02 0.  1.
    8880023    1    1    2    0    0 -0.77500717208E+02  0.87888987037E+03  0.16884387573E+04  0.20157106461E+04  0.65864270000E+03 0. -1.
    8880022    1    1    2    0    0  0.77500717208E+02 -0.87888987037E+03 -0.70108486809E+03  0.11372622436E+04  0.15294330000E+03 0.  0.
<mgrwt>
<rscale>  0 0.10455873E+04</rscale>
<asrwt>0</asrwt>
<pdfrwt beam="1">  1        2 0.31848667E+00 0.11010286E+04</pdfrwt>
<pdfrwt beam="2">  1       -2 0.16658608E+00 0.11010286E+04</pdfrwt>
<totfact> 0.13558111E+00</totfact>
</mgrwt>
</event>
<event>
 4    5  0.6615028E-008  0.1609327E+04  0.7818608E-02  0.8836061E-01
         -2   -1    0    0    0  501 -0.00000000000E+00  0.00000000000E+00  0.17620832472E+04  0.17620832472E+04  0.25500000000E-02 0.  1.
          2   -1    0    0  501    0  0.00000000000E+00 -0.00000000000E+00 -0.19225516707E+04  0.19225516707E+04  0.25500000000E-02 0. -1.
    8880023    1    1    2    0    0  0.65002500957E+03 -0.13166592008E+04 -0.10866516748E+04  0.19418408876E+04  0.65864270000E+03 0.  0.
    8880022    1    1    2    0    0 -0.65002500957E+03  0.13166592008E+04  0.92618325125E+03  0.17427940303E+04  0.15294330000E+03 0.  0.
<mgrwt>
<rscale>  0 0.15749917E+04</rscale>
<asrwt>0</asrwt>
<pdfrwt beam="1">  1        2 0.29577718E+00 0.16093272E+04</pdfrwt>
<pdfrwt beam="2">  1       -2 0.27108973E+00 0.16093272E+04</pdfrwt>
<totfact> 0.32634996E-01</totfact>
</mgrwt>
</event>
<event>
 4    5  0.6615028E-008  0.9758903E+03  0.7818608E-02  0.9413803E-01
          2   -1    0    0  501    0  0.00000000000E+00  0.00000000000E+00  0.32652854023E+04  0.32652854023E+04  0.25500000000E-02 0. -1.
         -2   -1    0    0    0  501 -0.00000000000E+00 -0.00000000000E+00 -0.69903447397E+03  0.69903447398E+03  0.25500000000E-02 0.  1.
    8880023    1    1    2    0    0 -0.18346618566E+03 -0.69634170774E+03  0.29689382669E+04  0.31252129934E+04  0.65864270000E+03 0. -1.
    8880022    1    1    2    0    0  0.18346618566E+03  0.69634170774E+03 -0.40268733857E+03  0.83910688287E+03  0.15294330000E+03 0.  0.
<mgrwt>
<rscale>  0 0.90948380E+03</rscale>
<asrwt>0</asrwt>
<pdfrwt beam="1">  1        2 0.50235160E+00 0.97589027E+03</pdfrwt>
<pdfrwt beam="2">  1       -2 0.10754377E+00 0.97589027E+03</pdfrwt>
<totfact> 0.83982925E-01</totfact>
</mgrwt>
</event>
<event>
 4    5  0.6615028E-008  0.6856105E+03  0.7818608E-02  0.1006313E+00
          2   -1    0    0  501    0  0.00000000000E+00  0.00000000000E+00  0.24832488174E+04  0.24832488174E+04  0.25500000000E-02 0. -1.
         -2   -1    0    0    0  501 -0.00000000000E+00 -0.00000000000E+00 -0.10238144402E+03  0.10238144405E+03  0.25500000000E-02 0.  1.
    8880023    1    1    2    0    0 -0.20780706742E+02  0.18926091378E+03  0.21208050225E+04  0.22288731864E+04  0.65864270000E+03 0. -1.
    8880022    1    1    2    0    0  0.20780706742E+02 -0.18926091378E+03  0.26006235094E+03  0.35675707512E+03  0.15294330000E+03 0.  1.
<mgrwt>
<rscale>  0 0.52966734E+03</rscale>
<asrwt>0</asrwt>
<pdfrwt beam="1">  1        2 0.38203828E+00 0.68561049E+03</pdfrwt>
<pdfrwt beam="2">  1       -2 0.15750991E-01 0.68561049E+03</pdfrwt>
<totfact> 0.12000504E+02</totfact>
</mgrwt>
</event>
<event>
 4    5  0.6615028E-008  0.2159673E+04  0.7818608E-02  0.8546002E-01
         -2   -1    0    0    0  501 -0.00000000000E+00  0.00000000000E+00  0.25364653622E+04  0.25364653622E+04  0.25500000000E-02 0.  1.
          2   -1    0    0  501    0  0.00000000000E+00 -0.00000000000E+00 -0.22669092429E+04  0.22669092429E+04  0.25500000000E-02 0. -1.
    8880023    1    1    2    0    0  0.91192650621E+03  0.18435747201E+04 -0.10016203169E+04  0.23806367146E+04  0.65864270000E+03 0.  0.
    8880022    1    1    2    0    0 -0.91192650621E+03 -0.18435747201E+04  0.12711764363E+04  0.24227378906E+04  0.15294330000E+03 0.  0.
<mgrwt>
<rscale>  0 0.21349502E+04</rscale>
<asrwt>0</asrwt>
<pdfrwt beam="1">  1        2 0.34875527E+00 0.21596731E+04</pdfrwt>
<pdfrwt beam="2">  1       -2 0.39022544E+00 0.21596731E+04</pdfrwt>
<totfact> 0.35394597E-02</totfact>
</mgrwt>
</event>
<event>
 4    5  0.6615028E-008  0.9318322E+03  0.7818608E-02  0.9476750E-01
         -2   -1    0    0    0  501 -0.00000000000E+00  0.00000000000E+00  0.82423973449E+03  0.82423973450E+03  0.25500000000E-02 0.  1.
          2   -1    0    0  501    0  0.00000000000E+00 -0.00000000000E+00 -0.14440831310E+04  0.14440831310E+04  0.25500000000E-02 0. -1.
    8880023    1    1    2    0    0  0.53445364698E+03 -0.38582425755E+03  0.42445895137E+03  0.10239514960E+04  0.65864270000E+03 0.  0.
    8880022    1    1    2    0    0 -0.53445364698E+03  0.38582425755E+03 -0.10443023479E+04  0.12443713695E+04  0.15294330000E+03 0.  0.
<mgrwt>
<rscale>  0 0.86019865E+03</rscale>
<asrwt>0</asrwt>
<pdfrwt beam="1">  1        2 0.22216664E+00 0.93183221E+03</pdfrwt>
<pdfrwt beam="2">  1       -2 0.12680611E+00 0.93183221E+03</pdfrwt>
<totfact> 0.63202957E+00</totfact>
</mgrwt>
</event>
<event>
 4    5  0.6615028E-008  0.9780085E+03  0.7818608E-02  0.9410912E-01
          2   -1    0    0  501    0  0.00000000000E+00  0.00000000000E+00  0.33378209823E+04  0.33378209823E+04  0.25500000000E-02 0. -1.
         -2   -1    0    0    0  501 -0.00000000000E+00 -0.00000000000E+00 -0.25198894529E+03  0.25198894531E+03  0.25500000000E-02 0.  1.
    8880023    1    1    2    0    0  0.48521944178E+03  0.53595951056E+03  0.11051016701E+04  0.14757203025E+04  0.65864270000E+03 0.  0.
    8880022    1    1    2    0    0 -0.48521944178E+03 -0.53595951056E+03  0.19807303669E+04  0.21140896251E+04  0.15294330000E+03 0.  0.
<mgrwt>
<rscale>  0 0.91183075E+03</rscale>
<asrwt>0</asrwt>
<pdfrwt beam="1">  1        2 0.51351090E+00 0.97800854E+03</pdfrwt>
<pdfrwt beam="2">  1       -2 0.38767532E-01 0.97800854E+03</pdfrwt>
<totfact> 0.68399455E+00</totfact>
</mgrwt>
</event>
<event>
 4    5  0.6615028E-008  0.7275959E+03  0.7818608E-02  0.9897675E-01
         -2   -1    0    0    0  501 -0.00000000000E+00  0.00000000000E+00  0.15180803245E+04  0.15180803245E+04  0.25500000000E-02 0.  1.
          2   -1    0    0  501    0  0.00000000000E+00 -0.00000000000E+00 -0.47704377440E+03  0.47704377441E+03  0.25500000000E-02 0. -1.
    8880023    1    1    2    0    0  0.28758066604E+03  0.11350288499E+03 -0.16047388559E+03  0.74508228982E+03  0.65864270000E+03 0. -1.
    8880022    1    1    2    0    0 -0.28758066604E+03 -0.11350288499E+03  0.12015104357E+04  0.12500418091E+04  0.15294330000E+03 0.  0.
<mgrwt>
<rscale>  0 0.60374095E+03</rscale>
<asrwt>0</asrwt>
<pdfrwt beam="1">  1        2 0.73391349E-01 0.72759587E+03</pdfrwt>
<pdfrwt beam="2">  1       -2 0.23355082E+00 0.72759587E+03</pdfrwt>
<totfact> 0.54324851E+00</totfact>
</mgrwt>
</event>
<event>
 4    5  0.6615028E-008  0.1064288E+04  0.7818608E-02  0.9301900E-01
         -2   -1    0    0    0  501 -0.00000000000E+00  0.00000000000E+00  0.36073090784E+03  0.36073090785E+03  0.25500000000E-02 0.  1.
          2   -1    0    0  501    0  0.00000000000E+00 -0.00000000000E+00 -0.40322525741E+04  0.40322525741E+04  0.25500000000E-02 0. -1.
    8880023    1    1    2    0    0 -0.38804485067E+00  0.83600110018E+03 -0.32964925426E+04  0.34640397341E+04  0.65864270000E+03 0.  0.
    8880022    1    1    2    0    0  0.38804485067E+00 -0.83600110018E+03 -0.37502912375E+03  0.92894374789E+03  0.15294330000E+03 0.  0.
<mgrwt>
<rscale>  0 0.10060816E+04</rscale>
<asrwt>0</asrwt>
<pdfrwt beam="1">  1        2 0.62034652E+00 0.10642876E+04</pdfrwt>
<pdfrwt beam="2">  1       -2 0.55497065E-01 0.10642876E+04</pdfrwt>
<totfact> 0.10256816E+00</totfact>
</mgrwt>
</event>
<event>
 4    5  0.6615028E-008  0.7384374E+03  0.7818608E-02  0.9864523E-01
          2   -1    0    0  501    0  0.00000000000E+00  0.00000000000E+00  0.18548877610E+04  0.18548877610E+04  0.25500000000E-02 0. -1.
         -2   -1    0    0    0  501 -0.00000000000E+00 -0.00000000000E+00 -0.33731517166E+03  0.33731517167E+03  0.25500000000E-02 0.  1.
    8880023    1    1    2    0    0  0.82989163358E+02  0.32340734770E+03  0.16452703880E+04  0.18033869163E+04  0.65864270000E+03 0. -1.
    8880022    1    1    2    0    0 -0.82989163358E+02 -0.32340734770E+03 -0.12769779871E+03  0.38881601638E+03  0.15294330000E+03 0.  0.
<mgrwt>
<rscale>  0 0.62011913E+03</rscale>
<asrwt>0</asrwt>
<pdfrwt beam="1">  1        2 0.28536735E+00 0.73843735E+03</pdfrwt>
<pdfrwt beam="2">  1       -2 0.51894642E-01 0.73843735E+03</pdfrwt>
<totfact> 0.29088839E+01</totfact>
</mgrwt>
</event>
<event>
 4    5  0.6615028E-008  0.7067340E+03  0.7818608E-02  0.9970335E-01
         -2   -1    0    0    0  501 -0.00000000000E+00  0.00000000000E+00  0.56289789238E+03  0.56289789239E+03  0.25500000000E-02 0.  1.
          2   -1    0    0  501    0  0.00000000000E+00 -0.00000000000E+00 -0.60435293970E+03  0.60435293970E+03  0.25500000000E-02 0. -1.
    8880023    1    1    2    0    0  0.23983632288E+03 -0.90229350015E+02 -0.30441205507E+03  0.76950614222E+03  0.65864270000E+03 0. -1.
    8880022    1    1    2    0    0 -0.23983632288E+03  0.90229350015E+02  0.26295700775E+03  0.39774468987E+03  0.15294330000E+03 0.  0.
<mgrwt>
<rscale>  0 0.56970360E+03</rscale>
<asrwt>0</asrwt>
<pdfrwt beam="1">  1        2 0.92977375E-01 0.70673404E+03</pdfrwt>
<pdfrwt beam="2">  1       -2 0.86599676E-01 0.70673404E+03</pdfrwt>
<totfact> 0.57633895E+01</totfact>
</mgrwt>
</event>
<event>
 4    5  0.6615028E-008  0.8740457E+03  0.7818608E-02  0.9569051E-01
         -2   -1    0    0    0  501 -0.00000000000E+00  0.00000000000E+00  0.55247124780E+03  0.55247124781E+03  0.25500000000E-02 0.  1.
          2   -1    0    0  501    0  0.00000000000E+00 -0.00000000000E+00 -0.10438181568E+04  0.10438181568E+04  0.25500000000E-02 0. -1.
    8880023    1    1    2    0    0 -0.10406948447E+03  0.56507978737E+03 -0.48932501031E+03  0.10016959597E+04  0.65864270000E+03 0.  0.
    8880022    1    1    2    0    0  0.10406948447E+03 -0.56507978737E+03 -0.20218987238E+01  0.59459344495E+03  0.15294330000E+03 0.  0.
<mgrwt>
<rscale>  0 0.79378885E+03</rscale>
<asrwt>0</asrwt>
<pdfrwt beam="1">  1        2 0.16058741E+00 0.87404567E+03</pdfrwt>
<pdfrwt beam="2">  1       -2 0.84995577E-01 0.87404567E+03</pdfrwt>
<totfact> 0.28610635E+01</totfact>
</mgrwt>
</event>
<event>
 4    5  0.6615028E-008  0.1288683E+04  0.7818608E-02  0.9075395E-01
          2   -1    0    0  501    0  0.00000000000E+00  0.00000000000E+00  0.37603769020E+04  0.37603769020E+04  0.25500000000E-02 0. -1.
         -2   -1    0    0    0  501 -0.00000000000E+00 -0.00000000000E+00 -0.46233223813E+03  0.46233223814E+03  0.25500000000E-02 0.  1.
    8880023    1    1    2    0    0  0.10925416769E+04 -0.18233595070E+03  0.88535847374E+03  0.15635100089E+04  0.65864270000E+03 0.  0.
    8880022    1    1    2    0    0 -0.10925416769E+04  0.18233595070E+03  0.24126861902E+04  0.26591991313E+04  0.15294330000E+03 0.  0.
<mgrwt>
<rscale>  0 0.12437575E+04</rscale>
<asrwt>0</asrwt>
<pdfrwt beam="1">  1        2 0.57851952E+00 0.12886830E+04</pdfrwt>
<pdfrwt beam="2">  1       -2 0.71128037E-01 0.12886830E+04</pdfrwt>
<totfact> 0.94317222E-01</totfact>
</mgrwt>
</event>
<event>
 4    5  0.6615028E-008  0.1013642E+04  0.7818608E-02  0.9363924E-01
         -2   -1    0    0    0  501 -0.00000000000E+00  0.00000000000E+00  0.95145377303E+03  0.95145377303E+03  0.25500000000E-02 0.  1.
          2   -1    0    0  501    0  0.00000000000E+00 -0.00000000000E+00 -0.11562858596E+04  0.11562858596E+04  0.25500000000E-02 0. -1.
    8880023    1    1    2    0    0  0.71892143236E+02 -0.76713149509E+03  0.42673662836E+03  0.10998061499E+04  0.65864270000E+03 0.  0.
    8880022    1    1    2    0    0 -0.71892143236E+02  0.76713149509E+03 -0.63156871494E+03  0.10079334828E+04  0.15294330000E+03 0.  0.
<mgrwt>
<rscale>  0 0.95105024E+03</rscale>
<asrwt>0</asrwt>
<pdfrwt beam="1">  1        2 0.17789013E+00 0.10136417E+04</pdfrwt>
<pdfrwt beam="2">  1       -2 0.14637750E+00 0.10136417E+04</pdfrwt>
<totfact> 0.63684257E+00</totfact>
</mgrwt>
</event>
<event>
 4    5  0.6615028E-008  0.7491778E+03  0.7818608E-02  0.9833976E-01
         -2   -1    0    0    0  501 -0.00000000000E+00  0.00000000000E+00  0.50619535575E+03  0.50619535575E+03  0.25500000000E-02 0.  1.
          2   -1    0    0  501    0  0.00000000000E+00 -0.00000000000E+00 -0.12402553342E+04  0.12402553342E+04  0.25500000000E-02 0. -1.
    8880023    1    1    2    0    0 -0.16061428588E+03  0.31884203633E+03 -0.10189868089E+04  0.12647535396E+04  0.65864270000E+03 0.  0.
    8880022    1    1    2    0    0  0.16061428588E+03 -0.31884203633E+03  0.28492683043E+03  0.48169715037E+03  0.15294330000E+03 0.  0.
<mgrwt>
<rscale>  0 0.63570618E+03</rscale>
<asrwt>0</asrwt>
<pdfrwt beam="1">  1        2 0.19080851E+00 0.74917782E+03</pdfrwt>
<pdfrwt beam="2">  1       -2 0.77876209E-01 0.74917782E+03</pdfrwt>
<totfact> 0.26831138E+01</totfact>
</mgrwt>
</event>
<event>
 4    5  0.6615028E-008  0.8866793E+03  0.7818608E-02  0.9547763E-01
          2   -1    0    0  501    0  0.00000000000E+00  0.00000000000E+00  0.79887601202E+03  0.79887601203E+03  0.25500000000E-02 0. -1.
         -2   -1    0    0    0  501 -0.00000000000E+00 -0.00000000000E+00 -0.10088500904E+04  0.10088500904E+04  0.25500000000E-02 0.  1.
    8880023    1    1    2    0    0 -0.55282484771E+03  0.21627468131E+03  0.37284247121E+03  0.96187928797E+03  0.65864270000E+03 0.  0.
    8880022    1    1    2    0    0  0.55282484771E+03 -0.21627468131E+03 -0.58281654956E+03  0.84584681443E+03  0.15294330000E+03 0.  0.
<mgrwt>
<rscale>  0 0.80852210E+03</rscale>
<asrwt>0</asrwt>
<pdfrwt beam="1">  1        2 0.12290400E+00 0.88667934E+03</pdfrwt>
<pdfrwt beam="2">  1       -2 0.15520771E+00 0.88667934E+03</pdfrwt>
<totfact> 0.94597385E+00</totfact>
</mgrwt>
</event>
<event>
 4    5  0.6615028E-008  0.9253848E+03  0.7818608E-02  0.9486451E-01
         -2   -1    0    0    0  501 -0.00000000000E+00  0.00000000000E+00  0.16395217640E+04  0.16395217640E+04  0.25500000000E-02 0.  1.
          2   -1    0    0  501    0  0.00000000000E+00 -0.00000000000E+00 -0.13415977387E+04  0.13415977387E+04  0.25500000000E-02 0. -1.
    8880023    1    1    2    0    0 -0.30134983699E+03 -0.57594717141E+03 -0.10966492440E+04  0.14349134605E+04  0.65864270000E+03 0.  0.
    8880022    1    1    2    0    0  0.30134983699E+03  0.57594717141E+03  0.13945732693E+04  0.15462060422E+04  0.15294330000E+03 0.  0.
<mgrwt>
<rscale>  0 0.85290119E+03</rscale>
<asrwt>0</asrwt>
<pdfrwt beam="1">  1        2 0.20639965E+00 0.92538483E+03</pdfrwt>
<pdfrwt beam="2">  1       -2 0.25223412E+00 0.92538483E+03</pdfrwt>
<totfact> 0.98206253E-01</totfact>
</mgrwt>
</event>
<event>
 4    5  0.6615028E-008  0.6895308E+03  0.7818608E-02  0.1004376E+00
          2   -1    0    0  501    0  0.00000000000E+00  0.00000000000E+00  0.28675865186E+03  0.28675865187E+03  0.25500000000E-02 0. -1.
         -2   -1    0    0    0  501 -0.00000000000E+00 -0.00000000000E+00 -0.96769631056E+03  0.96769631056E+03  0.25500000000E-02 0.  1.
    8880023    1    1    2    0    0  0.18507548669E+03 -0.85962340007E+02 -0.21324209578E+03  0.72175124340E+03  0.65864270000E+03 0. -1.
    8880022    1    1    2    0    0 -0.18507548669E+03  0.85962340007E+02 -0.46769556292E+03  0.53270371903E+03  0.15294330000E+03 0.  0.
<mgrwt>
<rscale>  0 0.53772210E+03</rscale>
<asrwt>0</asrwt>
<pdfrwt beam="1">  1        2 0.44116716E-01 0.68953076E+03</pdfrwt>
<pdfrwt beam="2">  1       -2 0.14887635E+00 0.68953076E+03</pdfrwt>
<totfact> 0.35846611E+01</totfact>
</mgrwt>
</event>
<event>
 4    5  0.6615028E-008  0.1366340E+04  0.7818608E-02  0.9010289E-01
          2   -1    0    0  501    0  0.00000000000E+00  0.00000000000E+00  0.36943618653E+04  0.36943618653E+04  0.25500000000E-02 0. -1.
         -2   -1    0    0    0  501 -0.00000000000E+00 -0.00000000000E+00 -0.57785867380E+03  0.57785867381E+03  0.25500000000E-02 0.  1.
    8880023    1    1    2    0    0 -0.70606495474E+03  0.96671909056E+03  0.26440063982E+04  0.29761810362E+04  0.65864270000E+03 0.  0.
    8880022    1    1    2    0    0  0.70606495474E+03 -0.96671909056E+03  0.47249679331E+03  0.12960395029E+04  0.15294330000E+03 0.  0.
<mgrwt>
<rscale>  0 0.13245901E+04</rscale>
<asrwt>0</asrwt>
<pdfrwt beam="1">  1        2 0.56836336E+00 0.13663395E+04</pdfrwt>
<pdfrwt beam="2">  1       -2 0.88901335E-01 0.13663395E+04</pdfrwt>
<totfact> 0.63015541E-01</totfact>
</mgrwt>
</event>
<event>
 4    5  0.6615028E-008  0.9262016E+03  0.7818608E-02  0.9485215E-01
         -2   -1    0    0    0  501 -0.00000000000E+00  0.00000000000E+00  0.51917163765E+03  0.51917163766E+03  0.25500000000E-02 0.  1.
          2   -1    0    0  501    0  0.00000000000E+00 -0.00000000000E+00 -0.13507250692E+04  0.13507250692E+04  0.25500000000E-02 0. -1.
    8880023    1    1    2    0    0 -0.19697774027E+03 -0.62067617389E+03 -0.75824307874E+03  0.11969886865E+04  0.65864270000E+03 0.  0.
    8880022    1    1    2    0    0  0.19697774027E+03  0.62067617389E+03 -0.73310352830E+02  0.67290802034E+03  0.15294330000E+03 0.  0.
<mgrwt>
<rscale>  0 0.85382697E+03</rscale>
<asrwt>0</asrwt>
<pdfrwt beam="1">  1        2 0.20780386E+00 0.92620157E+03</pdfrwt>
<pdfrwt beam="2">  1       -2 0.79872560E-01 0.92620157E+03</pdfrwt>
<totfact> 0.21490955E+01</totfact>
</mgrwt>
</event>
<event>
 4    5  0.6615028E-008  0.1449949E+04  0.7818608E-02  0.8945812E-01
          2   -1    0    0  501    0  0.00000000000E+00  0.00000000000E+00  0.16187811888E+04  0.16187811888E+04  0.25500000000E-02 0. -1.
         -2   -1    0    0    0  501 -0.00000000000E+00 -0.00000000000E+00 -0.20071624490E+04  0.20071624490E+04  0.25500000000E-02 0.  1.
    8880023    1    1    2    0    0 -0.78709436488E+03  0.10242192827E+04  0.97056668651E+03  0.17448073182E+04  0.65864270000E+03 0.  0.
    8880022    1    1    2    0    0  0.78709436488E+03 -0.10242192827E+04 -0.13589479467E+04  0.18811363197E+04  0.15294330000E+03 0.  0.
<mgrwt>
<rscale>  0 0.14111154E+04</rscale>
<asrwt>0</asrwt>
<pdfrwt beam="1">  1        2 0.24904326E+00 0.14499493E+04</pdfrwt>
<pdfrwt beam="2">  1       -2 0.30879422E+00 0.14499493E+04</pdfrwt>
<totfact> 0.28891231E-01</totfact>
</mgrwt>
</event>
<event>
 4    5  0.6615028E-008  0.2471053E+04  0.7818608E-02  0.8421144E-01
         -2   -1    0    0    0  501 -0.00000000000E+00  0.00000000000E+00  0.26367417433E+04  0.26367417433E+04  0.25500000000E-02 0.  1.
          2   -1    0    0  501    0  0.00000000000E+00 -0.00000000000E+00 -0.27818516482E+04  0.27818516482E+04  0.25500000000E-02 0. -1.
    8880023    1    1    2    0    0 -0.45517183470E+03 -0.23377573530E+04  0.11250118473E+04  0.27150971812E+04  0.65864270000E+03 0.  0.
    8880022    1    1    2    0    0  0.45517183470E+03  0.23377573530E+04 -0.12701217521E+04  0.27034962103E+04  0.15294330000E+03 0.  0.
<mgrwt>
<rscale>  0 0.24496538E+04</rscale>
<asrwt>0</asrwt>
<pdfrwt beam="1">  1        2 0.42797718E+00 0.24710526E+04</pdfrwt>
<pdfrwt beam="2">  1       -2 0.40565257E+00 0.24710526E+04</pdfrwt>
<totfact> 0.13551610E-02</totfact>
</mgrwt>
</event>
<event>
 4    5  0.6615028E-008  0.1452081E+04  0.7818608E-02  0.8944236E-01
          2   -1    0    0  501    0  0.00000000000E+00  0.00000000000E+00  0.15030280212E+04  0.15030280212E+04  0.25500000000E-02 0. -1.
         -2   -1    0    0    0  501 -0.00000000000E+00 -0.00000000000E+00 -0.14736705534E+04  0.14736705534E+04  0.25500000000E-02 0.  1.
    8880023    1    1    2    0    0  0.12581198945E+04  0.30309112118E+03  0.57787187686E+03  0.15628422854E+04  0.65864270000E+03 0. -1.
    8880022    1    1    2    0    0 -0.12581198945E+04 -0.30309112118E+03 -0.54851440908E+03  0.14138562892E+04  0.15294330000E+03 0.  0.
<mgrwt>
<rscale>  0 0.14133161E+04</rscale>
<asrwt>0</asrwt>
<pdfrwt beam="1">  1        2 0.23123508E+00 0.14520813E+04</pdfrwt>
<pdfrwt beam="2">  1       -2 0.22671855E+00 0.14520813E+04</pdfrwt>
<totfact> 0.10713514E+00</totfact>
</mgrwt>
</event>
<event>
 4    5  0.6615028E-008  0.1336537E+04  0.7818608E-02  0.9034633E-01
          2   -1    0    0  501    0  0.00000000000E+00  0.00000000000E+00  0.31556951110E+04  0.31556951110E+04  0.25500000000E-02 0. -1.
         -2   -1    0    0    0  501 -0.00000000000E+00 -0.00000000000E+00 -0.65766262731E+03  0.65766262731E+03  0.25500000000E-02 0.  1.
    8880023    1    1    2    0    0 -0.58741692983E+03  0.10037240013E+04  0.37552423391E+03  0.13882900189E+04  0.65864270000E+03 0.  0.
    8880022    1    1    2    0    0  0.58741692983E+03 -0.10037240013E+04  0.21225082498E+04  0.24250677194E+04  0.15294330000E+03 0.  0.
<mgrwt>
<rscale>  0 0.12936284E+04</rscale>
<asrwt>0</asrwt>
<pdfrwt beam="1">  1        2 0.48549155E+00 0.13365368E+04</pdfrwt>
<pdfrwt beam="2">  1       -2 0.10117887E+00 0.13365368E+04</pdfrwt>
<totfact> 0.10862364E+00</totfact>
</mgrwt>
</event>
<event>
 4    5  0.6615028E-008  0.7993047E+03  0.7818608E-02  0.9712302E-01
          2   -1    0    0  501    0  0.00000000000E+00  0.00000000000E+00  0.37428850750E+04  0.37428850750E+04  0.25500000000E-02 0. -1.
         -2   -1    0    0    0  501 -0.00000000000E+00 -0.00000000000E+00 -0.15051824929E+03  0.15051824931E+03  0.25500000000E-02 0.  1.
    8880023    1    1    2    0    0  0.35329814132E+03 -0.28329875555E+03  0.31223719062E+04  0.32230566685E+04  0.65864270000E+03 0. -1.
    8880022    1    1    2    0    0 -0.35329814132E+03  0.28329875555E+03  0.46999491951E+03  0.67034665580E+03  0.15294330000E+03 0.  0.
<mgrwt>
<rscale>  0 0.70289066E+03</rscale>
<asrwt>0</asrwt>
<pdfrwt beam="1">  1        2 0.57582843E+00 0.79930468E+03</pdfrwt>
<pdfrwt beam="2">  1       -2 0.23156656E-01 0.79930468E+03</pdfrwt>
<totfact> 0.96345589E+00</totfact>
</mgrwt>
</event>
<event>
 4    5  0.6615028E-008  0.9565404E+03  0.7818608E-02  0.9440766E-01
         -2   -1    0    0    0  501 -0.00000000000E+00  0.00000000000E+00  0.47886414845E+03  0.47886414845E+03  0.25500000000E-02 0.  1.
          2   -1    0    0  501    0  0.00000000000E+00 -0.00000000000E+00 -0.27818283018E+04  0.27818283018E+04  0.25500000000E-02 0. -1.
    8880023    1    1    2    0    0 -0.71968483197E+02 -0.68991292522E+03 -0.11875270804E+03  0.96388366460E+03  0.65864270000E+03 0.  0.
    8880022    1    1    2    0    0  0.71968483197E+02  0.68991292522E+03 -0.21842114453E+04  0.22968087856E+04  0.15294330000E+03 0.  0.
<mgrwt>
<rscale>  0 0.88795430E+03</rscale>
<asrwt>0</asrwt>
<pdfrwt beam="1">  1        2 0.42797358E+00 0.95654039E+03</pdfrwt>
<pdfrwt beam="2">  1       -2 0.73671409E-01 0.95654039E+03</pdfrwt>
<totfact> 0.40308447E+00</totfact>
</mgrwt>
</event>
<event>
 4    5  0.6615028E-008  0.1001332E+04  0.7818608E-02  0.9379817E-01
          2   -1    0    0  501    0  0.00000000000E+00  0.00000000000E+00  0.27521137511E+04  0.27521137511E+04  0.25500000000E-02 0. -1.
         -2   -1    0    0    0  501 -0.00000000000E+00 -0.00000000000E+00 -0.54550982277E+03  0.54550982277E+03  0.25500000000E-02 0.  1.
    8880023    1    1    2    0    0 -0.36281120554E+03 -0.66122852499E+03  0.23132698111E+04  0.25206908890E+04  0.65864270000E+03 0. -1.
    8880022    1    1    2    0    0  0.36281120554E+03  0.66122852499E+03 -0.10666588277E+03  0.77693268479E+03  0.15294330000E+03 0.  0.
<mgrwt>
<rscale>  0 0.93755411E+03</rscale>
<asrwt>0</asrwt>
<pdfrwt beam="1">  1        2 0.42340213E+00 0.10013318E+04</pdfrwt>
<pdfrwt beam="2">  1       -2 0.83924585E-01 0.10013318E+04</pdfrwt>
<totfact> 0.31111907E+00</totfact>
</mgrwt>
</event>
<event>
 4    5  0.6615028E-008  0.6597696E+03  0.7818608E-02  0.1024394E+00
         -2   -1    0    0    0  501 -0.00000000000E+00  0.00000000000E+00  0.35367521586E+03  0.35367521587E+03  0.25500000000E-02 0.  1.
          2   -1    0    0  501    0  0.00000000000E+00 -0.00000000000E+00 -0.48896521306E+03  0.48896521307E+03  0.25500000000E-02 0. -1.
    8880023    1    1    2    0    0 -0.12123964387E+02  0.36588342535E+02 -0.16961460476E+03  0.68122317762E+03  0.65864270000E+03 0.  0.
    8880022    1    1    2    0    0  0.12123964387E+02 -0.36588342535E+02  0.34324607555E+02  0.16141725131E+03  0.15294330000E+03 0.  0.
<mgrwt>
<rscale>  0 0.46133854E+03</rscale>
<asrwt>0</asrwt>
<pdfrwt beam="1">  1        2 0.75225418E-01 0.65976958E+03</pdfrwt>
<pdfrwt beam="2">  1       -2 0.54411571E-01 0.65976958E+03</pdfrwt>
<totfact> 0.20357975E+02</totfact>
</mgrwt>
</event>
<event>
 4    5  0.6615028E-008  0.7921786E+03  0.7818608E-02  0.9727970E-01
         -2   -1    0    0    0  501 -0.00000000000E+00  0.00000000000E+00  0.64012028599E+03  0.64012028599E+03  0.25500000000E-02 0.  1.
          2   -1    0    0  501    0  0.00000000000E+00 -0.00000000000E+00 -0.25950597820E+04  0.25950597820E+04  0.25500000000E-02 0. -1.
    8880023    1    1    2    0    0 -0.43541264937E+03  0.64440054117E+02 -0.24383188095E+04  0.25637756374E+04  0.65864270000E+03 0. -1.
    8880022    1    1    2    0    0  0.43541264937E+03 -0.64440054117E+02  0.48337931345E+03  0.67140443065E+03  0.15294330000E+03 0.  0.
<mgrwt>
<rscale>  0 0.69375622E+03</rscale>
<asrwt>0</asrwt>
<pdfrwt beam="1">  1        2 0.39923996E+00 0.79217858E+03</pdfrwt>
<pdfrwt beam="2">  1       -2 0.98480046E-01 0.79217858E+03</pdfrwt>
<totfact> 0.27422197E+00</totfact>
</mgrwt>
</event>
<event>
 4    5  0.6615028E-008  0.1569547E+04  0.7818608E-02  0.8862026E-01
          2   -1    0    0  501    0  0.00000000000E+00  0.00000000000E+00  0.24217845578E+04  0.24217845578E+04  0.25500000000E-02 0. -1.
         -2   -1    0    0    0  501 -0.00000000000E+00 -0.00000000000E+00 -0.10104307203E+04  0.10104307203E+04  0.25500000000E-02 0.  1.
    8880023    1    1    2    0    0  0.13334915220E+04 -0.50146487699E+03  0.25321572184E+03  0.15898412091E+04  0.65864270000E+03 0.  0.
    8880022    1    1    2    0    0 -0.13334915220E+04  0.50146487699E+03  0.11581381156E+04  0.18423740690E+04  0.15294330000E+03 0.  0.
<mgrwt>
<rscale>  0 0.15341960E+04</rscale>
<asrwt>0</asrwt>
<pdfrwt beam="1">  1        2 0.37258223E+00 0.15695467E+04</pdfrwt>
<pdfrwt beam="2">  1       -2 0.15545088E+00 0.15695467E+04</pdfrwt>
<totfact> 0.98634938E-01</totfact>
</mgrwt>
</event>
<event>
 4    5  0.6615028E-008  0.7470585E+03  0.7818608E-02  0.9839843E-01
         -2   -1    0    0    0  501 -0.00000000000E+00  0.00000000000E+00  0.17301747176E+04  0.17301747176E+04  0.25500000000E-02 0.  1.
          2   -1    0    0  501    0  0.00000000000E+00 -0.00000000000E+00 -0.11085097727E+04  0.11085097727E+04  0.25500000000E-02 0. -1.
    8880023    1    1    2    0    0 -0.28985781316E+03 -0.20067053882E+03 -0.95691935884E+03  0.12139979747E+04  0.65864270000E+03 0. -1.
    8880022    1    1    2    0    0  0.28985781316E+03  0.20067053882E+03  0.15785843038E+04  0.16246865156E+04  0.15294330000E+03 0.  0.
<mgrwt>
<rscale>  0 0.63267459E+03</rscale>
<asrwt>0</asrwt>
<pdfrwt beam="1">  1        2 0.17053997E+00 0.74705851E+03</pdfrwt>
<pdfrwt beam="2">  1       -2 0.26618072E+00 0.74705851E+03</pdfrwt>
<totfact> 0.11447806E+00</totfact>
</mgrwt>
</event>
<event>
 4    5  0.6615028E-008  0.7187124E+03  0.7818608E-02  0.9926967E-01
         -2   -1    0    0    0  501 -0.00000000000E+00  0.00000000000E+00  0.14588140285E+04  0.14588140285E+04  0.25500000000E-02 0.  1.
          2   -1    0    0  501    0  0.00000000000E+00 -0.00000000000E+00 -0.18995813625E+04  0.18995813625E+04  0.25500000000E-02 0. -1.
    8880023    1    1    2    0    0 -0.23649942930E+03  0.16372346567E+03 -0.18118236249E+04  0.19491671060E+04  0.65864270000E+03 0. -1.
    8880022    1    1    2    0    0  0.23649942930E+03 -0.16372346567E+03  0.13710562909E+04  0.14092282850E+04  0.15294330000E+03 0.  0.
<mgrwt>
<rscale>  0 0.58971969E+03</rscale>
<asrwt>0</asrwt>
<pdfrwt beam="1">  1        2 0.29224329E+00 0.71871243E+03</pdfrwt>
<pdfrwt beam="2">  1       -2 0.22443293E+00 0.71871243E+03</pdfrwt>
<totfact> 0.74117229E-01</totfact>
</mgrwt>
</event>
<event>
 4    5  0.6615028E-008  0.1106386E+04  0.7818608E-02  0.9253979E-01
         -2   -1    0    0    0  501 -0.00000000000E+00  0.00000000000E+00  0.30711553745E+03  0.30711553746E+03  0.25500000000E-02 0.  1.
          2   -1    0    0  501    0  0.00000000000E+00 -0.00000000000E+00 -0.41167372030E+04  0.41167372030E+04  0.25500000000E-02 0. -1.
    8880023    1    1    2    0    0 -0.75481729582E+03  0.46960793179E+03 -0.30503497648E+04  0.32447996323E+04  0.65864270000E+03 0. -1.
    8880022    1    1    2    0    0  0.75481729582E+03 -0.46960793179E+03 -0.75927190075E+03  0.11790531082E+04  0.15294330000E+03 0.  0.
<mgrwt>
<rscale>  0 0.10513234E+04</rscale>
<asrwt>0</asrwt>
<pdfrwt beam="1">  1        2 0.63334415E+00 0.11063864E+04</pdfrwt>
<pdfrwt beam="2">  1       -2 0.47248547E-01 0.11063864E+04</pdfrwt>
<totfact> 0.12099184E+00</totfact>
</mgrwt>
</event>
<event>
 4    5  0.6615028E-008  0.1386343E+04  0.7818608E-02  0.8994368E-01
         -2   -1    0    0    0  501 -0.00000000000E+00  0.00000000000E+00  0.10404438838E+04  0.10404438838E+04  0.25500000000E-02 0.  1.
          2   -1    0    0  501    0  0.00000000000E+00 -0.00000000000E+00 -0.35882611600E+04  0.35882611600E+04  0.25500000000E-02 0. -1.
    8880023    1    1    2    0    0  0.28266402251E+03  0.11866914813E+04 -0.30110647236E+04  0.33148841002E+04  0.65864270000E+03 0.  0.
    8880022    1    1    2    0    0 -0.28266402251E+03 -0.11866914813E+04  0.46324744746E+03  0.13138209437E+04  0.15294330000E+03 0.  0.
<mgrwt>
<rscale>  0 0.13453334E+04</rscale>
<asrwt>0</asrwt>
<pdfrwt beam="1">  1        2 0.55204017E+00 0.13863426E+04</pdfrwt>
<pdfrwt beam="2">  1       -2 0.16006829E+00 0.13863426E+04</pdfrwt>
<totfact> 0.17143798E-01</totfact>
</mgrwt>
</event>
<event>
 4    5  0.6615028E-008  0.9048935E+03  0.7818608E-02  0.9518221E-01
          2   -1    0    0  501    0  0.00000000000E+00  0.00000000000E+00  0.27587377343E+04  0.27587377343E+04  0.25500000000E-02 0. -1.
         -2   -1    0    0    0  501 -0.00000000000E+00 -0.00000000000E+00 -0.32045946330E+03  0.32045946331E+03  0.25500000000E-02 0.  1.
    8880023    1    1    2    0    0 -0.39113840317E+03 -0.48169773340E+03  0.22307121714E+04  0.24072617130E+04  0.65864270000E+03 0. -1.
    8880022    1    1    2    0    0  0.39113840317E+03  0.48169773340E+03  0.20756609959E+03  0.67193548464E+03  0.15294330000E+03 0.  0.
<mgrwt>
<rscale>  0 0.82953671E+03</rscale>
<asrwt>0</asrwt>
<pdfrwt beam="1">  1        2 0.42442120E+00 0.90489345E+03</pdfrwt>
<pdfrwt beam="2">  1       -2 0.49301455E-01 0.90489345E+03</pdfrwt>
<totfact> 0.98292115E+00</totfact>
</mgrwt>
</event>
<event>
 4    5  0.6615028E-008  0.7909716E+03  0.7818608E-02  0.9730668E-01
          2   -1    0    0  501    0  0.00000000000E+00  0.00000000000E+00  0.96194218001E+03  0.96194218001E+03  0.25500000000E-02 0. -1.
         -2   -1    0    0    0  501 -0.00000000000E+00 -0.00000000000E+00 -0.64335786485E+03  0.64335786485E+03  0.25500000000E-02 0.  1.
    8880023    1    1    2    0    0 -0.35375452057E+03  0.25823179722E+03  0.65929548393E+03  0.10297119322E+04  0.65864270000E+03 0. -1.
    8880022    1    1    2    0    0  0.35375452057E+03 -0.25823179722E+03 -0.34071116877E+03  0.57558811267E+03  0.15294330000E+03 0.  0.
<mgrwt>
<rscale>  0 0.69219809E+03</rscale>
<asrwt>0</asrwt>
<pdfrwt beam="1">  1        2 0.14799110E+00 0.79097164E+03</pdfrwt>
<pdfrwt beam="2">  1       -2 0.98978133E-01 0.79097164E+03</pdfrwt>
<totfact> 0.22834780E+01</totfact>
</mgrwt>
</event>
<event>
 4    5  0.6615028E-008  0.7788246E+03  0.7818608E-02  0.9758605E-01
         -2   -1    0    0    0  501 -0.00000000000E+00  0.00000000000E+00  0.58825009292E+03  0.58825009292E+03  0.25500000000E-02 0.  1.
          2   -1    0    0  501    0  0.00000000000E+00 -0.00000000000E+00 -0.99311785060E+03  0.99311785061E+03  0.25500000000E-02 0. -1.
    8880023    1    1    2    0    0  0.32682512781E+03  0.25679344457E+03 -0.70161878890E+03  0.10482541049E+04  0.65864270000E+03 0.  1.
    8880022    1    1    2    0    0 -0.32682512781E+03 -0.25679344457E+03  0.29675103121E+03  0.53311383858E+03  0.15294330000E+03 0.  0.
<mgrwt>
<rscale>  0 0.67632129E+03</rscale>
<asrwt>0</asrwt>
<pdfrwt beam="1">  1        2 0.15278736E+00 0.77882459E+03</pdfrwt>
<pdfrwt beam="2">  1       -2 0.90500014E-01 0.77882459E+03</pdfrwt>
<totfact> 0.26904878E+01</totfact>
</mgrwt>
</event>
<event>
 4    5  0.6615028E-008  0.7405838E+03  0.7818608E-02  0.9858250E-01
         -2   -1    0    0    0  501 -0.00000000000E+00  0.00000000000E+00  0.18011418191E+03  0.18011418193E+03  0.25500000000E-02 0.  1.
          2   -1    0    0  501    0  0.00000000000E+00 -0.00000000000E+00 -0.18755140107E+04  0.18755140107E+04  0.25500000000E-02 0. -1.
    8880023    1    1    2    0    0  0.33510538905E+03 -0.48564732835E+02 -0.13887653641E+04  0.15738912281E+04  0.65864270000E+03 0. -1.
    8880022    1    1    2    0    0 -0.33510538905E+03  0.48564732835E+02 -0.30663446463E+03  0.48173696449E+03  0.15294330000E+03 0.  0.
<mgrwt>
<rscale>  0 0.62328053E+03</rscale>
<asrwt>0</asrwt>
<pdfrwt beam="1">  1        2 0.28854060E+00 0.74058380E+03</pdfrwt>
<pdfrwt beam="2">  1       -2 0.27709875E-01 0.74058380E+03</pdfrwt>
<totfact> 0.95397568E+01</totfact>
</mgrwt>
</event>
<event>
 4    5  0.6615028E-008  0.6637187E+03  0.7818608E-02  0.1020633E+00
          2   -1    0    0  501    0  0.00000000000E+00  0.00000000000E+00  0.14126935381E+04  0.14126935381E+04  0.25500000000E-02 0. -1.
         -2   -1    0    0    0  501 -0.00000000000E+00 -0.00000000000E+00 -0.61572609165E+03  0.61572609165E+03  0.25500000000E-02 0.  1.
    8880023    1    1    2    0    0 -0.21532562047E+02  0.79048320485E+02  0.13199392645E+04  0.14774173941E+04  0.65864270000E+03 0. -1.
    8880022    1    1    2    0    0  0.21532562047E+02 -0.79048320485E+02 -0.52297181805E+03  0.55100223564E+03  0.15294330000E+03 0.  0.
<mgrwt>
<rscale>  0 0.47458713E+03</rscale>
<asrwt>0</asrwt>
<pdfrwt beam="1">  1        2 0.21733746E+00 0.66371869E+03</pdfrwt>
<pdfrwt beam="2">  1       -2 0.94727092E-01 0.66371869E+03</pdfrwt>
<totfact> 0.13817310E+01</totfact>
</mgrwt>
</event>
<event>
 4    5  0.6615028E-008  0.1685865E+04  0.7818608E-02  0.8788446E-01
          2   -1    0    0  501    0  0.00000000000E+00  0.00000000000E+00  0.34249323400E+04  0.34249323400E+04  0.25500000000E-02 0. -1.
         -2   -1    0    0    0  501 -0.00000000000E+00 -0.00000000000E+00 -0.80184506573E+03  0.80184506573E+03  0.25500000000E-02 0.  1.
    8880023    1    1    2    0    0  0.13436963169E+04  0.77640812585E+03  0.17895579262E+04  0.24585884461E+04  0.65864270000E+03 0.  0.
    8880022    1    1    2    0    0 -0.13436963169E+04 -0.77640812585E+03  0.83352934806E+03  0.17681889596E+04  0.15294330000E+03 0.  0.
<mgrwt>
<rscale>  0 0.16533174E+04</rscale>
<asrwt>0</asrwt>
<pdfrwt beam="1">  1        2 0.52691266E+00 0.16858646E+04</pdfrwt>
<pdfrwt beam="2">  1       -2 0.12336078E+00 0.16858646E+04</pdfrwt>
<totfact> 0.42559437E-01</totfact>
</mgrwt>
</event>
<event>
 4    5  0.6615028E-008  0.8867295E+03  0.7818608E-02  0.9547680E-01
          2   -1    0    0  501    0  0.00000000000E+00  0.00000000000E+00  0.61890182472E+03  0.61890182472E+03  0.25500000000E-02 0. -1.
         -2   -1    0    0    0  501 -0.00000000000E+00 -0.00000000000E+00 -0.17215153465E+04  0.17215153465E+04  0.25500000000E-02 0.  1.
    8880023    1    1    2    0    0  0.56225509834E+03 -0.19065216745E+03  0.19262339593E+03  0.90741006358E+03  0.65864270000E+03 0.  0.
    8880022    1    1    2    0    0 -0.56225509834E+03  0.19065216745E+03 -0.12952369177E+04  0.14330071077E+04  0.15294330000E+03 0.  0.
<mgrwt>
<rscale>  0 0.80858036E+03</rscale>
<asrwt>0</asrwt>
<pdfrwt beam="1">  1        2 0.95215666E-01 0.88672953E+03</pdfrwt>
<pdfrwt beam="2">  1       -2 0.26484851E+00 0.88672953E+03</pdfrwt>
<totfact> 0.25242964E+00</totfact>
</mgrwt>
</event>
<event>
 4    5  0.6615028E-008  0.1019384E+04  0.7818608E-02  0.9356626E-01
         -2   -1    0    0    0  501 -0.00000000000E+00  0.00000000000E+00  0.59650769187E+03  0.59650769187E+03  0.25500000000E-02 0.  1.
          2   -1    0    0  501    0  0.00000000000E+00 -0.00000000000E+00 -0.25650239611E+04  0.25650239611E+04  0.25500000000E-02 0. -1.
    8880023    1    1    2    0    0 -0.56909859456E+03 -0.53052809765E+03 -0.21217623451E+04  0.23539368997E+04  0.65864270000E+03 0.  0.
    8880022    1    1    2    0    0  0.56909859456E+03  0.53052809765E+03  0.15324607581E+03  0.80759475326E+03  0.15294330000E+03 0.  0.
<mgrwt>
<rscale>  0 0.95732831E+03</rscale>
<asrwt>0</asrwt>
<pdfrwt beam="1">  1        2 0.39461906E+00 0.10193839E+04</pdfrwt>
<pdfrwt beam="2">  1       -2 0.91770416E-01 0.10193839E+04</pdfrwt>
<totfact> 0.32481867E+00</totfact>
</mgrwt>
</event>
<event>
 4    5  0.6615028E-008  0.9741975E+03  0.7818608E-02  0.9416122E-01
          2   -1    0    0  501    0  0.00000000000E+00  0.00000000000E+00  0.16967683589E+04  0.16967683589E+04  0.25500000000E-02 0. -1.
         -2   -1    0    0    0  501 -0.00000000000E+00 -0.00000000000E+00 -0.15423527059E+04  0.15423527059E+04  0.25500000000E-02 0.  1.
    8880023    1    1    2    0    0  0.71742680113E+03  0.23436977721E+02  0.14518990254E+04  0.17484483101E+04  0.65864270000E+03 0. -1.
    8880022    1    1    2    0    0 -0.71742680113E+03 -0.23436977721E+02 -0.12974833724E+04  0.14906727547E+04  0.15294330000E+03 0.  0.
<mgrwt>
<rscale>  0 0.90760691E+03</rscale>
<asrwt>0</asrwt>
<pdfrwt beam="1">  1        2 0.26104129E+00 0.97419747E+03</pdfrwt>
<pdfrwt beam="2">  1       -2 0.23728503E+00 0.97419747E+03</pdfrwt>
<totfact> 0.76012582E-01</totfact>
</mgrwt>
</event>
<event>
 4    5  0.8181122E-008  0.8825284E+03  0.7818608E-02  0.9554682E-01
         -2   -1    0    0    0  501 -0.00000000000E+00  0.00000000000E+00  0.13113668394E+04  0.13113668394E+04  0.25500000000E-02 0.  1.
          2   -1    0    0  501    0  0.00000000000E+00 -0.00000000000E+00 -0.24086585548E+04  0.24086585548E+04  0.25500000000E-02 0. -1.
    8880023    1    1    2    0    0 -0.37249795166E+03 -0.45419314596E+03 -0.22502088388E+04  0.24170842274E+04  0.65864270000E+03 0. -1.
    8880022    1    1    2    0    0  0.37249795166E+03  0.45419314596E+03  0.11529171234E+04  0.13029411669E+04  0.15294330000E+03 0.  0.
<mgrwt>
<rscale>  0 0.80369642E+03</rscale>
<asrwt>0</asrwt>
<pdfrwt beam="1">  1        2 0.37056285E+00 0.88252838E+03</pdfrwt>
<pdfrwt beam="2">  1       -2 0.20174874E+00 0.88252838E+03</pdfrwt>
<totfact> 0.52266285E-01</totfact>
</mgrwt>
</event>
<event>
 4    5  0.6615028E-008  0.2010820E+04  0.7818608E-02  0.8614093E-01
          2   -1    0    0  501    0  0.00000000000E+00  0.00000000000E+00  0.22412897282E+04  0.22412897282E+04  0.25500000000E-02 0. -1.
         -2   -1    0    0    0  501 -0.00000000000E+00 -0.00000000000E+00 -0.21607717971E+04  0.21607717971E+04  0.25500000000E-02 0.  1.
    8880023    1    1    2    0    0 -0.58223119424E+03 -0.18084778987E+04  0.10447254100E+04  0.22660200489E+04  0.65864270000E+03 0.  0.
    8880022    1    1    2    0    0  0.58223119424E+03  0.18084778987E+04 -0.96420747892E+03  0.21360414764E+04  0.15294330000E+03 0.  0.
<mgrwt>
<rscale>  0 0.19840960E+04</rscale>
<asrwt>0</asrwt>
<pdfrwt beam="1">  1        2 0.34481380E+00 0.20108197E+04</pdfrwt>
<pdfrwt beam="2">  1       -2 0.33242643E+00 0.20108197E+04</pdfrwt>
<totfact> 0.86938845E-02</totfact>
</mgrwt>
</event>
<event>
 4    5  0.6615028E-008  0.7779623E+03  0.7818608E-02  0.9760646E-01
          2   -1    0    0  501    0  0.00000000000E+00  0.00000000000E+00  0.11296007139E+04  0.11296007139E+04  0.25500000000E-02 0. -1.
         -2   -1    0    0    0  501 -0.00000000000E+00 -0.00000000000E+00 -0.41810042926E+03  0.41810042926E+03  0.25500000000E-02 0.  1.
    8880023    1    1    2    0    0  0.15609131329E+03 -0.38347177734E+03  0.77930438072E+03  0.11011542245E+04  0.65864270000E+03 0.  0.
    8880022    1    1    2    0    0 -0.15609131329E+03  0.38347177734E+03 -0.67804096068E+02  0.44654691865E+03  0.15294330000E+03 0.  0.
<mgrwt>
<rscale>  0 0.67517975E+03</rscale>
<asrwt>0</asrwt>
<pdfrwt beam="1">  1        2 0.17378473E+00 0.77796228E+03</pdfrwt>
<pdfrwt beam="2">  1       -2 0.64323143E-01 0.77796228E+03</pdfrwt>
<totfact> 0.47321239E+01</totfact>
</mgrwt>
</event>
<event>
 4    5  0.6615028E-008  0.7339036E+03  0.7818608E-02  0.9878075E-01
         -2   -1    0    0    0  501 -0.00000000000E+00  0.00000000000E+00  0.36226336584E+03  0.36226336585E+03  0.25500000000E-02 0.  1.
          2   -1    0    0  501    0  0.00000000000E+00 -0.00000000000E+00 -0.13736223645E+04  0.13736223645E+04  0.25500000000E-02 0. -1.
    8880023    1    1    2    0    0 -0.30511313298E+03 -0.10821370001E+03 -0.11396819713E+04  0.13555402727E+04  0.65864270000E+03 0. -1.
    8880022    1    1    2    0    0  0.30511313298E+03  0.10821370001E+03  0.12832297273E+03  0.38034545762E+03  0.15294330000E+03 0.  0.
<mgrwt>
<rscale>  0 0.61335725E+03</rscale>
<asrwt>0</asrwt>
<pdfrwt beam="1">  1        2 0.21132652E+00 0.73390356E+03</pdfrwt>
<pdfrwt beam="2">  1       -2 0.55732826E-01 0.73390356E+03</pdfrwt>
<totfact> 0.46309366E+01</totfact>
</mgrwt>
</event>
<event>
 4    5  0.6615028E-008  0.7327890E+03  0.7818608E-02  0.9881473E-01
          2   -1    0    0  501    0  0.00000000000E+00  0.00000000000E+00  0.33059814174E+04  0.33059814174E+04  0.25500000000E-02 0. -1.
         -2   -1    0    0    0  501 -0.00000000000E+00 -0.00000000000E+00 -0.24149195647E+03  0.24149195649E+03  0.25500000000E-02 0.  1.
    8880023    1    1    2    0    0  0.31874618259E+03 -0.39628062315E+02  0.31041904386E+04  0.31895106204E+04  0.65864270000E+03 0. -1.
    8880022    1    1    2    0    0 -0.31874618259E+03  0.39628062315E+02 -0.39700977681E+02  0.35796275348E+03  0.15294330000E+03 0.  0.
<mgrwt>
<rscale>  0 0.61167646E+03</rscale>
<asrwt>0</asrwt>
<pdfrwt beam="1">  1        2 0.50861250E+00 0.73278900E+03</pdfrwt>
<pdfrwt beam="2">  1       -2 0.37152610E-01 0.73278900E+03</pdfrwt>
<totfact> 0.81228878E+00</totfact>
</mgrwt>
</event>
<event>
 4    5  0.6615028E-008  0.9222607E+03  0.7818608E-02  0.9491201E-01
          2   -1    0    0  501    0  0.00000000000E+00  0.00000000000E+00  0.12895360797E+04  0.12895360797E+04  0.25500000000E-02 0. -1.
         -2   -1    0    0    0  501 -0.00000000000E+00 -0.00000000000E+00 -0.76375250113E+03  0.76375250114E+03  0.25500000000E-02 0.  1.
    8880023    1    1    2    0    0  0.18646273086E+03  0.61805031971E+03  0.90248554337E+03  0.12903661922E+04  0.65864270000E+03 0.  0.
    8880022    1    1    2    0    0 -0.18646273086E+03 -0.61805031971E+03 -0.37670196485E+03  0.76292238860E+03  0.15294330000E+03 0.  0.
<mgrwt>
<rscale>  0 0.84935625E+03</rscale>
<asrwt>0</asrwt>
<pdfrwt beam="1">  1        2 0.19839016E+00 0.92226068E+03</pdfrwt>
<pdfrwt beam="2">  1       -2 0.11750039E+00 0.92226068E+03</pdfrwt>
<totfact> 0.93870773E+00</totfact>
</mgrwt>
</event>
<event>
 4    5  0.6615028E-008  0.8113902E+03  0.7818608E-02  0.9686689E-01
         -2   -1    0    0    0  501 -0.00000000000E+00  0.00000000000E+00  0.14688915811E+04  0.14688915811E+04  0.25500000000E-02 0.  1.
          2   -1    0    0  501    0  0.00000000000E+00 -0.00000000000E+00 -0.87110213935E+03  0.87110213936E+03  0.25500000000E-02 0. -1.
    8880023    1    1    2    0    0  0.27253355691E+03 -0.38764575614E+03 -0.62207759295E+03  0.10224160160E+04  0.65864270000E+03 0.  0.
    8880022    1    1    2    0    0 -0.27253355691E+03  0.38764575614E+03  0.12198670347E+04  0.13175777044E+04  0.15294330000E+03 0.  0.
<mgrwt>
<rscale>  0 0.71814910E+03</rscale>
<asrwt>0</asrwt>
<pdfrwt beam="1">  1        2 0.13401571E+00 0.81139015E+03</pdfrwt>
<pdfrwt beam="2">  1       -2 0.22598332E+00 0.81139015E+03</pdfrwt>
<totfact> 0.28309393E+00</totfact>
</mgrwt>
</event>
<event>
 4    5  0.6615028E-008  0.9230535E+03  0.7818608E-02  0.9489993E-01
         -2   -1    0    0    0  501 -0.00000000000E+00  0.00000000000E+00  0.71066715952E+03  0.71066715953E+03  0.25500000000E-02 0.  1.
          2   -1    0    0  501    0  0.00000000000E+00 -0.00000000000E+00 -0.12160478071E+04  0.12160478071E+04  0.25500000000E-02 0. -1.
    8880023    1    1    2    0    0  0.17657376890E+03 -0.62212483738E+03  0.21382684732E+03  0.94749656255E+03  0.65864270000E+03 0.  1.
    8880022    1    1    2    0    0 -0.17657376890E+03  0.62212483738E+03 -0.71920749487E+03  0.97921840405E+03  0.15294330000E+03 0.  0.
<mgrwt>
<rscale>  0 0.85025645E+03</rscale>
<asrwt>0</asrwt>
<pdfrwt beam="1">  1        2 0.18708428E+00 0.92305353E+03</pdfrwt>
<pdfrwt beam="2">  1       -2 0.10933341E+00 0.92305353E+03</pdfrwt>
<totfact> 0.12362278E+01</totfact>
</mgrwt>
</event>
<event>
 4    5  0.6615028E-008  0.1001559E+04  0.7818608E-02  0.9379521E-01
          2   -1    0    0  501    0  0.00000000000E+00  0.00000000000E+00  0.10103242622E+04  0.10103242622E+04  0.25500000000E-02 0. -1.
         -2   -1    0    0    0  501 -0.00000000000E+00 -0.00000000000E+00 -0.23009289381E+04  0.23009289381E+04  0.25500000000E-02 0.  1.
    8880023    1    1    2    0    0  0.75261024936E+03 -0.53735930474E+02  0.66994241013E+03  0.12049658820E+04  0.65864270000E+03 0.  0.
    8880022    1    1    2    0    0 -0.75261024936E+03  0.53735930474E+02 -0.19605470861E+04  0.21062873183E+04  0.15294330000E+03 0.  0.
<mgrwt>
<rscale>  0 0.93780343E+03</rscale>
<asrwt>0</asrwt>
<pdfrwt beam="1">  1        2 0.15543450E+00 0.10015588E+04</pdfrwt>
<pdfrwt beam="2">  1       -2 0.35398907E+00 0.10015588E+04</pdfrwt>
<totfact> 0.36844341E-01</totfact>
</mgrwt>
</event>
<event>
 4    5  0.6615028E-008  0.6617480E+03  0.7818608E-02  0.1022433E+00
         -2   -1    0    0    0  501 -0.00000000000E+00  0.00000000000E+00  0.23955617443E+03  0.23955617444E+03  0.25500000000E-02 0.  1.
          2   -1    0    0  501    0  0.00000000000E+00 -0.00000000000E+00 -0.10550364566E+04  0.10550364566E+04  0.25500000000E-02 0. -1.
    8880023    1    1    2    0    0 -0.27545514213E+02 -0.57805248943E+02 -0.89307511118E+03  0.11115275807E+04  0.65864270000E+03 0. -1.
    8880022    1    1    2    0    0  0.27545514213E+02  0.57805248943E+02  0.77594829006E+02  0.18306505036E+03  0.15294330000E+03 0.  0.
<mgrwt>
<rscale>  0 0.46818768E+03</rscale>
<asrwt>0</asrwt>
<pdfrwt beam="1">  1        2 0.16231330E+00 0.66174799E+03</pdfrwt>
<pdfrwt beam="2">  1       -2 0.36854797E-01 0.66174799E+03</pdfrwt>
<totfact> 0.16403729E+02</totfact>
</mgrwt>
</event>
<event>
 4    5  0.6615028E-008  0.7270887E+03  0.7818608E-02  0.9899292E-01
          2   -1    0    0  501    0  0.00000000000E+00  0.00000000000E+00  0.94408037329E+03  0.94408037329E+03  0.25500000000E-02 0. -1.
         -2   -1    0    0    0  501 -0.00000000000E+00 -0.00000000000E+00 -0.94556081013E+03  0.94556081013E+03  0.25500000000E-02 0.  1.
    8880023    1    1    2    0    0  0.13543287553E+03  0.27659657230E+03  0.76142820755E+03  0.10528204259E+04  0.65864270000E+03 0.  0.
    8880022    1    1    2    0    0 -0.13543287553E+03 -0.27659657230E+03 -0.76290864439E+03  0.83682075756E+03  0.15294330000E+03 0.  0.
<mgrwt>
<rscale>  0 0.60295625E+03</rscale>
<asrwt>0</asrwt>
<pdfrwt beam="1">  1        2 0.14524313E+00 0.72708867E+03</pdfrwt>
<pdfrwt beam="2">  1       -2 0.14547089E+00 0.72708867E+03</pdfrwt>
<totfact> 0.90811964E+00</totfact>
</mgrwt>
</event>
<event>
 4    5  0.6615028E-008  0.1205474E+04  0.7818608E-02  0.9151820E-01
         -2   -1    0    0    0  501 -0.00000000000E+00  0.00000000000E+00  0.69926331236E+03  0.69926331236E+03  0.25500000000E-02 0.  1.
          2   -1    0    0  501    0  0.00000000000E+00 -0.00000000000E+00 -0.19329210717E+04  0.19329210717E+04  0.25500000000E-02 0. -1.
    8880023    1    1    2    0    0  0.86169561064E+03  0.52615332153E+03 -0.10415766248E+04  0.15931254548E+04  0.65864270000E+03 0.  0.
    8880022    1    1    2    0    0 -0.86169561064E+03 -0.52615332153E+03 -0.19208113449E+03  0.10390589292E+04  0.15294330000E+03 0.  0.
<mgrwt>
<rscale>  0 0.11564870E+04</rscale>
<asrwt>0</asrwt>
<pdfrwt beam="1">  1        2 0.29737247E+00 0.12054737E+04</pdfrwt>
<pdfrwt beam="2">  1       -2 0.10757897E+00 0.12054737E+04</pdfrwt>
<totfact> 0.49318498E+00</totfact>
</mgrwt>
</event>
<event>
 4    5  0.6615028E-008  0.1135101E+04  0.7818608E-02  0.9222946E-01
          2   -1    0    0  501    0  0.00000000000E+00  0.00000000000E+00  0.23869045643E+04  0.23869045643E+04  0.25500000000E-02 0. -1.
         -2   -1    0    0    0  501 -0.00000000000E+00 -0.00000000000E+00 -0.71842269199E+03  0.71842269199E+03  0.25500000000E-02 0.  1.
    8880023    1    1    2    0    0 -0.85989661917E+03 -0.33944397580E+03  0.18310007693E+04  0.21543023075E+04  0.65864270000E+03 0. -1.
    8880022    1    1    2    0    0  0.85989661917E+03  0.33944397580E+03 -0.16251889704E+03  0.95102494882E+03  0.15294330000E+03 0.  0.
<mgrwt>
<rscale>  0 0.10819694E+04</rscale>
<asrwt>0</asrwt>
<pdfrwt beam="1">  1        2 0.36721609E+00 0.11351011E+04</pdfrwt>
<pdfrwt beam="2">  1       -2 0.11052657E+00 0.11351011E+04</pdfrwt>
<totfact> 0.25960407E+00</totfact>
</mgrwt>
</event>
<event>
 4    5  0.6615028E-008  0.1048424E+04  0.7818608E-02  0.9320779E-01
         -2   -1    0    0    0  501 -0.00000000000E+00  0.00000000000E+00  0.59213074786E+03  0.59213074786E+03  0.25500000000E-02 0.  1.
          2   -1    0    0  501    0  0.00000000000E+00 -0.00000000000E+00 -0.20759699353E+04  0.20759699353E+04  0.25500000000E-02 0. -1.
    8880023    1    1    2    0    0 -0.48637912881E+03  0.65484171963E+03 -0.15093890490E+04  0.18377834046E+04  0.65864270000E+03 0.  0.
    8880022    1    1    2    0    0  0.48637912881E+03 -0.65484171963E+03  0.25549861519E+02  0.83031727860E+03  0.15294330000E+03 0.  1.
<mgrwt>
<rscale>  0 0.98892250E+03</rscale>
<asrwt>0</asrwt>
<pdfrwt beam="1">  1        2 0.31937999E+00 0.10484238E+04</pdfrwt>
<pdfrwt beam="2">  1       -2 0.91097039E-01 0.10484238E+04</pdfrwt>
<totfact> 0.62062615E+00</totfact>
</mgrwt>
</event>
<event>
 4    5  0.6615028E-008  0.1069412E+04  0.7818608E-02  0.9295901E-01
         -2   -1    0    0    0  501 -0.00000000000E+00  0.00000000000E+00  0.45729795456E+03  0.45729795457E+03  0.25500000000E-02 0.  1.
          2   -1    0    0  501    0  0.00000000000E+00 -0.00000000000E+00 -0.36864976659E+04  0.36864976659E+04  0.25500000000E-02 0. -1.
    8880023    1    1    2    0    0 -0.13996090295E+03  0.83080902175E+03 -0.30981680191E+04  0.32775429769E+04  0.65864270000E+03 0. -1.
    8880022    1    1    2    0    0  0.13996090295E+03 -0.83080902175E+03 -0.13103169222E+03  0.86625264349E+03  0.15294330000E+03 0.  0.
<mgrwt>
<rscale>  0 0.10116110E+04</rscale>
<asrwt>0</asrwt>
<pdfrwt beam="1">  1        2 0.56715347E+00 0.10694124E+04</pdfrwt>
<pdfrwt beam="2">  1       -2 0.70353534E-01 0.10694124E+04</pdfrwt>
<totfact> 0.11308698E+00</totfact>
</mgrwt>
</event>
<event>
 4    5  0.6615028E-008  0.1161698E+04  0.7818608E-02  0.9195284E-01
         -2   -1    0    0    0  501 -0.00000000000E+00  0.00000000000E+00  0.86845276941E+03  0.86845276942E+03  0.25500000000E-02 0.  1.
          2   -1    0    0  501    0  0.00000000000E+00 -0.00000000000E+00 -0.36970719148E+04  0.36970719148E+04  0.25500000000E-02 0. -1.
    8880023    1    1    2    0    0  0.90503595188E+03  0.31087424965E+03 -0.32922848431E+04  0.34912293777E+04  0.65864270000E+03 0.  0.
    8880022    1    1    2    0    0 -0.90503595188E+03 -0.31087424965E+03  0.46366569774E+03  0.10742953065E+04  0.15294330000E+03 0.  0.
<mgrwt>
<rscale>  0 0.11102235E+04</rscale>
<asrwt>0</asrwt>
<pdfrwt beam="1">  1        2 0.56878029E+00 0.11616984E+04</pdfrwt>
<pdfrwt beam="2">  1       -2 0.13360812E+00 0.11616984E+04</pdfrwt>
<totfact> 0.23940600E-01</totfact>
</mgrwt>
</event>
<event>
 4    5  0.6615028E-008  0.1441140E+04  0.7818608E-02  0.8952358E-01
          2   -1    0    0  501    0  0.00000000000E+00  0.00000000000E+00  0.58524567358E+03  0.58524567359E+03  0.25500000000E-02 0. -1.
         -2   -1    0    0    0  501 -0.00000000000E+00 -0.00000000000E+00 -0.33422174188E+04  0.33422174188E+04  0.25500000000E-02 0.  1.
    8880023    1    1    2    0    0  0.10318192839E+04 -0.76054135428E+03 -0.10302109871E+04  0.17715019251E+04  0.65864270000E+03 0. -1.
    8880022    1    1    2    0    0 -0.10318192839E+04  0.76054135428E+03 -0.17267607581E+04  0.21559611673E+04  0.15294330000E+03 0.  1.
<mgrwt>
<rscale>  0 0.14020199E+04</rscale>
<asrwt>0</asrwt>
<pdfrwt beam="1">  1        2 0.90037798E-01 0.14411400E+04</pdfrwt>
<pdfrwt beam="2">  1       -2 0.51418728E+00 0.14411400E+04</pdfrwt>
<totfact> 0.65887028E-02</totfact>
</mgrwt>
</event>
<event>
 4    5  0.6615028E-008  0.1191426E+04  0.7818608E-02  0.9165503E-01
         -2   -1    0    0    0  501 -0.00000000000E+00  0.00000000000E+00  0.52675205708E+03  0.52675205709E+03  0.25500000000E-02 0.  1.
          2   -1    0    0  501    0  0.00000000000E+00 -0.00000000000E+00 -0.24026622685E+04  0.24026622685E+04  0.25500000000E-02 0. -1.
    8880023    1    1    2    0    0  0.96466647152E+03 -0.23474055827E+03 -0.13319551545E+04  0.17870644283E+04  0.65864270000E+03 0.  0.
    8880022    1    1    2    0    0 -0.96466647152E+03  0.23474055827E+03 -0.54395505694E+03  0.11423498973E+04  0.15294330000E+03 0.  0.
<mgrwt>
<rscale>  0 0.11416702E+04</rscale>
<asrwt>0</asrwt>
<pdfrwt beam="1">  1        2 0.36964034E+00 0.11914255E+04</pdfrwt>
<pdfrwt beam="2">  1       -2 0.81038779E-01 0.11914255E+04</pdfrwt>
<totfact> 0.52443594E+00</totfact>
</mgrwt>
</event>
<event>
 4    5  0.6615028E-008  0.7348017E+03  0.7818608E-02  0.9875357E-01
         -2   -1    0    0    0  501 -0.00000000000E+00  0.00000000000E+00  0.74041376580E+03  0.74041376581E+03  0.25500000000E-02 0.  1.
          2   -1    0    0  501    0  0.00000000000E+00 -0.00000000000E+00 -0.24739769468E+04  0.24739769468E+04  0.25500000000E-02 0. -1.
    8880023    1    1    2    0    0 -0.32522354533E+03 -0.18786360308E+02 -0.23710697991E+04  0.24823185694E+04  0.65864270000E+03 0.  0.
    8880022    1    1    2    0    0  0.32522354533E+03  0.18786360308E+02  0.63750661806E+03  0.73207214320E+03  0.15294330000E+03 0.  0.
<mgrwt>
<rscale>  0 0.61470618E+03</rscale>
<asrwt>0</asrwt>
<pdfrwt beam="1">  1        2 0.38061183E+00 0.73480167E+03</pdfrwt>
<pdfrwt beam="2">  1       -2 0.11390981E+00 0.73480167E+03</pdfrwt>
<totfact> 0.22903546E+00</totfact>
</mgrwt>
</event>
<event>
 4    5  0.6615028E-008  0.1126317E+04  0.7818608E-02  0.9232306E-01
          2   -1    0    0  501    0  0.00000000000E+00  0.00000000000E+00  0.99819417617E+03  0.99819417618E+03  0.25500000000E-02 0. -1.
         -2   -1    0    0    0  501 -0.00000000000E+00 -0.00000000000E+00 -0.28140783875E+04  0.28140783875E+04  0.25500000000E-02 0.  1.
    8880023    1    1    2    0    0 -0.52743826911E+03 -0.74604850661E+03  0.56313788225E+03  0.12592513580E+04  0.65864270000E+03 0.  0.
    8880022    1    1    2    0    0  0.52743826911E+03  0.74604850661E+03 -0.23790220935E+04  0.25530212056E+04  0.15294330000E+03 0.  0.
<mgrwt>
<rscale>  0 0.10726108E+04</rscale>
<asrwt>0</asrwt>
<pdfrwt beam="1">  1        2 0.15356834E+00 0.11263169E+04</pdfrwt>
<pdfrwt beam="2">  1       -2 0.43293513E+00 0.11263169E+04</pdfrwt>
<totfact> 0.11338174E-01</totfact>
</mgrwt>
</event>
<event>
 4    5  0.6615028E-008  0.8255846E+03  0.7818608E-02  0.9657985E-01
          2   -1    0    0  501    0  0.00000000000E+00  0.00000000000E+00  0.28953083263E+04  0.28953083263E+04  0.25500000000E-02 0. -1.
         -2   -1    0    0    0  501 -0.00000000000E+00 -0.00000000000E+00 -0.25253423257E+03  0.25253423259E+03  0.25500000000E-02 0.  1.
    8880023    1    1    2    0    0  0.12720681617E+02  0.49761224722E+03  0.24618077016E+04  0.25965529323E+04  0.65864270000E+03 0.  0.
    8880022    1    1    2    0    0 -0.12720681617E+02 -0.49761224722E+03  0.18096639217E+03  0.55128962663E+03  0.15294330000E+03 0.  0.
<mgrwt>
<rscale>  0 0.73574393E+03</rscale>
<asrwt>0</asrwt>
<pdfrwt beam="1">  1        2 0.44543208E+00 0.82558462E+03</pdfrwt>
<pdfrwt beam="2">  1       -2 0.38851418E-01 0.82558462E+03</pdfrwt>
<totfact> 0.13239929E+01</totfact>
</mgrwt>
</event>
<event>
 4    5  0.6615028E-008  0.9013549E+03  0.7818608E-02  0.9523860E-01
          2   -1    0    0  501    0  0.00000000000E+00  0.00000000000E+00  0.40706956899E+04  0.40706956899E+04  0.25500000000E-02 0. -1.
         -2   -1    0    0    0  501 -0.00000000000E+00 -0.00000000000E+00 -0.52497706666E+03  0.52497706666E+03  0.25500000000E-02 0.  1.
    8880023    1    1    2    0    0 -0.43728450368E+03  0.43291192382E+03  0.38052609720E+04  0.39105564491E+04  0.65864270000E+03 0. -1.
    8880022    1    1    2    0    0  0.43728450368E+03 -0.43291192382E+03 -0.25954234870E+03  0.68511630744E+03  0.15294330000E+03 0.  0.
<mgrwt>
<rscale>  0 0.82547346E+03</rscale>
<asrwt>0</asrwt>
<pdfrwt beam="1">  1        2 0.62626091E+00 0.90135491E+03</pdfrwt>
<pdfrwt beam="2">  1       -2 0.80765698E-01 0.90135491E+03</pdfrwt>
<totfact> 0.43641463E-01</totfact>
</mgrwt>
</event>
<event>
 4    5  0.6615028E-008  0.9701080E+03  0.7818608E-02  0.9421755E-01
          2   -1    0    0  501    0  0.00000000000E+00  0.00000000000E+00  0.68845903126E+03  0.68845903126E+03  0.25500000000E-02 0. -1.
         -2   -1    0    0    0  501 -0.00000000000E+00 -0.00000000000E+00 -0.14486821186E+04  0.14486821186E+04  0.25500000000E-02 0.  1.
    8880023    1    1    2    0    0  0.28898402891E+03 -0.65098965479E+03  0.13883375490E+03  0.97999199863E+03  0.65864270000E+03 0.  0.
    8880022    1    1    2    0    0 -0.28898402891E+03  0.65098965479E+03 -0.89905684227E+03  0.11571491513E+04  0.15294330000E+03 0.  0.
<mgrwt>
<rscale>  0 0.90306762E+03</rscale>
<asrwt>0</asrwt>
<pdfrwt beam="1">  1        2 0.10591677E+00 0.97010799E+03</pdfrwt>
<pdfrwt beam="2">  1       -2 0.22287417E+00 0.97010799E+03</pdfrwt>
<totfact> 0.39597166E+00</totfact>
</mgrwt>
</event>
<event>
 4    5  0.6615028E-008  0.1488160E+04  0.7818608E-02  0.8918042E-01
          2   -1    0    0  501    0  0.00000000000E+00  0.00000000000E+00  0.36437002067E+04  0.36437002067E+04  0.25500000000E-02 0. -1.
         -2   -1    0    0    0  501 -0.00000000000E+00 -0.00000000000E+00 -0.59092623441E+03  0.59092623442E+03  0.25500000000E-02 0.  1.
    8880023    1    1    2    0    0  0.41173983825E+03 -0.12693619006E+04  0.10428216495E+04  0.18171671712E+04  0.65864270000E+03 0.  1.
    8880022    1    1    2    0    0 -0.41173983825E+03  0.12693619006E+04  0.20099523228E+04  0.24174592699E+04  0.15294330000E+03 0.  0.
<mgrwt>
<rscale>  0 0.14505169E+04</rscale>
<asrwt>0</asrwt>
<pdfrwt beam="1">  1        2 0.56056926E+00 0.14881598E+04</pdfrwt>
<pdfrwt beam="2">  1       -2 0.90911730E-01 0.14881598E+04</pdfrwt>
<totfact> 0.64110615E-01</totfact>
</mgrwt>
</event>
<event>
 4    5  0.6615028E-008  0.1083586E+04  0.7818608E-02  0.9279554E-01
         -2   -1    0    0    0  501 -0.00000000000E+00  0.00000000000E+00  0.87427962521E+03  0.87427962521E+03  0.25500000000E-02 0.  1.
          2   -1    0    0  501    0  0.00000000000E+00 -0.00000000000E+00 -0.12500960351E+04  0.12500960351E+04  0.25500000000E-02 0. -1.
    8880023    1    1    2    0    0 -0.44444435605E+02  0.85928693399E+03 -0.57694166117E+03  0.12276079299E+04  0.65864270000E+03 0.  0.
    8880022    1    1    2    0    0  0.44444435605E+02 -0.85928693399E+03  0.20112525123E+03  0.89676773051E+03  0.15294330000E+03 0.  0.
<mgrwt>
<rscale>  0 0.10268711E+04</rscale>
<asrwt>0</asrwt>
<pdfrwt beam="1">  1        2 0.19232247E+00 0.10835864E+04</pdfrwt>
<pdfrwt beam="2">  1       -2 0.13450456E+00 0.10835864E+04</pdfrwt>
<totfact> 0.69309533E+00</totfact>
</mgrwt>
</event>
<event>
 4    5  0.6615028E-008  0.6727517E+03  0.7818608E-02  0.1013762E+00
          2   -1    0    0  501    0  0.00000000000E+00  0.00000000000E+00  0.19428130666E+04  0.19428130666E+04  0.25500000000E-02 0. -1.
         -2   -1    0    0    0  501 -0.00000000000E+00 -0.00000000000E+00 -0.34258884918E+03  0.34258884919E+03  0.25500000000E-02 0.  1.
    8880023    1    1    2    0    0  0.10561682465E+03 -0.87348528489E+02  0.18462051337E+04  0.19649601220E+04  0.65864270000E+03 0. -1.
    8880022    1    1    2    0    0 -0.10561682465E+03  0.87348528489E+02 -0.24598091623E+03  0.32044179384E+03  0.15294330000E+03 0.  0.
<mgrwt>
<rscale>  0 0.50006299E+03</rscale>
<asrwt>0</asrwt>
<pdfrwt beam="1">  1        2 0.29889433E+00 0.67275173E+03</pdfrwt>
<pdfrwt beam="2">  1       -2 0.52705975E-01 0.67275173E+03</pdfrwt>
<totfact> 0.25469843E+01</totfact>
</mgrwt>
</event>
<event>
 4    5  0.6615028E-008  0.1234960E+04  0.7818608E-02  0.9123866E-01
          2   -1    0    0  501    0  0.00000000000E+00  0.00000000000E+00  0.21366354751E+04  0.21366354751E+04  0.25500000000E-02 0. -1.
         -2   -1    0    0    0  501 -0.00000000000E+00 -0.00000000000E+00 -0.10645783740E+04  0.10645783740E+04  0.25500000000E-02 0.  1.
    8880023    1    1    2    0    0  0.47898095700E+03 -0.92838220074E+03  0.15996829165E+04  0.20209185801E+04  0.65864270000E+03 0. -1.
    8880022    1    1    2    0    0 -0.47898095700E+03  0.92838220074E+03 -0.52762581544E+03  0.11802952690E+04  0.15294330000E+03 0.  0.
<mgrwt>
<rscale>  0 0.11875033E+04</rscale>
<asrwt>0</asrwt>
<pdfrwt beam="1">  1        2 0.32871314E+00 0.12349601E+04</pdfrwt>
<pdfrwt beam="2">  1       -2 0.16378129E+00 0.12349601E+04</pdfrwt>
<totfact> 0.12836825E+00</totfact>
</mgrwt>
</event>
<event>
 4    5  0.6615028E-008  0.8269405E+03  0.7818608E-02  0.9655315E-01
          2   -1    0    0  501    0  0.00000000000E+00  0.00000000000E+00  0.17524085725E+04  0.17524085725E+04  0.25500000000E-02 0. -1.
         -2   -1    0    0    0  501 -0.00000000000E+00 -0.00000000000E+00 -0.50504270459E+03  0.50504270460E+03  0.25500000000E-02 0.  1.
    8880023    1    1    2    0    0  0.49072392621E+03  0.95971054678E+02  0.14719817817E+04  0.16883604435E+04  0.65864270000E+03 0. -1.
    8880022    1    1    2    0    0 -0.49072392621E+03 -0.95971054678E+02 -0.22461591386E+03  0.56909083358E+03  0.15294330000E+03 0.  0.
<mgrwt>
<rscale>  0 0.73740812E+03</rscale>
<asrwt>0</asrwt>
<pdfrwt beam="1">  1        2 0.26960132E+00 0.82694052E+03</pdfrwt>
<pdfrwt beam="2">  1       -2 0.77698878E-01 0.82694052E+03</pdfrwt>
<totfact> 0.13792200E+01</totfact>
</mgrwt>
</event>
<event>
 4    5  0.6615028E-008  0.1008721E+04  0.7818608E-02  0.9370236E-01
          2   -1    0    0  501    0  0.00000000000E+00  0.00000000000E+00  0.79490219867E+03  0.79490219867E+03  0.25500000000E-02 0. -1.
         -2   -1    0    0    0  501 -0.00000000000E+00 -0.00000000000E+00 -0.15555274023E+04  0.15555274023E+04  0.25500000000E-02 0.  1.
    8880023    1    1    2    0    0 -0.74988968817E+03  0.14619604401E+03  0.28333535810E+03  0.10477580633E+04  0.65864270000E+03 0. -1.
    8880022    1    1    2    0    0  0.74988968817E+03 -0.14619604401E+03 -0.10439605617E+04  0.13026715377E+04  0.15294330000E+03 0.  0.
<mgrwt>
<rscale>  0 0.94566165E+03</rscale>
<asrwt>0</asrwt>
<pdfrwt beam="1">  1        2 0.12229265E+00 0.10087210E+04</pdfrwt>
<pdfrwt beam="2">  1       -2 0.23931191E+00 0.10087210E+04</pdfrwt>
<totfact> 0.25866259E+00</totfact>
</mgrwt>
</event>
<event>
 4    5  0.6615028E-008  0.8858270E+03  0.7818608E-02  0.9549178E-01
         -2   -1    0    0    0  501 -0.00000000000E+00  0.00000000000E+00  0.28123732986E+03  0.28123732988E+03  0.25500000000E-02 0.  1.
          2   -1    0    0  501    0  0.00000000000E+00 -0.00000000000E+00 -0.21489309221E+04  0.21489309221E+04  0.25500000000E-02 0. -1.
    8880023    1    1    2    0    0  0.80263611106E+02 -0.58688754212E+03 -0.14138476122E+04  0.16684287552E+04  0.65864270000E+03 0.  0.
    8880022    1    1    2    0    0 -0.80263611106E+02  0.58688754212E+03 -0.45384598005E+03  0.76173949681E+03  0.15294330000E+03 0.  0.
<mgrwt>
<rscale>  0 0.80753236E+03</rscale>
<asrwt>0</asrwt>
<pdfrwt beam="1">  1        2 0.33060475E+00 0.88582698E+03</pdfrwt>
<pdfrwt beam="2">  1       -2 0.43267283E-01 0.88582698E+03</pdfrwt>
<totfact> 0.28456854E+01</totfact>
</mgrwt>
</event>
<event>
 4    5  0.6615028E-008  0.1308535E+04  0.7818608E-02  0.9058224E-01
         -2   -1    0    0    0  501 -0.00000000000E+00  0.00000000000E+00  0.11296456365E+04  0.11296456365E+04  0.25500000000E-02 0.  1.
          2   -1    0    0  501    0  0.00000000000E+00 -0.00000000000E+00 -0.18910850811E+04  0.18910850811E+04  0.25500000000E-02 0. -1.
    8880023    1    1    2    0    0 -0.52057562048E+03  0.10037203517E+04 -0.12219007027E+04  0.17903365758E+04  0.65864270000E+03 0.  0.
    8880022    1    1    2    0    0  0.52057562048E+03 -0.10037203517E+04  0.46046125803E+03  0.12303941418E+04  0.15294330000E+03 0.  0.
<mgrwt>
<rscale>  0 0.12644711E+04</rscale>
<asrwt>0</asrwt>
<pdfrwt beam="1">  1        2 0.29093617E+00 0.13085350E+04</pdfrwt>
<pdfrwt beam="2">  1       -2 0.17379164E+00 0.13085350E+04</pdfrwt>
<totfact> 0.14770774E+00</totfact>
</mgrwt>
</event>
<event>
 4    5  0.6615028E-008  0.6805813E+03  0.7818608E-02  0.1008997E+00
          2   -1    0    0  501    0  0.00000000000E+00  0.00000000000E+00  0.33952240450E+04  0.33952240450E+04  0.25500000000E-02 0. -1.
         -2   -1    0    0    0  501 -0.00000000000E+00 -0.00000000000E+00 -0.25172554541E+03  0.25172554542E+03  0.25500000000E-02 0.  1.
    8880023    1    1    2    0    0 -0.95479746306E+02 -0.14235269169E+03  0.32996978332E+04  0.33691537019E+04  0.65864270000E+03 0. -1.
    8880022    1    1    2    0    0  0.95479746306E+02  0.14235269169E+03 -0.15619933363E+03  0.27779588843E+03  0.15294330000E+03 0.  0.
<mgrwt>
<rscale>  0 0.51875319E+03</rscale>
<asrwt>0</asrwt>
<pdfrwt beam="1">  1        2 0.52234218E+00 0.68058128E+03</pdfrwt>
<pdfrwt beam="2">  1       -2 0.38727006E-01 0.68058128E+03</pdfrwt>
<totfact> 0.66226245E+00</totfact>
</mgrwt>
</event>
<event>
 4    5  0.6615028E-008  0.7490984E+03  0.7818608E-02  0.9834195E-01
         -2   -1    0    0    0  501 -0.00000000000E+00  0.00000000000E+00  0.10953166239E+04  0.10953166239E+04  0.25500000000E-02 0.  1.
          2   -1    0    0  501    0  0.00000000000E+00 -0.00000000000E+00 -0.74454400365E+03  0.74454400365E+03  0.25500000000E-02 0. -1.
    8880023    1    1    2    0    0 -0.15964498433E+03  0.31914211299E+03 -0.50276377265E+03  0.90217505322E+03  0.65864270000E+03 0. -1.
    8880022    1    1    2    0    0  0.15964498433E+03 -0.31914211299E+03  0.85353639290E+03  0.93768557434E+03  0.15294330000E+03 0.  0.
<mgrwt>
<rscale>  0 0.63559294E+03</rscale>
<asrwt>0</asrwt>
<pdfrwt beam="1">  1        2 0.11454523E+00 0.74909840E+03</pdfrwt>
<pdfrwt beam="2">  1       -2 0.16851025E+00 0.74909840E+03</pdfrwt>
<totfact> 0.84123070E+00</totfact>
</mgrwt>
</event>
<event>
 4    5  0.6615028E-008  0.7978680E+03  0.7818608E-02  0.9715425E-01
          2   -1    0    0  501    0  0.00000000000E+00  0.00000000000E+00  0.29197237058E+04  0.29197237058E+04  0.25500000000E-02 0. -1.
         -2   -1    0    0    0  501 -0.00000000000E+00 -0.00000000000E+00 -0.28446351778E+03  0.28446351779E+03  0.25500000000E-02 0.  1.
    8880023    1    1    2    0    0 -0.43334824364E+03 -0.12244379225E+03  0.26085683232E+04  0.27278603493E+04  0.65864270000E+03 0. -1.
    8880022    1    1    2    0    0  0.43334824364E+03  0.12244379225E+03  0.26691864899E+02  0.47632687431E+03  0.15294330000E+03 0.  0.
<mgrwt>
<rscale>  0 0.70105781E+03</rscale>
<asrwt>0</asrwt>
<pdfrwt beam="1">  1        2 0.44918826E+00 0.79786803E+03</pdfrwt>
<pdfrwt beam="2">  1       -2 0.43763619E-01 0.79786803E+03</pdfrwt>
<totfact> 0.10175510E+01</totfact>
</mgrwt>
</event>
<event>
 4    5  0.6615028E-008  0.7363168E+03  0.7818608E-02  0.9870809E-01
          2   -1    0    0  501    0  0.00000000000E+00  0.00000000000E+00  0.30744880523E+04  0.30744880523E+04  0.25500000000E-02 0. -1.
         -2   -1    0    0    0  501 -0.00000000000E+00 -0.00000000000E+00 -0.76487527482E+03  0.76487527482E+03  0.25500000000E-02 0.  1.
    8880023    1    1    2    0    0 -0.12985311734E+03 -0.30247381734E+03  0.29840002039E+04  0.30735028331E+04  0.65864270000E+03 0. -1.
    8880022    1    1    2    0    0  0.12985311734E+03  0.30247381734E+03 -0.67438742643E+03  0.76586049396E+03  0.15294330000E+03 0.  0.
<mgrwt>
<rscale>  0 0.61697114E+03</rscale>
<asrwt>0</asrwt>
<pdfrwt beam="1">  1        2 0.47299818E+00 0.73631681E+03</pdfrwt>
<pdfrwt beam="2">  1       -2 0.11767312E+00 0.73631681E+03</pdfrwt>
<totfact> 0.93563869E-01</totfact>
</mgrwt>
</event>
<event>
 4    5  0.6615028E-008  0.9901971E+03  0.7818608E-02  0.9394497E-01
         -2   -1    0    0    0  501 -0.00000000000E+00  0.00000000000E+00  0.87244972925E+03  0.87244972926E+03  0.25500000000E-02 0.  1.
          2   -1    0    0  501    0  0.00000000000E+00 -0.00000000000E+00 -0.10715448242E+04  0.10715448242E+04  0.25500000000E-02 0. -1.
    8880023    1    1    2    0    0  0.20368960215E+03 -0.71076758630E+03 -0.52599722733E+03  0.11212329397E+04  0.65864270000E+03 0. -1.
    8880022    1    1    2    0    0 -0.20368960215E+03  0.71076758630E+03  0.32690213242E+03  0.82276161368E+03  0.15294330000E+03 0.  0.
<mgrwt>
<rscale>  0 0.92529967E+03</rscale>
<asrwt>0</asrwt>
<pdfrwt beam="1">  1        2 0.16485305E+00 0.99019706E+03</pdfrwt>
<pdfrwt beam="2">  1       -2 0.13422303E+00 0.99019706E+03</pdfrwt>
<totfact> 0.90185178E+00</totfact>
</mgrwt>
</event>
<event>
 4    5  0.6615028E-008  0.9342922E+03  0.7818608E-02  0.9473084E-01
         -2   -1    0    0    0  501 -0.00000000000E+00  0.00000000000E+00  0.37815085611E+03  0.37815085612E+03  0.25500000000E-02 0.  1.
          2   -1    0    0  501    0  0.00000000000E+00 -0.00000000000E+00 -0.29946544656E+04  0.29946544656E+04  0.25500000000E-02 0. -1.
    8880023    1    1    2    0    0  0.24988797580E+03  0.61371635363E+03 -0.25178768121E+04  0.26856294626E+04  0.65864270000E+03 0. -1.
    8880022    1    1    2    0    0 -0.24988797580E+03 -0.61371635363E+03 -0.98626797365E+02  0.68717585910E+03  0.15294330000E+03 0.  0.
<mgrwt>
<rscale>  0 0.86297671E+03</rscale>
<asrwt>0</asrwt>
<pdfrwt beam="1">  1        2 0.46071605E+00 0.93429223E+03</pdfrwt>
<pdfrwt beam="2">  1       -2 0.58177057E-01 0.93429223E+03</pdfrwt>
<totfact> 0.50086479E+00</totfact>
</mgrwt>
</event>
<event>
 4    5  0.6615028E-008  0.7671956E+03  0.7818608E-02  0.9786823E-01
         -2   -1    0    0    0  501 -0.00000000000E+00  0.00000000000E+00  0.36634384938E+03  0.36634384939E+03  0.25500000000E-02 0.  1.
          2   -1    0    0  501    0  0.00000000000E+00 -0.00000000000E+00 -0.97664902050E+03  0.97664902050E+03  0.25500000000E-02 0. -1.
    8880023    1    1    2    0    0  0.17306302299E+03 -0.35331011979E+03 -0.46217296030E+03  0.89565222166E+03  0.65864270000E+03 0. -1.
    8880022    1    1    2    0    0 -0.17306302299E+03  0.35331011979E+03 -0.14813221082E+03  0.44734064824E+03  0.15294330000E+03 0.  1.
<mgrwt>
<rscale>  0 0.66074524E+03</rscale>
<asrwt>0</asrwt>
<pdfrwt beam="1">  1        2 0.15025369E+00 0.76719558E+03</pdfrwt>
<pdfrwt beam="2">  1       -2 0.56360593E-01 0.76719558E+03</pdfrwt>
<totfact> 0.78044167E+01</totfact>
</mgrwt>
</event>
<event>
 4    5  0.6615028E-008  0.6764543E+03  0.7818608E-02  0.1011405E+00
          2   -1    0    0  501    0  0.00000000000E+00  0.00000000000E+00  0.21078704652E+04  0.21078704652E+04  0.25500000000E-02 0. -1.
         -2   -1    0    0    0  501 -0.00000000000E+00 -0.00000000000E+00 -0.19402840294E+03  0.19402840296E+03  0.25500000000E-02 0.  1.
    8880023    1    1    2    0    0 -0.88950814569E+02 -0.12596803928E+03  0.19655004238E+04  0.20786491567E+04  0.65864270000E+03 0. -1.
    8880022    1    1    2    0    0  0.88950814569E+02  0.12596803928E+03 -0.51658361559E+02  0.22324971146E+03  0.15294330000E+03 0.  0.
<mgrwt>
<rscale>  0 0.50920094E+03</rscale>
<asrwt>0</asrwt>
<pdfrwt beam="1">  1        2 0.32428776E+00 0.67645429E+03</pdfrwt>
<pdfrwt beam="2">  1       -2 0.29850524E-01 0.67645429E+03</pdfrwt>
<totfact> 0.62610559E+01</totfact>
</mgrwt>
</event>
<event>
 4    5  0.6615028E-008  0.1252980E+04  0.7818608E-02  0.9107267E-01
         -2   -1    0    0    0  501 -0.00000000000E+00  0.00000000000E+00  0.23072227136E+04  0.23072227136E+04  0.25500000000E-02 0.  1.
          2   -1    0    0  501    0  0.00000000000E+00 -0.00000000000E+00 -0.10224526405E+04  0.10224526405E+04  0.25500000000E-02 0. -1.
    8880023    1    1    2    0    0 -0.38756322888E+02  0.10651976158E+04  0.17535827460E+04  0.21552286808E+04  0.65864270000E+03 0.  0.
    8880022    1    1    2    0    0  0.38756322888E+02 -0.10651976158E+04 -0.46881267282E+03  0.11744466733E+04  0.15294330000E+03 0.  0.
<mgrwt>
<rscale>  0 0.12064067E+04</rscale>
<asrwt>0</asrwt>
<pdfrwt beam="1">  1        2 0.15730041E+00 0.12529797E+04</pdfrwt>
<pdfrwt beam="2">  1       -2 0.35495734E+00 0.12529797E+04</pdfrwt>
<totfact> 0.34434227E-01</totfact>
</mgrwt>
</event>
<event>
 4    5  0.6615028E-008  0.8564795E+03  0.7818608E-02  0.9599857E-01
          2   -1    0    0  501    0  0.00000000000E+00  0.00000000000E+00  0.33380576494E+04  0.33380576494E+04  0.25500000000E-02 0. -1.
         -2   -1    0    0    0  501 -0.00000000000E+00 -0.00000000000E+00 -0.94428300066E+03  0.94428300066E+03  0.25500000000E-02 0.  1.
    8880023    1    1    2    0    0  0.10176913708E+03 -0.53794982409E+03  0.31905854065E+04  0.33035424037E+04  0.65864270000E+03 0. -1.
    8880022    1    1    2    0    0 -0.10176913708E+03  0.53794982409E+03 -0.79681075774E+03  0.97879824640E+03  0.15294330000E+03 0.  0.
<mgrwt>
<rscale>  0 0.77305670E+03</rscale>
<asrwt>0</asrwt>
<pdfrwt beam="1">  1        2 0.51354734E+00 0.85647953E+03</pdfrwt>
<pdfrwt beam="2">  1       -2 0.14527431E+00 0.85647953E+03</pdfrwt>
<totfact> 0.36169733E-01</totfact>
</mgrwt>
</event>
<event>
 4    5  0.6615028E-008  0.1803089E+04  0.7818608E-02  0.8720830E-01
          2   -1    0    0  501    0  0.00000000000E+00  0.00000000000E+00  0.33817504361E+04  0.33817504361E+04  0.25500000000E-02 0. -1.
         -2   -1    0    0    0  501 -0.00000000000E+00 -0.00000000000E+00 -0.10331570589E+04  0.10331570589E+04  0.25500000000E-02 0.  1.
    8880023    1    1    2    0    0  0.12834111501E+04 -0.10817462850E+04  0.41571018418E+03  0.18503903288E+04  0.65864270000E+03 0.  0.
    8880022    1    1    2    0    0 -0.12834111501E+04  0.10817462850E+04  0.19328831930E+04  0.25645171663E+04  0.15294330000E+03 0.  0.
<mgrwt>
<rscale>  0 0.17729285E+04</rscale>
<asrwt>0</asrwt>
<pdfrwt beam="1">  1        2 0.52026930E+00 0.18030889E+04</pdfrwt>
<pdfrwt beam="2">  1       -2 0.15894724E+00 0.18030889E+04</pdfrwt>
<totfact> 0.23105912E-01</totfact>
</mgrwt>
</event>
<event>
 4    5  0.6615028E-008  0.9734650E+03  0.7818608E-02  0.9417128E-01
         -2   -1    0    0    0  501 -0.00000000000E+00  0.00000000000E+00  0.49424345903E+03  0.49424345904E+03  0.25500000000E-02 0.  1.
          2   -1    0    0  501    0  0.00000000000E+00 -0.00000000000E+00 -0.37977395390E+04  0.37977395390E+04  0.25500000000E-02 0. -1.
    8880023    1    1    2    0    0 -0.16858383786E+03 -0.69670891121E+03 -0.34146076496E+04  0.35506590126E+04  0.65864270000E+03 0. -1.
    8880022    1    1    2    0    0  0.16858383786E+03  0.69670891121E+03  0.11111156964E+03  0.74132398536E+03  0.15294330000E+03 0.  0.
<mgrwt>
<rscale>  0 0.90679435E+03</rscale>
<asrwt>0</asrwt>
<pdfrwt beam="1">  1        2 0.58426760E+00 0.97346496E+03</pdfrwt>
<pdfrwt beam="2">  1       -2 0.76037458E-01 0.97346496E+03</pdfrwt>
<totfact> 0.80243160E-01</totfact>
</mgrwt>
</event>
<event>
 4    5  0.6615028E-008  0.7763509E+03  0.7818608E-02  0.9764480E-01
          2   -1    0    0  501    0  0.00000000000E+00  0.00000000000E+00  0.17638712265E+04  0.17638712265E+04  0.25500000000E-02 0. -1.
         -2   -1    0    0    0  501 -0.00000000000E+00 -0.00000000000E+00 -0.24159509607E+03  0.24159509609E+03  0.25500000000E-02 0.  1.
    8880023    1    1    2    0    0  0.30408091711E+03  0.27648748120E+03  0.12991473093E+04  0.15134412671E+04  0.65864270000E+03 0.  1.
    8880022    1    1    2    0    0 -0.30408091711E+03 -0.27648748120E+03  0.22312882113E+03  0.49202505551E+03  0.15294330000E+03 0.  0.
<mgrwt>
<rscale>  0 0.67304109E+03</rscale>
<asrwt>0</asrwt>
<pdfrwt beam="1">  1        2 0.27136481E+00 0.77635091E+03</pdfrwt>
<pdfrwt beam="2">  1       -2 0.37168475E-01 0.77635091E+03</pdfrwt>
<totfact> 0.62998990E+01</totfact>
</mgrwt>
</event>
<event>
 4    5  0.6615028E-008  0.1304718E+04  0.7818608E-02  0.9061496E-01
         -2   -1    0    0    0  501 -0.00000000000E+00  0.00000000000E+00  0.62437775377E+03  0.62437775377E+03  0.25500000000E-02 0.  1.
          2   -1    0    0  501    0  0.00000000000E+00 -0.00000000000E+00 -0.34357521731E+04  0.34357521731E+04  0.25500000000E-02 0. -1.
    8880023    1    1    2    0    0 -0.93326655232E+03  0.63046947578E+03 -0.25929871657E+04  0.29027350664E+04  0.65864270000E+03 0.  0.
    8880022    1    1    2    0    0  0.93326655232E+03 -0.63046947578E+03 -0.21838725358E+03  0.11573948605E+04  0.15294330000E+03 0.  0.
<mgrwt>
<rscale>  0 0.12604911E+04</rscale>
<asrwt>0</asrwt>
<pdfrwt beam="1">  1        2 0.52857725E+00 0.13047178E+04</pdfrwt>
<pdfrwt beam="2">  1       -2 0.96058118E-01 0.13047178E+04</pdfrwt>
<totfact> 0.80617779E-01</totfact>
</mgrwt>
</event>
<event>
 4    5  0.8561960E-008  0.1356913E+04  0.7818608E-02  0.9017907E-01
          2   -1    0    0  501    0  0.00000000000E+00  0.00000000000E+00  0.25668448673E+04  0.25668448673E+04  0.25500000000E-02 0. -1.
         -2   -1    0    0    0  501 -0.00000000000E+00 -0.00000000000E+00 -0.18884328704E+04  0.18884328704E+04  0.25500000000E-02 0.  1.
    8880023    1    1    2    0    0 -0.11230852620E+04 -0.38220549166E+03  0.21601562084E+04  0.25509775762E+04  0.65864270000E+03 0.  0.
    8880022    1    1    2    0    0  0.11230852620E+04  0.38220549166E+03 -0.14817442114E+04  0.19043001614E+04  0.15294330000E+03 0.  0.
<mgrwt>
<rscale>  0 0.13148040E+04</rscale>
<asrwt>0</asrwt>
<pdfrwt beam="1">  1        2 0.39489921E+00 0.13569126E+04</pdfrwt>
<pdfrwt beam="2">  1       -2 0.29052813E+00 0.13569126E+04</pdfrwt>
<totfact> 0.11065865E-01</totfact>
</mgrwt>
</event>
<event>
 4    5  0.6615028E-008  0.7771122E+03  0.7818608E-02  0.9762665E-01
          2   -1    0    0  501    0  0.00000000000E+00  0.00000000000E+00  0.16868615409E+04  0.16868615409E+04  0.25500000000E-02 0. -1.
         -2   -1    0    0    0  501 -0.00000000000E+00 -0.00000000000E+00 -0.88552902778E+03  0.88552902779E+03  0.25500000000E-02 0.  1.
    8880023    1    1    2    0    0  0.26212949849E+03  0.31840417413E+03  0.15329780433E+04  0.17186986296E+04  0.65864270000E+03 0. -1.
    8880022    1    1    2    0    0 -0.26212949849E+03 -0.31840417413E+03 -0.73164553013E+03  0.85369193908E+03  0.15294330000E+03 0.  0.
<mgrwt>
<rscale>  0 0.67405233E+03</rscale>
<asrwt>0</asrwt>
<pdfrwt beam="1">  1        2 0.25951716E+00 0.77711215E+03</pdfrwt>
<pdfrwt beam="2">  1       -2 0.13623524E+00 0.77711215E+03</pdfrwt>
<totfact> 0.39409741E+00</totfact>
</mgrwt>
</event>
<event>
 4    5  0.6615028E-008  0.6712184E+03  0.7818608E-02  0.1014804E+00
          2   -1    0    0  501    0  0.00000000000E+00  0.00000000000E+00  0.24948605490E+04  0.24948605490E+04  0.25500000000E-02 0. -1.
         -2   -1    0    0    0  501 -0.00000000000E+00 -0.00000000000E+00 -0.10549092792E+03  0.10549092795E+03  0.25500000000E-02 0.  1.
    8880023    1    1    2    0    0  0.12303120417E+03  0.39839752669E+02  0.22700711783E+04  0.23672256428E+04  0.65864270000E+03 0. -1.
    8880022    1    1    2    0    0 -0.12303120417E+03 -0.39839752669E+02  0.11929844280E+03  0.23312583418E+03  0.15294330000E+03 0.  1.
<mgrwt>
<rscale>  0 0.49609168E+03</rscale>
<asrwt>0</asrwt>
<pdfrwt beam="1">  1        2 0.38382470E+00 0.67121836E+03</pdfrwt>
<pdfrwt beam="2">  1       -2 0.16229374E-01 0.67121836E+03</pdfrwt>
<totfact> 0.11254922E+02</totfact>
</mgrwt>
</event>
<event>
 4    5  0.6615028E-008  0.1596777E+04  0.7818608E-02  0.8844158E-01
         -2   -1    0    0    0  501 -0.00000000000E+00  0.00000000000E+00  0.10716699742E+04  0.10716699742E+04  0.25500000000E-02 0.  1.
          2   -1    0    0  501    0  0.00000000000E+00 -0.00000000000E+00 -0.40428826142E+04  0.40428826142E+04  0.25500000000E-02 0. -1.
    8880023    1    1    2    0    0  0.99804696236E+03  0.10582006363E+04 -0.32541579026E+04  0.36248089863E+04  0.65864270000E+03 0. -1.
    8880022    1    1    2    0    0 -0.99804696236E+03 -0.10582006363E+04  0.28294526258E+03  0.14897436022E+04  0.15294330000E+03 0.  0.
<mgrwt>
<rscale>  0 0.15621279E+04</rscale>
<asrwt>0</asrwt>
<pdfrwt beam="1">  1        2 0.62198193E+00 0.15967769E+04</pdfrwt>
<pdfrwt beam="2">  1       -2 0.16487231E+00 0.15967769E+04</pdfrwt>
<totfact> 0.69356563E-02</totfact>
</mgrwt>
</event>
<event>
 4    5  0.6615028E-008  0.1537735E+04  0.7818608E-02  0.8883439E-01
          2   -1    0    0  501    0  0.00000000000E+00  0.00000000000E+00  0.34652233554E+04  0.34652233554E+04  0.25500000000E-02 0. -1.
         -2   -1    0    0    0  501 -0.00000000000E+00 -0.00000000000E+00 -0.14977461399E+04  0.14977461399E+04  0.25500000000E-02 0.  1.
    8880023    1    1    2    0    0  0.12442025163E+04 -0.61869156418E+03  0.29000535191E+04  0.32825203386E+04  0.65864270000E+03 0.  0.
    8880022    1    1    2    0    0 -0.12442025163E+04  0.61869156418E+03 -0.93257630357E+03  0.16804491567E+04  0.15294330000E+03 0.  0.
<mgrwt>
<rscale>  0 0.15015250E+04</rscale>
<asrwt>0</asrwt>
<pdfrwt beam="1">  1        2 0.53311128E+00 0.15377351E+04</pdfrwt>
<pdfrwt beam="2">  1       -2 0.23042248E+00 0.15377351E+04</pdfrwt>
<totfact> 0.68737089E-02</totfact>
</mgrwt>
</event>
<event>
 4    5  0.6615028E-008  0.1112029E+04  0.7818608E-02  0.9247780E-01
          2   -1    0    0  501    0  0.00000000000E+00  0.00000000000E+00  0.30630688112E+04  0.30630688112E+04  0.25500000000E-02 0. -1.
         -2   -1    0    0    0  501 -0.00000000000E+00 -0.00000000000E+00 -0.50761746577E+03  0.50761746577E+03  0.25500000000E-02 0.  1.
    8880023    1    1    2    0    0 -0.89577233950E+03  0.19773754313E+02  0.24046245390E+04  0.26493071671E+04  0.65864270000E+03 0.  0.
    8880022    1    1    2    0    0  0.89577233950E+03 -0.19773754313E+02  0.15082680639E+03  0.92137910988E+03  0.15294330000E+03 0.  0.
<mgrwt>
<rscale>  0 0.10573584E+04</rscale>
<asrwt>0</asrwt>
<pdfrwt beam="1">  1        2 0.47124134E+00 0.11120294E+04</pdfrwt>
<pdfrwt beam="2">  1       -2 0.78094997E-01 0.11120294E+04</pdfrwt>
<totfact> 0.23331729E+00</totfact>
</mgrwt>
</event>
<event>
 4    5  0.6615028E-008  0.7517017E+03  0.7818608E-02  0.9827085E-01
         -2   -1    0    0    0  501 -0.00000000000E+00  0.00000000000E+00  0.43284530262E+03  0.43284530263E+03  0.25500000000E-02 0.  1.
          2   -1    0    0  501    0  0.00000000000E+00 -0.00000000000E+00 -0.30612616774E+04  0.30612616774E+04  0.25500000000E-02 0. -1.
    8880023    1    1    2    0    0  0.20487233610E+03 -0.29878515365E+03 -0.29131733361E+04  0.30085934146E+04  0.65864270000E+03 0. -1.
    8880022    1    1    2    0    0 -0.20487233610E+03  0.29878515365E+03  0.28475696132E+03  0.48551356539E+03  0.15294330000E+03 0.  0.
<mgrwt>
<rscale>  0 0.63929056E+03</rscale>
<asrwt>0</asrwt>
<pdfrwt beam="1">  1        2 0.47096332E+00 0.75170170E+03</pdfrwt>
<pdfrwt beam="2">  1       -2 0.66591587E-01 0.75170170E+03</pdfrwt>
<totfact> 0.35271324E+00</totfact>
</mgrwt>
</event>
<event>
 4    5  0.6615028E-008  0.9192494E+03  0.7818608E-02  0.9495811E-01
          2   -1    0    0  501    0  0.00000000000E+00  0.00000000000E+00  0.29038113783E+04  0.29038113783E+04  0.25500000000E-02 0. -1.
         -2   -1    0    0    0  501 -0.00000000000E+00 -0.00000000000E+00 -0.48897454367E+03  0.48897454368E+03  0.25500000000E-02 0.  1.
    8880023    1    1    2    0    0  0.52274400248E+03 -0.37141334086E+03  0.25580168457E+04  0.27181739369E+04  0.65864270000E+03 0. -1.
    8880022    1    1    2    0    0 -0.52274400248E+03  0.37141334086E+03 -0.14318001107E+03  0.67461198513E+03  0.15294330000E+03 0.  0.
<mgrwt>
<rscale>  0 0.84593368E+03</rscale>
<asrwt>0</asrwt>
<pdfrwt beam="1">  1        2 0.44674021E+00 0.91924935E+03</pdfrwt>
<pdfrwt beam="2">  1       -2 0.75226854E-01 0.91924935E+03</pdfrwt>
<totfact> 0.32707988E+00</totfact>
</mgrwt>
</event>
<event>
 4    5  0.8041338E-008  0.6775232E+03  0.7818608E-02  0.1010761E+00
         -2   -1    0    0    0  501 -0.00000000000E+00  0.00000000000E+00  0.15408166899E+04  0.15408166899E+04  0.25500000000E-02 0.  1.
          2   -1    0    0  501    0  0.00000000000E+00 -0.00000000000E+00 -0.11050207380E+04  0.11050207380E+04  0.25500000000E-02 0. -1.
    8880023    1    1    2    0    0 -0.15851888338E+03  0.99654322704E+01 -0.99190305327E+03  0.12012116465E+04  0.65864270000E+03 0. -1.
    8880022    1    1    2    0    0  0.15851888338E+03 -0.99654322704E+01  0.14276990052E+04  0.14446257815E+04  0.15294330000E+03 0.  0.
<mgrwt>
<rscale>  0 0.51173383E+03</rscale>
<asrwt>0</asrwt>
<pdfrwt beam="1">  1        2 0.17000319E+00 0.67752325E+03</pdfrwt>
<pdfrwt beam="2">  1       -2 0.23704872E+00 0.67752325E+03</pdfrwt>
<totfact> 0.17486823E+00</totfact>
</mgrwt>
</event>
<event>
 4    5  0.6615028E-008  0.6610989E+03  0.7818608E-02  0.1023058E+00
         -2   -1    0    0    0  501 -0.00000000000E+00  0.00000000000E+00  0.38344140684E+03  0.38344140685E+03  0.25500000000E-02 0.  1.
          2   -1    0    0  501    0  0.00000000000E+00 -0.00000000000E+00 -0.66663915537E+03  0.66663915537E+03  0.25500000000E-02 0. -1.
    8880023    1    1    2    0    0  0.34133297418E+02 -0.45568535789E+02 -0.46311645880E+03  0.80717323675E+03  0.65864270000E+03 0. -1.
    8880022    1    1    2    0    0 -0.34133297418E+02  0.45568535789E+02  0.17991871028E+03  0.24290732548E+03  0.15294330000E+03 0.  0.
<mgrwt>
<rscale>  0 0.46599130E+03</rscale>
<asrwt>0</asrwt>
<pdfrwt beam="1">  1        2 0.10255987E+00 0.66109892E+03</pdfrwt>
<pdfrwt beam="2">  1       -2 0.58990986E-01 0.66109892E+03</pdfrwt>
<totfact> 0.11892432E+02</totfact>
</mgrwt>
</event>
<event>
 4    5  0.6615028E-008  0.8829976E+03  0.7818608E-02  0.9553896E-01
          2   -1    0    0  501    0  0.00000000000E+00  0.00000000000E+00  0.17115638633E+04  0.17115638633E+04  0.25500000000E-02 0. -1.
         -2   -1    0    0    0  501 -0.00000000000E+00 -0.00000000000E+00 -0.60641419983E+03  0.60641419984E+03  0.25500000000E-02 0.  1.
    8880023    1    1    2    0    0  0.58053323708E+03  0.94104407488E+02  0.13900831673E+04  0.16468199347E+04  0.65864270000E+03 0. -1.
    8880022    1    1    2    0    0 -0.58053323708E+03 -0.94104407488E+02 -0.28493350381E+03  0.67115812852E+03  0.15294330000E+03 0.  0.
<mgrwt>
<rscale>  0 0.80424258E+03</rscale>
<asrwt>0</asrwt>
<pdfrwt beam="1">  1        2 0.26331752E+00 0.88299756E+03</pdfrwt>
<pdfrwt beam="2">  1       -2 0.93294492E-01 0.88299756E+03</pdfrwt>
<totfact> 0.94982619E+00</totfact>
</mgrwt>
</event>
<event>
 4    5  0.6615028E-008  0.7369714E+03  0.7818608E-02  0.9868859E-01
          2   -1    0    0  501    0  0.00000000000E+00  0.00000000000E+00  0.22522772848E+04  0.22522772848E+04  0.25500000000E-02 0. -1.
         -2   -1    0    0    0  501 -0.00000000000E+00 -0.00000000000E+00 -0.35585324336E+03  0.35585324337E+03  0.25500000000E-02 0.  1.
    8880023    1    1    2    0    0  0.23473876349E+03 -0.23283980757E+03  0.20753152691E+04  0.22022852530E+04  0.65864270000E+03 0. -1.
    8880022    1    1    2    0    0 -0.23473876349E+03  0.23283980757E+03 -0.17889122764E+03  0.40584527521E+03  0.15294330000E+03 0.  0.
<mgrwt>
<rscale>  0 0.61794561E+03</rscale>
<asrwt>0</asrwt>
<pdfrwt beam="1">  1        2 0.34650419E+00 0.73697142E+03</pdfrwt>
<pdfrwt beam="2">  1       -2 0.54746654E-01 0.73697142E+03</pdfrwt>
<totfact> 0.15791344E+01</totfact>
</mgrwt>
</event>
<event>
 4    5  0.6615028E-008  0.8080225E+03  0.7818608E-02  0.9693711E-01
         -2   -1    0    0    0  501 -0.00000000000E+00  0.00000000000E+00  0.13906863116E+03  0.13906863118E+03  0.25500000000E-02 0.  1.
          2   -1    0    0  501    0  0.00000000000E+00 -0.00000000000E+00 -0.33595400743E+04  0.33595400743E+04  0.25500000000E-02 0. -1.
    8880023    1    1    2    0    0  0.45465946571E+03 -0.11124247270E+03 -0.24886575776E+04  0.26165467438E+04  0.65864270000E+03 0.  0.
    8880022    1    1    2    0    0 -0.45465946571E+03  0.11124247270E+03 -0.73181386547E+03  0.88206196166E+03  0.15294330000E+03 0.  0.
<mgrwt>
<rscale>  0 0.71392480E+03</rscale>
<asrwt>0</asrwt>
<pdfrwt beam="1">  1        2 0.51685226E+00 0.80802248E+03</pdfrwt>
<pdfrwt beam="2">  1       -2 0.21395176E-01 0.80802248E+03</pdfrwt>
<totfact> 0.20419995E+01</totfact>
</mgrwt>
</event>
<event>
 4    5  0.6615028E-008  0.6825571E+03  0.7818608E-02  0.1007913E+00
          2   -1    0    0  501    0  0.00000000000E+00  0.00000000000E+00  0.69048511351E+03  0.69048511352E+03  0.25500000000E-02 0. -1.
         -2   -1    0    0    0  501 -0.00000000000E+00 -0.00000000000E+00 -0.13196229426E+04  0.13196229426E+04  0.25500000000E-02 0.  1.
    8880023    1    1    2    0    0  0.16899518643E+03  0.59284374102E+02  0.50672223760E+03  0.85008919673E+03  0.65864270000E+03 0. -1.
    8880022    1    1    2    0    0 -0.16899518643E+03 -0.59284374102E+02 -0.11358600667E+04  0.11600188594E+04  0.15294330000E+03 0.  0.
<mgrwt>
<rscale>  0 0.52312717E+03</rscale>
<asrwt>0</asrwt>
<pdfrwt beam="1">  1        2 0.10622848E+00 0.68255712E+03</pdfrwt>
<pdfrwt beam="2">  1       -2 0.20301891E+00 0.68255712E+03</pdfrwt>
<totfact> 0.54601953E+00</totfact>
</mgrwt>
</event>
<event>
 4    5  0.6615028E-008  0.1403226E+04  0.7818608E-02  0.8981180E-01
          2   -1    0    0  501    0  0.00000000000E+00  0.00000000000E+00  0.19125734255E+04  0.19125734255E+04  0.25500000000E-02 0. -1.
         -2   -1    0    0    0  501 -0.00000000000E+00 -0.00000000000E+00 -0.11262924849E+04  0.11262924849E+04  0.25500000000E-02 0.  1.
    8880023    1    1    2    0    0  0.10970559238E+04 -0.57593565660E+03  0.10626533448E+04  0.17601920117E+04  0.65864270000E+03 0.  0.
    8880022    1    1    2    0    0 -0.10970559238E+04  0.57593565660E+03 -0.27637240423E+03  0.12786738987E+04  0.15294330000E+03 0.  0.
<mgrwt>
<rscale>  0 0.13628199E+04</rscale>
<asrwt>0</asrwt>
<pdfrwt beam="1">  1        2 0.29424206E+00 0.14032262E+04</pdfrwt>
<pdfrwt beam="2">  1       -2 0.17327577E+00 0.14032262E+04</pdfrwt>
<totfact> 0.14353742E+00</totfact>
</mgrwt>
</event>
<event>
 4    5  0.6615028E-008  0.7781071E+03  0.7818608E-02  0.9760302E-01
         -2   -1    0    0    0  501 -0.00000000000E+00  0.00000000000E+00  0.58968653206E+03  0.58968653206E+03  0.25500000000E-02 0.  1.
          2   -1    0    0  501    0  0.00000000000E+00 -0.00000000000E+00 -0.80973688467E+03  0.80973688468E+03  0.25500000000E-02 0. -1.
    8880023    1    1    2    0    0  0.16462794897E+03  0.38018161446E+03 -0.45275233074E+03  0.90024180130E+03  0.65864270000E+03 0. -1.
    8880022    1    1    2    0    0 -0.16462794897E+03 -0.38018161446E+03  0.23270197813E+03  0.49918161544E+03  0.15294330000E+03 0.  0.
<mgrwt>
<rscale>  0 0.67537158E+03</rscale>
<asrwt>0</asrwt>
<pdfrwt beam="1">  1        2 0.12457491E+00 0.77810708E+03</pdfrwt>
<pdfrwt beam="2">  1       -2 0.90721004E-01 0.77810708E+03</pdfrwt>
<totfact> 0.35575504E+01</totfact>
</mgrwt>
</event>
<event>
 4    5  0.6615028E-008  0.1381943E+04  0.7818608E-02  0.8997842E-01
         -2   -1    0    0    0  501 -0.00000000000E+00  0.00000000000E+00  0.12364594683E+04  0.12364594683E+04  0.25500000000E-02 0.  1.
          2   -1    0    0  501    0  0.00000000000E+00 -0.00000000000E+00 -0.20162363138E+04  0.20162363138E+04  0.25500000000E-02 0. -1.
    8880023    1    1    2    0    0 -0.12049423573E+04  0.15514619926E+03 -0.13229920171E+04  0.19131321206E+04  0.65864270000E+03 0.  0.
    8880022    1    1    2    0    0  0.12049423573E+04 -0.15514619926E+03  0.54321517159E+03  0.13395636615E+04  0.15294330000E+03 0.  0.
<mgrwt>
<rscale>  0 0.13407735E+04</rscale>
<asrwt>0</asrwt>
<pdfrwt beam="1">  1        2 0.31019020E+00 0.13819431E+04</pdfrwt>
<pdfrwt beam="2">  1       -2 0.19022453E+00 0.13819431E+04</pdfrwt>
<totfact> 0.96175275E-01</totfact>
</mgrwt>
</event>
<event>
 4    5  0.6615028E-008  0.1138400E+04  0.7818608E-02  0.9219461E-01
          2   -1    0    0  501    0  0.00000000000E+00  0.00000000000E+00  0.10591884905E+04  0.10591884905E+04  0.25500000000E-02 0. -1.
         -2   -1    0    0    0  501 -0.00000000000E+00 -0.00000000000E+00 -0.18259239252E+04  0.18259239252E+04  0.25500000000E-02 0.  1.
    8880023    1    1    2    0    0  0.26762414183E+03  0.88911258590E+03  0.55190396696E+03  0.12651292688E+04  0.65864270000E+03 0.  0.
    8880022    1    1    2    0    0 -0.26762414183E+03 -0.88911258590E+03 -0.13186394017E+04  0.16199831470E+04  0.15294330000E+03 0.  0.
<mgrwt>
<rscale>  0 0.10854801E+04</rscale>
<asrwt>0</asrwt>
<pdfrwt beam="1">  1        2 0.16295208E+00 0.11383998E+04</pdfrwt>
<pdfrwt beam="2">  1       -2 0.28091137E+00 0.11383998E+04</pdfrwt>
<totfact> 0.94416507E-01</totfact>
</mgrwt>
</event>
<event>
 4    5  0.6615028E-008  0.7348087E+03  0.7818608E-02  0.9875335E-01
          2   -1    0    0  501    0  0.00000000000E+00  0.00000000000E+00  0.19907083283E+04  0.19907083283E+04  0.25500000000E-02 0. -1.
         -2   -1    0    0    0  501 -0.00000000000E+00 -0.00000000000E+00 -0.26621201600E+03  0.26621201602E+03  0.25500000000E-02 0.  1.
    8880023    1    1    2    0    0  0.27771577427E+03 -0.17031614771E+03  0.17480920202E+04  0.18962514492E+04  0.65864270000E+03 0.  0.
    8880022    1    1    2    0    0 -0.27771577427E+03  0.17031614771E+03 -0.23595707861E+02  0.36066889510E+03  0.15294330000E+03 0.  0.
<mgrwt>
<rscale>  0 0.61471675E+03</rscale>
<asrwt>0</asrwt>
<pdfrwt beam="1">  1        2 0.30626281E+00 0.73480872E+03</pdfrwt>
<pdfrwt beam="2">  1       -2 0.40955696E-01 0.73480872E+03</pdfrwt>
<totfact> 0.39435030E+01</totfact>
</mgrwt>
</event>
<event>
 4    5  0.6615028E-008  0.6838821E+03  0.7818608E-02  0.1007208E+00
          2   -1    0    0  501    0  0.00000000000E+00  0.00000000000E+00  0.21558812469E+04  0.21558812469E+04  0.25500000000E-02 0. -1.
         -2   -1    0    0    0  501 -0.00000000000E+00 -0.00000000000E+00 -0.43693651815E+03  0.43693651816E+03  0.25500000000E-02 0.  1.
    8880023    1    1    2    0    0 -0.26411307383E+02  0.18217302512E+03  0.20631763328E+04  0.21735665057E+04  0.65864270000E+03 0. -1.
    8880022    1    1    2    0    0  0.26411307383E+02 -0.18217302512E+03 -0.34423160405E+03  0.41925125937E+03  0.15294330000E+03 0.  0.
<mgrwt>
<rscale>  0 0.52599636E+03</rscale>
<asrwt>0</asrwt>
<pdfrwt beam="1">  1        2 0.33167404E+00 0.68388213E+03</pdfrwt>
<pdfrwt beam="2">  1       -2 0.67221002E-01 0.68388213E+03</pdfrwt>
<totfact> 0.11657198E+01</totfact>
</mgrwt>
</event>
<event>
 4    5  0.6615028E-008  0.9938262E+03  0.7818608E-02  0.9389680E-01
         -2   -1    0    0    0  501 -0.00000000000E+00  0.00000000000E+00  0.57170307412E+03  0.57170307412E+03  0.25500000000E-02 0.  1.
          2   -1    0    0  501    0  0.00000000000E+00 -0.00000000000E+00 -0.21561913765E+04  0.21561913765E+04  0.25500000000E-02 0. -1.
    8880023    1    1    2    0    0 -0.74399032380E+03  0.18939036883E+02 -0.26113745535E+02  0.99416921246E+03  0.65864270000E+03 0.  1.
    8880022    1    1    2    0    0  0.74399032380E+03 -0.18939036883E+02 -0.15583745569E+04  0.17337252382E+04  0.15294330000E+03 0.  0.
<mgrwt>
<rscale>  0 0.92929882E+03</rscale>
<asrwt>0</asrwt>
<pdfrwt beam="1">  1        2 0.33172174E+00 0.99382619E+03</pdfrwt>
<pdfrwt beam="2">  1       -2 0.87954321E-01 0.99382619E+03</pdfrwt>
<totfact> 0.61168706E+00</totfact>
</mgrwt>
</event>
<event>
 4    5  0.6615028E-008  0.8749459E+03  0.7818608E-02  0.9567511E-01
          2   -1    0    0  501    0  0.00000000000E+00  0.00000000000E+00  0.16154572972E+04  0.16154572972E+04  0.25500000000E-02 0. -1.
         -2   -1    0    0    0  501 -0.00000000000E+00 -0.00000000000E+00 -0.53475735517E+03  0.53475735518E+03  0.25500000000E-02 0.  1.
    8880023    1    1    2    0    0 -0.12845233211E+03  0.56144460288E+03  0.12544976792E+04  0.15294752947E+04  0.65864270000E+03 0.  0.
    8880022    1    1    2    0    0  0.12845233211E+03 -0.56144460288E+03 -0.17379773716E+03  0.62073935768E+03  0.15294330000E+03 0.  1.
<mgrwt>
<rscale>  0 0.79484328E+03</rscale>
<asrwt>0</asrwt>
<pdfrwt beam="1">  1        2 0.24853189E+00 0.87494586E+03</pdfrwt>
<pdfrwt beam="2">  1       -2 0.82270363E-01 0.87494586E+03</pdfrwt>
<totfact> 0.14341472E+01</totfact>
</mgrwt>
</event>
<event>
 4    5  0.6615028E-008  0.7573450E+03  0.7818608E-02  0.9812030E-01
         -2   -1    0    0    0  501 -0.00000000000E+00  0.00000000000E+00  0.32206670368E+03  0.32206670369E+03  0.25500000000E-02 0.  1.
          2   -1    0    0  501    0  0.00000000000E+00 -0.00000000000E+00 -0.19048549180E+04  0.19048549180E+04  0.25500000000E-02 0. -1.
    8880023    1    1    2    0    0  0.36430479048E+03 -0.83924436339E+02 -0.16518017920E+04  0.18171462951E+04  0.65864270000E+03 0. -1.
    8880022    1    1    2    0    0 -0.36430479048E+03  0.83924436339E+02  0.69013577691E+02  0.40977532661E+03  0.15294330000E+03 0.  0.
<mgrwt>
<rscale>  0 0.64720923E+03</rscale>
<asrwt>0</asrwt>
<pdfrwt beam="1">  1        2 0.29305460E+00 0.75734503E+03</pdfrwt>
<pdfrwt beam="2">  1       -2 0.49548725E-01 0.75734503E+03</pdfrwt>
<totfact> 0.29955007E+01</totfact>
</mgrwt>
</event>
<event>
 4    5  0.6615028E-008  0.6952423E+03  0.7818608E-02  0.1001754E+00
         -2   -1    0    0    0  501 -0.00000000000E+00  0.00000000000E+00  0.32205450713E+03  0.32205450714E+03  0.25500000000E-02 0.  1.
          2   -1    0    0  501    0  0.00000000000E+00 -0.00000000000E+00 -0.83439314273E+03  0.83439314274E+03  0.25500000000E-02 0. -1.
    8880023    1    1    2    0    0  0.21770207447E+03 -0.46448552400E+02 -0.54635774493E+03  0.88423337019E+03  0.65864270000E+03 0. -1.
    8880022    1    1    2    0    0 -0.21770207447E+03  0.46448552400E+02  0.34019109323E+02  0.27221427968E+03  0.15294330000E+03 0.  0.
<mgrwt>
<rscale>  0 0.54887738E+03</rscale>
<asrwt>0</asrwt>
<pdfrwt beam="1">  1        2 0.12836818E+00 0.69524231E+03</pdfrwt>
<pdfrwt beam="2">  1       -2 0.49546847E-01 0.69524231E+03</pdfrwt>
<totfact> 0.12740592E+02</totfact>
</mgrwt>
</event>
<event>
 4    5  0.6615028E-008  0.8539877E+03  0.7818608E-02  0.9604349E-01
         -2   -1    0    0    0  501 -0.00000000000E+00  0.00000000000E+00  0.31341480251E+03  0.31341480252E+03  0.25500000000E-02 0.  1.
          2   -1    0    0  501    0  0.00000000000E+00 -0.00000000000E+00 -0.19589305822E+04  0.19589305822E+04  0.25500000000E-02 0. -1.
    8880023    1    1    2    0    0  0.45579493873E+03  0.29620231755E+03 -0.14346152135E+04  0.16695555864E+04  0.65864270000E+03 0. -1.
    8880022    1    1    2    0    0 -0.45579493873E+03 -0.29620231755E+03 -0.21090056617E+03  0.60278979828E+03  0.15294330000E+03 0.  0.
<mgrwt>
<rscale>  0 0.77009009E+03</rscale>
<asrwt>0</asrwt>
<pdfrwt beam="1">  1        2 0.30137393E+00 0.85398773E+03</pdfrwt>
<pdfrwt beam="2">  1       -2 0.48217663E-01 0.85398773E+03</pdfrwt>
<totfact> 0.29234351E+01</totfact>
</mgrwt>
</event>
<event>
 4    5  0.6615028E-008  0.7594898E+03  0.7818608E-02  0.9806430E-01
          2   -1    0    0  501    0  0.00000000000E+00  0.00000000000E+00  0.14754632232E+04  0.14754632232E+04  0.25500000000E-02 0. -1.
         -2   -1    0    0    0  501 -0.00000000000E+00 -0.00000000000E+00 -0.26158267680E+03  0.26158267681E+03  0.25500000000E-02 0.  1.
    8880023    1    1    2    0    0 -0.32203031188E+03 -0.19827007248E+03  0.10534922352E+04  0.12987188454E+04  0.65864270000E+03 0. -1.
    8880022    1    1    2    0    0  0.32203031188E+03  0.19827007248E+03  0.16038831112E+03  0.43832705457E+03  0.15294330000E+03 0.  0.
<mgrwt>
<rscale>  0 0.65018605E+03</rscale>
<asrwt>0</asrwt>
<pdfrwt beam="1">  1        2 0.22699434E+00 0.75948980E+03</pdfrwt>
<pdfrwt beam="2">  1       -2 0.40243489E-01 0.75948980E+03</pdfrwt>
<totfact> 0.78007716E+01</totfact>
</mgrwt>
</event>
<event>
 4    5  0.6615028E-008  0.8773559E+03  0.7818608E-02  0.9563407E-01
         -2   -1    0    0    0  501 -0.00000000000E+00  0.00000000000E+00  0.52589643635E+03  0.52589643636E+03  0.25500000000E-02 0.  1.
          2   -1    0    0  501    0  0.00000000000E+00 -0.00000000000E+00 -0.39197488419E+04  0.39197488419E+04  0.25500000000E-02 0. -1.
    8880023    1    1    2    0    0 -0.44676459060E+03 -0.36924860627E+03 -0.36787626272E+04  0.37819370442E+04  0.65864270000E+03 0.  0.
    8880022    1    1    2    0    0  0.44676459060E+03  0.36924860627E+03  0.28491022160E+03  0.66370823412E+03  0.15294330000E+03 0.  0.
<mgrwt>
<rscale>  0 0.79766264E+03</rscale>
<asrwt>0</asrwt>
<pdfrwt beam="1">  1        2 0.60303826E+00 0.87735588E+03</pdfrwt>
<pdfrwt beam="2">  1       -2 0.80907147E-01 0.87735588E+03</pdfrwt>
<totfact> 0.57518274E-01</totfact>
</mgrwt>
</event>
<event>
 4    5  0.7668331E-008  0.1180712E+04  0.7818608E-02  0.9176104E-01
         -2   -1    0    0    0  501 -0.00000000000E+00  0.00000000000E+00  0.13133844045E+04  0.13133844045E+04  0.25500000000E-02 0.  1.
          2   -1    0    0  501    0  0.00000000000E+00 -0.00000000000E+00 -0.28322707267E+04  0.28322707267E+04  0.25500000000E-02 0. -1.
    8880023    1    1    2    0    0 -0.97987867132E+03 -0.10373962767E+02 -0.24911454021E+04  0.27567889746E+04  0.65864270000E+03 0.  0.
    8880022    1    1    2    0    0  0.97987867132E+03  0.10373962767E+02  0.97225907991E+03  0.13888661567E+04  0.15294330000E+03 0.  1.
<mgrwt>
<rscale>  0 0.11303517E+04</rscale>
<asrwt>0</asrwt>
<pdfrwt beam="1">  1        2 0.43573396E+00 0.11807117E+04</pdfrwt>
<pdfrwt beam="2">  1       -2 0.20205914E+00 0.11807117E+04</pdfrwt>
<totfact> 0.28018985E-01</totfact>
</mgrwt>
</event>
<event>
 4    5  0.6615028E-008  0.8728044E+03  0.7818608E-02  0.9571181E-01
         -2   -1    0    0    0  501 -0.00000000000E+00  0.00000000000E+00  0.87669377244E+03  0.87669377244E+03  0.25500000000E-02 0.  1.
          2   -1    0    0  501    0  0.00000000000E+00 -0.00000000000E+00 -0.13969962252E+04  0.13969962252E+04  0.25500000000E-02 0. -1.
    8880023    1    1    2    0    0 -0.18174391829E+03  0.54308975579E+03 -0.11270215028E+04  0.14254701009E+04  0.65864270000E+03 0. -1.
    8880022    1    1    2    0    0  0.18174391829E+03 -0.54308975579E+03  0.60671904995E+03  0.84821989676E+03  0.15294330000E+03 0.  0.
<mgrwt>
<rscale>  0 0.79233370E+03</rscale>
<asrwt>0</asrwt>
<pdfrwt beam="1">  1        2 0.21492250E+00 0.87280441E+03</pdfrwt>
<pdfrwt beam="2">  1       -2 0.13487597E+00 0.87280441E+03</pdfrwt>
<totfact> 0.57859699E+00</totfact>
</mgrwt>
</event>
<event>
 4    5  0.6615028E-008  0.1265814E+04  0.7818608E-02  0.9095659E-01
          2   -1    0    0  501    0  0.00000000000E+00  0.00000000000E+00  0.30930341045E+04  0.30930341045E+04  0.25500000000E-02 0. -1.
         -2   -1    0    0    0  501 -0.00000000000E+00 -0.00000000000E+00 -0.50174816463E+03  0.50174816463E+03  0.25500000000E-02 0.  1.
    8880023    1    1    2    0    0 -0.88727935185E+03  0.61742137491E+03  0.19613631554E+04  0.23343584635E+04  0.65864270000E+03 0.  1.
    8880022    1    1    2    0    0  0.88727935185E+03 -0.61742137491E+03  0.62992278445E+03  0.12604238056E+04  0.15294330000E+03 0. -1.
<mgrwt>
<rscale>  0 0.12198480E+04</rscale>
<asrwt>0</asrwt>
<pdfrwt beam="1">  1        2 0.47585139E+00 0.12658136E+04</pdfrwt>
<pdfrwt beam="2">  1       -2 0.77192027E-01 0.12658136E+04</pdfrwt>
<totfact> 0.22482493E+00</totfact>
</mgrwt>
</event>
<event>
 4    5  0.6615028E-008  0.7981292E+03  0.7818608E-02  0.9714856E-01
          2   -1    0    0  501    0  0.00000000000E+00  0.00000000000E+00  0.16681172500E+04  0.16681172500E+04  0.25500000000E-02 0. -1.
         -2   -1    0    0    0  501 -0.00000000000E+00 -0.00000000000E+00 -0.12542116895E+04  0.12542116895E+04  0.25500000000E-02 0.  1.
    8880023    1    1    2    0    0  0.31446213874E+03 -0.32297614769E+03  0.15207494182E+04  0.17174658738E+04  0.65864270000E+03 0.  0.
    8880022    1    1    2    0    0 -0.31446213874E+03  0.32297614769E+03 -0.11068438577E+04  0.12048630657E+04  0.15294330000E+03 0.  0.
<mgrwt>
<rscale>  0 0.70139134E+03</rscale>
<asrwt>0</asrwt>
<pdfrwt beam="1">  1        2 0.25663342E+00 0.79812921E+03</pdfrwt>
<pdfrwt beam="2">  1       -2 0.19295565E+00 0.79812921E+03</pdfrwt>
<totfact> 0.15522095E+00</totfact>
</mgrwt>
</event>
<event>
 4    5  0.6615028E-008  0.7172313E+03  0.7818608E-02  0.9932068E-01
          2   -1    0    0  501    0  0.00000000000E+00  0.00000000000E+00  0.95008200166E+03  0.95008200166E+03  0.25500000000E-02 0. -1.
         -2   -1    0    0    0  501 -0.00000000000E+00 -0.00000000000E+00 -0.91317042202E+03  0.91317042202E+03  0.25500000000E-02 0.  1.
    8880023    1    1    2    0    0  0.24353329905E+02  0.28287346398E+03  0.77610773198E+03  0.10567705045E+04  0.65864270000E+03 0. -1.
    8880022    1    1    2    0    0 -0.24353329905E+02 -0.28287346398E+03 -0.73919615234E+03  0.80648191917E+03  0.15294330000E+03 0.  0.
<mgrwt>
<rscale>  0 0.58731987E+03</rscale>
<asrwt>0</asrwt>
<pdfrwt beam="1">  1        2 0.14616646E+00 0.71723127E+03</pdfrwt>
<pdfrwt beam="2">  1       -2 0.14048776E+00 0.71723127E+03</pdfrwt>
<totfact> 0.98672806E+00</totfact>
</mgrwt>
</event>
<event>
 4    5  0.6615028E-008  0.1117667E+04  0.7818608E-02  0.9241636E-01
          2   -1    0    0  501    0  0.00000000000E+00  0.00000000000E+00  0.23841673520E+04  0.23841673520E+04  0.25500000000E-02 0. -1.
         -2   -1    0    0    0  501 -0.00000000000E+00 -0.00000000000E+00 -0.82034871084E+03  0.82034871084E+03  0.25500000000E-02 0.  1.
    8880023    1    1    2    0    0  0.90258361673E+03 -0.26688098563E+02  0.19201930033E+04  0.22217832513E+04  0.65864270000E+03 0.  0.
    8880022    1    1    2    0    0 -0.90258361673E+03  0.26688098563E+02 -0.35637436213E+03  0.98273281149E+03  0.15294330000E+03 0.  0.
<mgrwt>
<rscale>  0 0.10633816E+04</rscale>
<asrwt>0</asrwt>
<pdfrwt beam="1">  1        2 0.36679497E+00 0.11176671E+04</pdfrwt>
<pdfrwt beam="2">  1       -2 0.12620749E+00 0.11176671E+04</pdfrwt>
<totfact> 0.18785216E+00</totfact>
</mgrwt>
</event>
<event>
 4    5  0.6615028E-008  0.1191411E+04  0.7818608E-02  0.9165517E-01
         -2   -1    0    0    0  501 -0.00000000000E+00  0.00000000000E+00  0.67222534250E+03  0.67222534250E+03  0.25500000000E-02 0.  1.
          2   -1    0    0  501    0  0.00000000000E+00 -0.00000000000E+00 -0.24442490089E+04  0.24442490089E+04  0.25500000000E-02 0. -1.
    8880023    1    1    2    0    0 -0.34337413991E+03  0.93152772474E+03 -0.17433304111E+04  0.21115541268E+04  0.65864270000E+03 0.  0.
    8880022    1    1    2    0    0  0.34337413991E+03 -0.93152772474E+03 -0.28693255314E+02  0.10049202246E+04  0.15294330000E+03 0.  0.
<mgrwt>
<rscale>  0 0.11416548E+04</rscale>
<asrwt>0</asrwt>
<pdfrwt beam="1">  1        2 0.37603830E+00 0.11914109E+04</pdfrwt>
<pdfrwt beam="2">  1       -2 0.10341928E+00 0.11914109E+04</pdfrwt>
<totfact> 0.28103095E+00</totfact>
</mgrwt>
</event>
<event>
 4    5  0.6615028E-008  0.1648161E+04  0.7818608E-02  0.8811532E-01
          2   -1    0    0  501    0  0.00000000000E+00  0.00000000000E+00  0.31381721485E+04  0.31381721485E+04  0.25500000000E-02 0. -1.
         -2   -1    0    0    0  501 -0.00000000000E+00 -0.00000000000E+00 -0.15542740364E+04  0.15542740364E+04  0.25500000000E-02 0.  1.
    8880023    1    1    2    0    0  0.77600668255E+03  0.12963175053E+04  0.24435599847E+04  0.29474431379E+04  0.65864270000E+03 0.  0.
    8880022    1    1    2    0    0 -0.77600668255E+03 -0.12963175053E+04 -0.85966187258E+03  0.17450030470E+04  0.15294330000E+03 0.  0.
<mgrwt>
<rscale>  0 0.16147586E+04</rscale>
<asrwt>0</asrwt>
<pdfrwt beam="1">  1        2 0.48279572E+00 0.16481613E+04</pdfrwt>
<pdfrwt beam="2">  1       -2 0.23911908E+00 0.16481613E+04</pdfrwt>
<totfact> 0.98611809E-02</totfact>
</mgrwt>
</event>
<event>
 4    5  0.6615028E-008  0.9858155E+03  0.7818608E-02  0.9400355E-01
          2   -1    0    0  501    0  0.00000000000E+00  0.00000000000E+00  0.33797750915E+04  0.33797750915E+04  0.25500000000E-02 0. -1.
         -2   -1    0    0    0  501 -0.00000000000E+00 -0.00000000000E+00 -0.25471121333E+03  0.25471121334E+03  0.25500000000E-02 0.  1.
    8880023    1    1    2    0    0 -0.16013054257E+01 -0.73349802607E+03  0.23878604659E+04  0.25833524206E+04  0.65864270000E+03 0.  0.
    8880022    1    1    2    0    0  0.16013054257E+01  0.73349802607E+03  0.73720341233E+03  0.10511338842E+04  0.15294330000E+03 0.  0.
<mgrwt>
<rscale>  0 0.92046458E+03</rscale>
<asrwt>0</asrwt>
<pdfrwt beam="1">  1        2 0.51996541E+00 0.98581546E+03</pdfrwt>
<pdfrwt beam="2">  1       -2 0.39186340E-01 0.98581546E+03</pdfrwt>
<totfact> 0.62746470E+00</totfact>
</mgrwt>
</event>
<event>
 4    5  0.6615028E-008  0.1012781E+04  0.7818608E-02  0.9365025E-01
         -2   -1    0    0    0  501 -0.00000000000E+00  0.00000000000E+00  0.82153572060E+03  0.82153572060E+03  0.25500000000E-02 0.  1.
          2   -1    0    0  501    0  0.00000000000E+00 -0.00000000000E+00 -0.17470255439E+04  0.17470255439E+04  0.25500000000E-02 0. -1.
    8880023    1    1    2    0    0  0.71715429143E+03  0.27857486739E+03 -0.13413280982E+04  0.16807395717E+04  0.65864270000E+03 0. -1.
    8880022    1    1    2    0    0 -0.71715429143E+03 -0.27857486739E+03  0.41583827488E+03  0.88782169287E+03  0.15294330000E+03 0.  0.
<mgrwt>
<rscale>  0 0.95010783E+03</rscale>
<asrwt>0</asrwt>
<pdfrwt beam="1">  1        2 0.26877316E+00 0.10127805E+04</pdfrwt>
<pdfrwt beam="2">  1       -2 0.12639011E+00 0.10127805E+04</pdfrwt>
<totfact> 0.42809996E+00</totfact>
</mgrwt>
</event>
<event>
 4    5  0.6615028E-008  0.1807641E+04  0.7818608E-02  0.8718322E-01
          2   -1    0    0  501    0  0.00000000000E+00  0.00000000000E+00  0.13464549063E+04  0.13464549063E+04  0.25500000000E-02 0. -1.
         -2   -1    0    0    0  501 -0.00000000000E+00 -0.00000000000E+00 -0.24721008336E+04  0.24721008336E+04  0.25500000000E-02 0.  1.
    8880023    1    1    2    0    0  0.12375414945E+04  0.11411597204E+04 -0.37018688147E+02  0.18080196480E+04  0.65864270000E+03 0.  0.
    8880022    1    1    2    0    0 -0.12375414945E+04 -0.11411597204E+04 -0.10886272391E+04  0.20105360919E+04  0.15294330000E+03 0.  0.
<mgrwt>
<rscale>  0 0.17775656E+04</rscale>
<asrwt>0</asrwt>
<pdfrwt beam="1">  1        2 0.20714691E+00 0.18076406E+04</pdfrwt>
<pdfrwt beam="2">  1       -2 0.38032321E+00 0.18076406E+04</pdfrwt>
<totfact> 0.14147705E-01</totfact>
</mgrwt>
</event>
<event>
 4    5  0.6615028E-008  0.7156097E+03  0.7818608E-02  0.9937731E-01
         -2   -1    0    0    0  501 -0.00000000000E+00  0.00000000000E+00  0.15947150055E+03  0.15947150058E+03  0.25500000000E-02 0.  1.
          2   -1    0    0  501    0  0.00000000000E+00 -0.00000000000E+00 -0.17979619850E+04  0.17979619850E+04  0.25500000000E-02 0. -1.
    8880023    1    1    2    0    0 -0.27952780578E+03 -0.12296998084E+02 -0.13475740277E+04  0.15257958503E+04  0.65864270000E+03 0. -1.
    8880022    1    1    2    0    0  0.27952780578E+03  0.12296998084E+02 -0.29091645673E+03  0.43163763527E+03  0.15294330000E+03 0.  0.
<mgrwt>
<rscale>  0 0.58467010E+03</rscale>
<asrwt>0</asrwt>
<pdfrwt beam="1">  1        2 0.27660952E+00 0.71560968E+03</pdfrwt>
<pdfrwt beam="2">  1       -2 0.24534078E-01 0.71560968E+03</pdfrwt>
<totfact> 0.13146097E+02</totfact>
</mgrwt>
</event>
<event>
 4    5  0.6615028E-008  0.6803415E+03  0.7818608E-02  0.1009131E+00
          2   -1    0    0  501    0  0.00000000000E+00  0.00000000000E+00  0.48238320191E+03  0.48238320192E+03  0.25500000000E-02 0. -1.
         -2   -1    0    0    0  501 -0.00000000000E+00 -0.00000000000E+00 -0.12028981152E+04  0.12028981152E+04  0.25500000000E-02 0.  1.
    8880023    1    1    2    0    0  0.39956951670E+02 -0.16570400177E+03  0.22176392616E+03  0.71557237188E+03  0.65864270000E+03 0. -1.
    8880022    1    1    2    0    0 -0.39956951670E+02  0.16570400177E+03 -0.94227883945E+03  0.96970894524E+03  0.15294330000E+03 0.  0.
<mgrwt>
<rscale>  0 0.51821420E+03</rscale>
<asrwt>0</asrwt>
<pdfrwt beam="1">  1        2 0.74212801E-01 0.68034152E+03</pdfrwt>
<pdfrwt beam="2">  1       -2 0.18506125E+00 0.68034152E+03</pdfrwt>
<totfact> 0.11012199E+01</totfact>
</mgrwt>
</event>
<event>
 4    5  0.1185823E-007  0.1336432E+04  0.7818608E-02  0.9034720E-01
         -2   -1    0    0    0  501 -0.00000000000E+00  0.00000000000E+00  0.14613900093E+04  0.14613900093E+04  0.25500000000E-02 0.  1.
          2   -1    0    0  501    0  0.00000000000E+00 -0.00000000000E+00 -0.42490885337E+04  0.42490885337E+04  0.25500000000E-02 0. -1.
    8880023    1    1    2    0    0  0.10077934286E+04 -0.58016595366E+03 -0.38824783386E+04  0.41060550879E+04  0.65864270000E+03 0.  0.
    8880022    1    1    2    0    0 -0.10077934286E+04  0.58016595366E+03  0.10947798143E+04  0.16044234551E+04  0.15294330000E+03 0.  0.
<mgrwt>
<rscale>  0 0.12935193E+04</rscale>
<asrwt>0</asrwt>
<pdfrwt beam="1">  1        2 0.65370592E+00 0.13364319E+04</pdfrwt>
<pdfrwt beam="2">  1       -2 0.22482923E+00 0.13364319E+04</pdfrwt>
<totfact> 0.19151956E-02</totfact>
</mgrwt>
</event>
<event>
 4    5  0.6615028E-008  0.9890260E+03  0.7818608E-02  0.9396058E-01
          2   -1    0    0  501    0  0.00000000000E+00  0.00000000000E+00  0.75283024510E+03  0.75283024510E+03  0.25500000000E-02 0. -1.
         -2   -1    0    0    0  501 -0.00000000000E+00 -0.00000000000E+00 -0.25702317259E+04  0.25702317259E+04  0.25500000000E-02 0.  1.
    8880023    1    1    2    0    0 -0.54552058371E+03 -0.49675892883E+03  0.33370395903E+03  0.10438058628E+04  0.65864270000E+03 0.  0.
    8880022    1    1    2    0    0  0.54552058371E+03  0.49675892883E+03 -0.21511054398E+04  0.22792561082E+04  0.15294330000E+03 0.  0.
<mgrwt>
<rscale>  0 0.92400809E+03</rscale>
<asrwt>0</asrwt>
<pdfrwt beam="1">  1        2 0.11582004E+00 0.98902596E+03</pdfrwt>
<pdfrwt beam="2">  1       -2 0.39542026E+00 0.98902596E+03</pdfrwt>
<totfact> 0.30247583E-01</totfact>
</mgrwt>
</event>
<event>
 4    5  0.6615028E-008  0.1421936E+04  0.7818608E-02  0.8966823E-01
          2   -1    0    0  501    0  0.00000000000E+00  0.00000000000E+00  0.14924750237E+04  0.14924750237E+04  0.25500000000E-02 0. -1.
         -2   -1    0    0    0  501 -0.00000000000E+00 -0.00000000000E+00 -0.15918208205E+04  0.15918208205E+04  0.25500000000E-02 0.  1.
    8880023    1    1    2    0    0  0.11443973092E+04 -0.52768073703E+03  0.69923192647E+03  0.15845591358E+04  0.65864270000E+03 0.  0.
    8880022    1    1    2    0    0 -0.11443973092E+04  0.52768073703E+03 -0.79857772333E+03  0.14997367085E+04  0.15294330000E+03 0.  0.
<mgrwt>
<rscale>  0 0.13821759E+04</rscale>
<asrwt>0</asrwt>
<pdfrwt beam="1">  1        2 0.22961154E+00 0.14219361E+04</pdfrwt>
<pdfrwt beam="2">  1       -2 0.24489551E+00 0.14219361E+04</pdfrwt>
<totfact> 0.83948669E-01</totfact>
</mgrwt>
</event>
<event>
 4    5  0.6615028E-008  0.8681273E+03  0.7818608E-02  0.9579267E-01
          2   -1    0    0  501    0  0.00000000000E+00  0.00000000000E+00  0.92544056359E+03  0.92544056360E+03  0.25500000000E-02 0. -1.
         -2   -1    0    0    0  501 -0.00000000000E+00 -0.00000000000E+00 -0.63407949913E+03  0.63407949914E+03  0.25500000000E-02 0.  1.
    8880023    1    1    2    0    0 -0.48353872317E+02  0.56346839173E+03  0.41269940303E+03  0.96123136079E+03  0.65864270000E+03 0. -1.
    8880022    1    1    2    0    0  0.48353872317E+02 -0.56346839173E+03 -0.12133833857E+03  0.59828870194E+03  0.15294330000E+03 0.  0.
<mgrwt>
<rscale>  0 0.78683764E+03</rscale>
<asrwt>0</asrwt>
<pdfrwt beam="1">  1        2 0.14237547E+00 0.86812726E+03</pdfrwt>
<pdfrwt beam="2">  1       -2 0.97550692E-01 0.86812726E+03</pdfrwt>
<totfact> 0.24804125E+01</totfact>
</mgrwt>
</event>
<event>
 4    5  0.6615028E-008  0.9345664E+03  0.7818608E-02  0.9472676E-01
          2   -1    0    0  501    0  0.00000000000E+00  0.00000000000E+00  0.49623025271E+03  0.49623025271E+03  0.25500000000E-02 0. -1.
         -2   -1    0    0    0  501 -0.00000000000E+00 -0.00000000000E+00 -0.19563762631E+04  0.19563762632E+04  0.25500000000E-02 0.  1.
    8880023    1    1    2    0    0 -0.62166634751E+03  0.23051051415E+03 -0.11042175639E+03  0.94106711520E+03  0.65864270000E+03 0.  0.
    8880022    1    1    2    0    0  0.62166634751E+03 -0.23051051415E+03 -0.13497242541E+04  0.15115394007E+04  0.15294330000E+03 0.  0.
<mgrwt>
<rscale>  0 0.86328611E+03</rscale>
<asrwt>0</asrwt>
<pdfrwt beam="1">  1        2 0.76343117E-01 0.93456640E+03</pdfrwt>
<pdfrwt beam="2">  1       -2 0.30098096E+00 0.93456640E+03</pdfrwt>
<totfact> 0.19771677E+00</totfact>
</mgrwt>
</event>
<event>
 4    5  0.6615028E-008  0.6830635E+03  0.7818608E-02  0.1007641E+00
         -2   -1    0    0    0  501 -0.00000000000E+00  0.00000000000E+00  0.23008888696E+03  0.23008888697E+03  0.25500000000E-02 0.  1.
          2   -1    0    0  501    0  0.00000000000E+00 -0.00000000000E+00 -0.20935911973E+04  0.20935911973E+04  0.25500000000E-02 0. -1.
    8880023    1    1    2    0    0  0.11634257707E+03  0.13867211796E+03 -0.19540485911E+04  0.20699955686E+04  0.65864270000E+03 0. -1.
    8880022    1    1    2    0    0 -0.11634257707E+03 -0.13867211796E+03  0.90546280698E+02  0.25368451569E+03  0.15294330000E+03 0.  0.
<mgrwt>
<rscale>  0 0.52422955E+03</rscale>
<asrwt>0</asrwt>
<pdfrwt beam="1">  1        2 0.32209094E+00 0.68306351E+03</pdfrwt>
<pdfrwt beam="2">  1       -2 0.35398292E-01 0.68306351E+03</pdfrwt>
<totfact> 0.46241640E+01</totfact>
</mgrwt>
</event>
<event>
 4    5  0.6615028E-008  0.8284202E+03  0.7818608E-02  0.9652414E-01
          2   -1    0    0  501    0  0.00000000000E+00  0.00000000000E+00  0.20622736801E+04  0.20622736801E+04  0.25500000000E-02 0. -1.
         -2   -1    0    0    0  501 -0.00000000000E+00 -0.00000000000E+00 -0.50502538477E+03  0.50502538478E+03  0.25500000000E-02 0.  1.
    8880023    1    1    2    0    0  0.46015161596E+03  0.20181751569E+03  0.18054086613E+04  0.19863988672E+04  0.65864270000E+03 0.  0.
    8880022    1    1    2    0    0 -0.46015161596E+03 -0.20181751569E+03 -0.24816036599E+03  0.58090019760E+03  0.15294330000E+03 0.  0.
<mgrwt>
<rscale>  0 0.73922116E+03</rscale>
<asrwt>0</asrwt>
<pdfrwt beam="1">  1        2 0.31727287E+00 0.82842020E+03</pdfrwt>
<pdfrwt beam="2">  1       -2 0.77696213E-01 0.82842020E+03</pdfrwt>
<totfact> 0.93326695E+00</totfact>
</mgrwt>
</event>
<event>
 4    5  0.6615028E-008  0.8984429E+03  0.7818608E-02  0.9528536E-01
         -2   -1    0    0    0  501 -0.00000000000E+00  0.00000000000E+00  0.33102826889E+03  0.33102826890E+03  0.25500000000E-02 0.  1.
          2   -1    0    0  501    0  0.00000000000E+00 -0.00000000000E+00 -0.28589172258E+04  0.28589172258E+04  0.25500000000E-02 0. -1.
    8880023    1    1    2    0    0 -0.60347856049E+03 -0.95932946902E+02 -0.23785523841E+04  0.25425796257E+04  0.65864270000E+03 0.  0.
    8880022    1    1    2    0    0  0.60347856049E+03  0.95932946902E+02 -0.14933657283E+03  0.64736586894E+03  0.15294330000E+03 0.  0.
<mgrwt>
<rscale>  0 0.82212292E+03</rscale>
<asrwt>0</asrwt>
<pdfrwt beam="1">  1        2 0.43983340E+00 0.89844294E+03</pdfrwt>
<pdfrwt beam="2">  1       -2 0.50927428E-01 0.89844294E+03</pdfrwt>
<totfact> 0.80265163E+00</totfact>
</mgrwt>
</event>
<event>
 4    5  0.6615028E-008  0.6684447E+03  0.7818608E-02  0.1016803E+00
         -2   -1    0    0    0  501 -0.00000000000E+00  0.00000000000E+00  0.12145987261E+04  0.12145987261E+04  0.25500000000E-02 0.  1.
          2   -1    0    0  501    0  0.00000000000E+00 -0.00000000000E+00 -0.54187689323E+03  0.54187689323E+03  0.25500000000E-02 0. -1.
    8880023    1    1    2    0    0  0.88788790963E+02 -0.71586407916E+02 -0.32317466010E+03  0.74246894238E+03  0.65864270000E+03 0.  0.
    8880022    1    1    2    0    0 -0.88788790963E+02  0.71586407916E+02  0.99589649296E+03  0.10140066769E+04  0.15294330000E+03 0.  1.
<mgrwt>
<rscale>  0 0.48858074E+03</rscale>
<asrwt>0</asrwt>
<pdfrwt beam="1">  1        2 0.83365677E-01 0.66844466E+03</pdfrwt>
<pdfrwt beam="2">  1       -2 0.18686134E+00 0.66844466E+03</pdfrwt>
<totfact> 0.93681392E+00</totfact>
</mgrwt>
</event>
<event>
 4    5  0.6615028E-008  0.8564174E+03  0.7818608E-02  0.9599968E-01
         -2   -1    0    0    0  501 -0.00000000000E+00  0.00000000000E+00  0.10586361521E+04  0.10586361521E+04  0.25500000000E-02 0.  1.
          2   -1    0    0  501    0  0.00000000000E+00 -0.00000000000E+00 -0.12295439100E+04  0.12295439100E+04  0.25500000000E-02 0. -1.
    8880023    1    1    2    0    0 -0.53249239765E+03 -0.12685575163E+03 -0.97868331303E+03  0.13004890498E+04  0.65864270000E+03 0. -1.
    8880022    1    1    2    0    0  0.53249239765E+03  0.12685575163E+03  0.80777555507E+03  0.98769101224E+03  0.15294330000E+03 0.  0.
<mgrwt>
<rscale>  0 0.77298280E+03</rscale>
<asrwt>0</asrwt>
<pdfrwt beam="1">  1        2 0.18916060E+00 0.85641739E+03</pdfrwt>
<pdfrwt beam="2">  1       -2 0.16286710E+00 0.85641739E+03</pdfrwt>
<totfact> 0.43996259E+00</totfact>
</mgrwt>
</event>
<event>
 4    5  0.6615028E-008  0.6601655E+03  0.7818608E-02  0.1023987E+00
         -2   -1    0    0    0  501 -0.00000000000E+00  0.00000000000E+00  0.16622487778E+03  0.16622487780E+03  0.25500000000E-02 0.  1.
          2   -1    0    0  501    0  0.00000000000E+00 -0.00000000000E+00 -0.40017559217E+04  0.40017559217E+04  0.25500000000E-02 0. -1.
    8880023    1    1    2    0    0 -0.40643927038E+02 -0.18879020640E+02 -0.39284262200E+04  0.39835098994E+04  0.65864270000E+03 0. -1.
    8880022    1    1    2    0    0  0.40643927038E+02  0.18879020640E+02  0.92895176103E+02  0.18447090010E+03  0.15294330000E+03 0.  0.
<mgrwt>
<rscale>  0 0.46274726E+03</rscale>
<asrwt>0</asrwt>
<pdfrwt beam="1">  1        2 0.61565469E+00 0.66016555E+03</pdfrwt>
<pdfrwt beam="2">  1       -2 0.25573061E-01 0.66016555E+03</pdfrwt>
<totfact> 0.52895613E+00</totfact>
</mgrwt>
</event>
<event>
 4    5  0.6615028E-008  0.1229597E+04  0.7818608E-02  0.9128875E-01
          2   -1    0    0  501    0  0.00000000000E+00  0.00000000000E+00  0.13436000324E+04  0.13436000324E+04  0.25500000000E-02 0. -1.
         -2   -1    0    0    0  501 -0.00000000000E+00 -0.00000000000E+00 -0.11802094862E+04  0.11802094862E+04  0.25500000000E-02 0.  1.
    8880023    1    1    2    0    0 -0.49319157162E+03 -0.91370739791E+03  0.62258458903E+03  0.13782310808E+04  0.65864270000E+03 0.  0.
    8880022    1    1    2    0    0  0.49319157162E+03  0.91370739791E+03 -0.45919404281E+03  0.11455784379E+04  0.15294330000E+03 0.  0.
<mgrwt>
<rscale>  0 0.11818702E+04</rscale>
<asrwt>0</asrwt>
<pdfrwt beam="1">  1        2 0.20670770E+00 0.12295972E+04</pdfrwt>
<pdfrwt beam="2">  1       -2 0.18157069E+00 0.12295972E+04</pdfrwt>
<totfact> 0.26694365E+00</totfact>
</mgrwt>
</event>
<event>
 4    5  0.6615028E-008  0.1089921E+04  0.7818608E-02  0.9272361E-01
         -2   -1    0    0    0  501 -0.00000000000E+00  0.00000000000E+00  0.12332875465E+04  0.12332875465E+04  0.25500000000E-02 0.  1.
          2   -1    0    0  501    0  0.00000000000E+00 -0.00000000000E+00 -0.20037765762E+04  0.20037765762E+04  0.25500000000E-02 0. -1.
    8880023    1    1    2    0    0 -0.53016592153E+03  0.68778084037E+03 -0.16591841084E+04  0.19851499945E+04  0.65864270000E+03 0.  0.
    8880022    1    1    2    0    0  0.53016592153E+03 -0.68778084037E+03  0.88869507860E+03  0.12519141282E+04  0.15294330000E+03 0.  0.
<mgrwt>
<rscale>  0 0.10336765E+04</rscale>
<asrwt>0</asrwt>
<pdfrwt beam="1">  1        2 0.30827332E+00 0.10899214E+04</pdfrwt>
<pdfrwt beam="2">  1       -2 0.18973654E+00 0.10899214E+04</pdfrwt>
<totfact> 0.10197277E+00</totfact>
</mgrwt>
</event>
<event>
 4    5  0.6615028E-008  0.7348243E+03  0.7818608E-02  0.9875288E-01
          2   -1    0    0  501    0  0.00000000000E+00  0.00000000000E+00  0.10183740929E+04  0.10183740929E+04  0.25500000000E-02 0. -1.
         -2   -1    0    0    0  501 -0.00000000000E+00 -0.00000000000E+00 -0.32891393639E+03  0.32891393640E+03  0.25500000000E-02 0.  1.
    8880023    1    1    2    0    0 -0.21935736873E+03 -0.24091262817E+03  0.65733522967E+03  0.98592918613E+03  0.65864270000E+03 0.  0.
    8880022    1    1    2    0    0  0.21935736873E+03  0.24091262817E+03  0.32124926877E+02  0.36135884322E+03  0.15294330000E+03 0.  0.
<mgrwt>
<rscale>  0 0.61474012E+03</rscale>
<asrwt>0</asrwt>
<pdfrwt beam="1">  1        2 0.15667294E+00 0.73482430E+03</pdfrwt>
<pdfrwt beam="2">  1       -2 0.50602144E-01 0.73482430E+03</pdfrwt>
<totfact> 0.91898748E+01</totfact>
</mgrwt>
</event>
<event>
 4    5  0.6615028E-008  0.9091713E+03  0.7818608E-02  0.9511466E-01
         -2   -1    0    0    0  501 -0.00000000000E+00  0.00000000000E+00  0.49136273125E+03  0.49136273126E+03  0.25500000000E-02 0.  1.
          2   -1    0    0  501    0  0.00000000000E+00 -0.00000000000E+00 -0.29170624422E+04  0.29170624422E+04  0.25500000000E-02 0. -1.
    8880023    1    1    2    0    0 -0.45669741799E+03 -0.42919669110E+03 -0.25881300787E+04  0.27431751387E+04  0.65864270000E+03 0. -1.
    8880022    1    1    2    0    0  0.45669741799E+03  0.42919669110E+03  0.16243036779E+03  0.66525003468E+03  0.15294330000E+03 0.  0.
<mgrwt>
<rscale>  0 0.83443723E+03</rscale>
<asrwt>0</asrwt>
<pdfrwt beam="1">  1        2 0.44877883E+00 0.90917135E+03</pdfrwt>
<pdfrwt beam="2">  1       -2 0.75594268E-01 0.90917135E+03</pdfrwt>
<totfact> 0.31814255E+00</totfact>
</mgrwt>
</event>
<event>
 4    5  0.6615028E-008  0.1296411E+04  0.7818608E-02  0.9068665E-01
         -2   -1    0    0    0  501 -0.00000000000E+00  0.00000000000E+00  0.94929024817E+03  0.94929024818E+03  0.25500000000E-02 0.  1.
          2   -1    0    0  501    0  0.00000000000E+00 -0.00000000000E+00 -0.16244171535E+04  0.16244171535E+04  0.25500000000E-02 0. -1.
    8880023    1    1    2    0    0  0.25769437355E+03 -0.10864923771E+04 -0.64077536932E+03  0.14461242532E+04  0.65864270000E+03 0.  0.
    8880022    1    1    2    0    0 -0.25769437355E+03  0.10864923771E+04 -0.34351535968E+02  0.11275831484E+04  0.15294330000E+03 0.  0.
<mgrwt>
<rscale>  0 0.12518256E+04</rscale>
<asrwt>0</asrwt>
<pdfrwt beam="1">  1        2 0.24991033E+00 0.12964113E+04</pdfrwt>
<pdfrwt beam="2">  1       -2 0.14604465E+00 0.12964113E+04</pdfrwt>
<totfact> 0.33479145E+00</totfact>
</mgrwt>
</event>
<event>
 4    5  0.6615028E-008  0.6747733E+03  0.7818608E-02  0.1012450E+00
          2   -1    0    0  501    0  0.00000000000E+00  0.00000000000E+00  0.10416340426E+04  0.10416340426E+04  0.25500000000E-02 0. -1.
         -2   -1    0    0    0  501 -0.00000000000E+00 -0.00000000000E+00 -0.28716867917E+03  0.28716867918E+03  0.25500000000E-02 0.  1.
    8880023    1    1    2    0    0  0.51474990760E+02  0.13732861929E+03  0.85915160507E+03  0.10924561827E+04  0.65864270000E+03 0.  0.
    8880022    1    1    2    0    0 -0.51474990760E+02 -0.13732861929E+03 -0.10468624162E+03  0.23634653911E+03  0.15294330000E+03 0.  0.
<mgrwt>
<rscale>  0 0.50512608E+03</rscale>
<asrwt>0</asrwt>
<pdfrwt beam="1">  1        2 0.16025139E+00 0.67477332E+03</pdfrwt>
<pdfrwt beam="2">  1       -2 0.44179797E-01 0.67477332E+03</pdfrwt>
<totfact> 0.11730279E+02</totfact>
</mgrwt>
</event>
<event>
 4    5  0.6615028E-008  0.8512531E+03  0.7818608E-02  0.9609316E-01
          2   -1    0    0  501    0  0.00000000000E+00  0.00000000000E+00  0.23241060110E+04  0.23241060110E+04  0.25500000000E-02 0. -1.
         -2   -1    0    0    0  501 -0.00000000000E+00 -0.00000000000E+00 -0.30240119740E+03  0.30240119741E+03  0.25500000000E-02 0.  1.
    8880023    1    1    2    0    0 -0.53030853412E+03  0.97951666839E+02  0.18561239682E+04  0.20420156860E+04  0.65864270000E+03 0.  0.
    8880022    1    1    2    0    0  0.53030853412E+03 -0.97951666839E+02  0.16558084546E+03  0.58449152243E+03  0.15294330000E+03 0.  0.
<mgrwt>
<rscale>  0 0.76682650E+03</rscale>
<asrwt>0</asrwt>
<pdfrwt beam="1">  1        2 0.35755476E+00 0.85125312E+03</pdfrwt>
<pdfrwt beam="2">  1       -2 0.46523262E-01 0.85125312E+03</pdfrwt>
<totfact> 0.19760135E+01</totfact>
</mgrwt>
</event>
<event>
 4    5  0.1775760E-007  0.8416328E+03  0.7818608E-02  0.9627109E-01
          2   -1    0    0  501    0  0.00000000000E+00  0.00000000000E+00  0.32916429866E+04  0.32916429866E+04  0.25500000000E-02 0. -1.
         -2   -1    0    0    0  501 -0.00000000000E+00 -0.00000000000E+00 -0.18576554720E+04  0.18576554720E+04  0.25500000000E-02 0.  1.
    8880023    1    1    2    0    0  0.72066994181E+02  0.51898165624E+03  0.31958545226E+04  0.33048195030E+04  0.65864270000E+03 0. -1.
    8880022    1    1    2    0    0 -0.72066994181E+02 -0.51898165624E+03 -0.17618670080E+04  0.18444789557E+04  0.15294330000E+03 0.  0.
<mgrwt>
<rscale>  0 0.75527617E+03</rscale>
<asrwt>0</asrwt>
<pdfrwt beam="1">  1        2 0.50640661E+00 0.84163283E+03</pdfrwt>
<pdfrwt beam="2">  1       -2 0.28579315E+00 0.84163283E+03</pdfrwt>
<totfact> 0.47202486E-02</totfact>
</mgrwt>
</event>
<event>
 4    5  0.6615028E-008  0.1174206E+04  0.7818608E-02  0.9182613E-01
          2   -1    0    0  501    0  0.00000000000E+00  0.00000000000E+00  0.42377446253E+04  0.42377446253E+04  0.25500000000E-02 0. -1.
         -2   -1    0    0    0  501 -0.00000000000E+00 -0.00000000000E+00 -0.66765819042E+03  0.66765819042E+03  0.25500000000E-02 0.  1.
    8880023    1    1    2    0    0 -0.50844576105E+03 -0.82851239086E+03  0.37281994020E+04  0.39087377581E+04  0.65864270000E+03 0.  0.
    8880022    1    1    2    0    0  0.50844576105E+03  0.82851239086E+03 -0.15811296717E+03  0.99666505765E+03  0.15294330000E+03 0.  0.
<mgrwt>
<rscale>  0 0.11234709E+04</rscale>
<asrwt>0</asrwt>
<pdfrwt beam="1">  1        2 0.65196072E+00 0.11742061E+04</pdfrwt>
<pdfrwt beam="2">  1       -2 0.10271664E+00 0.11742061E+04</pdfrwt>
<totfact> 0.17120265E-01</totfact>
</mgrwt>
</event>
<event>
 4    5  0.6615028E-008  0.7643642E+03  0.7818608E-02  0.9793937E-01
         -2   -1    0    0    0  501 -0.00000000000E+00  0.00000000000E+00  0.75887465129E+03  0.75887465130E+03  0.25500000000E-02 0.  1.
          2   -1    0    0  501    0  0.00000000000E+00 -0.00000000000E+00 -0.20940437646E+04  0.20940437646E+04  0.25500000000E-02 0. -1.
    8880023    1    1    2    0    0 -0.69997992202E+02  0.38150066143E+03 -0.19588561077E+04  0.21027053837E+04  0.65864270000E+03 0. -1.
    8880022    1    1    2    0    0  0.69997992202E+02 -0.38150066143E+03  0.62368699445E+03  0.75021303217E+03  0.15294330000E+03 0.  0.
<mgrwt>
<rscale>  0 0.65688924E+03</rscale>
<asrwt>0</asrwt>
<pdfrwt beam="1">  1        2 0.32216058E+00 0.76436423E+03</pdfrwt>
<pdfrwt beam="2">  1       -2 0.11674995E+00 0.76436423E+03</pdfrwt>
<totfact> 0.34866467E+00</totfact>
</mgrwt>
</event>
<event>
 4    5  0.6615028E-008  0.1397680E+04  0.7818608E-02  0.8985487E-01
          2   -1    0    0  501    0  0.00000000000E+00  0.00000000000E+00  0.13834404337E+04  0.13834404337E+04  0.25500000000E-02 0. -1.
         -2   -1    0    0    0  501 -0.00000000000E+00 -0.00000000000E+00 -0.14477150666E+04  0.14477150666E+04  0.25500000000E-02 0.  1.
    8880023    1    1    2    0    0  0.76861431187E+03  0.96381083996E+03  0.47603755769E+03  0.14765233687E+04  0.65864270000E+03 0.  0.
    8880022    1    1    2    0    0 -0.76861431187E+03 -0.96381083996E+03 -0.54031219064E+03  0.13546321316E+04  0.15294330000E+03 0.  0.
<mgrwt>
<rscale>  0 0.13570779E+04</rscale>
<asrwt>0</asrwt>
<pdfrwt beam="1">  1        2 0.21283699E+00 0.13976800E+04</pdfrwt>
<pdfrwt beam="2">  1       -2 0.22272540E+00 0.13976800E+04</pdfrwt>
<totfact> 0.13363851E+00</totfact>
</mgrwt>
</event>
<event>
 4    5  0.6615028E-008  0.1507664E+04  0.7818608E-02  0.8904243E-01
         -2   -1    0    0    0  501 -0.00000000000E+00  0.00000000000E+00  0.17871799865E+04  0.17871799865E+04  0.25500000000E-02 0.  1.
          2   -1    0    0  501    0  0.00000000000E+00 -0.00000000000E+00 -0.13536085140E+04  0.13536085140E+04  0.25500000000E-02 0. -1.
    8880023    1    1    2    0    0 -0.88084885488E+03 -0.10311859351E+04 -0.37615164448E+03  0.15538788253E+04  0.65864270000E+03 0.  0.
    8880022    1    1    2    0    0  0.88084885488E+03  0.10311859351E+04  0.80972311698E+03  0.15869096751E+04  0.15294330000E+03 0.  0.
<mgrwt>
<rscale>  0 0.14705987E+04</rscale>
<asrwt>0</asrwt>
<pdfrwt beam="1">  1        2 0.20824746E+00 0.15076635E+04</pdfrwt>
<pdfrwt beam="2">  1       -2 0.27495077E+00 0.15076635E+04</pdfrwt>
<totfact> 0.65485304E-01</totfact>
</mgrwt>
</event>
<event>
 4    5  0.6615028E-008  0.1133874E+04  0.7818608E-02  0.9224247E-01
          2   -1    0    0  501    0  0.00000000000E+00  0.00000000000E+00  0.19851850674E+04  0.19851850674E+04  0.25500000000E-02 0. -1.
         -2   -1    0    0    0  501 -0.00000000000E+00 -0.00000000000E+00 -0.59808592455E+03  0.59808592456E+03  0.25500000000E-02 0.  1.
    8880023    1    1    2    0    0  0.41106195793E+03 -0.82637019779E+03  0.11567185974E+04  0.16197739833E+04  0.65864270000E+03 0.  0.
    8880022    1    1    2    0    0 -0.41106195793E+03  0.82637019779E+03  0.23038054547E+03  0.96349700871E+03  0.15294330000E+03 0.  0.
<mgrwt>
<rscale>  0 0.10806626E+04</rscale>
<asrwt>0</asrwt>
<pdfrwt beam="1">  1        2 0.30541309E+00 0.11338738E+04</pdfrwt>
<pdfrwt beam="2">  1       -2 0.92013218E-01 0.11338738E+04</pdfrwt>
<totfact> 0.67440666E+00</totfact>
</mgrwt>
</event>
<event>
 4    5  0.6615028E-008  0.9606718E+03  0.7818608E-02  0.9434923E-01
          2   -1    0    0  501    0  0.00000000000E+00  0.00000000000E+00  0.10958116219E+04  0.10958116219E+04  0.25500000000E-02 0. -1.
         -2   -1    0    0    0  501 -0.00000000000E+00 -0.00000000000E+00 -0.96408702554E+03  0.96408702555E+03  0.25500000000E-02 0.  1.
    8880023    1    1    2    0    0 -0.67596210658E+03 -0.17931892931E+03  0.66401381457E+03  0.11678204486E+04  0.65864270000E+03 0.  0.
    8880022    1    1    2    0    0  0.67596210658E+03  0.17931892931E+03 -0.53228921824E+03  0.89207819883E+03  0.15294330000E+03 0.  0.
<mgrwt>
<rscale>  0 0.89256532E+03</rscale>
<asrwt>0</asrwt>
<pdfrwt beam="1">  1        2 0.16858640E+00 0.96067177E+03</pdfrwt>
<pdfrwt beam="2">  1       -2 0.14832108E+00 0.96067177E+03</pdfrwt>
<totfact> 0.67328025E+00</totfact>
</mgrwt>
</event>
<event>
 4    5  0.6615028E-008  0.7287023E+03  0.7818608E-02  0.9894170E-01
          2   -1    0    0  501    0  0.00000000000E+00  0.00000000000E+00  0.27677361622E+04  0.27677361622E+04  0.25500000000E-02 0. -1.
         -2   -1    0    0    0  501 -0.00000000000E+00 -0.00000000000E+00 -0.69236928068E+03  0.69236928068E+03  0.25500000000E-02 0.  1.
    8880023    1    1    2    0    0 -0.28212605397E+03  0.13267169031E+03  0.26721034783E+04  0.27696830311E+04  0.65864270000E+03 0. -1.
    8880022    1    1    2    0    0  0.28212605397E+03 -0.13267169031E+03 -0.59673659678E+03  0.69042241178E+03  0.15294330000E+03 0.  0.
<mgrwt>
<rscale>  0 0.60544664E+03</rscale>
<asrwt>0</asrwt>
<pdfrwt beam="1">  1        2 0.42580557E+00 0.72870234E+03</pdfrwt>
<pdfrwt beam="2">  1       -2 0.10651835E+00 0.72870234E+03</pdfrwt>
<totfact> 0.18276634E+00</totfact>
</mgrwt>
</event>
<event>
 4    5  0.1068118E-007  0.8536616E+03  0.7818608E-02  0.9604939E-01
          2   -1    0    0  501    0  0.00000000000E+00  0.00000000000E+00  0.28112751095E+04  0.28112751095E+04  0.25500000000E-02 0. -1.
         -2   -1    0    0    0  501 -0.00000000000E+00 -0.00000000000E+00 -0.16846716290E+04  0.16846716290E+04  0.25500000000E-02 0.  1.
    8880023    1    1    2    0    0 -0.63532193143E+02  0.53934368719E+03  0.26961542608E+04  0.28280710665E+04  0.65864270000E+03 0.  0.
    8880022    1    1    2    0    0  0.63532193143E+02 -0.53934368719E+03 -0.15695507803E+04  0.16678756720E+04  0.15294330000E+03 0.  1.
<mgrwt>
<rscale>  0 0.76970134E+03</rscale>
<asrwt>0</asrwt>
<pdfrwt beam="1">  1        2 0.43250386E+00 0.85366162E+03</pdfrwt>
<pdfrwt beam="2">  1       -2 0.25918025E+00 0.85366162E+03</pdfrwt>
<totfact> 0.13524672E-01</totfact>
</mgrwt>
</event>
<event>
 4    5  0.6615028E-008  0.6904941E+03  0.7818608E-02  0.1003919E+00
         -2   -1    0    0    0  501 -0.00000000000E+00  0.00000000000E+00  0.11110055664E+04  0.11110055664E+04  0.25500000000E-02 0.  1.
          2   -1    0    0  501    0  0.00000000000E+00 -0.00000000000E+00 -0.30327094759E+03  0.30327094760E+03  0.25500000000E-02 0. -1.
    8880023    1    1    2    0    0 -0.20711798419E+03  0.86045640743E+01  0.14820400198E+03  0.70621988811E+03  0.65864270000E+03 0. -1.
    8880022    1    1    2    0    0  0.20711798419E+03 -0.86045640743E+01  0.65953061679E+03  0.70805662584E+03  0.15294330000E+03 0.  0.
<mgrwt>
<rscale>  0 0.53964876E+03</rscale>
<asrwt>0</asrwt>
<pdfrwt beam="1">  1        2 0.46657069E-01 0.69049410E+03</pdfrwt>
<pdfrwt beam="2">  1       -2 0.17092393E+00 0.69049410E+03</pdfrwt>
<totfact> 0.23194496E+01</totfact>
</mgrwt>
</event>
<event>
 4    5  0.6615028E-008  0.1240758E+04  0.7818608E-02  0.9118486E-01
         -2   -1    0    0    0  501 -0.00000000000E+00  0.00000000000E+00  0.21885880625E+04  0.21885880625E+04  0.25500000000E-02 0.  1.
          2   -1    0    0  501    0  0.00000000000E+00 -0.00000000000E+00 -0.11694709056E+04  0.11694709056E+04  0.25500000000E-02 0. -1.
    8880023    1    1    2    0    0 -0.11280726203E+03 -0.10454399052E+04 -0.63364783938E+03  0.13931941230E+04  0.65864270000E+03 0.  0.
    8880022    1    1    2    0    0  0.11280726203E+03  0.10454399052E+04  0.16527649962E+04  0.19648648451E+04  0.15294330000E+03 0.  0.
<mgrwt>
<rscale>  0 0.11935896E+04</rscale>
<asrwt>0</asrwt>
<pdfrwt beam="1">  1        2 0.17991860E+00 0.12407579E+04</pdfrwt>
<pdfrwt beam="2">  1       -2 0.33670585E+00 0.12407579E+04</pdfrwt>
<totfact> 0.36319846E-01</totfact>
</mgrwt>
</event>
<event>
 4    5  0.6615028E-008  0.1476403E+04  0.7818608E-02  0.8926481E-01
          2   -1    0    0  501    0  0.00000000000E+00  0.00000000000E+00  0.18260935244E+04  0.18260935244E+04  0.25500000000E-02 0. -1.
         -2   -1    0    0    0  501 -0.00000000000E+00 -0.00000000000E+00 -0.17551242088E+04  0.17551242088E+04  0.25500000000E-02 0.  1.
    8880023    1    1    2    0    0  0.59473635039E+03  0.11799339427E+04  0.11475815205E+04  0.18699489266E+04  0.65864270000E+03 0.  0.
    8880022    1    1    2    0    0 -0.59473635039E+03 -0.11799339427E+04 -0.10766122050E+04  0.17112688066E+04  0.15294330000E+03 0.  0.
<mgrwt>
<rscale>  0 0.14384021E+04</rscale>
<asrwt>0</asrwt>
<pdfrwt beam="1">  1        2 0.28093747E+00 0.14764029E+04</pdfrwt>
<pdfrwt beam="2">  1       -2 0.27001911E+00 0.14764029E+04</pdfrwt>
<totfact> 0.38037315E-01</totfact>
</mgrwt>
</event>
<event>
 4    5  0.6615028E-008  0.6588196E+03  0.7818608E-02  0.1025400E+00
         -2   -1    0    0    0  501 -0.00000000000E+00  0.00000000000E+00  0.32891688557E+03  0.32891688558E+03  0.25500000000E-02 0.  1.
          2   -1    0    0  501    0  0.00000000000E+00 -0.00000000000E+00 -0.21379702455E+04  0.21379702455E+04  0.25500000000E-02 0. -1.
    8880023    1    1    2    0    0  0.48548816443E+01 -0.14471800391E+02 -0.20654343022E+04  0.21679626533E+04  0.65864270000E+03 0. -1.
    8880022    1    1    2    0    0 -0.48548816443E+01  0.14471800391E+02  0.25638094227E+03  0.29892447785E+03  0.15294330000E+03 0.  0.
<mgrwt>
<rscale>  0 0.45787354E+03</rscale>
<asrwt>0</asrwt>
<pdfrwt beam="1">  1        2 0.32891849E+00 0.65881956E+03</pdfrwt>
<pdfrwt beam="2">  1       -2 0.50602599E-01 0.65881956E+03</pdfrwt>
<totfact> 0.21719641E+01</totfact>
</mgrwt>
</event>
<event>
 4    5  0.6615028E-008  0.1268657E+04  0.7818608E-02  0.9093110E-01
          2   -1    0    0  501    0  0.00000000000E+00  0.00000000000E+00  0.85314021024E+03  0.85314021024E+03  0.25500000000E-02 0. -1.
         -2   -1    0    0    0  501 -0.00000000000E+00 -0.00000000000E+00 -0.17474166173E+04  0.17474166173E+04  0.25500000000E-02 0.  1.
    8880023    1    1    2    0    0  0.10805201268E+04 -0.90319386585E+02 -0.15215227084E+03  0.12777487452E+04  0.65864270000E+03 0.  0.
    8880022    1    1    2    0    0 -0.10805201268E+04  0.90319386585E+02 -0.74212413618E+03  0.13228080823E+04  0.15294330000E+03 0.  0.
<mgrwt>
<rscale>  0 0.12228240E+04</rscale>
<asrwt>0</asrwt>
<pdfrwt beam="1">  1        2 0.13125234E+00 0.12686574E+04</pdfrwt>
<pdfrwt beam="2">  1       -2 0.26883333E+00 0.12686574E+04</pdfrwt>
<totfact> 0.15098679E+00</totfact>
</mgrwt>
</event>
<event>
 4    5  0.6615028E-008  0.1219149E+04  0.7818608E-02  0.9138729E-01
         -2   -1    0    0    0  501 -0.00000000000E+00  0.00000000000E+00  0.67342974115E+03  0.67342974115E+03  0.25500000000E-02 0.  1.
          2   -1    0    0  501    0  0.00000000000E+00 -0.00000000000E+00 -0.21229075724E+04  0.21229075725E+04  0.25500000000E-02 0. -1.
    8880023    1    1    2    0    0  0.43155229922E+03  0.93073969624E+03 -0.31507382254E+03  0.12592043079E+04  0.65864270000E+03 0.  0.
    8880022    1    1    2    0    0 -0.43155229922E+03 -0.93073969624E+03 -0.11344040088E+04  0.15371330057E+04  0.15294330000E+03 0.  0.
<mgrwt>
<rscale>  0 0.11708852E+04</rscale>
<asrwt>0</asrwt>
<pdfrwt beam="1">  1        2 0.32660116E+00 0.12191489E+04</pdfrwt>
<pdfrwt beam="2">  1       -2 0.10360458E+00 0.12191489E+04</pdfrwt>
<totfact> 0.42321554E+00</totfact>
</mgrwt>
</event>
<event>
 4    5  0.6615028E-008  0.1052580E+04  0.7818608E-02  0.9315786E-01
         -2   -1    0    0    0  501 -0.00000000000E+00  0.00000000000E+00  0.43332063475E+03  0.43332063476E+03  0.25500000000E-02 0.  1.
          2   -1    0    0  501    0  0.00000000000E+00 -0.00000000000E+00 -0.22116651468E+04  0.22116651468E+04  0.25500000000E-02 0. -1.
    8880023    1    1    2    0    0  0.57350819440E+03 -0.58754036159E+03 -0.63566243120E+03  0.12296309439E+04  0.65864270000E+03 0.  0.
    8880022    1    1    2    0    0 -0.57350819440E+03  0.58754036159E+03 -0.11426820808E+04  0.14153548376E+04  0.15294330000E+03 0.  0.
<mgrwt>
<rscale>  0 0.99342488E+03</rscale>
<asrwt>0</asrwt>
<pdfrwt beam="1">  1        2 0.34025617E+00 0.10525804E+04</pdfrwt>
<pdfrwt beam="2">  1       -2 0.66664714E-01 0.10525804E+04</pdfrwt>
<totfact> 0.10517479E+01</totfact>
</mgrwt>
</event>
<event>
 4    5  0.6615028E-008  0.9780214E+03  0.7818608E-02  0.9410895E-01
          2   -1    0    0  501    0  0.00000000000E+00  0.00000000000E+00  0.17219047842E+04  0.17219047842E+04  0.25500000000E-02 0. -1.
         -2   -1    0    0    0  501 -0.00000000000E+00 -0.00000000000E+00 -0.11388795846E+04  0.11388795846E+04  0.25500000000E-02 0.  1.
    8880023    1    1    2    0    0 -0.27417387161E+03  0.66898756759E+03  0.14327084788E+04  0.17346986680E+04  0.65864270000E+03 0.  0.
    8880022    1    1    2    0    0  0.27417387161E+03 -0.66898756759E+03 -0.84968327915E+03  0.11260857007E+04  0.15294330000E+03 0.  0.
<mgrwt>
<rscale>  0 0.91184500E+03</rscale>
<asrwt>0</asrwt>
<pdfrwt beam="1">  1        2 0.26490843E+00 0.97802141E+03</pdfrwt>
<pdfrwt beam="2">  1       -2 0.17521224E+00 0.97802141E+03</pdfrwt>
<totfact> 0.18623353E+00</totfact>
</mgrwt>
</event>
<event>
 4    5  0.6615028E-008  0.1248559E+04  0.7818608E-02  0.9111306E-01
          2   -1    0    0  501    0  0.00000000000E+00  0.00000000000E+00  0.87689176024E+03  0.87689176025E+03  0.25500000000E-02 0. -1.
         -2   -1    0    0    0  501 -0.00000000000E+00 -0.00000000000E+00 -0.28589348556E+04  0.28589348556E+04  0.25500000000E-02 0.  1.
    8880023    1    1    2    0    0  0.93415520281E+03  0.50243805408E+03  0.23764515610E+03  0.12709741805E+04  0.65864270000E+03 0.  0.
    8880022    1    1    2    0    0 -0.93415520281E+03 -0.50243805408E+03 -0.22196882515E+04  0.24648524353E+04  0.15294330000E+03 0.  0.
<mgrwt>
<rscale>  0 0.12017728E+04</rscale>
<asrwt>0</asrwt>
<pdfrwt beam="1">  1        2 0.13490643E+00 0.12485592E+04</pdfrwt>
<pdfrwt beam="2">  1       -2 0.43983613E+00 0.12485592E+04</pdfrwt>
<totfact> 0.12082428E-01</totfact>
</mgrwt>
</event>
<event>
 4    5  0.6615028E-008  0.1028211E+04  0.7818608E-02  0.9345545E-01
         -2   -1    0    0    0  501 -0.00000000000E+00  0.00000000000E+00  0.13401368775E+04  0.13401368775E+04  0.25500000000E-02 0.  1.
          2   -1    0    0  501    0  0.00000000000E+00 -0.00000000000E+00 -0.12445812980E+04  0.12445812980E+04  0.25500000000E-02 0. -1.
    8880023    1    1    2    0    0 -0.60068231205E+03  0.51243414146E+03 -0.85666258298E+03  0.13383157238E+04  0.65864270000E+03 0. -1.
    8880022    1    1    2    0    0  0.60068231205E+03 -0.51243414146E+03  0.95221816249E+03  0.12464024516E+04  0.15294330000E+03 0.  0.
<mgrwt>
<rscale>  0 0.96695877E+03</rscale>
<asrwt>0</asrwt>
<pdfrwt beam="1">  1        2 0.19147404E+00 0.10282112E+04</pdfrwt>
<pdfrwt beam="2">  1       -2 0.20617491E+00 0.10282112E+04</pdfrwt>
<totfact> 0.21368592E+00</totfact>
</mgrwt>
</event>
<event>
 4    5  0.6615028E-008  0.1035389E+04  0.7818608E-02  0.9336655E-01
         -2   -1    0    0    0  501 -0.00000000000E+00  0.00000000000E+00  0.75579518227E+03  0.75579518227E+03  0.25500000000E-02 0.  1.
          2   -1    0    0  501    0  0.00000000000E+00 -0.00000000000E+00 -0.17564629789E+04  0.17564629789E+04  0.25500000000E-02 0. -1.
    8880023    1    1    2    0    0  0.67791033427E+03  0.42268013823E+03 -0.12853331167E+04  0.16504885179E+04  0.65864270000E+03 0.  0.
    8880022    1    1    2    0    0 -0.67791033427E+03 -0.42268013823E+03  0.28466532009E+03  0.86176964325E+03  0.15294330000E+03 0.  0.
<mgrwt>
<rscale>  0 0.97477244E+03</rscale>
<asrwt>0</asrwt>
<pdfrwt beam="1">  1        2 0.27022507E+00 0.10353894E+04</pdfrwt>
<pdfrwt beam="2">  1       -2 0.11627618E+00 0.10353894E+04</pdfrwt>
<totfact> 0.51962291E+00</totfact>
</mgrwt>
</event>
<event>
 4    5  0.6615028E-008  0.7213410E+03  0.7818608E-02  0.9918074E-01
         -2   -1    0    0    0  501 -0.00000000000E+00  0.00000000000E+00  0.35717473824E+03  0.35717473825E+03  0.25500000000E-02 0.  1.
          2   -1    0    0  501    0  0.00000000000E+00 -0.00000000000E+00 -0.17420329762E+04  0.17420329762E+04  0.25500000000E-02 0. -1.
    8880023    1    1    2    0    0 -0.26397030015E+03  0.12977811085E+03 -0.15640277190E+04  0.17223575673E+04  0.65864270000E+03 0. -1.
    8880022    1    1    2    0    0  0.26397030015E+03 -0.12977811085E+03  0.17916948110E+03  0.37685014713E+03  0.15294330000E+03 0.  0.
<mgrwt>
<rscale>  0 0.59393274E+03</rscale>
<asrwt>0</asrwt>
<pdfrwt beam="1">  1        2 0.26800507E+00 0.72134103E+03</pdfrwt>
<pdfrwt beam="2">  1       -2 0.54949961E-01 0.72134103E+03</pdfrwt>
<totfact> 0.29850129E+01</totfact>
</mgrwt>
</event>
<event>
 4    5  0.6615028E-008  0.9940979E+03  0.7818608E-02  0.9389320E-01
         -2   -1    0    0    0  501 -0.00000000000E+00  0.00000000000E+00  0.29217842063E+04  0.29217842063E+04  0.25500000000E-02 0.  1.
          2   -1    0    0  501    0  0.00000000000E+00 -0.00000000000E+00 -0.71371219134E+03  0.71371219134E+03  0.25500000000E-02 0. -1.
    8880023    1    1    2    0    0 -0.73836956677E+03  0.96077327633E+02 -0.28091197684E+03  0.10330257572E+04  0.65864270000E+03 0. -1.
    8880022    1    1    2    0    0  0.73836956677E+03 -0.96077327633E+02  0.24889839918E+04  0.26024706405E+04  0.15294330000E+03 0.  0.
<mgrwt>
<rscale>  0 0.92959805E+03</rscale>
<asrwt>0</asrwt>
<pdfrwt beam="1">  1        2 0.10980188E+00 0.99409792E+03</pdfrwt>
<pdfrwt beam="2">  1       -2 0.44950526E+00 0.99409792E+03</pdfrwt>
<totfact> 0.14256301E-01</totfact>
</mgrwt>
</event>
<event>
 4    5  0.6615028E-008  0.7662722E+03  0.7818608E-02  0.9789132E-01
          2   -1    0    0  501    0  0.00000000000E+00  0.00000000000E+00  0.23313308014E+04  0.23313308014E+04  0.25500000000E-02 0. -1.
         -2   -1    0    0    0  501 -0.00000000000E+00 -0.00000000000E+00 -0.15502831612E+03  0.15502831614E+03  0.25500000000E-02 0.  1.
    8880023    1    1    2    0    0 -0.25943636861E+03  0.29335240811E+03  0.15886913085E+04  0.17638347839E+04  0.65864270000E+03 0. -1.
    8880022    1    1    2    0    0  0.25943636861E+03 -0.29335240811E+03  0.58761117671E+03  0.72252433364E+03  0.15294330000E+03 0.  1.
<mgrwt>
<rscale>  0 0.65949061E+03</rscale>
<asrwt>0</asrwt>
<pdfrwt beam="1">  1        2 0.35866628E+00 0.76627219E+03</pdfrwt>
<pdfrwt beam="2">  1       -2 0.23850510E-01 0.76627219E+03</pdfrwt>
<totfact> 0.70152053E+01</totfact>
</mgrwt>
</event>
<event>
 4    5  0.6615028E-008  0.1035844E+04  0.7818608E-02  0.9336096E-01
         -2   -1    0    0    0  501 -0.00000000000E+00  0.00000000000E+00  0.14517084284E+04  0.14517084284E+04  0.25500000000E-02 0.  1.
          2   -1    0    0  501    0  0.00000000000E+00 -0.00000000000E+00 -0.16259608022E+04  0.16259608022E+04  0.25500000000E-02 0. -1.
    8880023    1    1    2    0    0 -0.55192238748E+03 -0.57839737387E+03 -0.13164472053E+04  0.16751135169E+04  0.65864270000E+03 0. -1.
    8880022    1    1    2    0    0  0.55192238748E+03  0.57839737387E+03  0.11421948315E+04  0.14025557137E+04  0.15294330000E+03 0.  0.
<mgrwt>
<rscale>  0 0.97526642E+03</rscale>
<asrwt>0</asrwt>
<pdfrwt beam="1">  1        2 0.25014782E+00 0.10358436E+04</pdfrwt>
<pdfrwt beam="2">  1       -2 0.22333976E+00 0.10358436E+04</pdfrwt>
<totfact> 0.10064314E+00</totfact>
</mgrwt>
</event>
<event>
 4    5  0.6615028E-008  0.1571787E+04  0.7818608E-02  0.8860540E-01
          2   -1    0    0  501    0  0.00000000000E+00  0.00000000000E+00  0.42557163150E+04  0.42557163150E+04  0.25500000000E-02 0. -1.
         -2   -1    0    0    0  501 -0.00000000000E+00 -0.00000000000E+00 -0.56148013913E+03  0.56148013914E+03  0.25500000000E-02 0.  1.
    8880023    1    1    2    0    0  0.11822700087E+04 -0.79933885841E+03  0.24852008862E+04  0.29405337330E+04  0.65864270000E+03 0.  0.
    8880022    1    1    2    0    0 -0.11822700087E+04  0.79933885841E+03  0.12090352897E+04  0.18766627211E+04  0.15294330000E+03 0.  0.
<mgrwt>
<rscale>  0 0.15364954E+04</rscale>
<asrwt>0</asrwt>
<pdfrwt beam="1">  1        2 0.65472561E+00 0.15717873E+04</pdfrwt>
<pdfrwt beam="2">  1       -2 0.86381556E-01 0.15717873E+04</pdfrwt>
<totfact> 0.23379257E-01</totfact>
</mgrwt>
</event>
<event>
 4    5  0.6615028E-008  0.8389505E+03  0.7818608E-02  0.9632162E-01
         -2   -1    0    0    0  501 -0.00000000000E+00  0.00000000000E+00  0.44613696456E+03  0.44613696456E+03  0.25500000000E-02 0.  1.
          2   -1    0    0  501    0  0.00000000000E+00 -0.00000000000E+00 -0.11807182609E+04  0.11807182609E+04  0.25500000000E-02 0. -1.
    8880023    1    1    2    0    0  0.42398119087E+03  0.30044579090E+03 -0.68468301247E+03  0.10828798444E+04  0.65864270000E+03 0.  0.
    8880022    1    1    2    0    0 -0.42398119087E+03 -0.30044579090E+03 -0.49898283853E+02  0.54397538109E+03  0.15294330000E+03 0.  0.
<mgrwt>
<rscale>  0 0.75203551E+03</rscale>
<asrwt>0</asrwt>
<pdfrwt beam="1">  1        2 0.18164896E+00 0.83895049E+03</pdfrwt>
<pdfrwt beam="2">  1       -2 0.68636456E-01 0.83895049E+03</pdfrwt>
<totfact> 0.38110003E+01</totfact>
</mgrwt>
</event>
<event>
 4    5  0.6615028E-008  0.9719168E+03  0.7818608E-02  0.9419258E-01
          2   -1    0    0  501    0  0.00000000000E+00  0.00000000000E+00  0.16264360312E+04  0.16264360312E+04  0.25500000000E-02 0. -1.
         -2   -1    0    0    0  501 -0.00000000000E+00 -0.00000000000E+00 -0.19582367131E+04  0.19582367131E+04  0.25500000000E-02 0.  1.
    8880023    1    1    2    0    0  0.70460082872E+03  0.11978997067E+03  0.14003788168E+04  0.17046064067E+04  0.65864270000E+03 0. -1.
    8880022    1    1    2    0    0 -0.70460082872E+03 -0.11978997067E+03 -0.17321794987E+04  0.18800663376E+04  0.15294330000E+03 0.  0.
<mgrwt>
<rscale>  0 0.90507622E+03</rscale>
<asrwt>0</asrwt>
<pdfrwt beam="1">  1        2 0.25022093E+00 0.97191675E+03</pdfrwt>
<pdfrwt beam="2">  1       -2 0.30126719E+00 0.97191675E+03</pdfrwt>
<totfact> 0.34035849E-01</totfact>
</mgrwt>
</event>
<event>
 4    5  0.8442104E-008  0.9655480E+03  0.7818608E-02  0.9428088E-01
         -2   -1    0    0    0  501 -0.00000000000E+00  0.00000000000E+00  0.20698825027E+04  0.20698825027E+04  0.25500000000E-02 0.  1.
          2   -1    0    0  501    0  0.00000000000E+00 -0.00000000000E+00 -0.27786042342E+04  0.27786042342E+04  0.25500000000E-02 0. -1.
    8880023    1    1    2    0    0  0.65204358960E+03 -0.27076175999E+03 -0.26269302698E+04  0.27987578713E+04  0.65864270000E+03 0. -1.
    8880022    1    1    2    0    0 -0.65204358960E+03  0.27076175999E+03  0.19182085383E+04  0.20497288657E+04  0.15294330000E+03 0.  0.
<mgrwt>
<rscale>  0 0.89799748E+03</rscale>
<asrwt>0</asrwt>
<pdfrwt beam="1">  1        2 0.42747757E+00 0.96554802E+03</pdfrwt>
<pdfrwt beam="2">  1       -2 0.31844346E+00 0.96554802E+03</pdfrwt>
<totfact> 0.60381334E-02</totfact>
</mgrwt>
</event>
<event>
 4    5  0.6615028E-008  0.1927020E+04  0.7818608E-02  0.8655347E-01
         -2   -1    0    0    0  501 -0.00000000000E+00  0.00000000000E+00  0.24630496770E+04  0.24630496770E+04  0.25500000000E-02 0.  1.
          2   -1    0    0  501    0  0.00000000000E+00 -0.00000000000E+00 -0.18963481035E+04  0.18963481035E+04  0.25500000000E-02 0. -1.
    8880023    1    1    2    0    0 -0.27037451744E+03 -0.17906687654E+04 -0.79894607194E+03  0.20860781479E+04  0.65864270000E+03 0.  0.
    8880022    1    1    2    0    0  0.27037451744E+03  0.17906687654E+04  0.13656476455E+04  0.22733196325E+04  0.15294330000E+03 0.  0.
<mgrwt>
<rscale>  0 0.18990137E+04</rscale>
<asrwt>0</asrwt>
<pdfrwt beam="1">  1        2 0.29174586E+00 0.19270203E+04</pdfrwt>
<pdfrwt beam="2">  1       -2 0.37893072E+00 0.19270203E+04</pdfrwt>
<totfact> 0.69458706E-02</totfact>
</mgrwt>
</event>
<event>
 4    5  0.6615028E-008  0.1294202E+04  0.7818608E-02  0.9070583E-01
         -2   -1    0    0    0  501 -0.00000000000E+00  0.00000000000E+00  0.28117962725E+04  0.28117962725E+04  0.25500000000E-02 0.  1.
          2   -1    0    0  501    0  0.00000000000E+00 -0.00000000000E+00 -0.11162688508E+04  0.11162688508E+04  0.25500000000E-02 0. -1.
    8880023    1    1    2    0    0  0.48417371558E+02  0.11130163653E+04  0.23090922261E+04  0.26470486935E+04  0.65864270000E+03 0.  0.
    8880022    1    1    2    0    0 -0.48417371558E+02 -0.11130163653E+04 -0.61356480431E+03  0.12810164298E+04  0.15294330000E+03 0.  0.
<mgrwt>
<rscale>  0 0.12495202E+04</rscale>
<asrwt>0</asrwt>
<pdfrwt beam="1">  1        2 0.17173367E+00 0.12942024E+04</pdfrwt>
<pdfrwt beam="2">  1       -2 0.43258404E+00 0.12942024E+04</pdfrwt>
<totfact> 0.93651552E-02</totfact>
</mgrwt>
</event>
<event>
 4    5  0.7650889E-008  0.1235000E+04  0.7818608E-02  0.9123829E-01
          2   -1    0    0  501    0  0.00000000000E+00  0.00000000000E+00  0.24367337862E+04  0.24367337862E+04  0.25500000000E-02 0. -1.
         -2   -1    0    0    0  501 -0.00000000000E+00 -0.00000000000E+00 -0.14455200131E+04  0.14455200131E+04  0.25500000000E-02 0.  1.
    8880023    1    1    2    0    0  0.84091228366E+03 -0.61990346268E+03  0.20459821158E+04  0.23898256833E+04  0.65864270000E+03 0. -1.
    8880022    1    1    2    0    0 -0.84091228366E+03  0.61990346268E+03 -0.10547683426E+04  0.14924281160E+04  0.15294330000E+03 0.  0.
<mgrwt>
<rscale>  0 0.11875448E+04</rscale>
<asrwt>0</asrwt>
<pdfrwt beam="1">  1        2 0.37488212E+00 0.12349996E+04</pdfrwt>
<pdfrwt beam="2">  1       -2 0.22238770E+00 0.12349996E+04</pdfrwt>
<totfact> 0.35080989E-01</totfact>
</mgrwt>
</event>
<event>
 4    5  0.6615028E-008  0.7048838E+03  0.7818608E-02  0.9977514E-01
         -2   -1    0    0    0  501 -0.00000000000E+00  0.00000000000E+00  0.20168116649E+03  0.20168116650E+03  0.25500000000E-02 0.  1.
          2   -1    0    0  501    0  0.00000000000E+00 -0.00000000000E+00 -0.23296216461E+04  0.23296216461E+04  0.25500000000E-02 0. -1.
    8880023    1    1    2    0    0  0.15186219047E+02  0.25063973246E+03 -0.21233110601E+04  0.22372552293E+04  0.65864270000E+03 0. -1.
    8880022    1    1    2    0    0 -0.15186219047E+02 -0.25063973246E+03 -0.46294195443E+01  0.29404758336E+03  0.15294330000E+03 0.  0.
<mgrwt>
<rscale>  0 0.56647281E+03</rscale>
<asrwt>0</asrwt>
<pdfrwt beam="1">  1        2 0.35840331E+00 0.70488375E+03</pdfrwt>
<pdfrwt beam="2">  1       -2 0.31027874E-01 0.70488375E+03</pdfrwt>
<totfact> 0.43814821E+01</totfact>
</mgrwt>
</event>
<event>
 4    5  0.6615028E-008  0.1006080E+04  0.7818608E-02  0.9373646E-01
          2   -1    0    0  501    0  0.00000000000E+00  0.00000000000E+00  0.82293778601E+03  0.82293778601E+03  0.25500000000E-02 0. -1.
         -2   -1    0    0    0  501 -0.00000000000E+00 -0.00000000000E+00 -0.27205974506E+04  0.27205974506E+04  0.25500000000E-02 0.  1.
    8880023    1    1    2    0    0 -0.52591633675E+03  0.54936205069E+03  0.42693573546E+03  0.10929185626E+04  0.65864270000E+03 0. -1.
    8880022    1    1    2    0    0  0.52591633675E+03 -0.54936205069E+03 -0.23245954000E+04  0.24506166740E+04  0.15294330000E+03 0.  0.
<mgrwt>
<rscale>  0 0.94276605E+03</rscale>
<asrwt>0</asrwt>
<pdfrwt beam="1">  1        2 0.12660581E+00 0.10060799E+04</pdfrwt>
<pdfrwt beam="2">  1       -2 0.41855345E+00 0.10060799E+04</pdfrwt>
<totfact> 0.18913457E-01</totfact>
</mgrwt>
</event>
<event>
 4    5  0.6615028E-008  0.7237196E+03  0.7818608E-02  0.9910195E-01
         -2   -1    0    0    0  501 -0.00000000000E+00  0.00000000000E+00  0.83012905527E+03  0.83012905528E+03  0.25500000000E-02 0.  1.
          2   -1    0    0  501    0  0.00000000000E+00 -0.00000000000E+00 -0.12671569826E+04  0.12671569826E+04  0.25500000000E-02 0. -1.
    8880023    1    1    2    0    0 -0.27799280925E+03 -0.11260483496E+03 -0.11213574191E+04  0.13346207396E+04  0.65864270000E+03 0. -1.
    8880022    1    1    2    0    0  0.27799280925E+03  0.11260483496E+03  0.68432949180E+03  0.76266529829E+03  0.15294330000E+03 0.  0.
<mgrwt>
<rscale>  0 0.59769712E+03</rscale>
<asrwt>0</asrwt>
<pdfrwt beam="1">  1        2 0.19494723E+00 0.72371960E+03</pdfrwt>
<pdfrwt beam="2">  1       -2 0.12771216E+00 0.72371960E+03</pdfrwt>
<totfact> 0.80442455E+00</totfact>
</mgrwt>
</event>
<event>
 4    5  0.6615028E-008  0.8283667E+03  0.7818608E-02  0.9652519E-01
         -2   -1    0    0    0  501 -0.00000000000E+00  0.00000000000E+00  0.11062773392E+04  0.11062773392E+04  0.25500000000E-02 0.  1.
          2   -1    0    0  501    0  0.00000000000E+00 -0.00000000000E+00 -0.83397846656E+03  0.83397846656E+03  0.25500000000E-02 0. -1.
    8880023    1    1    2    0    0  0.18035982259E+03  0.46888322890E+03 -0.52851982838E+03  0.98261109458E+03  0.65864270000E+03 0.  0.
    8880022    1    1    2    0    0 -0.18035982259E+03 -0.46888322890E+03  0.80081870099E+03  0.95764471116E+03  0.15294330000E+03 0.  0.
<mgrwt>
<rscale>  0 0.73915564E+03</rscale>
<asrwt>0</asrwt>
<pdfrwt beam="1">  1        2 0.12830438E+00 0.82836668E+03</pdfrwt>
<pdfrwt beam="2">  1       -2 0.17019651E+00 0.82836668E+03</pdfrwt>
<totfact> 0.69822645E+00</totfact>
</mgrwt>
</event>
<event>
 4    5  0.6615028E-008  0.1410178E+04  0.7818608E-02  0.8975814E-01
         -2   -1    0    0    0  501 -0.00000000000E+00  0.00000000000E+00  0.15515516552E+04  0.15515516552E+04  0.25500000000E-02 0.  1.
          2   -1    0    0  501    0  0.00000000000E+00 -0.00000000000E+00 -0.22809913324E+04  0.22809913324E+04  0.25500000000E-02 0. -1.
    8880023    1    1    2    0    0 -0.10108604408E+04  0.73003619037E+03 -0.17261302994E+04  0.22289297177E+04  0.65864270000E+03 0.  0.
    8880022    1    1    2    0    0  0.10108604408E+04 -0.73003619037E+03  0.99669062220E+03  0.16036132699E+04  0.15294330000E+03 0.  0.
<mgrwt>
<rscale>  0 0.13700144E+04</rscale>
<asrwt>0</asrwt>
<pdfrwt beam="1">  1        2 0.35092174E+00 0.14101780E+04</pdfrwt>
<pdfrwt beam="2">  1       -2 0.23870025E+00 0.14101780E+04</pdfrwt>
<totfact> 0.33234424E-01</totfact>
</mgrwt>
</event>
<event>
 4    5  0.6615028E-008  0.9919022E+03  0.7818608E-02  0.9392229E-01
         -2   -1    0    0    0  501 -0.00000000000E+00  0.00000000000E+00  0.32186807441E+04  0.32186807441E+04  0.25500000000E-02 0.  1.
          2   -1    0    0  501    0  0.00000000000E+00 -0.00000000000E+00 -0.11204408871E+04  0.11204408871E+04  0.25500000000E-02 0. -1.
    8880023    1    1    2    0    0 -0.63340785702E+03  0.38581647242E+03 -0.84313877594E+03  0.13018268185E+04  0.65864270000E+03 0. -1.
    8880022    1    1    2    0    0  0.63340785702E+03 -0.38581647242E+03  0.29413786330E+04  0.30372948127E+04  0.15294330000E+03 0.  0.
<mgrwt>
<rscale>  0 0.92717934E+03</rscale>
<asrwt>0</asrwt>
<pdfrwt beam="1">  1        2 0.17237552E+00 0.99190225E+03</pdfrwt>
<pdfrwt beam="2">  1       -2 0.49518165E+00 0.99190225E+03</pdfrwt>
<totfact> 0.37870092E-02</totfact>
</mgrwt>
</event>
<event>
 4    5  0.6615028E-008  0.1299872E+04  0.7818608E-02  0.9065670E-01
          2   -1    0    0  501    0  0.00000000000E+00  0.00000000000E+00  0.12153817516E+04  0.12153817516E+04  0.25500000000E-02 0. -1.
         -2   -1    0    0    0  501 -0.00000000000E+00 -0.00000000000E+00 -0.16850568176E+04  0.16850568176E+04  0.25500000000E-02 0.  1.
    8880023    1    1    2    0    0 -0.12769828850E+03 -0.11133514524E+04  0.51758408456E+03  0.13991289434E+04  0.65864270000E+03 0. -1.
    8880022    1    1    2    0    0  0.12769828850E+03  0.11133514524E+04 -0.98725915047E+03  0.15013096258E+04  0.15294330000E+03 0.  0.
<mgrwt>
<rscale>  0 0.12554372E+04</rscale>
<asrwt>0</asrwt>
<pdfrwt beam="1">  1        2 0.18698181E+00 0.12998725E+04</pdfrwt>
<pdfrwt beam="2">  1       -2 0.25923951E+00 0.12998725E+04</pdfrwt>
<totfact> 0.10065928E+00</totfact>
</mgrwt>
</event>
<event>
 4    5  0.6615028E-008  0.1338349E+04  0.7818608E-02  0.9033131E-01
          2   -1    0    0  501    0  0.00000000000E+00  0.00000000000E+00  0.14252170220E+04  0.14252170220E+04  0.25500000000E-02 0. -1.
         -2   -1    0    0    0  501 -0.00000000000E+00 -0.00000000000E+00 -0.19561212464E+04  0.19561212464E+04  0.25500000000E-02 0.  1.
    8880023    1    1    2    0    0  0.51907289098E+03  0.10430395356E+04  0.83661413818E+03  0.15783223883E+04  0.65864270000E+03 0.  0.
    8880022    1    1    2    0    0 -0.51907289098E+03 -0.10430395356E+04 -0.13675183626E+04  0.18030158801E+04  0.15294330000E+03 0.  0.
<mgrwt>
<rscale>  0 0.12955132E+04</rscale>
<asrwt>0</asrwt>
<pdfrwt beam="1">  1        2 0.21926416E+00 0.13383491E+04</pdfrwt>
<pdfrwt beam="2">  1       -2 0.30094173E+00 0.13383491E+04</pdfrwt>
<totfact> 0.42101152E-01</totfact>
</mgrwt>
</event>
<event>
 4    5  0.6615028E-008  0.7708255E+03  0.7818608E-02  0.9777847E-01
          2   -1    0    0  501    0  0.00000000000E+00  0.00000000000E+00  0.10275207357E+04  0.10275207357E+04  0.25500000000E-02 0. -1.
         -2   -1    0    0    0  501 -0.00000000000E+00 -0.00000000000E+00 -0.13063948990E+04  0.13063948990E+04  0.25500000000E-02 0.  1.
    8880023    1    1    2    0    0  0.17575965110E+03 -0.35981974622E+03  0.83740189405E+03  0.11381624854E+04  0.65864270000E+03 0. -1.
    8880022    1    1    2    0    0 -0.17575965110E+03  0.35981974622E+03 -0.11162760573E+04  0.11957531492E+04  0.15294330000E+03 0.  0.
<mgrwt>
<rscale>  0 0.66565079E+03</rscale>
<asrwt>0</asrwt>
<pdfrwt beam="1">  1        2 0.15808011E+00 0.77082547E+03</pdfrwt>
<pdfrwt beam="2">  1       -2 0.20098383E+00 0.77082547E+03</pdfrwt>
<totfact> 0.32378333E+00</totfact>
</mgrwt>
</event>
<event>
 4    5  0.6615028E-008  0.8423613E+03  0.7818608E-02  0.9625744E-01
         -2   -1    0    0    0  501 -0.00000000000E+00  0.00000000000E+00  0.34102729826E+03  0.34102729827E+03  0.25500000000E-02 0.  1.
          2   -1    0    0  501    0  0.00000000000E+00 -0.00000000000E+00 -0.26929592705E+04  0.26929592705E+04  0.25500000000E-02 0. -1.
    8880023    1    1    2    0    0 -0.39561533689E+03 -0.34532717022E+03 -0.23398977057E+04  0.24869044672E+04  0.65864270000E+03 0. -1.
    8880022    1    1    2    0    0  0.39561533689E+03  0.34532717022E+03 -0.12034266484E+02  0.54708210157E+03  0.15294330000E+03 0.  0.
<mgrwt>
<rscale>  0 0.75615470E+03</rscale>
<asrwt>0</asrwt>
<pdfrwt beam="1">  1        2 0.41430141E+00 0.84236130E+03</pdfrwt>
<pdfrwt beam="2">  1       -2 0.52465740E-01 0.84236130E+03</pdfrwt>
<totfact> 0.95459107E+00</totfact>
</mgrwt>
</event>
<event>
 4    5  0.6615028E-008  0.9150029E+03  0.7818608E-02  0.9502364E-01
          2   -1    0    0  501    0  0.00000000000E+00  0.00000000000E+00  0.11244437918E+04  0.11244437918E+04  0.25500000000E-02 0. -1.
         -2   -1    0    0    0  501 -0.00000000000E+00 -0.00000000000E+00 -0.57571462093E+03  0.57571462093E+03  0.25500000000E-02 0.  1.
    8880023    1    1    2    0    0 -0.20748503870E+03 -0.60030827704E+03  0.50566658794E+03  0.10454324336E+04  0.65864270000E+03 0. -1.
    8880022    1    1    2    0    0  0.20748503870E+03  0.60030827704E+03  0.43062582981E+02  0.65472597920E+03  0.15294330000E+03 0.  0.
<mgrwt>
<rscale>  0 0.84109759E+03</rscale>
<asrwt>0</asrwt>
<pdfrwt beam="1">  1        2 0.17299135E+00 0.91500288E+03</pdfrwt>
<pdfrwt beam="2">  1       -2 0.88571481E-01 0.91500288E+03</pdfrwt>
<totfact> 0.23121390E+01</totfact>
</mgrwt>
</event>
<event>
 4    5  0.6615028E-008  0.1311042E+04  0.7818608E-02  0.9056083E-01
          2   -1    0    0  501    0  0.00000000000E+00  0.00000000000E+00  0.19828712968E+04  0.19828712968E+04  0.25500000000E-02 0. -1.
         -2   -1    0    0    0  501 -0.00000000000E+00 -0.00000000000E+00 -0.13851200471E+04  0.13851200471E+04  0.25500000000E-02 0.  1.
    8880023    1    1    2    0    0  0.11332482706E+04  0.27720351454E+02  0.14400630759E+04  0.19474629469E+04  0.65864270000E+03 0.  0.
    8880022    1    1    2    0    0 -0.11332482706E+04 -0.27720351454E+02 -0.84231182631E+03  0.14205283970E+04  0.15294330000E+03 0.  0.
<mgrwt>
<rscale>  0 0.12670841E+04</rscale>
<asrwt>0</asrwt>
<pdfrwt beam="1">  1        2 0.30505712E+00 0.13110417E+04</pdfrwt>
<pdfrwt beam="2">  1       -2 0.21309539E+00 0.13110417E+04</pdfrwt>
<totfact> 0.71579879E-01</totfact>
</mgrwt>
</event>
<event>
 4    5  0.6615028E-008  0.6953239E+03  0.7818608E-02  0.1001718E+00
         -2   -1    0    0    0  501 -0.00000000000E+00  0.00000000000E+00  0.30173035954E+03  0.30173035955E+03  0.25500000000E-02 0.  1.
          2   -1    0    0  501    0  0.00000000000E+00 -0.00000000000E+00 -0.14919572343E+04  0.14919572343E+04  0.25500000000E-02 0. -1.
    8880023    1    1    2    0    0 -0.20032989348E+03 -0.97637570043E+02 -0.13214557316E+04  0.14932249054E+04  0.65864270000E+03 0. -1.
    8880022    1    1    2    0    0  0.20032989348E+03  0.97637570043E+02  0.13122885679E+03  0.30046268849E+03  0.15294330000E+03 0.  0.
<mgrwt>
<rscale>  0 0.54903240E+03</rscale>
<asrwt>0</asrwt>
<pdfrwt beam="1">  1        2 0.22953188E+00 0.69532393E+03</pdfrwt>
<pdfrwt beam="2">  1       -2 0.46420056E-01 0.69532393E+03</pdfrwt>
<totfact> 0.57957344E+01</totfact>
</mgrwt>
</event>
<event>
 4    5  0.6615028E-008  0.6616214E+03  0.7818608E-02  0.1022554E+00
          2   -1    0    0  501    0  0.00000000000E+00  0.00000000000E+00  0.75094089622E+03  0.75094089622E+03  0.25500000000E-02 0. -1.
         -2   -1    0    0    0  501 -0.00000000000E+00 -0.00000000000E+00 -0.77244132417E+03  0.77244132417E+03  0.25500000000E-02 0.  1.
    8880023    1    1    2    0    0 -0.24404261010E+01  0.62663464463E+02  0.59211797062E+03  0.88788882347E+03  0.65864270000E+03 0. -1.
    8880022    1    1    2    0    0  0.24404261010E+01 -0.62663464463E+02 -0.61361839857E+03  0.63549339692E+03  0.15294330000E+03 0.  0.
<mgrwt>
<rscale>  0 0.46776295E+03</rscale>
<asrwt>0</asrwt>
<pdfrwt beam="1">  1        2 0.11552937E+00 0.66162140E+03</pdfrwt>
<pdfrwt beam="2">  1       -2 0.11883713E+00 0.66162140E+03</pdfrwt>
<totfact> 0.20840677E+01</totfact>
</mgrwt>
</event>
<event>
 4    5  0.6615028E-008  0.1437972E+04  0.7818608E-02  0.8954725E-01
          2   -1    0    0  501    0  0.00000000000E+00  0.00000000000E+00  0.19186732150E+04  0.19186732150E+04  0.25500000000E-02 0. -1.
         -2   -1    0    0    0  501 -0.00000000000E+00 -0.00000000000E+00 -0.99285974162E+03  0.99285974162E+03  0.25500000000E-02 0.  1.
    8880023    1    1    2    0    0  0.10278334912E+04 -0.75994274718E+03  0.25689090696E+03  0.14607387888E+04  0.65864270000E+03 0. -1.
    8880022    1    1    2    0    0 -0.10278334912E+04  0.75994274718E+03  0.66892256641E+03  0.14507941679E+04  0.15294330000E+03 0.  1.
<mgrwt>
<rscale>  0 0.13987484E+04</rscale>
<asrwt>0</asrwt>
<pdfrwt beam="1">  1        2 0.29518049E+00 0.14379725E+04</pdfrwt>
<pdfrwt beam="2">  1       -2 0.15274765E+00 0.14379725E+04</pdfrwt>
<totfact> 0.20103232E+00</totfact>
</mgrwt>
</event>
<event>
 4    5  0.6615028E-008  0.1432702E+04  0.7818608E-02  0.8958680E-01
         -2   -1    0    0    0  501 -0.00000000000E+00  0.00000000000E+00  0.15574972023E+04  0.15574972023E+04  0.25500000000E-02 0.  1.
          2   -1    0    0  501    0  0.00000000000E+00 -0.00000000000E+00 -0.14733838781E+04  0.14733838781E+04  0.25500000000E-02 0. -1.
    8880023    1    1    2    0    0 -0.12434674376E+04 -0.26946984989E+03 -0.62859623067E+03  0.15645346579E+04  0.65864270000E+03 0.  0.
    8880022    1    1    2    0    0  0.12434674376E+04  0.26946984989E+03  0.71270955482E+03  0.14663464225E+04  0.15294330000E+03 0.  0.
<mgrwt>
<rscale>  0 0.13933036E+04</rscale>
<asrwt>0</asrwt>
<pdfrwt beam="1">  1        2 0.22667444E+00 0.14327022E+04</pdfrwt>
<pdfrwt beam="2">  1       -2 0.23961495E+00 0.14327022E+04</pdfrwt>
<totfact> 0.92700886E-01</totfact>
</mgrwt>
</event>
<event>
 4    5  0.6615028E-008  0.9643273E+03  0.7818608E-02  0.9429793E-01
          2   -1    0    0  501    0  0.00000000000E+00  0.00000000000E+00  0.73394570788E+03  0.73394570788E+03  0.25500000000E-02 0. -1.
         -2   -1    0    0    0  501 -0.00000000000E+00 -0.00000000000E+00 -0.13563940875E+04  0.13563940875E+04  0.25500000000E-02 0.  1.
    8880023    1    1    2    0    0 -0.46381844347E+03  0.53008425418E+03 -0.89895721494E+03  0.13183516775E+04  0.65864270000E+03 0.  1.
    8880022    1    1    2    0    0  0.46381844347E+03 -0.53008425418E+03  0.27650883536E+03  0.77198811783E+03  0.15294330000E+03 0.  0.
<mgrwt>
<rscale>  0 0.89663857E+03</rscale>
<asrwt>0</asrwt>
<pdfrwt beam="1">  1        2 0.11291472E+00 0.96432726E+03</pdfrwt>
<pdfrwt beam="2">  1       -2 0.20867601E+00 0.96432726E+03</pdfrwt>
<totfact> 0.44920611E+00</totfact>
</mgrwt>
</event>
<event>
 4    5  0.6615028E-008  0.8517144E+03  0.7818608E-02  0.9608475E-01
         -2   -1    0    0    0  501 -0.00000000000E+00  0.00000000000E+00  0.10279294328E+04  0.10279294328E+04  0.25500000000E-02 0.  1.
          2   -1    0    0  501    0  0.00000000000E+00 -0.00000000000E+00 -0.22907582675E+04  0.22907582675E+04  0.25500000000E-02 0. -1.
    8880023    1    1    2    0    0  0.23760237243E+03  0.48492498797E+03 -0.21253396258E+04  0.22896475411E+04  0.65864270000E+03 0.  0.
    8880022    1    1    2    0    0 -0.23760237243E+03 -0.48492498797E+03  0.86251079111E+03  0.10290401591E+04  0.15294330000E+03 0.  0.
<mgrwt>
<rscale>  0 0.76737754E+03</rscale>
<asrwt>0</asrwt>
<pdfrwt beam="1">  1        2 0.35242435E+00 0.85171435E+03</pdfrwt>
<pdfrwt beam="2">  1       -2 0.15814299E+00 0.85171435E+03</pdfrwt>
<totfact> 0.12247766E+00</totfact>
</mgrwt>
</event>
<event>
 4    5  0.6615028E-008  0.1730783E+04  0.7818608E-02  0.8761823E-01
          2   -1    0    0  501    0  0.00000000000E+00  0.00000000000E+00  0.17533183769E+04  0.17533183769E+04  0.25500000000E-02 0. -1.
         -2   -1    0    0    0  501 -0.00000000000E+00 -0.00000000000E+00 -0.18739344745E+04  0.18739344745E+04  0.25500000000E-02 0.  1.
    8880023    1    1    2    0    0  0.13902153996E+04  0.79315842035E+03  0.64417934283E+03  0.18467745854E+04  0.65864270000E+03 0.  0.
    8880022    1    1    2    0    0 -0.13902153996E+04 -0.79315842035E+03 -0.76479544044E+03  0.17804782660E+04  0.15294330000E+03 0.  0.
<mgrwt>
<rscale>  0 0.16991962E+04</rscale>
<asrwt>0</asrwt>
<pdfrwt beam="1">  1        2 0.26974129E+00 0.17307829E+04</pdfrwt>
<pdfrwt beam="2">  1       -2 0.28829761E+00 0.17307829E+04</pdfrwt>
<totfact> 0.31467406E-01</totfact>
</mgrwt>
</event>
<event>
 4    5  0.6615028E-008  0.6636351E+03  0.7818608E-02  0.1020707E+00
         -2   -1    0    0    0  501 -0.00000000000E+00  0.00000000000E+00  0.13302919458E+03  0.13302919461E+03  0.25500000000E-02 0.  1.
          2   -1    0    0  501    0  0.00000000000E+00 -0.00000000000E+00 -0.27518286424E+04  0.27518286424E+04  0.25500000000E-02 0. -1.
    8880023    1    1    2    0    0  0.74650730981E+02 -0.32071280765E+02 -0.26289086722E+04  0.27113783048E+04  0.65864270000E+03 0.  0.
    8880022    1    1    2    0    0 -0.74650730981E+02  0.32071280765E+02  0.10109224325E+02  0.17347953227E+03  0.15294330000E+03 0.  0.
<mgrwt>
<rscale>  0 0.47432323E+03</rscale>
<asrwt>0</asrwt>
<pdfrwt beam="1">  1        2 0.42335821E+00 0.66363507E+03</pdfrwt>
<pdfrwt beam="2">  1       -2 0.20466032E-01 0.66363507E+03</pdfrwt>
<totfact> 0.53749482E+01</totfact>
</mgrwt>
</event>
<event>
 4    5  0.6615028E-008  0.1295512E+04  0.7818608E-02  0.9069445E-01
         -2   -1    0    0    0  501 -0.00000000000E+00  0.00000000000E+00  0.52964282468E+03  0.52964282468E+03  0.25500000000E-02 0.  1.
          2   -1    0    0  501    0  0.00000000000E+00 -0.00000000000E+00 -0.37204370458E+04  0.37204370458E+04  0.25500000000E-02 0. -1.
    8880023    1    1    2    0    0 -0.29638526847E+03 -0.10754983766E+04 -0.60513676172E+03  0.14298747120E+04  0.65864270000E+03 0.  0.
    8880022    1    1    2    0    0  0.29638526847E+03  0.10754983766E+04 -0.25856574594E+04  0.28202051584E+04  0.15294330000E+03 0.  0.
<mgrwt>
<rscale>  0 0.12508870E+04</rscale>
<asrwt>0</asrwt>
<pdfrwt beam="1">  1        2 0.57237492E+00 0.12955119E+04</pdfrwt>
<pdfrwt beam="2">  1       -2 0.81483514E-01 0.12955119E+04</pdfrwt>
<totfact> 0.74367741E-01</totfact>
</mgrwt>
</event>
<event>
 4    5  0.6615028E-008  0.6726575E+03  0.7818608E-02  0.1013825E+00
          2   -1    0    0  501    0  0.00000000000E+00  0.00000000000E+00  0.10874805498E+04  0.10874805498E+04  0.25500000000E-02 0. -1.
         -2   -1    0    0    0  501 -0.00000000000E+00 -0.00000000000E+00 -0.77673197607E+03  0.77673197607E+03  0.25500000000E-02 0.  1.
    8880023    1    1    2    0    0  0.13614158769E+03 -0.11107995977E+02  0.96628082956E+03  0.11773558372E+04  0.65864270000E+03 0. -1.
    8880022    1    1    2    0    0 -0.13614158769E+03  0.11107995977E+02 -0.65553225579E+03  0.68685668874E+03  0.15294330000E+03 0.  0.
<mgrwt>
<rscale>  0 0.49982238E+03</rscale>
<asrwt>0</asrwt>
<pdfrwt beam="1">  1        2 0.16730470E+00 0.67265751E+03</pdfrwt>
<pdfrwt beam="2">  1       -2 0.11949723E+00 0.67265751E+03</pdfrwt>
<totfact> 0.12233514E+01</totfact>
</mgrwt>
</event>
<event>
 4    5  0.6615028E-008  0.9389604E+03  0.7818608E-02  0.9466179E-01
          2   -1    0    0  501    0  0.00000000000E+00  0.00000000000E+00  0.12877215861E+04  0.12877215861E+04  0.25500000000E-02 0. -1.
         -2   -1    0    0    0  501 -0.00000000000E+00 -0.00000000000E+00 -0.65504903035E+03  0.65504903035E+03  0.25500000000E-02 0.  1.
    8880023    1    1    2    0    0 -0.66754518398E+03 -0.47114528550E+02  0.80299600670E+03  0.12354955057E+04  0.65864270000E+03 0. -1.
    8880022    1    1    2    0    0  0.66754518398E+03  0.47114528550E+02 -0.17032345091E+03  0.70727511083E+03  0.15294330000E+03 0.  0.
<mgrwt>
<rscale>  0 0.86823908E+03</rscale>
<asrwt>0</asrwt>
<pdfrwt beam="1">  1        2 0.19811101E+00 0.93896036E+03</pdfrwt>
<pdfrwt beam="2">  1       -2 0.10077677E+00 0.93896036E+03</pdfrwt>
<totfact> 0.13630156E+01</totfact>
</mgrwt>
</event>
<event>
 4    5  0.6615028E-008  0.1106501E+04  0.7818608E-02  0.9253852E-01
         -2   -1    0    0    0  501 -0.00000000000E+00  0.00000000000E+00  0.21738549749E+04  0.21738549749E+04  0.25500000000E-02 0.  1.
          2   -1    0    0  501    0  0.00000000000E+00 -0.00000000000E+00 -0.82743546459E+03  0.82743546459E+03  0.25500000000E-02 0. -1.
    8880023    1    1    2    0    0  0.24611998818E+03  0.85437695258E+03 -0.28002514679E+03  0.11413848233E+04  0.65864270000E+03 0.  0.
    8880022    1    1    2    0    0 -0.24611998818E+03 -0.85437695258E+03  0.16264446571E+04  0.18599056163E+04  0.15294330000E+03 0.  0.
<mgrwt>
<rscale>  0 0.10514464E+04</rscale>
<asrwt>0</asrwt>
<pdfrwt beam="1">  1        2 0.12729777E+00 0.11065013E+04</pdfrwt>
<pdfrwt beam="2">  1       -2 0.33443922E+00 0.11065013E+04</pdfrwt>
<totfact> 0.63804817E-01</totfact>
</mgrwt>
</event>
<event>
 4    5  0.6615028E-008  0.1028605E+04  0.7818608E-02  0.9345054E-01
         -2   -1    0    0    0  501 -0.00000000000E+00  0.00000000000E+00  0.72774410277E+03  0.72774410277E+03  0.25500000000E-02 0.  1.
          2   -1    0    0  501    0  0.00000000000E+00 -0.00000000000E+00 -0.17289215742E+04  0.17289215742E+04  0.25500000000E-02 0. -1.
    8880023    1    1    2    0    0 -0.48795429941E+00  0.79007482561E+03 -0.12458011784E+04  0.16155646847E+04  0.65864270000E+03 0.  0.
    8880022    1    1    2    0    0  0.48795429941E+00 -0.79007482561E+03  0.24462370695E+03  0.84110099226E+03  0.15294330000E+03 0.  0.
<mgrwt>
<rscale>  0 0.96738810E+03</rscale>
<asrwt>0</asrwt>
<pdfrwt beam="1">  1        2 0.26598793E+00 0.10286052E+04</pdfrwt>
<pdfrwt beam="2">  1       -2 0.11196063E+00 0.10286052E+04</pdfrwt>
<totfact> 0.59082946E+00</totfact>
</mgrwt>
</event>
<event>
 4    5  0.6615028E-008  0.1264464E+04  0.7818608E-02  0.9096872E-01
          2   -1    0    0  501    0  0.00000000000E+00  0.00000000000E+00  0.14906532424E+04  0.14906532424E+04  0.25500000000E-02 0. -1.
         -2   -1    0    0    0  501 -0.00000000000E+00 -0.00000000000E+00 -0.97845322275E+03  0.97845322275E+03  0.25500000000E-02 0.  1.
    8880023    1    1    2    0    0 -0.40168685684E+03 -0.10018513604E+04 -0.35603859487E+00  0.12644638438E+04  0.65864270000E+03 0.  0.
    8880022    1    1    2    0    0  0.40168685684E+03  0.10018513604E+04  0.51255605822E+03  0.12046426213E+04  0.15294330000E+03 0.  0.
<mgrwt>
<rscale>  0 0.12184351E+04</rscale>
<asrwt>0</asrwt>
<pdfrwt beam="1">  1        2 0.22933127E+00 0.12644638E+04</pdfrwt>
<pdfrwt beam="2">  1       -2 0.15053126E+00 0.12644638E+04</pdfrwt>
<totfact> 0.36848367E+00</totfact>
</mgrwt>
</event>
<event>
 4    5  0.6615028E-008  0.1076952E+04  0.7818608E-02  0.9287162E-01
         -2   -1    0    0    0  501 -0.00000000000E+00  0.00000000000E+00  0.61988873981E+03  0.61988873981E+03  0.25500000000E-02 0.  1.
          2   -1    0    0  501    0  0.00000000000E+00 -0.00000000000E+00 -0.18490236743E+04  0.18490236743E+04  0.25500000000E-02 0. -1.
    8880023    1    1    2    0    0 -0.56210488566E+03 -0.64035380711E+03 -0.11862177103E+04  0.16021665217E+04  0.65864270000E+03 0. -1.
    8880022    1    1    2    0    0  0.56210488566E+03  0.64035380711E+03 -0.42917224119E+02  0.86674589235E+03  0.15294330000E+03 0.  0.
<mgrwt>
<rscale>  0 0.10197339E+04</rscale>
<asrwt>0</asrwt>
<pdfrwt beam="1">  1        2 0.28446518E+00 0.10769518E+04</pdfrwt>
<pdfrwt beam="2">  1       -2 0.95367499E-01 0.10769518E+04</pdfrwt>
<totfact> 0.74162678E+00</totfact>
</mgrwt>
</event>
<event>
 4    5  0.6615028E-008  0.1491129E+04  0.7818608E-02  0.8915926E-01
         -2   -1    0    0    0  501 -0.00000000000E+00  0.00000000000E+00  0.13281286729E+04  0.13281286729E+04  0.25500000000E-02 0.  1.
          2   -1    0    0  501    0  0.00000000000E+00 -0.00000000000E+00 -0.19880563022E+04  0.19880563022E+04  0.25500000000E-02 0. -1.
    8880023    1    1    2    0    0 -0.13088167372E+04 -0.27686350360E+03 -0.11502167827E+04  0.18832056459E+04  0.65864270000E+03 0. -1.
    8880022    1    1    2    0    0  0.13088167372E+04  0.27686350360E+03  0.49028915346E+03  0.14329793293E+04  0.15294330000E+03 0.  0.
<mgrwt>
<rscale>  0 0.14535751E+04</rscale>
<asrwt>0</asrwt>
<pdfrwt beam="1">  1        2 0.30585481E+00 0.14911287E+04</pdfrwt>
<pdfrwt beam="2">  1       -2 0.20432749E+00 0.14911287E+04</pdfrwt>
<totfact> 0.79464880E-01</totfact>
</mgrwt>
</event>
<event>
 4    5  0.6615028E-008  0.1121650E+04  0.7818608E-02  0.9237326E-01
          2   -1    0    0  501    0  0.00000000000E+00  0.00000000000E+00  0.19827786448E+04  0.19827786448E+04  0.25500000000E-02 0. -1.
         -2   -1    0    0    0  501 -0.00000000000E+00 -0.00000000000E+00 -0.90720781116E+03  0.90720781117E+03  0.25500000000E-02 0.  1.
    8880023    1    1    2    0    0 -0.90728994403E+03  0.33383223922E+02  0.15026040775E+04  0.18750783189E+04  0.65864270000E+03 0.  0.
    8880022    1    1    2    0    0  0.90728994403E+03 -0.33383223922E+02 -0.42703324388E+03  0.10149081370E+04  0.15294330000E+03 0.  0.
<mgrwt>
<rscale>  0 0.10676335E+04</rscale>
<asrwt>0</asrwt>
<pdfrwt beam="1">  1        2 0.30504287E+00 0.11216504E+04</pdfrwt>
<pdfrwt beam="2">  1       -2 0.13957043E+00 0.11216504E+04</pdfrwt>
<totfact> 0.24303553E+00</totfact>
</mgrwt>
</event>
<event>
 4    5  0.6615028E-008  0.1151127E+04  0.7818608E-02  0.9206160E-01
         -2   -1    0    0    0  501 -0.00000000000E+00  0.00000000000E+00  0.26266160933E+04  0.26266160933E+04  0.25500000000E-02 0.  1.
          2   -1    0    0  501    0  0.00000000000E+00 -0.00000000000E+00 -0.16110405471E+04  0.16110405471E+04  0.25500000000E-02 0. -1.
    8880023    1    1    2    0    0  0.69667540583E+03 -0.63712298785E+03 -0.12975769415E+04  0.17345888412E+04  0.65864270000E+03 0. -1.
    8880022    1    1    2    0    0 -0.69667540583E+03  0.63712298785E+03  0.23131524877E+04  0.25030677991E+04  0.15294330000E+03 0.  0.
<mgrwt>
<rscale>  0 0.10990074E+04</rscale>
<asrwt>0</asrwt>
<pdfrwt beam="1">  1        2 0.24785239E+00 0.11511266E+04</pdfrwt>
<pdfrwt beam="2">  1       -2 0.40409478E+00 0.11511266E+04</pdfrwt>
<totfact> 0.76071093E-02</totfact>
</mgrwt>
</event>
<event>
 4    5  0.6615028E-008  0.7783728E+03  0.7818608E-02  0.9759673E-01
         -2   -1    0    0    0  501 -0.00000000000E+00  0.00000000000E+00  0.20557865016E+04  0.20557865016E+04  0.25500000000E-02 0.  1.
          2   -1    0    0  501    0  0.00000000000E+00 -0.00000000000E+00 -0.11039397459E+04  0.11039397459E+04  0.25500000000E-02 0. -1.
    8880023    1    1    2    0    0 -0.30597879888E+03 -0.28005528210E+03 -0.93797849525E+03  0.12188797522E+04  0.65864270000E+03 0. -1.
    8880022    1    1    2    0    0  0.30597879888E+03  0.28005528210E+03  0.18898252510E+04  0.19408464954E+04  0.15294330000E+03 0.  0.
<mgrwt>
<rscale>  0 0.67572343E+03</rscale>
<asrwt>0</asrwt>
<pdfrwt beam="1">  1        2 0.16983688E+00 0.77837279E+03</pdfrwt>
<pdfrwt beam="2">  1       -2 0.31627485E+00 0.77837279E+03</pdfrwt>
<totfact> 0.57212756E-01</totfact>
</mgrwt>
</event>
<event>
 4    5  0.6615028E-008  0.6714926E+03  0.7818608E-02  0.1014615E+00
          2   -1    0    0  501    0  0.00000000000E+00  0.00000000000E+00  0.12297290323E+04  0.12297290323E+04  0.25500000000E-02 0. -1.
         -2   -1    0    0    0  501 -0.00000000000E+00 -0.00000000000E+00 -0.26567140491E+03  0.26567140492E+03  0.25500000000E-02 0.  1.
    8880023    1    1    2    0    0  0.12080415505E+03  0.49984085266E+02  0.10736051597E+04  0.12663057679E+04  0.65864270000E+03 0. -1.
    8880022    1    1    2    0    0 -0.12080415505E+03 -0.49984085266E+02 -0.10954753231E+03  0.22909466931E+03  0.15294330000E+03 0.  0.
<mgrwt>
<rscale>  0 0.49681070E+03</rscale>
<asrwt>0</asrwt>
<pdfrwt beam="1">  1        2 0.18918908E+00 0.67149256E+03</pdfrwt>
<pdfrwt beam="2">  1       -2 0.40872525E-01 0.67149256E+03</pdfrwt>
<totfact> 0.10534250E+02</totfact>
</mgrwt>
</event>
<event>
 4    5  0.6615028E-008  0.1047677E+04  0.7818608E-02  0.9321680E-01
         -2   -1    0    0    0  501 -0.00000000000E+00  0.00000000000E+00  0.23965465306E+03  0.23965465308E+03  0.25500000000E-02 0.  1.
          2   -1    0    0  501    0  0.00000000000E+00 -0.00000000000E+00 -0.43157764235E+04  0.43157764235E+04  0.25500000000E-02 0. -1.
    8880023    1    1    2    0    0 -0.76405126474E+03 -0.28291675690E+03 -0.31135763358E+04  0.32851155279E+04  0.65864270000E+03 0. -1.
    8880022    1    1    2    0    0  0.76405126474E+03  0.28291675690E+03 -0.96254543467E+03  0.12703155487E+04  0.15294330000E+03 0.  0.
<mgrwt>
<rscale>  0 0.98811269E+03</rscale>
<asrwt>0</asrwt>
<pdfrwt beam="1">  1        2 0.66396555E+00 0.10476767E+04</pdfrwt>
<pdfrwt beam="2">  1       -2 0.36869950E-01 0.10476767E+04</pdfrwt>
<totfact> 0.13462882E+00</totfact>
</mgrwt>
</event>
<event>
 4    5  0.6615028E-008  0.9224493E+03  0.7818608E-02  0.9490914E-01
         -2   -1    0    0    0  501 -0.00000000000E+00  0.00000000000E+00  0.12051815835E+04  0.12051815835E+04  0.25500000000E-02 0.  1.
          2   -1    0    0  501    0  0.00000000000E+00 -0.00000000000E+00 -0.19370021887E+04  0.19370021887E+04  0.25500000000E-02 0. -1.
    8880023    1    1    2    0    0 -0.63660049969E+03 -0.10882246288E+03 -0.17200366233E+04  0.19517783471E+04  0.65864270000E+03 0. -1.
    8880022    1    1    2    0    0  0.63660049969E+03  0.10882246288E+03  0.98821601811E+03  0.11904054251E+04  0.15294330000E+03 0.  0.
<mgrwt>
<rscale>  0 0.84957046E+03</rscale>
<asrwt>0</asrwt>
<pdfrwt beam="1">  1        2 0.29800034E+00 0.92244931E+03</pdfrwt>
<pdfrwt beam="2">  1       -2 0.18541255E+00 0.92244931E+03</pdfrwt>
<totfact> 0.12164533E+00</totfact>
</mgrwt>
</event>
<event>
 4    5  0.6615028E-008  0.1421555E+04  0.7818608E-02  0.8967112E-01
         -2   -1    0    0    0  501 -0.00000000000E+00  0.00000000000E+00  0.25341548132E+04  0.25341548132E+04  0.25500000000E-02 0.  1.
          2   -1    0    0  501    0  0.00000000000E+00 -0.00000000000E+00 -0.86037008714E+03  0.86037008714E+03  0.25500000000E-02 0. -1.
    8880023    1    1    2    0    0 -0.16221586961E+03 -0.12492776649E+04  0.17753784290E+03  0.14325985356E+04  0.65864270000E+03 0.  0.
    8880022    1    1    2    0    0  0.16221586961E+03  0.12492776649E+04  0.14962468831E+04  0.19619263647E+04  0.15294330000E+03 0.  0.
<mgrwt>
<rscale>  0 0.13817819E+04</rscale>
<asrwt>0</asrwt>
<pdfrwt beam="1">  1        2 0.13236463E+00 0.14215551E+04</pdfrwt>
<pdfrwt beam="2">  1       -2 0.38986996E+00 0.14215551E+04</pdfrwt>
<totfact> 0.25922098E-01</totfact>
</mgrwt>
</event>
<event>
 4    5  0.6615028E-008  0.8240207E+03  0.7818608E-02  0.9661080E-01
          2   -1    0    0  501    0  0.00000000000E+00  0.00000000000E+00  0.23121331909E+04  0.23121331909E+04  0.25500000000E-02 0. -1.
         -2   -1    0    0    0  501 -0.00000000000E+00 -0.00000000000E+00 -0.21689158935E+04  0.21689158935E+04  0.25500000000E-02 0.  1.
    8880023    1    1    2    0    0  0.49355871147E+03 -0.39996498506E+02  0.22056230453E+04  0.23545239743E+04  0.65864270000E+03 0. -1.
    8880022    1    1    2    0    0 -0.49355871147E+03  0.39996498506E+02 -0.20624057479E+04  0.21265251100E+04  0.15294330000E+03 0.  0.
<mgrwt>
<rscale>  0 0.73382101E+03</rscale>
<asrwt>0</asrwt>
<pdfrwt beam="1">  1        2 0.35571280E+00 0.82402071E+03</pdfrwt>
<pdfrwt beam="2">  1       -2 0.33367937E+00 0.82402071E+03</pdfrwt>
<totfact> 0.93385948E-02</totfact>
</mgrwt>
</event>
<event>
 4    5  0.6615028E-008  0.7131415E+03  0.7818608E-02  0.9946515E-01
          2   -1    0    0  501    0  0.00000000000E+00  0.00000000000E+00  0.84292631786E+03  0.84292631786E+03  0.25500000000E-02 0. -1.
         -2   -1    0    0    0  501 -0.00000000000E+00 -0.00000000000E+00 -0.15803123307E+04  0.15803123307E+04  0.25500000000E-02 0.  1.
    8880023    1    1    2    0    0  0.58954709546E+02 -0.26699244804E+03  0.67174525286E+03  0.97970021746E+03  0.65864270000E+03 0. -1.
    8880022    1    1    2    0    0 -0.58954709546E+02  0.26699244804E+03 -0.14091312657E+04  0.14435384311E+04  0.15294330000E+03 0.  0.
<mgrwt>
<rscale>  0 0.58058972E+03</rscale>
<asrwt>0</asrwt>
<pdfrwt beam="1">  1        2 0.12968097E+00 0.71314152E+03</pdfrwt>
<pdfrwt beam="2">  1       -2 0.24312497E+00 0.71314152E+03</pdfrwt>
<totfact> 0.23580711E+00</totfact>
</mgrwt>
</event>
<event>
 4    5  0.6615028E-008  0.1095509E+04  0.7818608E-02  0.9266072E-01
          2   -1    0    0  501    0  0.00000000000E+00  0.00000000000E+00  0.14030478862E+04  0.14030478862E+04  0.25500000000E-02 0. -1.
         -2   -1    0    0    0  501 -0.00000000000E+00 -0.00000000000E+00 -0.77679598197E+03  0.77679598197E+03  0.25500000000E-02 0.  1.
    8880023    1    1    2    0    0  0.87119137216E+03 -0.85769496400E+02  0.49351631046E+01  0.10955205957E+04  0.65864270000E+03 0.  0.
    8880022    1    1    2    0    0 -0.87119137216E+03  0.85769496400E+02  0.62131674109E+03  0.10843232725E+04  0.15294330000E+03 0.  0.
<mgrwt>
<rscale>  0 0.10396722E+04</rscale>
<asrwt>0</asrwt>
<pdfrwt beam="1">  1        2 0.21585352E+00 0.10955095E+04</pdfrwt>
<pdfrwt beam="2">  1       -2 0.11950707E+00 0.10955095E+04</pdfrwt>
<totfact> 0.76102937E+00</totfact>
</mgrwt>
</event>
<event>
 4    5  0.6615028E-008  0.6671805E+03  0.7818608E-02  0.1017770E+00
         -2   -1    0    0    0  501 -0.00000000000E+00  0.00000000000E+00  0.27233472964E+03  0.27233472965E+03  0.25500000000E-02 0.  1.
          2   -1    0    0  501    0  0.00000000000E+00 -0.00000000000E+00 -0.10156074161E+04  0.10156074161E+04  0.25500000000E-02 0. -1.
    8880023    1    1    2    0    0 -0.33457670730E+02 -0.10099631706E+03 -0.84423069838E+03  0.10760368721E+04  0.65864270000E+03 0. -1.
    8880022    1    1    2    0    0  0.33457670730E+02  0.10099631706E+03  0.10095801196E+03  0.21190527361E+03  0.15294330000E+03 0.  0.
<mgrwt>
<rscale>  0 0.48499965E+03</rscale>
<asrwt>0</asrwt>
<pdfrwt beam="1">  1        2 0.15624729E+00 0.66718054E+03</pdfrwt>
<pdfrwt beam="2">  1       -2 0.41897651E-01 0.66718054E+03</pdfrwt>
<totfact> 0.13531848E+02</totfact>
</mgrwt>
</event>
<event>
 4    5  0.6615028E-008  0.1014073E+04  0.7818608E-02  0.9363373E-01
         -2   -1    0    0    0  501 -0.00000000000E+00  0.00000000000E+00  0.45286418407E+03  0.45286418408E+03  0.25500000000E-02 0.  1.
          2   -1    0    0  501    0  0.00000000000E+00 -0.00000000000E+00 -0.20381979988E+04  0.20381979988E+04  0.25500000000E-02 0. -1.
    8880023    1    1    2    0    0  0.42631594089E+03 -0.64248687438E+03 -0.13132834412E+04  0.16592342416E+04  0.65864270000E+03 0.  0.
    8880022    1    1    2    0    0 -0.42631594089E+03  0.64248687438E+03 -0.27205037353E+03  0.83182794132E+03  0.15294330000E+03 0.  0.
<mgrwt>
<rscale>  0 0.95152265E+03</rscale>
<asrwt>0</asrwt>
<pdfrwt beam="1">  1        2 0.31356892E+00 0.10140734E+04</pdfrwt>
<pdfrwt beam="2">  1       -2 0.69671414E-01 0.10140734E+04</pdfrwt>
<totfact> 0.11971541E+01</totfact>
</mgrwt>
</event>
<event>
 4    5  0.7370990E-008  0.7852962E+03  0.7818608E-02  0.9743540E-01
         -2   -1    0    0    0  501 -0.00000000000E+00  0.00000000000E+00  0.16479667055E+04  0.16479667055E+04  0.25500000000E-02 0.  1.
          2   -1    0    0  501    0  0.00000000000E+00 -0.00000000000E+00 -0.20206918953E+04  0.20206918953E+04  0.25500000000E-02 0. -1.
    8880023    1    1    2    0    0 -0.42603230630E+03 -0.37099078417E+02 -0.19102974378E+04  0.20654119141E+04  0.65864270000E+03 0.  0.
    8880022    1    1    2    0    0  0.42603230630E+03  0.37099078417E+02  0.15375722480E+04  0.16032466867E+04  0.15294330000E+03 0.  0.
<mgrwt>
<rscale>  0 0.68482565E+03</rscale>
<asrwt>0</asrwt>
<pdfrwt beam="1">  1        2 0.31087568E+00 0.78529617E+03</pdfrwt>
<pdfrwt beam="2">  1       -2 0.25353334E+00 0.78529617E+03</pdfrwt>
<totfact> 0.41633693E-01</totfact>
</mgrwt>
</event>
<event>
 4    5  0.6615028E-008  0.9064625E+03  0.7818608E-02  0.9515736E-01
          2   -1    0    0  501    0  0.00000000000E+00  0.00000000000E+00  0.35021253419E+04  0.35021253419E+04  0.25500000000E-02 0. -1.
         -2   -1    0    0    0  501 -0.00000000000E+00 -0.00000000000E+00 -0.19890066139E+03  0.19890066140E+03  0.25500000000E-02 0.  1.
    8880023    1    1    2    0    0 -0.13581084134E+03  0.60779887801E+03  0.25790886798E+04  0.27337470047E+04  0.65864270000E+03 0. -1.
    8880022    1    1    2    0    0  0.13581084134E+03 -0.60779887801E+03  0.72413600067E+03  0.96727899864E+03  0.15294330000E+03 0.  1.
<mgrwt>
<rscale>  0 0.83133559E+03</rscale>
<asrwt>0</asrwt>
<pdfrwt beam="1">  1        2 0.53878847E+00 0.90646250E+03</pdfrwt>
<pdfrwt beam="2">  1       -2 0.30600104E-01 0.90646250E+03</pdfrwt>
<totfact> 0.84150533E+00</totfact>
</mgrwt>
</event>
<event>
 4    5  0.6615028E-008  0.7967523E+03  0.7818608E-02  0.9717863E-01
          2   -1    0    0  501    0  0.00000000000E+00  0.00000000000E+00  0.32853202500E+04  0.32853202500E+04  0.25500000000E-02 0. -1.
         -2   -1    0    0    0  501 -0.00000000000E+00 -0.00000000000E+00 -0.45862074846E+03  0.45862074847E+03  0.25500000000E-02 0.  1.
    8880023    1    1    2    0    0 -0.86612630064E+02  0.43988886050E+03  0.30974761525E+04  0.31983077837E+04  0.65864270000E+03 0.  0.
    8880022    1    1    2    0    0  0.86612630064E+02 -0.43988886050E+03 -0.27077665104E+03  0.54563321475E+03  0.15294330000E+03 0.  0.
<mgrwt>
<rscale>  0 0.69963137E+03</rscale>
<asrwt>0</asrwt>
<pdfrwt beam="1">  1        2 0.50543391E+00 0.79675226E+03</pdfrwt>
<pdfrwt beam="2">  1       -2 0.70557035E-01 0.79675226E+03</pdfrwt>
<totfact> 0.22226114E+00</totfact>
</mgrwt>
</event>
<event>
 4    5  0.6615028E-008  0.8602682E+03  0.7818608E-02  0.9593087E-01
         -2   -1    0    0    0  501 -0.00000000000E+00  0.00000000000E+00  0.31065828148E+03  0.31065828149E+03  0.25500000000E-02 0.  1.
          2   -1    0    0  501    0  0.00000000000E+00 -0.00000000000E+00 -0.22837391199E+04  0.22837391199E+04  0.25500000000E-02 0. -1.
    8880023    1    1    2    0    0  0.13403180312E+03 -0.53692325501E+03 -0.17995465951E+04  0.19946000251E+04  0.65864270000E+03 0.  1.
    8880022    1    1    2    0    0 -0.13403180312E+03  0.53692325501E+03 -0.17353424341E+03  0.59979737635E+03  0.15294330000E+03 0.  0.
<mgrwt>
<rscale>  0 0.77755448E+03</rscale>
<asrwt>0</asrwt>
<pdfrwt beam="1">  1        2 0.35134447E+00 0.86026816E+03</pdfrwt>
<pdfrwt beam="2">  1       -2 0.47793583E-01 0.86026816E+03</pdfrwt>
<totfact> 0.19688877E+01</totfact>
</mgrwt>
</event>
<event>
 4    5  0.6615028E-008  0.7224672E+03  0.7818608E-02  0.9914325E-01
          2   -1    0    0  501    0  0.00000000000E+00  0.00000000000E+00  0.39669269249E+03  0.39669269250E+03  0.25500000000E-02 0. -1.
         -2   -1    0    0    0  501 -0.00000000000E+00 -0.00000000000E+00 -0.17327623106E+04  0.17327623106E+04  0.25500000000E-02 0.  1.
    8880023    1    1    2    0    0 -0.32931903671E+02  0.29506622306E+03  0.30062046883E+02  0.72309233103E+03  0.65864270000E+03 0. -1.
    8880022    1    1    2    0    0  0.32931903671E+02 -0.29506622306E+03 -0.13661316650E+04  0.14063626721E+04  0.15294330000E+03 0.  0.
<mgrwt>
<rscale>  0 0.59572048E+03</rscale>
<asrwt>0</asrwt>
<pdfrwt beam="1">  1        2 0.61029646E-01 0.72246716E+03</pdfrwt>
<pdfrwt beam="2">  1       -2 0.26657881E+00 0.72246716E+03</pdfrwt>
<totfact> 0.42293177E+00</totfact>
</mgrwt>
</event>
<event>
 4    5  0.6615028E-008  0.9897022E+03  0.7818608E-02  0.9395156E-01
          2   -1    0    0  501    0  0.00000000000E+00  0.00000000000E+00  0.50449174463E+04  0.50449174463E+04  0.25500000000E-02 0. -1.
         -2   -1    0    0    0  501 -0.00000000000E+00 -0.00000000000E+00 -0.49759687227E+03  0.49759687228E+03  0.25500000000E-02 0.  1.
    8880023    1    1    2    0    0 -0.94322401801E+02  0.73266881074E+03  0.46739441641E+04  0.47775793616E+04  0.65864270000E+03 0. -1.
    8880022    1    1    2    0    0  0.94322401801E+02 -0.73266881074E+03 -0.12662359008E+03  0.76493495690E+03  0.15294330000E+03 0.  0.
<mgrwt>
<rscale>  0 0.92475400E+03</rscale>
<asrwt>0</asrwt>
<pdfrwt beam="1">  1        2 0.77614109E+00 0.98970223E+03</pdfrwt>
<pdfrwt beam="2">  1       -2 0.76553370E-01 0.98970223E+03</pdfrwt>
<totfact> 0.50882079E-02</totfact>
</mgrwt>
</event>
<event>
 4    5  0.6615028E-008  0.7068150E+03  0.7818608E-02  0.9970024E-01
          2   -1    0    0  501    0  0.00000000000E+00  0.00000000000E+00  0.29282383827E+04  0.29282383827E+04  0.25500000000E-02 0. -1.
         -2   -1    0    0    0  501 -0.00000000000E+00 -0.00000000000E+00 -0.35093711287E+03  0.35093711288E+03  0.25500000000E-02 0.  1.
    8880023    1    1    2    0    0  0.25414896648E+03  0.34432028781E+02  0.28119362923E+04  0.28994091087E+04  0.65864270000E+03 0. -1.
    8880022    1    1    2    0    0 -0.25414896648E+03 -0.34432028781E+02 -0.23463502247E+03  0.37976638682E+03  0.15294330000E+03 0.  0.
<mgrwt>
<rscale>  0 0.56984404E+03</rscale>
<asrwt>0</asrwt>
<pdfrwt beam="1">  1        2 0.45049820E+00 0.70681502E+03</pdfrwt>
<pdfrwt beam="2">  1       -2 0.53990326E-01 0.70681502E+03</pdfrwt>
<totfact> 0.66820165E+00</totfact>
</mgrwt>
</event>
<event>
 4    5  0.6615028E-008  0.1134890E+04  0.7818608E-02  0.9223170E-01
          2   -1    0    0  501    0  0.00000000000E+00  0.00000000000E+00  0.29311590455E+04  0.29311590455E+04  0.25500000000E-02 0. -1.
         -2   -1    0    0    0  501 -0.00000000000E+00 -0.00000000000E+00 -0.58555745252E+03  0.58555745253E+03  0.25500000000E-02 0.  1.
    8880023    1    1    2    0    0 -0.92391255670E+03  0.23469783089E+02  0.23164089181E+04  0.25794816777E+04  0.65864270000E+03 0.  0.
    8880022    1    1    2    0    0  0.92391255670E+03 -0.23469783089E+02  0.29192674809E+02  0.93723482032E+03  0.15294330000E+03 0.  0.
<mgrwt>
<rscale>  0 0.10817446E+04</rscale>
<asrwt>0</asrwt>
<pdfrwt beam="1">  1        2 0.45094754E+00 0.11348901E+04</pdfrwt>
<pdfrwt beam="2">  1       -2 0.90085762E-01 0.11348901E+04</pdfrwt>
<totfact> 0.20252154E+00</totfact>
</mgrwt>
</event>
<event>
 4    5  0.6615028E-008  0.1101468E+04  0.7818608E-02  0.9259424E-01
         -2   -1    0    0    0  501 -0.00000000000E+00  0.00000000000E+00  0.79814712440E+03  0.79814712440E+03  0.25500000000E-02 0.  1.
          2   -1    0    0  501    0  0.00000000000E+00 -0.00000000000E+00 -0.26945081956E+04  0.26945081956E+04  0.25500000000E-02 0. -1.
    8880023    1    1    2    0    0 -0.10186661816E+03  0.87695162451E+03 -0.22690292729E+04  0.25222460243E+04  0.65864270000E+03 0.  0.
    8880022    1    1    2    0    0  0.10186661816E+03 -0.87695162451E+03  0.37266820168E+03  0.97040929571E+03  0.15294330000E+03 0.  0.
<mgrwt>
<rscale>  0 0.10460576E+04</rscale>
<asrwt>0</asrwt>
<pdfrwt beam="1">  1        2 0.41453972E+00 0.11014677E+04</pdfrwt>
<pdfrwt beam="2">  1       -2 0.12279187E+00 0.11014677E+04</pdfrwt>
<totfact> 0.13360273E+00</totfact>
</mgrwt>
</event>
<event>
 4    5  0.6615028E-008  0.1166390E+04  0.7818608E-02  0.9190506E-01
         -2   -1    0    0    0  501 -0.00000000000E+00  0.00000000000E+00  0.74563565793E+03  0.74563565793E+03  0.25500000000E-02 0.  1.
          2   -1    0    0  501    0  0.00000000000E+00 -0.00000000000E+00 -0.42367159054E+04  0.42367159054E+04  0.25500000000E-02 0. -1.
    8880023    1    1    2    0    0 -0.38135467517E+03 -0.88386924992E+03 -0.37879327803E+04  0.39634456214E+04  0.65864270000E+03 0.  0.
    8880022    1    1    2    0    0  0.38135467517E+03  0.88386924992E+03  0.29685253286E+03  0.10189059419E+04  0.15294330000E+03 0.  0.
<mgrwt>
<rscale>  0 0.11151958E+04</rscale>
<asrwt>0</asrwt>
<pdfrwt beam="1">  1        2 0.65180243E+00 0.11663903E+04</pdfrwt>
<pdfrwt beam="2">  1       -2 0.11471318E+00 0.11663903E+04</pdfrwt>
<totfact> 0.13133355E-01</totfact>
</mgrwt>
</event>
<event>
 4    5  0.6615028E-008  0.1936245E+04  0.7818608E-02  0.8650693E-01
         -2   -1    0    0    0  501 -0.00000000000E+00  0.00000000000E+00  0.19416580428E+04  0.19416580428E+04  0.25500000000E-02 0.  1.
          2   -1    0    0  501    0  0.00000000000E+00 -0.00000000000E+00 -0.23121232607E+04  0.23121232607E+04  0.25500000000E-02 0. -1.
    8880023    1    1    2    0    0  0.16219819789E+04  0.82728994350E+03  0.78782961157E+03  0.20903874985E+04  0.65864270000E+03 0.  0.
    8880022    1    1    2    0    0 -0.16219819789E+04 -0.82728994350E+03 -0.11582948295E+04  0.21633938050E+04  0.15294330000E+03 0.  0.
<mgrwt>
<rscale>  0 0.19083858E+04</rscale>
<asrwt>0</asrwt>
<pdfrwt beam="1">  1        2 0.35571127E+00 0.19362449E+04</pdfrwt>
<pdfrwt beam="2">  1       -2 0.29871662E+00 0.19362449E+04</pdfrwt>
<totfact> 0.12902250E-01</totfact>
</mgrwt>
</event>
<event>
 4    5  0.6615028E-008  0.1465517E+04  0.7818608E-02  0.8934377E-01
         -2   -1    0    0    0  501 -0.00000000000E+00  0.00000000000E+00  0.75909813459E+03  0.75909813459E+03  0.25500000000E-02 0.  1.
          2   -1    0    0  501    0  0.00000000000E+00 -0.00000000000E+00 -0.34181822388E+04  0.34181822388E+04  0.25500000000E-02 0. -1.
    8880023    1    1    2    0    0  0.86983082962E+02  0.13062789159E+04 -0.24325186124E+04  0.28398745868E+04  0.65864270000E+03 0.  0.
    8880022    1    1    2    0    0 -0.86983082962E+02 -0.13062789159E+04 -0.22656549179E+03  0.13374057866E+04  0.15294330000E+03 0.  0.
<mgrwt>
<rscale>  0 0.14271784E+04</rscale>
<asrwt>0</asrwt>
<pdfrwt beam="1">  1        2 0.52587418E+00 0.14655173E+04</pdfrwt>
<pdfrwt beam="2">  1       -2 0.11678433E+00 0.14655173E+04</pdfrwt>
<totfact> 0.50585013E-01</totfact>
</mgrwt>
</event>
<event>
 4    5  0.6615028E-008  0.9979243E+03  0.7818608E-02  0.9384278E-01
          2   -1    0    0  501    0  0.00000000000E+00  0.00000000000E+00  0.78968786781E+03  0.78968786782E+03  0.25500000000E-02 0. -1.
         -2   -1    0    0    0  501 -0.00000000000E+00 -0.00000000000E+00 -0.15694249364E+04  0.15694249364E+04  0.25500000000E-02 0.  1.
    8880023    1    1    2    0    0 -0.23172121793E+03 -0.71298528864E+03  0.29429006748E+03  0.10404131846E+04  0.65864270000E+03 0.  0.
    8880022    1    1    2    0    0  0.23172121793E+03  0.71298528864E+03 -0.10740271360E+04  0.13186996196E+04  0.15294330000E+03 0.  0.
<mgrwt>
<rscale>  0 0.93380885E+03</rscale>
<asrwt>0</asrwt>
<pdfrwt beam="1">  1        2 0.12149044E+00 0.99792432E+03</pdfrwt>
<pdfrwt beam="2">  1       -2 0.24144999E+00 0.99792432E+03</pdfrwt>
<totfact> 0.25347426E+00</totfact>
</mgrwt>
</event>
<event>
 4    5  0.6615028E-008  0.8128217E+03  0.7818608E-02  0.9683729E-01
          2   -1    0    0  501    0  0.00000000000E+00  0.00000000000E+00  0.41681604434E+03  0.41681604435E+03  0.25500000000E-02 0. -1.
         -2   -1    0    0    0  501 -0.00000000000E+00 -0.00000000000E+00 -0.19425493557E+04  0.19425493557E+04  0.25500000000E-02 0.  1.
    8880023    1    1    2    0    0 -0.36006998344E+03  0.31179892304E+03 -0.65083886602E+02  0.81542325203E+03  0.65864270000E+03 0. -1.
    8880022    1    1    2    0    0  0.36006998344E+03 -0.31179892304E+03 -0.14606494247E+04  0.15439421480E+04  0.15294330000E+03 0.  0.
<mgrwt>
<rscale>  0 0.71993874E+03</rscale>
<asrwt>0</asrwt>
<pdfrwt beam="1">  1        2 0.64125546E-01 0.81282173E+03</pdfrwt>
<pdfrwt beam="2">  1       -2 0.29885374E+00 0.81282173E+03</pdfrwt>
<totfact> 0.25282355E+00</totfact>
</mgrwt>
</event>
<event>
 4    5  0.6615028E-008  0.1004347E+04  0.7818608E-02  0.9375892E-01
         -2   -1    0    0    0  501 -0.00000000000E+00  0.00000000000E+00  0.26946516173E+03  0.26946516174E+03  0.25500000000E-02 0.  1.
          2   -1    0    0  501    0  0.00000000000E+00 -0.00000000000E+00 -0.43052943196E+04  0.43052943196E+04  0.25500000000E-02 0. -1.
    8880023    1    1    2    0    0 -0.28349251238E+03  0.70323186015E+03 -0.34806251431E+04  0.36226322815E+04  0.65864270000E+03 0. -1.
    8880022    1    1    2    0    0  0.28349251238E+03 -0.70323186015E+03 -0.55520401476E+03  0.95212719987E+03  0.15294330000E+03 0.  0.
<mgrwt>
<rscale>  0 0.94086496E+03</rscale>
<asrwt>0</asrwt>
<pdfrwt beam="1">  1        2 0.66235292E+00 0.10043472E+04</pdfrwt>
<pdfrwt beam="2">  1       -2 0.41456182E-01 0.10043472E+04</pdfrwt>
<totfact> 0.11029655E+00</totfact>
</mgrwt>
</event>
<event>
 4    5  0.7067919E-008  0.7977239E+03  0.7818608E-02  0.9715739E-01
         -2   -1    0    0    0  501 -0.00000000000E+00  0.00000000000E+00  0.87070238253E+03  0.87070238254E+03  0.25500000000E-02 0.  1.
          2   -1    0    0  501    0  0.00000000000E+00 -0.00000000000E+00 -0.19433064076E+04  0.19433064076E+04  0.25500000000E-02 0. -1.
    8880023    1    1    2    0    0 -0.30135943726E+03 -0.33426896651E+03 -0.17864016368E+04  0.19564238463E+04  0.65864270000E+03 0. -1.
    8880022    1    1    2    0    0  0.30135943726E+03  0.33426896651E+03  0.71379761169E+03  0.85758494382E+03  0.15294330000E+03 0.  0.
<mgrwt>
<rscale>  0 0.70087373E+03</rscale>
<asrwt>0</asrwt>
<pdfrwt beam="1">  1        2 0.29897022E+00 0.79772392E+03</pdfrwt>
<pdfrwt beam="2">  1       -2 0.13395421E+00 0.79772392E+03</pdfrwt>
<totfact> 0.29700071E+00</totfact>
</mgrwt>
</event>
<event>
 4    5  0.6615028E-008  0.8469904E+03  0.7818608E-02  0.9617138E-01
          2   -1    0    0  501    0  0.00000000000E+00  0.00000000000E+00  0.22094381718E+04  0.22094381718E+04  0.25500000000E-02 0. -1.
         -2   -1    0    0    0  501 -0.00000000000E+00 -0.00000000000E+00 -0.50565530397E+03  0.50565530398E+03  0.25500000000E-02 0.  1.
    8880023    1    1    2    0    0 -0.50247638365E+03  0.17635183222E+03  0.19369011490E+04  0.21139959206E+04  0.65864270000E+03 0.  0.
    8880022    1    1    2    0    0  0.50247638365E+03 -0.17635183222E+03 -0.23311828119E+03  0.60109755522E+03  0.15294330000E+03 0.  0.
<mgrwt>
<rscale>  0 0.76172214E+03</rscale>
<asrwt>0</asrwt>
<pdfrwt beam="1">  1        2 0.33991357E+00 0.84699037E+03</pdfrwt>
<pdfrwt beam="2">  1       -2 0.77793123E-01 0.84699037E+03</pdfrwt>
<totfact> 0.77010499E+00</totfact>
</mgrwt>
</event>
<event>
 4    5  0.6615028E-008  0.1787900E+04  0.7818608E-02  0.8729260E-01
          2   -1    0    0  501    0  0.00000000000E+00  0.00000000000E+00  0.23178204878E+04  0.23178204879E+04  0.25500000000E-02 0. -1.
         -2   -1    0    0    0  501 -0.00000000000E+00 -0.00000000000E+00 -0.15451478796E+04  0.15451478796E+04  0.25500000000E-02 0.  1.
    8880023    1    1    2    0    0 -0.95998140530E+03 -0.13569119873E+04  0.11833122074E+04  0.21440178232E+04  0.65864270000E+03 0.  0.
    8880022    1    1    2    0    0  0.95998140530E+03  0.13569119873E+04 -0.41063959912E+03  0.17189505442E+04  0.15294330000E+03 0.  0.
<mgrwt>
<rscale>  0 0.17574509E+04</rscale>
<asrwt>0</asrwt>
<pdfrwt beam="1">  1        2 0.35658777E+00 0.17878995E+04</pdfrwt>
<pdfrwt beam="2">  1       -2 0.23771506E+00 0.17878995E+04</pdfrwt>
<totfact> 0.30837662E-01</totfact>
</mgrwt>
</event>
<event>
 4    5  0.6615028E-008  0.6598560E+03  0.7818608E-02  0.1024304E+00
         -2   -1    0    0    0  501 -0.00000000000E+00  0.00000000000E+00  0.17735948412E+03  0.17735948413E+03  0.25500000000E-02 0.  1.
          2   -1    0    0  501    0  0.00000000000E+00 -0.00000000000E+00 -0.17487948570E+04  0.17487948570E+04  0.25500000000E-02 0. -1.
    8880023    1    1    2    0    0  0.31904450402E+02  0.24121626621E+02 -0.16292705872E+04  0.17578204116E+04  0.65864270000E+03 0. -1.
    8880022    1    1    2    0    0 -0.31904450402E+02 -0.24121626621E+02  0.57835214271E+02  0.16833392959E+03  0.15294330000E+03 0.  0.
<mgrwt>
<rscale>  0 0.46164773E+03</rscale>
<asrwt>0</asrwt>
<pdfrwt beam="1">  1        2 0.26904535E+00 0.65985601E+03</pdfrwt>
<pdfrwt beam="2">  1       -2 0.27286076E-01 0.65985601E+03</pdfrwt>
<totfact> 0.11599479E+02</totfact>
</mgrwt>
</event>
<event>
 4    5  0.6615028E-008  0.8242409E+03  0.7818608E-02  0.9660643E-01
         -2   -1    0    0    0  501 -0.00000000000E+00  0.00000000000E+00  0.10751740978E+04  0.10751740979E+04  0.25500000000E-02 0.  1.
          2   -1    0    0  501    0  0.00000000000E+00 -0.00000000000E+00 -0.53589307399E+03  0.53589307400E+03  0.25500000000E-02 0. -1.
    8880023    1    1    2    0    0 -0.42234280283E+03 -0.25920925819E+03 -0.50397716174E+02  0.82578024843E+03  0.65864270000E+03 0. -1.
    8880022    1    1    2    0    0  0.42234280283E+03  0.25920925819E+03  0.58967874003E+03  0.78528692342E+03  0.15294330000E+03 0.  0.
<mgrwt>
<rscale>  0 0.73409199E+03</rscale>
<asrwt>0</asrwt>
<pdfrwt beam="1">  1        2 0.82445089E-01 0.82424092E+03</pdfrwt>
<pdfrwt beam="2">  1       -2 0.16541140E+00 0.82424092E+03</pdfrwt>
<totfact> 0.13160732E+01</totfact>
</mgrwt>
</event>
<event>
 4    5  0.6615028E-008  0.8782563E+03  0.7818608E-02  0.9561879E-01
          2   -1    0    0  501    0  0.00000000000E+00  0.00000000000E+00  0.29057572761E+04  0.29057572761E+04  0.25500000000E-02 0. -1.
         -2   -1    0    0    0  501 -0.00000000000E+00 -0.00000000000E+00 -0.19763654014E+03  0.19763654016E+03  0.25500000000E-02 0.  1.
    8880023    1    1    2    0    0 -0.55603639745E+03 -0.16836722654E+03  0.19292500850E+04  0.21197500076E+04  0.65864270000E+03 0.  0.
    8880022    1    1    2    0    0  0.55603639745E+03  0.16836722654E+03  0.77887065102E+03  0.98364380865E+03  0.15294330000E+03 0.  0.
<mgrwt>
<rscale>  0 0.79871472E+03</rscale>
<asrwt>0</asrwt>
<pdfrwt beam="1">  1        2 0.44703959E+00 0.87825634E+03</pdfrwt>
<pdfrwt beam="2">  1       -2 0.30405621E-01 0.87825634E+03</pdfrwt>
<totfact> 0.20643622E+01</totfact>
</mgrwt>
</event>
<event>
 4    5  0.6615028E-008  0.8249608E+03  0.7818608E-02  0.9659218E-01
          2   -1    0    0  501    0  0.00000000000E+00  0.00000000000E+00  0.94307661094E+03  0.94307661094E+03  0.25500000000E-02 0. -1.
         -2   -1    0    0    0  501 -0.00000000000E+00 -0.00000000000E+00 -0.12288826506E+04  0.12288826507E+04  0.25500000000E-02 0.  1.
    8880023    1    1    2    0    0  0.33246458593E+03 -0.36907654051E+03  0.68400976482E+03  0.10716481504E+04  0.65864270000E+03 0. -1.
    8880022    1    1    2    0    0 -0.33246458593E+03  0.36907654051E+03 -0.96981580453E+03  0.11003111112E+04  0.15294330000E+03 0.  0.
<mgrwt>
<rscale>  0 0.73497740E+03</rscale>
<asrwt>0</asrwt>
<pdfrwt beam="1">  1        2 0.14508871E+00 0.82496085E+03</pdfrwt>
<pdfrwt beam="2">  1       -2 0.18905887E+00 0.82496085E+03</pdfrwt>
<totfact> 0.43659654E+00</totfact>
</mgrwt>
</event>
<event>
 4    5  0.6615028E-008  0.9977576E+03  0.7818608E-02  0.9384497E-01
         -2   -1    0    0    0  501 -0.00000000000E+00  0.00000000000E+00  0.54097961437E+03  0.54097961437E+03  0.25500000000E-02 0.  1.
          2   -1    0    0  501    0  0.00000000000E+00 -0.00000000000E+00 -0.19402066032E+04  0.19402066032E+04  0.25500000000E-02 0. -1.
    8880023    1    1    2    0    0  0.58371128707E+03  0.47009696917E+03 -0.13964362140E+04  0.17162617321E+04  0.65864270000E+03 0.  0.
    8880022    1    1    2    0    0 -0.58371128707E+03 -0.47009696917E+03 -0.27907748732E+01  0.76492448550E+03  0.15294330000E+03 0.  0.
<mgrwt>
<rscale>  0 0.93362549E+03</rscale>
<asrwt>0</asrwt>
<pdfrwt beam="1">  1        2 0.29849332E+00 0.99775760E+03</pdfrwt>
<pdfrwt beam="2">  1       -2 0.83227634E-01 0.99775760E+03</pdfrwt>
<totfact> 0.91299015E+00</totfact>
</mgrwt>
</event>
<event>
 4    5  0.6615028E-008  0.7605712E+03  0.7818608E-02  0.9803631E-01
          2   -1    0    0  501    0  0.00000000000E+00  0.00000000000E+00  0.12031837140E+04  0.12031837140E+04  0.25500000000E-02 0. -1.
         -2   -1    0    0    0  501 -0.00000000000E+00 -0.00000000000E+00 -0.50069392746E+03  0.50069392747E+03  0.25500000000E-02 0.  1.
    8880023    1    1    2    0    0 -0.32727582188E+03 -0.19377514958E+03  0.95618679716E+03  0.12217862618E+04  0.65864270000E+03 0. -1.
    8880022    1    1    2    0    0  0.32727582188E+03  0.19377514958E+03 -0.25369701059E+03  0.48209137970E+03  0.15294330000E+03 0.  0.
<mgrwt>
<rscale>  0 0.65168043E+03</rscale>
<asrwt>0</asrwt>
<pdfrwt beam="1">  1        2 0.18510519E+00 0.76057115E+03</pdfrwt>
<pdfrwt beam="2">  1       -2 0.77029835E-01 0.76057115E+03</pdfrwt>
<totfact> 0.28875357E+01</totfact>
</mgrwt>
</event>
<event>
 4    5  0.6615028E-008  0.1654050E+04  0.7818608E-02  0.8807880E-01
          2   -1    0    0  501    0  0.00000000000E+00  0.00000000000E+00  0.22944847352E+04  0.22944847352E+04  0.25500000000E-02 0. -1.
         -2   -1    0    0    0  501 -0.00000000000E+00 -0.00000000000E+00 -0.14801225937E+04  0.14801225937E+04  0.25500000000E-02 0.  1.
    8880023    1    1    2    0    0  0.45229831957E+02 -0.15165834383E+04 -0.53495328547E+03  0.17384062491E+04  0.65864270000E+03 0.  0.
    8880022    1    1    2    0    0 -0.45229831957E+02  0.15165834383E+04  0.13493154269E+04  0.20362010798E+04  0.15294330000E+03 0.  0.
<mgrwt>
<rscale>  0 0.16207840E+04</rscale>
<asrwt>0</asrwt>
<pdfrwt beam="1">  1        2 0.35299765E+00 0.16540500E+04</pdfrwt>
<pdfrwt beam="2">  1       -2 0.22771117E+00 0.16540500E+04</pdfrwt>
<totfact> 0.37229718E-01</totfact>
</mgrwt>
</event>
<event>
 4    5  0.6615028E-008  0.7942542E+03  0.7818608E-02  0.9723360E-01
          2   -1    0    0  501    0  0.00000000000E+00  0.00000000000E+00  0.30721615331E+04  0.30721615331E+04  0.25500000000E-02 0. -1.
         -2   -1    0    0    0  501 -0.00000000000E+00 -0.00000000000E+00 -0.21875947182E+03  0.21875947183E+03  0.25500000000E-02 0.  1.
    8880023    1    1    2    0    0 -0.36760257409E+03 -0.24879282927E+03  0.26720938508E+04  0.27876379389E+04  0.65864270000E+03 0. -1.
    8880022    1    1    2    0    0  0.36760257409E+03  0.24879282927E+03  0.18130821044E+03  0.50328306604E+03  0.15294330000E+03 0.  0.
<mgrwt>
<rscale>  0 0.69642813E+03</rscale>
<asrwt>0</asrwt>
<pdfrwt beam="1">  1        2 0.47264022E+00 0.79425420E+03</pdfrwt>
<pdfrwt beam="2">  1       -2 0.33655304E-01 0.79425420E+03</pdfrwt>
<totfact> 0.13661692E+01</totfact>
</mgrwt>
</event>
<event>
 4    5  0.6615028E-008  0.9264273E+03  0.7818608E-02  0.9484874E-01
          2   -1    0    0  501    0  0.00000000000E+00  0.00000000000E+00  0.10491984512E+04  0.10491984512E+04  0.25500000000E-02 0. -1.
         -2   -1    0    0    0  501 -0.00000000000E+00 -0.00000000000E+00 -0.12145697345E+04  0.12145697345E+04  0.25500000000E-02 0.  1.
    8880023    1    1    2    0    0  0.63725614243E+03 -0.13550617443E+03  0.70621025093E+03  0.11649036180E+04  0.65864270000E+03 0. -1.
    8880022    1    1    2    0    0 -0.63725614243E+03  0.13550617443E+03 -0.87158153425E+03  0.10988645677E+04  0.15294330000E+03 0.  0.
<mgrwt>
<rscale>  0 0.85408275E+03</rscale>
<asrwt>0</asrwt>
<pdfrwt beam="1">  1        2 0.16141515E+00 0.92642729E+03</pdfrwt>
<pdfrwt beam="2">  1       -2 0.18685688E+00 0.92642729E+03</pdfrwt>
<totfact> 0.38132776E+00</totfact>
</mgrwt>
</event>
<event>
 4    5  0.8612767E-008  0.1445914E+04  0.7818608E-02  0.8948803E-01
          2   -1    0    0  501    0  0.00000000000E+00  0.00000000000E+00  0.29330068196E+04  0.29330068196E+04  0.25500000000E-02 0. -1.
         -2   -1    0    0    0  501 -0.00000000000E+00 -0.00000000000E+00 -0.16703784157E+04  0.16703784157E+04  0.25500000000E-02 0.  1.
    8880023    1    1    2    0    0 -0.26324936272E+03  0.12599829857E+04  0.24504345633E+04  0.28452235600E+04  0.65864270000E+03 0.  0.
    8880022    1    1    2    0    0  0.26324936272E+03 -0.12599829857E+04 -0.11878061594E+04  0.17581616753E+04  0.15294330000E+03 0.  0.
<mgrwt>
<rscale>  0 0.14069497E+04</rscale>
<asrwt>0</asrwt>
<pdfrwt beam="1">  1        2 0.45123182E+00 0.14459141E+04</pdfrwt>
<pdfrwt beam="2">  1       -2 0.25698130E+00 0.14459141E+04</pdfrwt>
<totfact> 0.10570956E-01</totfact>
</mgrwt>
</event>
<event>
 4    5  0.6615028E-008  0.7977762E+03  0.7818608E-02  0.9715625E-01
          2   -1    0    0  501    0  0.00000000000E+00  0.00000000000E+00  0.76047192325E+03  0.76047192326E+03  0.25500000000E-02 0. -1.
         -2   -1    0    0    0  501 -0.00000000000E+00 -0.00000000000E+00 -0.12924592977E+04  0.12924592977E+04  0.25500000000E-02 0.  1.
    8880023    1    1    2    0    0 -0.15642960222E+03 -0.42209758341E+03  0.48266230728E+03  0.93242141734E+03  0.65864270000E+03 0.  0.
    8880022    1    1    2    0    0  0.15642960222E+03  0.42209758341E+03 -0.10146496818E+04  0.11205098036E+04  0.15294330000E+03 0.  0.
<mgrwt>
<rscale>  0 0.70094046E+03</rscale>
<asrwt>0</asrwt>
<pdfrwt beam="1">  1        2 0.11699568E+00 0.79777616E+03</pdfrwt>
<pdfrwt beam="2">  1       -2 0.19883989E+00 0.79777616E+03</pdfrwt>
<totfact> 0.50607414E+00</totfact>
</mgrwt>
</event>
<event>
 4    5  0.6615028E-008  0.1177228E+04  0.7818608E-02  0.9179583E-01
         -2   -1    0    0    0  501 -0.00000000000E+00  0.00000000000E+00  0.13619468713E+04  0.13619468713E+04  0.25500000000E-02 0.  1.
          2   -1    0    0  501    0  0.00000000000E+00 -0.00000000000E+00 -0.22536870180E+04  0.22536870180E+04  0.25500000000E-02 0. -1.
    8880023    1    1    2    0    0 -0.37001664892E+03  0.90285260286E+03 -0.18801861841E+04  0.22183249167E+04  0.65864270000E+03 0.  0.
    8880022    1    1    2    0    0  0.37001664892E+03 -0.90285260286E+03  0.98844603740E+03  0.13973089726E+04  0.15294330000E+03 0.  0.
<mgrwt>
<rscale>  0 0.11266677E+04</rscale>
<asrwt>0</asrwt>
<pdfrwt beam="1">  1        2 0.34672108E+00 0.11772278E+04</pdfrwt>
<pdfrwt beam="2">  1       -2 0.20953029E+00 0.11772278E+04</pdfrwt>
<totfact> 0.54221330E-01</totfact>
</mgrwt>
</event>
<event>
 4    5  0.6615028E-008  0.6713604E+03  0.7818608E-02  0.1014706E+00
         -2   -1    0    0    0  501 -0.00000000000E+00  0.00000000000E+00  0.28584539831E+03  0.28584539832E+03  0.25500000000E-02 0.  1.
          2   -1    0    0  501    0  0.00000000000E+00 -0.00000000000E+00 -0.78484912871E+03  0.78484912872E+03  0.25500000000E-02 0. -1.
    8880023    1    1    2    0    0  0.11248817868E+03  0.65275752482E+02 -0.54500434551E+03  0.86472796711E+03  0.65864270000E+03 0. -1.
    8880022    1    1    2    0    0 -0.11248817868E+03 -0.65275752482E+02  0.46000615108E+02  0.20596655993E+03  0.15294330000E+03 0. -1.
<mgrwt>
<rscale>  0 0.49646451E+03</rscale>
<asrwt>0</asrwt>
<pdfrwt beam="1">  1        2 0.12074602E+00 0.67136035E+03</pdfrwt>
<pdfrwt beam="2">  1       -2 0.43976215E-01 0.67136035E+03</pdfrwt>
<totfact> 0.17579972E+02</totfact>
</mgrwt>
</event>
<event>
 4    5  0.6615028E-008  0.1122043E+04  0.7818608E-02  0.9236902E-01
         -2   -1    0    0    0  501 -0.00000000000E+00  0.00000000000E+00  0.12665694525E+04  0.12665694525E+04  0.25500000000E-02 0.  1.
          2   -1    0    0  501    0  0.00000000000E+00 -0.00000000000E+00 -0.12233227093E+04  0.12233227093E+04  0.25500000000E-02 0. -1.
    8880023    1    1    2    0    0 -0.84828903246E+03  0.32492447138E+03 -0.68588636082E+03  0.13150743328E+04  0.65864270000E+03 0. -1.
    8880022    1    1    2    0    0  0.84828903246E+03 -0.32492447138E+03  0.72913310405E+03  0.11748178289E+04  0.15294330000E+03 0.  0.
<mgrwt>
<rscale>  0 0.10680524E+04</rscale>
<asrwt>0</asrwt>
<pdfrwt beam="1">  1        2 0.18820349E+00 0.11220430E+04</pdfrwt>
<pdfrwt beam="2">  1       -2 0.19485684E+00 0.11220430E+04</pdfrwt>
<totfact> 0.25821416E+00</totfact>
</mgrwt>
</event>
<event>
 4    5  0.6615028E-008  0.1079989E+04  0.7818608E-02  0.9283670E-01
          2   -1    0    0  501    0  0.00000000000E+00  0.00000000000E+00  0.36459123273E+04  0.36459123273E+04  0.25500000000E-02 0. -1.
         -2   -1    0    0    0  501 -0.00000000000E+00 -0.00000000000E+00 -0.49988891679E+03  0.49988891680E+03  0.25500000000E-02 0.  1.
    8880023    1    1    2    0    0  0.80753307648E+03  0.28364680524E+03  0.30914117339E+04  0.32746300393E+04  0.65864270000E+03 0.  0.
    8880022    1    1    2    0    0 -0.80753307648E+03 -0.28364680524E+03  0.54611676578E+02  0.87117120474E+03  0.15294330000E+03 0.  0.
<mgrwt>
<rscale>  0 0.10230021E+04</rscale>
<asrwt>0</asrwt>
<pdfrwt beam="1">  1        2 0.56090959E+00 0.10799886E+04</pdfrwt>
<pdfrwt beam="2">  1       -2 0.76905988E-01 0.10799886E+04</pdfrwt>
<totfact> 0.99102518E-01</totfact>
</mgrwt>
</event>
<event>
 4    5  0.6615028E-008  0.9280652E+03  0.7818608E-02  0.9482402E-01
         -2   -1    0    0    0  501 -0.00000000000E+00  0.00000000000E+00  0.16912749365E+03  0.16912749367E+03  0.25500000000E-02 0.  1.
          2   -1    0    0  501    0  0.00000000000E+00 -0.00000000000E+00 -0.44207364994E+04  0.44207364994E+04  0.25500000000E-02 0. -1.
    8880023    1    1    2    0    0  0.52697897108E+03  0.38702448271E+03 -0.32802282424E+04  0.34089884592E+04  0.65864270000E+03 0. -1.
    8880022    1    1    2    0    0 -0.52697897108E+03 -0.38702448271E+03 -0.97138076335E+03  0.11808755339E+04  0.15294330000E+03 0.  0.
<mgrwt>
<rscale>  0 0.85593790E+03</rscale>
<asrwt>0</asrwt>
<pdfrwt beam="1">  1        2 0.68011322E+00 0.92806519E+03</pdfrwt>
<pdfrwt beam="2">  1       -2 0.26019618E-01 0.92806519E+03</pdfrwt>
<totfact> 0.21249450E+00</totfact>
</mgrwt>
</event>
<event>
 4    5  0.6615028E-008  0.8052141E+03  0.7818608E-02  0.9699633E-01
          2   -1    0    0  501    0  0.00000000000E+00  0.00000000000E+00  0.16465380709E+04  0.16465380709E+04  0.25500000000E-02 0. -1.
         -2   -1    0    0    0  501 -0.00000000000E+00 -0.00000000000E+00 -0.75748705326E+03  0.75748705327E+03  0.25500000000E-02 0.  1.
    8880023    1    1    2    0    0 -0.26500296695E+03  0.37991182719E+03  0.14512703193E+04  0.16596853060E+04  0.65864270000E+03 0. -1.
    8880022    1    1    2    0    0  0.26500296695E+03 -0.37991182719E+03 -0.56221930160E+03  0.74433981825E+03  0.15294330000E+03 0.  0.
<mgrwt>
<rscale>  0 0.71038622E+03</rscale>
<asrwt>0</asrwt>
<pdfrwt beam="1">  1        2 0.25331355E+00 0.80521412E+03</pdfrwt>
<pdfrwt beam="2">  1       -2 0.11653647E+00 0.80521412E+03</pdfrwt>
<totfact> 0.61142604E+00</totfact>
</mgrwt>
</event>
<event>
 4    5  0.6615028E-008  0.7872333E+03  0.7818608E-02  0.9739112E-01
         -2   -1    0    0    0  501 -0.00000000000E+00  0.00000000000E+00  0.82032184617E+03  0.82032184617E+03  0.25500000000E-02 0.  1.
          2   -1    0    0  501    0  0.00000000000E+00 -0.00000000000E+00 -0.45219315967E+04  0.45219315967E+04  0.25500000000E-02 0. -1.
    8880023    1    1    2    0    0  0.16407940046E+03  0.39875309349E+03 -0.44205411951E+04  0.44900913959E+04  0.65864270000E+03 0. -1.
    8880022    1    1    2    0    0 -0.16407940046E+03 -0.39875309349E+03  0.71893144462E+03  0.85216204697E+03  0.15294330000E+03 0.  0.
<mgrwt>
<rscale>  0 0.68735065E+03</rscale>
<asrwt>0</asrwt>
<pdfrwt beam="1">  1        2 0.69568177E+00 0.78723331E+03</pdfrwt>
<pdfrwt beam="2">  1       -2 0.12620336E+00 0.78723331E+03</pdfrwt>
<totfact> 0.62181388E-02</totfact>
</mgrwt>
</event>
<event>
 4    5  0.6615028E-008  0.9748646E+03  0.7818608E-02  0.9415207E-01
         -2   -1    0    0    0  501 -0.00000000000E+00  0.00000000000E+00  0.16391134504E+04  0.16391134504E+04  0.25500000000E-02 0.  1.
          2   -1    0    0  501    0  0.00000000000E+00 -0.00000000000E+00 -0.10998963952E+04  0.10998963952E+04  0.25500000000E-02 0. -1.
    8880023    1    1    2    0    0  0.60196825206E+03 -0.39266392415E+03 -0.76691407177E+03  0.12403701599E+04  0.65864270000E+03 0. -1.
    8880022    1    1    2    0    0 -0.60196825206E+03  0.39266392415E+03  0.13061311270E+04  0.14986396858E+04  0.15294330000E+03 0.  0.
<mgrwt>
<rscale>  0 0.90834670E+03</rscale>
<asrwt>0</asrwt>
<pdfrwt beam="1">  1        2 0.16921483E+00 0.97486458E+03</pdfrwt>
<pdfrwt beam="2">  1       -2 0.25217130E+00 0.97486458E+03</pdfrwt>
<totfact> 0.13583960E+00</totfact>
</mgrwt>
</event>
<event>
 4    5  0.6615028E-008  0.7123227E+03  0.7818608E-02  0.9949475E-01
         -2   -1    0    0    0  501 -0.00000000000E+00  0.00000000000E+00  0.21663798224E+03  0.21663798226E+03  0.25500000000E-02 0.  1.
          2   -1    0    0  501    0  0.00000000000E+00 -0.00000000000E+00 -0.27949389076E+04  0.27949389076E+04  0.25500000000E-02 0. -1.
    8880023    1    1    2    0    0  0.17107250835E+02 -0.27074124367E+03 -0.26034489823E+04  0.26991388050E+04  0.65864270000E+03 0. -1.
    8880022    1    1    2    0    0 -0.17107250835E+02  0.27074124367E+03  0.25148056979E+02  0.31243808481E+03  0.15294330000E+03 0.  0.
<mgrwt>
<rscale>  0 0.57922294E+03</rscale>
<asrwt>0</asrwt>
<pdfrwt beam="1">  1        2 0.42999058E+00 0.71232274E+03</pdfrwt>
<pdfrwt beam="2">  1       -2 0.33328922E-01 0.71232274E+03</pdfrwt>
<totfact> 0.20752683E+01</totfact>
</mgrwt>
</event>
<event>
 4    5  0.6615028E-008  0.1461861E+04  0.7818608E-02  0.8937048E-01
          2   -1    0    0  501    0  0.00000000000E+00  0.00000000000E+00  0.23773844883E+04  0.23773844883E+04  0.25500000000E-02 0. -1.
         -2   -1    0    0    0  501 -0.00000000000E+00 -0.00000000000E+00 -0.12126708869E+04  0.12126708869E+04  0.25500000000E-02 0.  1.
    8880023    1    1    2    0    0  0.86614543153E+03 -0.97622693067E+03 -0.42993593327E+03  0.15237723064E+04  0.65864270000E+03 0.  1.
    8880022    1    1    2    0    0 -0.86614543153E+03  0.97622693067E+03  0.15946495347E+04  0.20662830687E+04  0.15294330000E+03 0.  0.
<mgrwt>
<rscale>  0 0.14234069E+04</rscale>
<asrwt>0</asrwt>
<pdfrwt beam="1">  1        2 0.36575146E+00 0.14618608E+04</pdfrwt>
<pdfrwt beam="2">  1       -2 0.18656475E+00 0.14618608E+04</pdfrwt>
<totfact> 0.63235317E-01</totfact>
</mgrwt>
</event>
<event>
 4    5  0.6615028E-008  0.1189980E+04  0.7818608E-02  0.9166925E-01
          2   -1    0    0  501    0  0.00000000000E+00  0.00000000000E+00  0.12236449849E+04  0.12236449849E+04  0.25500000000E-02 0. -1.
         -2   -1    0    0    0  501 -0.00000000000E+00 -0.00000000000E+00 -0.10890381790E+04  0.10890381790E+04  0.25500000000E-02 0.  1.
    8880023    1    1    2    0    0  0.28671207711E+03 -0.94870351961E+03  0.43317076496E+03  0.12663685487E+04  0.65864270000E+03 0.  0.
    8880022    1    1    2    0    0 -0.28671207711E+03  0.94870351961E+03 -0.29856395912E+03  0.10463146152E+04  0.15294330000E+03 0.  0.
<mgrwt>
<rscale>  0 0.11401441E+04</rscale>
<asrwt>0</asrwt>
<pdfrwt beam="1">  1        2 0.18825307E+00 0.11899800E+04</pdfrwt>
<pdfrwt beam="2">  1       -2 0.16754434E+00 0.11899800E+04</pdfrwt>
<totfact> 0.39579907E+00</totfact>
</mgrwt>
</event>
<event>
 4    5  0.6615028E-008  0.9254905E+03  0.7818608E-02  0.9486291E-01
         -2   -1    0    0    0  501 -0.00000000000E+00  0.00000000000E+00  0.98667404824E+03  0.98667404825E+03  0.25500000000E-02 0.  1.
          2   -1    0    0  501    0  0.00000000000E+00 -0.00000000000E+00 -0.12436932214E+04  0.12436932214E+04  0.25500000000E-02 0. -1.
    8880023    1    1    2    0    0 -0.62081498990E+03 -0.19316113493E+03 -0.90882626202E+03  0.12971113509E+04  0.65864270000E+03 0.  0.
    8880022    1    1    2    0    0  0.62081498990E+03  0.19316113493E+03  0.65180708890E+03  0.93325591875E+03  0.15294330000E+03 0.  0.
<mgrwt>
<rscale>  0 0.85302100E+03</rscale>
<asrwt>0</asrwt>
<pdfrwt beam="1">  1        2 0.19133742E+00 0.92549051E+03</pdfrwt>
<pdfrwt beam="2">  1       -2 0.15179601E+00 0.92549051E+03</pdfrwt>
<totfact> 0.51766308E+00</totfact>
</mgrwt>
</event>
<event>
 4    5  0.6615028E-008  0.8652580E+03  0.7818608E-02  0.9584278E-01
          2   -1    0    0  501    0  0.00000000000E+00  0.00000000000E+00  0.31079022186E+04  0.31079022186E+04  0.25500000000E-02 0. -1.
         -2   -1    0    0    0  501 -0.00000000000E+00 -0.00000000000E+00 -0.92391596458E+03  0.92391596459E+03  0.25500000000E-02 0.  1.
    8880023    1    1    2    0    0  0.10343030597E+03 -0.55151006845E+03  0.29475834638E+04  0.30719569767E+04  0.65864270000E+03 0. -1.
    8880022    1    1    2    0    0 -0.10343030597E+03  0.55151006845E+03 -0.76359720987E+03  0.95986120650E+03  0.15294330000E+03 0.  0.
<mgrwt>
<rscale>  0 0.78345561E+03</rscale>
<asrwt>0</asrwt>
<pdfrwt beam="1">  1        2 0.47813882E+00 0.86525799E+03</pdfrwt>
<pdfrwt beam="2">  1       -2 0.14214091E+00 0.86525799E+03</pdfrwt>
<totfact> 0.53722653E-01</totfact>
</mgrwt>
</event>
<event>
 4    5  0.6615028E-008  0.1031712E+04  0.7818608E-02  0.9341196E-01
         -2   -1    0    0    0  501 -0.00000000000E+00  0.00000000000E+00  0.39207876243E+03  0.39207876243E+03  0.25500000000E-02 0.  1.
          2   -1    0    0  501    0  0.00000000000E+00 -0.00000000000E+00 -0.24745937554E+04  0.24745937554E+04  0.25500000000E-02 0. -1.
    8880023    1    1    2    0    0 -0.74179960012E+03 -0.28346626196E+03 -0.16593569320E+04  0.19539435515E+04  0.65864270000E+03 0.  0.
    8880022    1    1    2    0    0  0.74179960012E+03  0.28346626196E+03 -0.42315806097E+03  0.91272896634E+03  0.15294330000E+03 0.  0.
<mgrwt>
<rscale>  0 0.97077163E+03</rscale>
<asrwt>0</asrwt>
<pdfrwt beam="1">  1        2 0.38070672E+00 0.10317122E+04</pdfrwt>
<pdfrwt beam="2">  1       -2 0.60319812E-01 0.10317122E+04</pdfrwt>
<totfact> 0.92900555E+00</totfact>
</mgrwt>
</event>
<event>
 4    5  0.6615028E-008  0.6771970E+03  0.7818608E-02  0.1010956E+00
         -2   -1    0    0    0  501 -0.00000000000E+00  0.00000000000E+00  0.89051678434E+02  0.89051678470E+02  0.25500000000E-02 0.  1.
          2   -1    0    0  501    0  0.00000000000E+00 -0.00000000000E+00 -0.36004746072E+04  0.36004746072E+04  0.25500000000E-02 0. -1.
    8880023    1    1    2    0    0 -0.15741863803E+03  0.22162291748E+01 -0.33481955881E+04  0.34159931852E+04  0.65864270000E+03 0. -1.
    8880022    1    1    2    0    0  0.15741863803E+03 -0.22162291748E+01 -0.16322734068E+03  0.27353310043E+03  0.15294330000E+03 0.  0.
<mgrwt>
<rscale>  0 0.51096534E+03</rscale>
<asrwt>0</asrwt>
<pdfrwt beam="1">  1        2 0.55391906E+00 0.67719698E+03</pdfrwt>
<pdfrwt beam="2">  1       -2 0.13700261E-01 0.67719698E+03</pdfrwt>
<totfact> 0.30819220E+01</totfact>
</mgrwt>
</event>
<event>
 4    5  0.6615028E-008  0.7575272E+03  0.7818608E-02  0.9811552E-01
          2   -1    0    0  501    0  0.00000000000E+00  0.00000000000E+00  0.28725457734E+04  0.28725457734E+04  0.25500000000E-02 0. -1.
         -2   -1    0    0    0  501 -0.00000000000E+00 -0.00000000000E+00 -0.20455273326E+03  0.20455273327E+03  0.25500000000E-02 0.  1.
    8880023    1    1    2    0    0  0.17656303753E+03  0.32994365565E+03  0.25437859849E+04  0.26541843692E+04  0.65864270000E+03 0. -1.
    8880022    1    1    2    0    0 -0.17656303753E+03 -0.32994365565E+03  0.12420705522E+03  0.42291413751E+03  0.15294330000E+03 0.  0.
<mgrwt>
<rscale>  0 0.64746281E+03</rscale>
<asrwt>0</asrwt>
<pdfrwt beam="1">  1        2 0.44193013E+00 0.75752725E+03</pdfrwt>
<pdfrwt beam="2">  1       -2 0.31469651E-01 0.75752725E+03</pdfrwt>
<totfact> 0.20635979E+01</totfact>
</mgrwt>
</event>
<event>
 4    5  0.6615028E-008  0.9253712E+03  0.7818608E-02  0.9486472E-01
          2   -1    0    0  501    0  0.00000000000E+00  0.00000000000E+00  0.16021190378E+04  0.16021190378E+04  0.25500000000E-02 0. -1.
         -2   -1    0    0    0  501 -0.00000000000E+00 -0.00000000000E+00 -0.48871815157E+03  0.48871815158E+03  0.25500000000E-02 0.  1.
    8880023    1    1    2    0    0 -0.36754542912E+03 -0.53610819149E+03  0.10800411567E+04  0.14222519966E+04  0.65864270000E+03 0. -1.
    8880022    1    1    2    0    0  0.36754542912E+03  0.53610819149E+03  0.33359729561E+02  0.66858519280E+03  0.15294330000E+03 0.  0.
<mgrwt>
<rscale>  0 0.85288573E+03</rscale>
<asrwt>0</asrwt>
<pdfrwt beam="1">  1        2 0.24647985E+00 0.92537119E+03</pdfrwt>
<pdfrwt beam="2">  1       -2 0.75187409E-01 0.92537119E+03</pdfrwt>
<totfact> 0.17760546E+01</totfact>
</mgrwt>
</event>
<event>
 4    5  0.6615028E-008  0.8294676E+03  0.7818608E-02  0.9650369E-01
          2   -1    0    0  501    0  0.00000000000E+00  0.00000000000E+00  0.15465442660E+04  0.15465442660E+04  0.25500000000E-02 0. -1.
         -2   -1    0    0    0  501 -0.00000000000E+00 -0.00000000000E+00 -0.34217442052E+03  0.34217442053E+03  0.25500000000E-02 0.  1.
    8880023    1    1    2    0    0 -0.46809351976E+03 -0.18733585575E+03  0.10531430459E+04  0.13405695608E+04  0.65864270000E+03 0.  0.
    8880022    1    1    2    0    0  0.46809351976E+03  0.18733585575E+03  0.15122679961E+03  0.54814912572E+03  0.15294330000E+03 0.  0.
<mgrwt>
<rscale>  0 0.74050260E+03</rscale>
<asrwt>0</asrwt>
<pdfrwt beam="1">  1        2 0.23792989E+00 0.82946758E+03</pdfrwt>
<pdfrwt beam="2">  1       -2 0.52642219E-01 0.82946758E+03</pdfrwt>
<totfact> 0.41278810E+01</totfact>
</mgrwt>
</event>
<event>
 4    5  0.6615028E-008  0.8009726E+03  0.7818608E-02  0.9708697E-01
         -2   -1    0    0    0  501 -0.00000000000E+00  0.00000000000E+00  0.11650651750E+04  0.11650651750E+04  0.25500000000E-02 0.  1.
          2   -1    0    0  501    0  0.00000000000E+00 -0.00000000000E+00 -0.15230814318E+04  0.15230814318E+04  0.25500000000E-02 0. -1.
    8880023    1    1    2    0    0  0.29580149610E+03 -0.34676853207E+03 -0.13591217630E+04  0.15775833140E+04  0.65864270000E+03 0. -1.
    8880022    1    1    2    0    0 -0.29580149610E+03  0.34676853207E+03  0.10011055061E+04  0.11105632928E+04  0.15294330000E+03 0.  0.
<mgrwt>
<rscale>  0 0.70501331E+03</rscale>
<asrwt>0</asrwt>
<pdfrwt beam="1">  1        2 0.23432022E+00 0.80097263E+03</pdfrwt>
<pdfrwt beam="2">  1       -2 0.17924080E+00 0.80097263E+03</pdfrwt>
<totfact> 0.23090781E+00</totfact>
</mgrwt>
</event>
<event>
 4    5  0.6615028E-008  0.8770829E+03  0.7818608E-02  0.9563870E-01
          2   -1    0    0  501    0  0.00000000000E+00  0.00000000000E+00  0.96291910879E+03  0.96291910879E+03  0.25500000000E-02 0. -1.
         -2   -1    0    0    0  501 -0.00000000000E+00 -0.00000000000E+00 -0.16824377683E+04  0.16824377683E+04  0.25500000000E-02 0.  1.
    8880023    1    1    2    0    0  0.69692501610E+02  0.57498442768E+03  0.68860791462E+03  0.11151032254E+04  0.65864270000E+03 0.  0.
    8880022    1    1    2    0    0 -0.69692501610E+02 -0.57498442768E+03 -0.14081265741E+04  0.15302536517E+04  0.15294330000E+03 0.  0.
<mgrwt>
<rscale>  0 0.79734351E+03</rscale>
<asrwt>0</asrwt>
<pdfrwt beam="1">  1        2 0.14814140E+00 0.87708286E+03</pdfrwt>
<pdfrwt beam="2">  1       -2 0.25883658E+00 0.87708286E+03</pdfrwt>
<totfact> 0.15324817E+00</totfact>
</mgrwt>
</event>
<event>
 4    5  0.6615028E-008  0.8965759E+03  0.7818608E-02  0.9531551E-01
         -2   -1    0    0    0  501 -0.00000000000E+00  0.00000000000E+00  0.79544648887E+03  0.79544648888E+03  0.25500000000E-02 0.  1.
          2   -1    0    0  501    0  0.00000000000E+00 -0.00000000000E+00 -0.12555764758E+04  0.12555764758E+04  0.25500000000E-02 0. -1.
    8880023    1    1    2    0    0  0.36828578592E+03  0.48415253132E+03  0.40387741644E+03  0.98334392125E+03  0.65864270000E+03 0.  1.
    8880022    1    1    2    0    0 -0.36828578592E+03 -0.48415253132E+03 -0.86400740336E+03  0.10676790434E+04  0.15294330000E+03 0.  0.
<mgrwt>
<rscale>  0 0.81997136E+03</rscale>
<asrwt>0</asrwt>
<pdfrwt beam="1">  1        2 0.19316561E+00 0.89657588E+03</pdfrwt>
<pdfrwt beam="2">  1       -2 0.12237638E+00 0.89657588E+03</pdfrwt>
<totfact> 0.89048926E+00</totfact>
</mgrwt>
</event>
<event>
 4    5  0.6615028E-008  0.6912098E+03  0.7818608E-02  0.1003583E+00
         -2   -1    0    0    0  501 -0.00000000000E+00  0.00000000000E+00  0.75729940275E+03  0.75729940276E+03  0.25500000000E-02 0.  1.
          2   -1    0    0  501    0  0.00000000000E+00 -0.00000000000E+00 -0.43245687744E+03  0.43245687744E+03  0.25500000000E-02 0. -1.
    8880023    1    1    2    0    0 -0.72482985691E+02  0.19674101937E+03 -0.93446683099E+02  0.69749788585E+03  0.65864270000E+03 0. -1.
    8880022    1    1    2    0    0  0.72482985691E+02 -0.19674101937E+03  0.41828920842E+03  0.49225839435E+03  0.15294330000E+03 0.  0.
<mgrwt>
<rscale>  0 0.54106770E+03</rscale>
<asrwt>0</asrwt>
<pdfrwt beam="1">  1        2 0.66531827E-01 0.69120982E+03</pdfrwt>
<pdfrwt beam="2">  1       -2 0.11650760E+00 0.69120982E+03</pdfrwt>
<totfact> 0.42223349E+01</totfact>
</mgrwt>
</event>
<event>
 4    5  0.6615028E-008  0.9586380E+03  0.7818608E-02  0.9437793E-01
          2   -1    0    0  501    0  0.00000000000E+00  0.00000000000E+00  0.92589265609E+03  0.92589265609E+03  0.25500000000E-02 0. -1.
         -2   -1    0    0    0  501 -0.00000000000E+00 -0.00000000000E+00 -0.15194229839E+04  0.15194229839E+04  0.25500000000E-02 0.  1.
    8880023    1    1    2    0    0 -0.28056773652E+03 -0.63754087679E+03  0.54436681838E+03  0.11024164656E+04  0.65864270000E+03 0.  0.
    8880022    1    1    2    0    0  0.28056773652E+03  0.63754087679E+03 -0.11378971462E+04  0.13428991744E+04  0.15294330000E+03 0.  0.
<mgrwt>
<rscale>  0 0.89029645E+03</rscale>
<asrwt>0</asrwt>
<pdfrwt beam="1">  1        2 0.14244502E+00 0.95863801E+03</pdfrwt>
<pdfrwt beam="2">  1       -2 0.23375738E+00 0.95863801E+03</pdfrwt>
<totfact> 0.22818511E+00</totfact>
</mgrwt>
</event>
<event>
 4    5  0.6615028E-008  0.9422157E+03  0.7818608E-02  0.9461404E-01
          2   -1    0    0  501    0  0.00000000000E+00  0.00000000000E+00  0.13148437547E+04  0.13148437547E+04  0.25500000000E-02 0. -1.
         -2   -1    0    0    0  501 -0.00000000000E+00 -0.00000000000E+00 -0.68336709918E+03  0.68336709919E+03  0.25500000000E-02 0.  1.
    8880023    1    1    2    0    0 -0.63041397502E+03 -0.23777804669E+03  0.85472202735E+03  0.12721321196E+04  0.65864270000E+03 0. -1.
    8880022    1    1    2    0    0  0.63041397502E+03  0.23777804669E+03 -0.22324537181E+03  0.72607873432E+03  0.15294330000E+03 0.  0.
<mgrwt>
<rscale>  0 0.87190179E+03</rscale>
<asrwt>0</asrwt>
<pdfrwt beam="1">  1        2 0.20228365E+00 0.94221568E+03</pdfrwt>
<pdfrwt beam="2">  1       -2 0.10513340E+00 0.94221568E+03</pdfrwt>
<totfact> 0.11871938E+01</totfact>
</mgrwt>
</event>
<event>
 4    5  0.6615028E-008  0.6726978E+03  0.7818608E-02  0.1013798E+00
          2   -1    0    0  501    0  0.00000000000E+00  0.00000000000E+00  0.66773043422E+03  0.66773043423E+03  0.25500000000E-02 0. -1.
         -2   -1    0    0    0  501 -0.00000000000E+00 -0.00000000000E+00 -0.57318248918E+03  0.57318248919E+03  0.25500000000E-02 0.  1.
    8880023    1    1    2    0    0  0.61313889968E+02 -0.12228116332E+03  0.46476407893E+03  0.81763557367E+03  0.65864270000E+03 0. -1.
    8880022    1    1    2    0    0 -0.61313889968E+02  0.12228116332E+03 -0.37021613388E+03  0.42327734975E+03  0.15294330000E+03 0.  0.
<mgrwt>
<rscale>  0 0.49992523E+03</rscale>
<asrwt>0</asrwt>
<pdfrwt beam="1">  1        2 0.10272776E+00 0.67269776E+03</pdfrwt>
<pdfrwt beam="2">  1       -2 0.88181921E-01 0.67269776E+03</pdfrwt>
<totfact> 0.49073304E+01</totfact>
</mgrwt>
</event>
<event>
 4    5  0.6615028E-008  0.1165406E+04  0.7818608E-02  0.9191507E-01
          2   -1    0    0  501    0  0.00000000000E+00  0.00000000000E+00  0.33200945258E+04  0.33200945258E+04  0.25500000000E-02 0. -1.
         -2   -1    0    0    0  501 -0.00000000000E+00 -0.00000000000E+00 -0.10162652698E+04  0.10162652698E+04  0.25500000000E-02 0.  1.
    8880023    1    1    2    0    0  0.57027465465E+03 -0.77404560712E+03  0.29473340318E+04  0.31693765767E+04  0.65864270000E+03 0. -1.
    8880022    1    1    2    0    0 -0.57027465465E+03  0.77404560712E+03 -0.64350477583E+03  0.11669832189E+04  0.15294330000E+03 0.  0.
<mgrwt>
<rscale>  0 0.11141524E+04</rscale>
<asrwt>0</asrwt>
<pdfrwt beam="1">  1        2 0.51078377E+00 0.11654055E+04</pdfrwt>
<pdfrwt beam="2">  1       -2 0.15634850E+00 0.11654055E+04</pdfrwt>
<totfact> 0.28842516E-01</totfact>
</mgrwt>
</event>
<event>
 4    5  0.6615028E-008  0.1064265E+04  0.7818608E-02  0.9301926E-01
          2   -1    0    0  501    0  0.00000000000E+00  0.00000000000E+00  0.21725997929E+04  0.21725997929E+04  0.25500000000E-02 0. -1.
         -2   -1    0    0    0  501 -0.00000000000E+00 -0.00000000000E+00 -0.14499307187E+04  0.14499307187E+04  0.25500000000E-02 0.  1.
    8880023    1    1    2    0    0 -0.73411557833E+03  0.39990483148E+03  0.18956910517E+04  0.21740065148E+04  0.65864270000E+03 0.  0.
    8880022    1    1    2    0    0  0.73411557833E+03 -0.39990483148E+03 -0.11730219775E+04  0.14485239968E+04  0.15294330000E+03 0.  0.
<mgrwt>
<rscale>  0 0.10060570E+04</rscale>
<asrwt>0</asrwt>
<pdfrwt beam="1">  1        2 0.33424612E+00 0.10642649E+04</pdfrwt>
<pdfrwt beam="2">  1       -2 0.22306627E+00 0.10642649E+04</pdfrwt>
<totfact> 0.50187521E-01</totfact>
</mgrwt>
</event>
<event>
 4    5  0.6615028E-008  0.1389248E+04  0.7818608E-02  0.8992083E-01
         -2   -1    0    0    0  501 -0.00000000000E+00  0.00000000000E+00  0.74374753984E+03  0.74374753985E+03  0.25500000000E-02 0.  1.
          2   -1    0    0  501    0  0.00000000000E+00 -0.00000000000E+00 -0.36455175563E+04  0.36455175564E+04  0.25500000000E-02 0. -1.
    8880023    1    1    2    0    0 -0.11566925624E+04 -0.39782140258E+03 -0.17937154121E+03  0.14007797501E+04  0.65864270000E+03 0.  0.
    8880022    1    1    2    0    0  0.11566925624E+04  0.39782140258E+03 -0.27223984753E+04  0.29884853461E+04  0.15294330000E+03 0.  0.
<mgrwt>
<rscale>  0 0.13483439E+04</rscale>
<asrwt>0</asrwt>
<pdfrwt beam="1">  1        2 0.56084884E+00 0.13892479E+04</pdfrwt>
<pdfrwt beam="2">  1       -2 0.11442270E+00 0.13892479E+04</pdfrwt>
<totfact> 0.37246917E-01</totfact>
</mgrwt>
</event>
<event>
 4    5  0.6615028E-008  0.9242020E+03  0.7818608E-02  0.9488246E-01
          2   -1    0    0  501    0  0.00000000000E+00  0.00000000000E+00  0.17457653540E+04  0.17457653541E+04  0.25500000000E-02 0. -1.
         -2   -1    0    0    0  501 -0.00000000000E+00 -0.00000000000E+00 -0.75073664726E+03  0.75073664727E+03  0.25500000000E-02 0.  1.
    8880023    1    1    2    0    0  0.11136684661E+02 -0.64824006806E+03  0.14287538845E+04  0.17016130818E+04  0.65864270000E+03 0. -1.
    8880022    1    1    2    0    0 -0.11136684661E+02  0.64824006806E+03 -0.43372517767E+03  0.79488891950E+03  0.15294330000E+03 0.  0.
<mgrwt>
<rscale>  0 0.85155979E+03</rscale>
<asrwt>0</asrwt>
<pdfrwt beam="1">  1        2 0.26857928E+00 0.92420204E+03</pdfrwt>
<pdfrwt beam="2">  1       -2 0.11549795E+00 0.92420204E+03</pdfrwt>
<totfact> 0.54257597E+00</totfact>
</mgrwt>
</event>
<event>
 4    5  0.6615028E-008  0.1031061E+04  0.7818608E-02  0.9342002E-01
         -2   -1    0    0    0  501 -0.00000000000E+00  0.00000000000E+00  0.51168502271E+03  0.51168502271E+03  0.25500000000E-02 0.  1.
          2   -1    0    0  501    0  0.00000000000E+00 -0.00000000000E+00 -0.31943614251E+04  0.31943614251E+04  0.25500000000E-02 0. -1.
    8880023    1    1    2    0    0  0.60482500608E+03 -0.51328741179E+03 -0.27081289255E+04  0.28977663360E+04  0.65864270000E+03 0.  0.
    8880022    1    1    2    0    0 -0.60482500608E+03  0.51328741179E+03  0.25452523100E+02  0.80828011174E+03  0.15294330000E+03 0.  0.
<mgrwt>
<rscale>  0 0.97006311E+03</rscale>
<asrwt>0</asrwt>
<pdfrwt beam="1">  1        2 0.49144021E+00 0.10310613E+04</pdfrwt>
<pdfrwt beam="2">  1       -2 0.78720775E-01 0.10310613E+04</pdfrwt>
<totfact> 0.19144946E+00</totfact>
</mgrwt>
</event>
<event>
 4    5  0.6615028E-008  0.1699815E+04  0.7818608E-02  0.8780078E-01
          2   -1    0    0  501    0  0.00000000000E+00  0.00000000000E+00  0.18021522110E+04  0.18021522110E+04  0.25500000000E-02 0. -1.
         -2   -1    0    0    0  501 -0.00000000000E+00 -0.00000000000E+00 -0.19168160016E+04  0.19168160016E+04  0.25500000000E-02 0.  1.
    8880023    1    1    2    0    0  0.12842172519E+04  0.89796913346E+03  0.82074594963E+03  0.18875901660E+04  0.65864270000E+03 0.  1.
    8880022    1    1    2    0    0 -0.12842172519E+04 -0.89796913346E+03 -0.93540974025E+03  0.18313780467E+04  0.15294330000E+03 0.  0.
<mgrwt>
<rscale>  0 0.16675732E+04</rscale>
<asrwt>0</asrwt>
<pdfrwt beam="1">  1        2 0.27725419E+00 0.16998155E+04</pdfrwt>
<pdfrwt beam="2">  1       -2 0.29489477E+00 0.16998155E+04</pdfrwt>
<totfact> 0.27005300E-01</totfact>
</mgrwt>
</event>
<event>
 4    5  0.6615028E-008  0.6877965E+03  0.7818608E-02  0.1005218E+00
          2   -1    0    0  501    0  0.00000000000E+00  0.00000000000E+00  0.51620475599E+03  0.51620475600E+03  0.25500000000E-02 0. -1.
         -2   -1    0    0    0  501 -0.00000000000E+00 -0.00000000000E+00 -0.44246817164E+03  0.44246817165E+03  0.25500000000E-02 0.  1.
    8880023    1    1    2    0    0 -0.19809739274E+03  0.33441843378E+01  0.13517072467E+03  0.70095298819E+03  0.65864270000E+03 0. -1.
    8880022    1    1    2    0    0  0.19809739274E+03 -0.33441843378E+01 -0.61434140322E+02  0.25771993945E+03  0.15294330000E+03 0.  0.
<mgrwt>
<rscale>  0 0.53420274E+03</rscale>
<asrwt>0</asrwt>
<pdfrwt beam="1">  1        2 0.79416116E-01 0.68779646E+03</pdfrwt>
<pdfrwt beam="2">  1       -2 0.68072026E-01 0.68779646E+03</pdfrwt>
<totfact> 0.11886390E+02</totfact>
</mgrwt>
</event>
<event>
 4    5  0.6615028E-008  0.1226136E+04  0.7818608E-02  0.9132126E-01
         -2   -1    0    0    0  501 -0.00000000000E+00  0.00000000000E+00  0.40105202308E+03  0.40105202309E+03  0.25500000000E-02 0.  1.
          2   -1    0    0  501    0  0.00000000000E+00 -0.00000000000E+00 -0.39605796091E+04  0.39605796091E+04  0.25500000000E-02 0. -1.
    8880023    1    1    2    0    0  0.75604260038E+03 -0.70569003159E+03 -0.28374671376E+04  0.30910562592E+04  0.65864270000E+03 0.  0.
    8880022    1    1    2    0    0 -0.75604260038E+03  0.70569003159E+03 -0.72206044843E+03  0.12705753730E+04  0.15294330000E+03 0.  0.
<mgrwt>
<rscale>  0 0.11782325E+04</rscale>
<asrwt>0</asrwt>
<pdfrwt beam="1">  1        2 0.60931991E+00 0.12261358E+04</pdfrwt>
<pdfrwt beam="2">  1       -2 0.61700314E-01 0.12261358E+04</pdfrwt>
<totfact> 0.91118453E-01</totfact>
</mgrwt>
</event>
<event>
 4    5  0.6615028E-008  0.9671692E+03  0.7818608E-02  0.9425830E-01
          2   -1    0    0  501    0  0.00000000000E+00  0.00000000000E+00  0.14869253802E+04  0.14869253802E+04  0.25500000000E-02 0. -1.
         -2   -1    0    0    0  501 -0.00000000000E+00 -0.00000000000E+00 -0.11957354036E+04  0.11957354037E+04  0.25500000000E-02 0.  1.
    8880023    1    1    2    0    0 -0.58038904610E+03  0.40589981328E+03  0.11865890294E+04  0.15308199875E+04  0.65864270000E+03 0. -1.
    8880022    1    1    2    0    0  0.58038904610E+03 -0.40589981328E+03 -0.89539905284E+03  0.11518407963E+04  0.15294330000E+03 0.  0.
<mgrwt>
<rscale>  0 0.89980113E+03</rscale>
<asrwt>0</asrwt>
<pdfrwt beam="1">  1        2 0.22875775E+00 0.96716922E+03</pdfrwt>
<pdfrwt beam="2">  1       -2 0.18395929E+00 0.96716922E+03</pdfrwt>
<totfact> 0.21924946E+00</totfact>
</mgrwt>
</event>
<event>
 4    5  0.6615028E-008  0.8441924E+03  0.7818608E-02  0.9622325E-01
         -2   -1    0    0    0  501 -0.00000000000E+00  0.00000000000E+00  0.91536916740E+03  0.91536916741E+03  0.25500000000E-02 0.  1.
          2   -1    0    0  501    0  0.00000000000E+00 -0.00000000000E+00 -0.77220575060E+03  0.77220575061E+03  0.25500000000E-02 0. -1.
    8880023    1    1    2    0    0 -0.37647792425E+03  0.37029037749E+03 -0.38262323826E+03  0.92685561973E+03  0.65864270000E+03 0. -1.
    8880022    1    1    2    0    0  0.37647792425E+03 -0.37029037749E+03  0.52578665506E+03  0.76071929828E+03  0.15294330000E+03 0.  0.
<mgrwt>
<rscale>  0 0.75836009E+03</rscale>
<asrwt>0</asrwt>
<pdfrwt beam="1">  1        2 0.11880088E+00 0.84419239E+03</pdfrwt>
<pdfrwt beam="2">  1       -2 0.14082603E+00 0.84419239E+03</pdfrwt>
<totfact> 0.12841643E+01</totfact>
</mgrwt>
</event>
<event>
 4    5  0.6615028E-008  0.1093621E+04  0.7818608E-02  0.9268192E-01
         -2   -1    0    0    0  501 -0.00000000000E+00  0.00000000000E+00  0.90516862215E+03  0.90516862215E+03  0.25500000000E-02 0.  1.
          2   -1    0    0  501    0  0.00000000000E+00 -0.00000000000E+00 -0.25845757883E+04  0.25845757883E+04  0.25500000000E-02 0. -1.
    8880023    1    1    2    0    0  0.49877653859E+03  0.71653215086E+03 -0.22035650130E+04  0.24600214088E+04  0.65864270000E+03 0. -1.
    8880022    1    1    2    0    0 -0.49877653859E+03 -0.71653215086E+03  0.52415784690E+03  0.10297230017E+04  0.15294330000E+03 0.  0.
<mgrwt>
<rscale>  0 0.10376465E+04</rscale>
<asrwt>0</asrwt>
<pdfrwt beam="1">  1        2 0.39762704E+00 0.10936209E+04</pdfrwt>
<pdfrwt beam="2">  1       -2 0.13925671E+00 0.10936209E+04</pdfrwt>
<totfact> 0.11246297E+00</totfact>
</mgrwt>
</event>
<event>
 4    5  0.6615028E-008  0.7463390E+03  0.7818608E-02  0.9841852E-01
          2   -1    0    0  501    0  0.00000000000E+00  0.00000000000E+00  0.19106999574E+04  0.19106999574E+04  0.25500000000E-02 0. -1.
         -2   -1    0    0    0  501 -0.00000000000E+00 -0.00000000000E+00 -0.57946184440E+03  0.57946184441E+03  0.25500000000E-02 0.  1.
    8880023    1    1    2    0    0 -0.84640272682E+02  0.34065769316E+03  0.17621686610E+04  0.19137032778E+04  0.65864270000E+03 0.  0.
    8880022    1    1    2    0    0  0.84640272682E+02 -0.34065769316E+03 -0.43093054797E+03  0.57645852397E+03  0.15294330000E+03 0.  1.
<mgrwt>
<rscale>  0 0.63164062E+03</rscale>
<asrwt>0</asrwt>
<pdfrwt beam="1">  1        2 0.29395384E+00 0.74633896E+03</pdfrwt>
<pdfrwt beam="2">  1       -2 0.89147975E-01 0.74633896E+03</pdfrwt>
<totfact> 0.83668162E+00</totfact>
</mgrwt>
</event>
<event>
 4    5  0.6615028E-008  0.8333752E+03  0.7818608E-02  0.9642801E-01
          2   -1    0    0  501    0  0.00000000000E+00  0.00000000000E+00  0.23464953161E+04  0.23464953161E+04  0.25500000000E-02 0. -1.
         -2   -1    0    0    0  501 -0.00000000000E+00 -0.00000000000E+00 -0.26055569499E+03  0.26055569500E+03  0.25500000000E-02 0.  1.
    8880023    1    1    2    0    0  0.44276521078E+03  0.25428914836E+03  0.18402249841E+04  0.20201342038E+04  0.65864270000E+03 0. -1.
    8880022    1    1    2    0    0 -0.44276521078E+03 -0.25428914836E+03  0.24571463696E+03  0.58691680729E+03  0.15294330000E+03 0.  0.
<mgrwt>
<rscale>  0 0.74526976E+03</rscale>
<asrwt>0</asrwt>
<pdfrwt beam="1">  1        2 0.36099927E+00 0.83337519E+03</pdfrwt>
<pdfrwt beam="2">  1       -2 0.40085492E-01 0.83337519E+03</pdfrwt>
<totfact> 0.25851310E+01</totfact>
</mgrwt>
</event>
<event>
 4    5  0.6615028E-008  0.7768636E+03  0.7818608E-02  0.9763257E-01
          2   -1    0    0  501    0  0.00000000000E+00  0.00000000000E+00  0.23973583654E+04  0.23973583654E+04  0.25500000000E-02 0. -1.
         -2   -1    0    0    0  501 -0.00000000000E+00 -0.00000000000E+00 -0.62286319303E+03  0.62286319304E+03  0.25500000000E-02 0.  1.
    8880023    1    1    2    0    0 -0.41164294027E+03  0.16030724316E+02  0.22454841621E+04  0.23760715947E+04  0.65864270000E+03 0.  0.
    8880022    1    1    2    0    0  0.41164294027E+03 -0.16030724316E+02 -0.47098898973E+03  0.64414996380E+03  0.15294330000E+03 0.  0.
<mgrwt>
<rscale>  0 0.67372237E+03</rscale>
<asrwt>0</asrwt>
<pdfrwt beam="1">  1        2 0.36882436E+00 0.77686363E+03</pdfrwt>
<pdfrwt beam="2">  1       -2 0.95825107E-01 0.77686363E+03</pdfrwt>
<totfact> 0.37968618E+00</totfact>
</mgrwt>
</event>
<event>
 4    5  0.6615028E-008  0.7327678E+03  0.7818608E-02  0.9881538E-01
          2   -1    0    0  501    0  0.00000000000E+00  0.00000000000E+00  0.45686623920E+04  0.45686623920E+04  0.25500000000E-02 0. -1.
         -2   -1    0    0    0  501 -0.00000000000E+00 -0.00000000000E+00 -0.10465634907E+03  0.10465634910E+03  0.25500000000E-02 0.  1.
    8880023    1    1    2    0    0  0.17061626954E+03 -0.27208180687E+03  0.40977679637E+04  0.41627696203E+04  0.65864270000E+03 0. -1.
    8880022    1    1    2    0    0 -0.17061626954E+03  0.27208180687E+03  0.36623807921E+03  0.51054912079E+03  0.15294330000E+03 0.  0.
<mgrwt>
<rscale>  0 0.61164439E+03</rscale>
<asrwt>0</asrwt>
<pdfrwt beam="1">  1        2 0.70287121E+00 0.73276779E+03</pdfrwt>
<pdfrwt beam="2">  1       -2 0.16100975E-01 0.73276779E+03</pdfrwt>
<totfact> 0.37280896E+00</totfact>
</mgrwt>
</event>
<event>
 4    5  0.6615028E-008  0.7406474E+03  0.7818608E-02  0.9858065E-01
          2   -1    0    0  501    0  0.00000000000E+00  0.00000000000E+00  0.23627792406E+04  0.23627792406E+04  0.25500000000E-02 0. -1.
         -2   -1    0    0    0  501 -0.00000000000E+00 -0.00000000000E+00 -0.28296274719E+03  0.28296274721E+03  0.25500000000E-02 0.  1.
    8880023    1    1    2    0    0 -0.10388144712E+03  0.32242359397E+03  0.21442194021E+04  0.22685315470E+04  0.65864270000E+03 0.  0.
    8880022    1    1    2    0    0  0.10388144712E+03 -0.32242359397E+03 -0.64402908703E+02  0.37721044083E+03  0.15294330000E+03 0.  0.
<mgrwt>
<rscale>  0 0.62337379E+03</rscale>
<asrwt>0</asrwt>
<pdfrwt beam="1">  1        2 0.36350449E+00 0.74064738E+03</pdfrwt>
<pdfrwt beam="2">  1       -2 0.43532731E-01 0.74064738E+03</pdfrwt>
<totfact> 0.21799189E+01</totfact>
</mgrwt>
</event>
<event>
 4    5  0.8976322E-008  0.1172467E+04  0.7818608E-02  0.9184362E-01
          2   -1    0    0  501    0  0.00000000000E+00  0.00000000000E+00  0.32658655780E+04  0.32658655780E+04  0.25500000000E-02 0. -1.
         -2   -1    0    0    0  501 -0.00000000000E+00 -0.00000000000E+00 -0.17578724888E+04  0.17578724888E+04  0.25500000000E-02 0.  1.
    8880023    1    1    2    0    0  0.32009680664E+03 -0.91564564381E+03  0.30093960956E+04  0.32297281584E+04  0.65864270000E+03 0. -1.
    8880022    1    1    2    0    0 -0.32009680664E+03  0.91564564381E+03 -0.15014030065E+04  0.17940099084E+04  0.15294330000E+03 0.  0.
<mgrwt>
<rscale>  0 0.11216305E+04</rscale>
<asrwt>0</asrwt>
<pdfrwt beam="1">  1        2 0.50244086E+00 0.11724671E+04</pdfrwt>
<pdfrwt beam="2">  1       -2 0.27044192E+00 0.11724671E+04</pdfrwt>
<totfact> 0.56306952E-02</totfact>
</mgrwt>
</event>
<event>
 4    5  0.6615028E-008  0.1110821E+04  0.7818608E-02  0.9249103E-01
         -2   -1    0    0    0  501 -0.00000000000E+00  0.00000000000E+00  0.20425154937E+04  0.20425154937E+04  0.25500000000E-02 0.  1.
          2   -1    0    0  501    0  0.00000000000E+00 -0.00000000000E+00 -0.16057749695E+04  0.16057749695E+04  0.25500000000E-02 0. -1.
    8880023    1    1    2    0    0 -0.77582140637E+03 -0.44521341049E+03 -0.12871114574E+04  0.17001705636E+04  0.65864270000E+03 0.  0.
    8880022    1    1    2    0    0  0.77582140637E+03  0.44521341049E+03  0.17238519816E+04  0.19481198996E+04  0.15294330000E+03 0.  0.
<mgrwt>
<rscale>  0 0.10560670E+04</rscale>
<asrwt>0</asrwt>
<pdfrwt beam="1">  1        2 0.24704230E+00 0.11108213E+04</pdfrwt>
<pdfrwt beam="2">  1       -2 0.31423315E+00 0.11108213E+04</pdfrwt>
<totfact> 0.28480861E-01</totfact>
</mgrwt>
</event>
<event>
 4    5  0.6615028E-008  0.1012707E+04  0.7818608E-02  0.9365119E-01
         -2   -1    0    0    0  501 -0.00000000000E+00  0.00000000000E+00  0.19633981444E+04  0.19633981444E+04  0.25500000000E-02 0.  1.
          2   -1    0    0  501    0  0.00000000000E+00 -0.00000000000E+00 -0.66715819459E+03  0.66715819459E+03  0.25500000000E-02 0. -1.
    8880023    1    1    2    0    0  0.63362902519E+03  0.43621050358E+03  0.15095221362E+04  0.18177548324E+04  0.65864270000E+03 0.  1.
    8880022    1    1    2    0    0 -0.63362902519E+03 -0.43621050358E+03 -0.21328218638E+03  0.81280150654E+03  0.15294330000E+03 0.  0.
<mgrwt>
<rscale>  0 0.95002737E+03</rscale>
<asrwt>0</asrwt>
<pdfrwt beam="1">  1        2 0.10263972E+00 0.10127070E+04</pdfrwt>
<pdfrwt beam="2">  1       -2 0.30206125E+00 0.10127070E+04</pdfrwt>
<totfact> 0.13494378E+00</totfact>
</mgrwt>
</event>
<event>
 4    5  0.6615028E-008  0.1040231E+04  0.7818608E-02  0.9330719E-01
          2   -1    0    0  501    0  0.00000000000E+00  0.00000000000E+00  0.19473299340E+04  0.19473299340E+04  0.25500000000E-02 0. -1.
         -2   -1    0    0    0  501 -0.00000000000E+00 -0.00000000000E+00 -0.10613430094E+04  0.10613430094E+04  0.25500000000E-02 0.  1.
    8880023    1    1    2    0    0  0.22478106214E+03 -0.77313855571E+03  0.16088717096E+04  0.19158674632E+04  0.65864270000E+03 0. -1.
    8880022    1    1    2    0    0 -0.22478106214E+03  0.77313855571E+03 -0.72288478497E+03  0.10928054802E+04  0.15294330000E+03 0.  0.
<mgrwt>
<rscale>  0 0.98003381E+03</rscale>
<asrwt>0</asrwt>
<pdfrwt beam="1">  1        2 0.29958922E+00 0.10402307E+04</pdfrwt>
<pdfrwt beam="2">  1       -2 0.16328354E+00 0.10402307E+04</pdfrwt>
<totfact> 0.16884448E+00</totfact>
</mgrwt>
</event>
<event>
 4    5  0.6615028E-008  0.6671746E+03  0.7818608E-02  0.1017775E+00
          2   -1    0    0  501    0  0.00000000000E+00  0.00000000000E+00  0.11154509784E+04  0.11154509784E+04  0.25500000000E-02 0. -1.
         -2   -1    0    0    0  501 -0.00000000000E+00 -0.00000000000E+00 -0.18368983758E+03  0.18368983760E+03  0.25500000000E-02 0.  1.
    8880023    1    1    2    0    0 -0.73419867381E+02  0.76950036447E+02  0.88275095842E+03  0.11065131025E+04  0.65864270000E+03 0. -1.
    8880022    1    1    2    0    0  0.73419867381E+02 -0.76950036447E+02  0.49010182392E+02  0.19262771355E+03  0.15294330000E+03 0.  0.
<mgrwt>
<rscale>  0 0.48498266E+03</rscale>
<asrwt>0</asrwt>
<pdfrwt beam="1">  1        2 0.17160784E+00 0.66717463E+03</pdfrwt>
<pdfrwt beam="2">  1       -2 0.28259975E-01 0.66717463E+03</pdfrwt>
<totfact> 0.24775542E+02</totfact>
</mgrwt>
</event>
<event>
 4    5  0.6615028E-008  0.9458931E+03  0.7818608E-02  0.9456048E-01
         -2   -1    0    0    0  501 -0.00000000000E+00  0.00000000000E+00  0.43788772729E+03  0.43788772730E+03  0.25500000000E-02 0.  1.
          2   -1    0    0  501    0  0.00000000000E+00 -0.00000000000E+00 -0.20264407928E+04  0.20264407928E+04  0.25500000000E-02 0. -1.
    8880023    1    1    2    0    0 -0.67887591298E+03 -0.55729215849E+01 -0.14851274426E+04  0.17607717881E+04  0.65864270000E+03 0. -1.
    8880022    1    1    2    0    0  0.67887591298E+03  0.55729215849E+01 -0.10342562291E+03  0.70355673202E+03  0.15294330000E+03 0.  0.
<mgrwt>
<rscale>  0 0.87603270E+03</rscale>
<asrwt>0</asrwt>
<pdfrwt beam="1">  1        2 0.31176012E+00 0.94589311E+03</pdfrwt>
<pdfrwt beam="2">  1       -2 0.67367344E-01 0.94589311E+03</pdfrwt>
<totfact> 0.13176558E+01</totfact>
</mgrwt>
</event>
<event>
 4    5  0.6615028E-008  0.7403175E+03  0.7818608E-02  0.9859023E-01
         -2   -1    0    0    0  501 -0.00000000000E+00  0.00000000000E+00  0.30441998525E+03  0.30441998526E+03  0.25500000000E-02 0.  1.
          2   -1    0    0  501    0  0.00000000000E+00 -0.00000000000E+00 -0.15070414082E+04  0.15070414082E+04  0.25500000000E-02 0. -1.
    8880023    1    1    2    0    0 -0.30260329121E+03 -0.15063531617E+03 -0.12340916687E+04  0.14391150765E+04  0.65864270000E+03 0.  0.
    8880022    1    1    2    0    0  0.30260329121E+03  0.15063531617E+03  0.31470245829E+02  0.37234631691E+03  0.15294330000E+03 0.  0.
<mgrwt>
<rscale>  0 0.62288960E+03</rscale>
<asrwt>0</asrwt>
<pdfrwt beam="1">  1        2 0.23185252E+00 0.74031747E+03</pdfrwt>
<pdfrwt beam="2">  1       -2 0.46833845E-01 0.74031747E+03</pdfrwt>
<totfact> 0.55577668E+01</totfact>
</mgrwt>
</event>
<event>
 4    5  0.6615028E-008  0.8012640E+03  0.7818608E-02  0.9708070E-01
         -2   -1    0    0    0  501 -0.00000000000E+00  0.00000000000E+00  0.56825445313E+03  0.56825445313E+03  0.25500000000E-02 0.  1.
          2   -1    0    0  501    0  0.00000000000E+00 -0.00000000000E+00 -0.20957738035E+04  0.20957738035E+04  0.25500000000E-02 0. -1.
    8880023    1    1    2    0    0 -0.31306913585E+03  0.33196601392E+03 -0.18957044478E+04  0.20580863145E+04  0.65864270000E+03 0. -1.
    8880022    1    1    2    0    0  0.31306913585E+03 -0.33196601392E+03  0.36818509745E+03  0.60594194212E+03  0.15294330000E+03 0.  0.
<mgrwt>
<rscale>  0 0.70538348E+03</rscale>
<asrwt>0</asrwt>
<pdfrwt beam="1">  1        2 0.32242673E+00 0.80126395E+03</pdfrwt>
<pdfrwt beam="2">  1       -2 0.87423763E-01 0.80126395E+03</pdfrwt>
<totfact> 0.68750155E+00</totfact>
</mgrwt>
</event>
<event>
 4    5  0.6615028E-008  0.1224192E+04  0.7818608E-02  0.9133958E-01
         -2   -1    0    0    0  501 -0.00000000000E+00  0.00000000000E+00  0.64997429403E+03  0.64997429404E+03  0.25500000000E-02 0.  1.
          2   -1    0    0  501    0  0.00000000000E+00 -0.00000000000E+00 -0.21615857325E+04  0.21615857325E+04  0.25500000000E-02 0. -1.
    8880023    1    1    2    0    0  0.97513124235E+03 -0.33757097330E+03 -0.12201828216E+04  0.17284361215E+04  0.65864270000E+03 0.  0.
    8880022    1    1    2    0    0 -0.97513124235E+03  0.33757097330E+03 -0.29142861683E+03  0.10831239050E+04  0.15294330000E+03 0.  0.
<mgrwt>
<rscale>  0 0.11761887E+04</rscale>
<asrwt>0</asrwt>
<pdfrwt beam="1">  1        2 0.33255165E+00 0.12241917E+04</pdfrwt>
<pdfrwt beam="2">  1       -2 0.99996046E-01 0.12241917E+04</pdfrwt>
<totfact> 0.43827578E+00</totfact>
</mgrwt>
</event>
<event>
 4    5  0.6615028E-008  0.8226176E+03  0.7818608E-02  0.9663871E-01
          2   -1    0    0  501    0  0.00000000000E+00  0.00000000000E+00  0.24838067197E+04  0.24838067197E+04  0.25500000000E-02 0. -1.
         -2   -1    0    0    0  501 -0.00000000000E+00 -0.00000000000E+00 -0.48673954566E+03  0.48673954566E+03  0.25500000000E-02 0.  1.
    8880023    1    1    2    0    0 -0.47046864851E+03  0.14679514077E+03  0.22501481224E+04  0.23958018161E+04  0.65864270000E+03 0. -1.
    8880022    1    1    2    0    0  0.47046864851E+03 -0.14679514077E+03 -0.25308094838E+03  0.57474444933E+03  0.15294330000E+03 0.  0.
<mgrwt>
<rscale>  0 0.73209270E+03</rscale>
<asrwt>0</asrwt>
<pdfrwt beam="1">  1        2 0.38212411E+00 0.82261763E+03</pdfrwt>
<pdfrwt beam="2">  1       -2 0.74883008E-01 0.82261763E+03</pdfrwt>
<totfact> 0.59076666E+00</totfact>
</mgrwt>
</event>
<event>
 4    5  0.6615028E-008  0.8821837E+03  0.7818608E-02  0.9555260E-01
          2   -1    0    0  501    0  0.00000000000E+00  0.00000000000E+00  0.23892479768E+04  0.23892479768E+04  0.25500000000E-02 0. -1.
         -2   -1    0    0    0  501 -0.00000000000E+00 -0.00000000000E+00 -0.98445045586E+03  0.98445045587E+03  0.25500000000E-02 0.  1.
    8880023    1    1    2    0    0  0.58396268292E+03  0.58527040933E+02  0.22019294669E+04  0.23720753389E+04  0.65864270000E+03 0. -1.
    8880022    1    1    2    0    0 -0.58396268292E+03 -0.58527040933E+02 -0.79713194604E+03  0.10016230938E+04  0.15294330000E+03 0.  0.
<mgrwt>
<rscale>  0 0.80329503E+03</rscale>
<asrwt>0</asrwt>
<pdfrwt beam="1">  1        2 0.36757661E+00 0.88218367E+03</pdfrwt>
<pdfrwt beam="2">  1       -2 0.15145392E+00 0.88218367E+03</pdfrwt>
<totfact> 0.12047658E+00</totfact>
</mgrwt>
</event>
<event>
 4    5  0.6615028E-008  0.6876749E+03  0.7818608E-02  0.1005278E+00
          2   -1    0    0  501    0  0.00000000000E+00  0.00000000000E+00  0.47634089583E+03  0.47634089584E+03  0.25500000000E-02 0. -1.
         -2   -1    0    0    0  501 -0.00000000000E+00 -0.00000000000E+00 -0.73070307957E+03  0.73070307957E+03  0.25500000000E-02 0.  1.
    8880023    1    1    2    0    0 -0.92336466101E+02  0.17481571899E+03  0.17556805651E+03  0.70973298310E+03  0.65864270000E+03 0. -1.
    8880022    1    1    2    0    0  0.92336466101E+02 -0.17481571899E+03 -0.42993024024E+03  0.49731099231E+03  0.15294330000E+03 0. -1.
<mgrwt>
<rscale>  0 0.53395352E+03</rscale>
<asrwt>0</asrwt>
<pdfrwt beam="1">  1        2 0.73283215E-01 0.68767490E+03</pdfrwt>
<pdfrwt beam="2">  1       -2 0.11241586E+00 0.68767490E+03</pdfrwt>
<totfact> 0.41266245E+01</totfact>
</mgrwt>
</event>
<event>
 4    5  0.6615028E-008  0.9504761E+03  0.7818608E-02  0.9449429E-01
         -2   -1    0    0    0  501 -0.00000000000E+00  0.00000000000E+00  0.15863050328E+04  0.15863050328E+04  0.25500000000E-02 0.  1.
          2   -1    0    0  501    0  0.00000000000E+00 -0.00000000000E+00 -0.82526210153E+03  0.82526210153E+03  0.25500000000E-02 0. -1.
    8880023    1    1    2    0    0 -0.43078573438E+03  0.53293361904E+03 -0.41876539586E+03  0.10386381729E+04  0.65864270000E+03 0. -1.
    8880022    1    1    2    0    0  0.43078573438E+03 -0.53293361904E+03  0.11798083272E+04  0.13729289614E+04  0.15294330000E+03 0.  0.
<mgrwt>
<rscale>  0 0.88117110E+03</rscale>
<asrwt>0</asrwt>
<pdfrwt beam="1">  1        2 0.12696340E+00 0.95047609E+03</pdfrwt>
<pdfrwt beam="2">  1       -2 0.24404693E+00 0.95047609E+03</pdfrwt>
<totfact> 0.23162434E+00</totfact>
</mgrwt>
</event>
<event>
 4    5  0.7922962E-008  0.1168596E+04  0.7818608E-02  0.9188271E-01
         -2   -1    0    0    0  501 -0.00000000000E+00  0.00000000000E+00  0.14857793753E+04  0.14857793753E+04  0.25500000000E-02 0.  1.
          2   -1    0    0  501    0  0.00000000000E+00 -0.00000000000E+00 -0.27153834441E+04  0.27153834441E+04  0.25500000000E-02 0. -1.
    8880023    1    1    2    0    0 -0.54513392818E+03  0.79663989550E+03 -0.24041830827E+04  0.26731465774E+04  0.65864270000E+03 0. -1.
    8880022    1    1    2    0    0  0.54513392818E+03 -0.79663989550E+03  0.11745790140E+04  0.15280162420E+04  0.15294330000E+03 0.  0.
<mgrwt>
<rscale>  0 0.11175319E+04</rscale>
<asrwt>0</asrwt>
<pdfrwt beam="1">  1        2 0.41775130E+00 0.11685959E+04</pdfrwt>
<pdfrwt beam="2">  1       -2 0.22858144E+00 0.11685959E+04</pdfrwt>
<totfact> 0.22326164E-01</totfact>
</mgrwt>
</event>
<event>
 4    5  0.6615028E-008  0.1667491E+04  0.7818608E-02  0.8799610E-01
          2   -1    0    0  501    0  0.00000000000E+00  0.00000000000E+00  0.29551344539E+04  0.29551344539E+04  0.25500000000E-02 0. -1.
         -2   -1    0    0    0  501 -0.00000000000E+00 -0.00000000000E+00 -0.20187183309E+04  0.20187183309E+04  0.25500000000E-02 0.  1.
    8880023    1    1    2    0    0  0.13868765714E+04 -0.65060645104E+03 -0.13990204411E+04  0.21766450742E+04  0.65864270000E+03 0.  0.
    8880022    1    1    2    0    0 -0.13868765714E+04  0.65060645104E+03  0.23354365641E+04  0.27972077106E+04  0.15294330000E+03 0.  0.
<mgrwt>
<rscale>  0 0.16345326E+04</rscale>
<asrwt>0</asrwt>
<pdfrwt beam="1">  1        2 0.45463607E+00 0.16674908E+04</pdfrwt>
<pdfrwt beam="2">  1       -2 0.31057205E+00 0.16674908E+04</pdfrwt>
<totfact> 0.46750193E-02</totfact>
</mgrwt>
</event>
<event>
 4    5  0.6615028E-008  0.1177562E+04  0.7818608E-02  0.9179248E-01
         -2   -1    0    0    0  501 -0.00000000000E+00  0.00000000000E+00  0.14122266442E+04  0.14122266442E+04  0.25500000000E-02 0.  1.
          2   -1    0    0  501    0  0.00000000000E+00 -0.00000000000E+00 -0.21870726221E+04  0.21870726221E+04  0.25500000000E-02 0. -1.
    8880023    1    1    2    0    0  0.86508202412E+03  0.45218873529E+03 -0.18157283534E+04  0.21641444546E+04  0.65864270000E+03 0. -1.
    8880022    1    1    2    0    0 -0.86508202412E+03 -0.45218873529E+03  0.10408823755E+04  0.14351548116E+04  0.15294330000E+03 0.  0.
<mgrwt>
<rscale>  0 0.11270209E+04</rscale>
<asrwt>0</asrwt>
<pdfrwt beam="1">  1        2 0.33647271E+00 0.11775618E+04</pdfrwt>
<pdfrwt beam="2">  1       -2 0.21726564E+00 0.11775618E+04</pdfrwt>
<totfact> 0.52715975E-01</totfact>
</mgrwt>
</event>
<event>
 4    5  0.6615028E-008  0.8099745E+03  0.7818608E-02  0.9689630E-01
         -2   -1    0    0    0  501 -0.00000000000E+00  0.00000000000E+00  0.10732367142E+04  0.10732367142E+04  0.25500000000E-02 0.  1.
          2   -1    0    0  501    0  0.00000000000E+00 -0.00000000000E+00 -0.41102806166E+03  0.41102806167E+03  0.25500000000E-02 0. -1.
    8880023    1    1    2    0    0 -0.43965680582E+03 -0.17014805442E+03  0.27521913406E+03  0.85545557766E+03  0.65864270000E+03 0. -1.
    8880022    1    1    2    0    0  0.43965680582E+03  0.17014805442E+03  0.38698951847E+03  0.62880919821E+03  0.15294330000E+03 0.  0.
<mgrwt>
<rscale>  0 0.71637582E+03</rscale>
<asrwt>0</asrwt>
<pdfrwt beam="1">  1        2 0.63235088E-01 0.80997449E+03</pdfrwt>
<pdfrwt beam="2">  1       -2 0.16511334E+00 0.80997449E+03</pdfrwt>
<totfact> 0.17981750E+01</totfact>
</mgrwt>
</event>
<event>
 4    5  0.6615028E-008  0.7526825E+03  0.7818608E-02  0.9824434E-01
          2   -1    0    0  501    0  0.00000000000E+00  0.00000000000E+00  0.23506341453E+04  0.23506341453E+04  0.25500000000E-02 0. -1.
         -2   -1    0    0    0  501 -0.00000000000E+00 -0.00000000000E+00 -0.75709067191E+03  0.75709067192E+03  0.25500000000E-02 0.  1.
    8880023    1    1    2    0    0  0.26934568056E+03 -0.24530303983E+03  0.22327811767E+04  0.23562348496E+04  0.65864270000E+03 0. -1.
    8880022    1    1    2    0    0 -0.26934568056E+03  0.24530303983E+03 -0.63923770337E+03  0.75148996761E+03  0.15294330000E+03 0.  0.
<mgrwt>
<rscale>  0 0.64067606E+03</rscale>
<asrwt>0</asrwt>
<pdfrwt beam="1">  1        2 0.36163602E+00 0.75268246E+03</pdfrwt>
<pdfrwt beam="2">  1       -2 0.11647549E+00 0.75268246E+03</pdfrwt>
<totfact> 0.25353347E+00</totfact>
</mgrwt>
</event>
<event>
 4    5  0.6615028E-008  0.6677658E+03  0.7818608E-02  0.1017318E+00
          2   -1    0    0  501    0  0.00000000000E+00  0.00000000000E+00  0.14897630616E+04  0.14897630616E+04  0.25500000000E-02 0. -1.
         -2   -1    0    0    0  501 -0.00000000000E+00 -0.00000000000E+00 -0.12743222241E+04  0.12743222242E+04  0.25500000000E-02 0.  1.
    8880023    1    1    2    0    0  0.26039221734E+02 -0.10687783761E+03  0.14071606110E+04  0.15575660836E+04  0.65864270000E+03 0. -1.
    8880022    1    1    2    0    0 -0.26039221734E+02  0.10687783761E+03 -0.11917197736E+04  0.12065192021E+04  0.15294330000E+03 0.  0.
<mgrwt>
<rscale>  0 0.48667080E+03</rscale>
<asrwt>0</asrwt>
<pdfrwt beam="1">  1        2 0.22919432E+00 0.66776577E+03</pdfrwt>
<pdfrwt beam="2">  1       -2 0.19604957E+00 0.66776577E+03</pdfrwt>
<totfact> 0.19033468E+00</totfact>
</mgrwt>
</event>
<event>
 4    5  0.6679420E-008  0.1441340E+04  0.7818608E-02  0.8952209E-01
         -2   -1    0    0    0  501 -0.00000000000E+00  0.00000000000E+00  0.15995694899E+04  0.15995694899E+04  0.25500000000E-02 0.  1.
          2   -1    0    0  501    0  0.00000000000E+00 -0.00000000000E+00 -0.23177895449E+04  0.23177895449E+04  0.25500000000E-02 0. -1.
    8880023    1    1    2    0    0  0.10344929442E+04  0.75728073109E+03 -0.17481746227E+04  0.22657392778E+04  0.65864270000E+03 0. -1.
    8880022    1    1    2    0    0 -0.10344929442E+04 -0.75728073109E+03  0.10299545677E+04  0.16516197570E+04  0.15294330000E+03 0.  0.
<mgrwt>
<rscale>  0 0.14022261E+04</rscale>
<asrwt>0</asrwt>
<pdfrwt beam="1">  1        2 0.35658301E+00 0.14413396E+04</pdfrwt>
<pdfrwt beam="2">  1       -2 0.24608761E+00 0.14413396E+04</pdfrwt>
<totfact> 0.28405898E-01</totfact>
</mgrwt>
</event>
<event>
 4    5  0.6615028E-008  0.1020660E+04  0.7818608E-02  0.9355014E-01
          2   -1    0    0  501    0  0.00000000000E+00  0.00000000000E+00  0.17096075420E+04  0.17096075420E+04  0.25500000000E-02 0. -1.
         -2   -1    0    0    0  501 -0.00000000000E+00 -0.00000000000E+00 -0.11309218101E+04  0.11309218102E+04  0.25500000000E-02 0.  1.
    8880023    1    1    2    0    0 -0.73364135643E+02  0.77624334401E+03  0.13771124129E+04  0.17141134238E+04  0.65864270000E+03 0.  0.
    8880022    1    1    2    0    0  0.73364135643E+02 -0.77624334401E+03 -0.79842668110E+03  0.11264159283E+04  0.15294330000E+03 0.  0.
<mgrwt>
<rscale>  0 0.95872175E+03</rscale>
<asrwt>0</asrwt>
<pdfrwt beam="1">  1        2 0.26301654E+00 0.10206597E+04</pdfrwt>
<pdfrwt beam="2">  1       -2 0.17398797E+00 0.10206597E+04</pdfrwt>
<totfact> 0.19185628E+00</totfact>
</mgrwt>
</event>
<event>
 4    5  0.6615028E-008  0.7390476E+03  0.7818608E-02  0.9862730E-01
         -2   -1    0    0    0  501 -0.00000000000E+00  0.00000000000E+00  0.28481678909E+03  0.28481678910E+03  0.25500000000E-02 0.  1.
          2   -1    0    0  501    0  0.00000000000E+00 -0.00000000000E+00 -0.27030228257E+04  0.27030228257E+04  0.25500000000E-02 0. -1.
    8880023    1    1    2    0    0  0.25206788498E+03  0.22100436814E+03 -0.25029220126E+04  0.26097528536E+04  0.65864270000E+03 0. -1.
    8880022    1    1    2    0    0 -0.25206788498E+03 -0.22100436814E+03  0.84715976016E+02  0.37808676119E+03  0.15294330000E+03 0.  0.
<mgrwt>
<rscale>  0 0.62102046E+03</rscale>
<asrwt>0</asrwt>
<pdfrwt beam="1">  1        2 0.41584965E+00 0.73904760E+03</pdfrwt>
<pdfrwt beam="2">  1       -2 0.43817969E-01 0.73904760E+03</pdfrwt>
<totfact> 0.13777885E+01</totfact>
</mgrwt>
</event>
<event>
 4    5  0.6615028E-008  0.8899387E+03  0.7818608E-02  0.9542380E-01
         -2   -1    0    0    0  501 -0.00000000000E+00  0.00000000000E+00  0.47327134740E+03  0.47327134741E+03  0.25500000000E-02 0.  1.
          2   -1    0    0  501    0  0.00000000000E+00 -0.00000000000E+00 -0.35066867766E+04  0.35066867766E+04  0.25500000000E-02 0. -1.
    8880023    1    1    2    0    0 -0.22523276621E+03  0.55448249213E+03 -0.32151670981E+04  0.33360590984E+04  0.65864270000E+03 0. -1.
    8880022    1    1    2    0    0  0.22523276621E+03 -0.55448249213E+03  0.18175166888E+03  0.64389902563E+03  0.15294330000E+03 0.  0.
<mgrwt>
<rscale>  0 0.81230133E+03</rscale>
<asrwt>0</asrwt>
<pdfrwt beam="1">  1        2 0.53949026E+00 0.88993867E+03</pdfrwt>
<pdfrwt beam="2">  1       -2 0.72810979E-01 0.88993867E+03</pdfrwt>
<totfact> 0.14489873E+00</totfact>
</mgrwt>
</event>
<event>
 4    5  0.6615028E-008  0.7433064E+03  0.7818608E-02  0.9850418E-01
         -2   -1    0    0    0  501 -0.00000000000E+00  0.00000000000E+00  0.64469806723E+03  0.64469806723E+03  0.25500000000E-02 0.  1.
          2   -1    0    0  501    0  0.00000000000E+00 -0.00000000000E+00 -0.14137437906E+04  0.14137437906E+04  0.25500000000E-02 0. -1.
    8880023    1    1    2    0    0 -0.49575904309E+01  0.34448447933E+03 -0.12457866336E+04  0.14506855886E+04  0.65864270000E+03 0.  0.
    8880022    1    1    2    0    0  0.49575904309E+01 -0.34448447933E+03  0.47674091028E+03  0.60775626920E+03  0.15294330000E+03 0.  0.
<mgrwt>
<rscale>  0 0.62725584E+03</rscale>
<asrwt>0</asrwt>
<pdfrwt beam="1">  1        2 0.21749904E+00 0.74330636E+03</pdfrwt>
<pdfrwt beam="2">  1       -2 0.99184318E-01 0.74330636E+03</pdfrwt>
<totfact> 0.12253213E+01</totfact>
</mgrwt>
</event>
<event>
 4    5  0.6615028E-008  0.6755846E+03  0.7818608E-02  0.1011940E+00
         -2   -1    0    0    0  501 -0.00000000000E+00  0.00000000000E+00  0.53133067923E+03  0.53133067923E+03  0.25500000000E-02 0.  1.
          2   -1    0    0  501    0  0.00000000000E+00 -0.00000000000E+00 -0.10968778308E+04  0.10968778308E+04  0.25500000000E-02 0. -1.
    8880023    1    1    2    0    0 -0.65194386653E+02 -0.13547688852E+03 -0.96314169617E+03  0.11764592762E+04  0.65864270000E+03 0. -1.
    8880022    1    1    2    0    0  0.65194386653E+02  0.13547688852E+03  0.39759454460E+03  0.45174923385E+03  0.15294330000E+03 0.  0.
<mgrwt>
<rscale>  0 0.50710715E+03</rscale>
<asrwt>0</asrwt>
<pdfrwt beam="1">  1        2 0.16875044E+00 0.67558456E+03</pdfrwt>
<pdfrwt beam="2">  1       -2 0.81743181E-01 0.67558456E+03</pdfrwt>
<totfact> 0.29544800E+01</totfact>
</mgrwt>
</event>
<event>
 4    5  0.6615028E-008  0.6779379E+03  0.7818608E-02  0.1010515E+00
          2   -1    0    0  501    0  0.00000000000E+00  0.00000000000E+00  0.84138303832E+03  0.84138303833E+03  0.25500000000E-02 0. -1.
         -2   -1    0    0    0  501 -0.00000000000E+00 -0.00000000000E+00 -0.27444255793E+03  0.27444255794E+03  0.25500000000E-02 0.  1.
    8880023    1    1    2    0    0  0.69393838229E+02  0.14482421287E+03  0.58207901555E+03  0.89354112610E+03  0.65864270000E+03 0. -1.
    8880022    1    1    2    0    0 -0.69393838229E+02 -0.14482421287E+03 -0.15138535160E+02  0.22228447017E+03  0.15294330000E+03 0. -1.
<mgrwt>
<rscale>  0 0.51270473E+03</rscale>
<asrwt>0</asrwt>
<pdfrwt beam="1">  1        2 0.12944354E+00 0.67793788E+03</pdfrwt>
<pdfrwt beam="2">  1       -2 0.42221932E-01 0.67793788E+03</pdfrwt>
<totfact> 0.17361805E+02</totfact>
</mgrwt>
</event>
<event>
 4    5  0.6615028E-008  0.9793374E+03  0.7818608E-02  0.9409104E-01
          2   -1    0    0  501    0  0.00000000000E+00  0.00000000000E+00  0.21781279541E+04  0.21781279541E+04  0.25500000000E-02 0. -1.
         -2   -1    0    0    0  501 -0.00000000000E+00 -0.00000000000E+00 -0.75622007167E+03  0.75622007167E+03  0.25500000000E-02 0.  1.
    8880023    1    1    2    0    0 -0.62100116583E+03  0.37369653654E+03  0.18395447450E+04  0.20839929521E+04  0.65864270000E+03 0.  0.
    8880022    1    1    2    0    0  0.62100116583E+03 -0.37369653654E+03 -0.41763686254E+03  0.85035507369E+03  0.15294330000E+03 0.  0.
<mgrwt>
<rscale>  0 0.91330212E+03</rscale>
<asrwt>0</asrwt>
<pdfrwt beam="1">  1        2 0.33509661E+00 0.97933741E+03</pdfrwt>
<pdfrwt beam="2">  1       -2 0.11634155E+00 0.97933741E+03</pdfrwt>
<totfact> 0.30587614E+00</totfact>
</mgrwt>
</event>
<event>
 4    5  0.6615028E-008  0.1881119E+04  0.7818608E-02  0.8678943E-01
         -2   -1    0    0    0  501 -0.00000000000E+00  0.00000000000E+00  0.21370049055E+04  0.21370049055E+04  0.25500000000E-02 0.  1.
          2   -1    0    0  501    0  0.00000000000E+00 -0.00000000000E+00 -0.18038503402E+04  0.18038503402E+04  0.25500000000E-02 0. -1.
    8880023    1    1    2    0    0  0.13909758199E+04  0.10816587818E+04 -0.55558423250E+03  0.19614493359E+04  0.65864270000E+03 0.  0.
    8880022    1    1    2    0    0 -0.13909758199E+04 -0.10816587818E+04  0.88873879783E+03  0.19794059097E+04  0.15294330000E+03 0.  0.
<mgrwt>
<rscale>  0 0.18523537E+04</rscale>
<asrwt>0</asrwt>
<pdfrwt beam="1">  1        2 0.27751544E+00 0.18811193E+04</pdfrwt>
<pdfrwt beam="2">  1       -2 0.32876998E+00 0.18811193E+04</pdfrwt>
<totfact> 0.16361540E-01</totfact>
</mgrwt>
</event>
<event>
 4    5  0.6615028E-008  0.7772670E+03  0.7818608E-02  0.9762296E-01
          2   -1    0    0  501    0  0.00000000000E+00  0.00000000000E+00  0.27427214872E+04  0.27427214872E+04  0.25500000000E-02 0. -1.
         -2   -1    0    0    0  501 -0.00000000000E+00 -0.00000000000E+00 -0.33854256067E+03  0.33854256068E+03  0.25500000000E-02 0.  1.
    8880023    1    1    2    0    0  0.75909522519E+02  0.40567422877E+03  0.25108289504E+04  0.26283846864E+04  0.65864270000E+03 0. -1.
    8880022    1    1    2    0    0 -0.75909522519E+02 -0.40567422877E+03 -0.10665002379E+03  0.45287936152E+03  0.15294330000E+03 0.  0.
<mgrwt>
<rscale>  0 0.67425788E+03</rscale>
<asrwt>0</asrwt>
<pdfrwt beam="1">  1        2 0.42195716E+00 0.77726703E+03</pdfrwt>
<pdfrwt beam="2">  1       -2 0.52083470E-01 0.77726703E+03</pdfrwt>
<totfact> 0.91575793E+00</totfact>
</mgrwt>
</event>
<event>
 4    5  0.6615028E-008  0.8772120E+03  0.7818608E-02  0.9563651E-01
         -2   -1    0    0    0  501 -0.00000000000E+00  0.00000000000E+00  0.82510991483E+03  0.82510991483E+03  0.25500000000E-02 0.  1.
          2   -1    0    0  501    0  0.00000000000E+00 -0.00000000000E+00 -0.10103308861E+04  0.10103308861E+04  0.25500000000E-02 0. -1.
    8880023    1    1    2    0    0 -0.57451402436E+03  0.74995273776E+02 -0.63774325323E+03  0.10845355313E+04  0.65864270000E+03 0. -1.
    8880022    1    1    2    0    0  0.57451402436E+03 -0.74995273776E+02  0.45252228198E+03  0.75090526964E+03  0.15294330000E+03 0.  0.
<mgrwt>
<rscale>  0 0.79749445E+03</rscale>
<asrwt>0</asrwt>
<pdfrwt beam="1">  1        2 0.15543552E+00 0.87721198E+03</pdfrwt>
<pdfrwt beam="2">  1       -2 0.12693999E+00 0.87721198E+03</pdfrwt>
<totfact> 0.11482452E+01</totfact>
</mgrwt>
</event>
<event>
 4    5  0.6615028E-008  0.1094159E+04  0.7818608E-02  0.9267587E-01
         -2   -1    0    0    0  501 -0.00000000000E+00  0.00000000000E+00  0.30113756150E+03  0.30113756152E+03  0.25500000000E-02 0.  1.
          2   -1    0    0  501    0  0.00000000000E+00 -0.00000000000E+00 -0.43747234296E+04  0.43747234296E+04  0.25500000000E-02 0. -1.
    8880023    1    1    2    0    0  0.55666256295E+03 -0.67342462203E+03 -0.33715788560E+04  0.35446760246E+04  0.65864270000E+03 0. -1.
    8880022    1    1    2    0    0 -0.55666256295E+03  0.67342462203E+03 -0.70200701211E+03  0.11311849666E+04  0.15294330000E+03 0.  0.
<mgrwt>
<rscale>  0 0.10382239E+04</rscale>
<asrwt>0</asrwt>
<pdfrwt beam="1">  1        2 0.67303433E+00 0.10941591E+04</pdfrwt>
<pdfrwt beam="2">  1       -2 0.46328859E-01 0.10941591E+04</pdfrwt>
<totfact> 0.75304775E-01</totfact>
</mgrwt>
</event>
<event>
 4    5  0.6615028E-008  0.8355093E+03  0.7818608E-02  0.9638707E-01
         -2   -1    0    0    0  501 -0.00000000000E+00  0.00000000000E+00  0.55307077705E+03  0.55307077706E+03  0.25500000000E-02 0.  1.
          2   -1    0    0  501    0  0.00000000000E+00 -0.00000000000E+00 -0.20537799399E+04  0.20537799399E+04  0.25500000000E-02 0. -1.
    8880023    1    1    2    0    0 -0.51387666456E+03 -0.14011921140E+02 -0.18058644564E+04  0.19897794354E+04  0.65864270000E+03 0. -1.
    8880022    1    1    2    0    0  0.51387666456E+03  0.14011921140E+02  0.30515529357E+03  0.61707128156E+03  0.15294330000E+03 0.  0.
<mgrwt>
<rscale>  0 0.74786442E+03</rscale>
<asrwt>0</asrwt>
<pdfrwt beam="1">  1        2 0.31596614E+00 0.83550929E+03</pdfrwt>
<pdfrwt beam="2">  1       -2 0.85087813E-01 0.83550929E+03</pdfrwt>
<totfact> 0.76745241E+00</totfact>
</mgrwt>
</event>
<event>
 4    5  0.6615028E-008  0.1062570E+04  0.7818608E-02  0.9303921E-01
         -2   -1    0    0    0  501 -0.00000000000E+00  0.00000000000E+00  0.38383542354E+03  0.38383542355E+03  0.25500000000E-02 0.  1.
          2   -1    0    0  501    0  0.00000000000E+00 -0.00000000000E+00 -0.36865698251E+04  0.36865698251E+04  0.25500000000E-02 0. -1.
    8880023    1    1    2    0    0 -0.54722061644E+03 -0.62912207027E+03 -0.29792367634E+04  0.31630534110E+04  0.65864270000E+03 0.  0.
    8880022    1    1    2    0    0  0.54722061644E+03  0.62912207027E+03 -0.32349763819E+03  0.90735183765E+03  0.15294330000E+03 0.  0.
<mgrwt>
<rscale>  0 0.10042269E+04</rscale>
<asrwt>0</asrwt>
<pdfrwt beam="1">  1        2 0.56716456E+00 0.10625701E+04</pdfrwt>
<pdfrwt beam="2">  1       -2 0.59051606E-01 0.10625701E+04</pdfrwt>
<totfact> 0.16510010E+00</totfact>
</mgrwt>
</event>
<event>
 4    5  0.6615028E-008  0.1153274E+04  0.7818608E-02  0.9203938E-01
         -2   -1    0    0    0  501 -0.00000000000E+00  0.00000000000E+00  0.49425087789E+03  0.49425087790E+03  0.25500000000E-02 0.  1.
          2   -1    0    0  501    0  0.00000000000E+00 -0.00000000000E+00 -0.26381949378E+04  0.26381949378E+04  0.25500000000E-02 0. -1.
    8880023    1    1    2    0    0  0.53663397016E+03 -0.77990695008E+03 -0.17497235332E+04  0.20956081498E+04  0.65864270000E+03 0.  0.
    8880022    1    1    2    0    0 -0.53663397016E+03  0.77990695008E+03 -0.39422052674E+03  0.10368376659E+04  0.15294330000E+03 0.  0.
<mgrwt>
<rscale>  0 0.11012872E+04</rscale>
<asrwt>0</asrwt>
<pdfrwt beam="1">  1        2 0.40587614E+00 0.11532741E+04</pdfrwt>
<pdfrwt beam="2">  1       -2 0.76038598E-01 0.11532741E+04</pdfrwt>
<totfact> 0.44481008E+00</totfact>
</mgrwt>
</event>
<event>
 4    5  0.6615028E-008  0.7655523E+03  0.7818608E-02  0.9790940E-01
         -2   -1    0    0    0  501 -0.00000000000E+00  0.00000000000E+00  0.19670211381E+03  0.19670211382E+03  0.25500000000E-02 0.  1.
          2   -1    0    0  501    0  0.00000000000E+00 -0.00000000000E+00 -0.31932724719E+04  0.31932724719E+04  0.25500000000E-02 0. -1.
    8880023    1    1    2    0    0  0.12216852479E+03  0.37058726343E+03 -0.28419485535E+04  0.29432536172E+04  0.65864270000E+03 0. -1.
    8880022    1    1    2    0    0 -0.12216852479E+03 -0.37058726343E+03 -0.15462180466E+03  0.44672096857E+03  0.15294330000E+03 0.  0.
<mgrwt>
<rscale>  0 0.65851047E+03</rscale>
<asrwt>0</asrwt>
<pdfrwt beam="1">  1        2 0.49127265E+00 0.76555227E+03</pdfrwt>
<pdfrwt beam="2">  1       -2 0.30261866E-01 0.76555227E+03</pdfrwt>
<totfact> 0.14063380E+01</totfact>
</mgrwt>
</event>
<event>
 4    5  0.6615028E-008  0.1014201E+04  0.7818608E-02  0.9363209E-01
          2   -1    0    0  501    0  0.00000000000E+00  0.00000000000E+00  0.34574895188E+04  0.34574895188E+04  0.25500000000E-02 0. -1.
         -2   -1    0    0    0  501 -0.00000000000E+00 -0.00000000000E+00 -0.82400113567E+03  0.82400113567E+03  0.25500000000E-02 0.  1.
    8880023    1    1    2    0    0  0.75304965427E+03  0.16646358092E+03  0.31708875929E+04  0.33291338572E+04  0.65864270000E+03 0.  0.
    8880022    1    1    2    0    0 -0.75304965427E+03 -0.16646358092E+03 -0.53739920984E+03  0.95235679728E+03  0.15294330000E+03 0.  0.
<mgrwt>
<rscale>  0 0.95166249E+03</rscale>
<asrwt>0</asrwt>
<pdfrwt beam="1">  1        2 0.53192145E+00 0.10142012E+04</pdfrwt>
<pdfrwt beam="2">  1       -2 0.12676941E+00 0.10142012E+04</pdfrwt>
<totfact> 0.41392114E-01</totfact>
</mgrwt>
</event>
<event>
 4    5  0.6615028E-008  0.2108069E+04  0.7818608E-02  0.8568908E-01
          2   -1    0    0  501    0  0.00000000000E+00  0.00000000000E+00  0.32743444763E+04  0.32743444763E+04  0.25500000000E-02 0. -1.
         -2   -1    0    0    0  501 -0.00000000000E+00 -0.00000000000E+00 -0.20852735725E+04  0.20852735725E+04  0.25500000000E-02 0.  1.
    8880023    1    1    2    0    0  0.19452185434E+04  0.47567731629E+03 -0.10472326871E+04  0.23538586614E+04  0.65864270000E+03 0.  0.
    8880022    1    1    2    0    0 -0.19452185434E+04 -0.47567731629E+03  0.22363035910E+04  0.30057593874E+04  0.15294330000E+03 0.  0.
<mgrwt>
<rscale>  0 0.20826886E+04</rscale>
<asrwt>0</asrwt>
<pdfrwt beam="1">  1        2 0.50374530E+00 0.21080689E+04</pdfrwt>
<pdfrwt beam="2">  1       -2 0.32081132E+00 0.21080689E+04</pdfrwt>
<totfact> 0.23933416E-02</totfact>
</mgrwt>
</event>
<event>
 4    5  0.6615028E-008  0.6626131E+03  0.7818608E-02  0.1021626E+00
          2   -1    0    0  501    0  0.00000000000E+00  0.00000000000E+00  0.23019503514E+04  0.23019503514E+04  0.25500000000E-02 0. -1.
         -2   -1    0    0    0  501 -0.00000000000E+00 -0.00000000000E+00 -0.13087836706E+03  0.13087836708E+03  0.25500000000E-02 0.  1.
    8880023    1    1    2    0    0 -0.47684595235E+02 -0.54517195425E+02  0.21643075542E+04  0.22634671061E+04  0.65864270000E+03 0. -1.
    8880022    1    1    2    0    0  0.47684595235E+02  0.54517195425E+02  0.67644302013E+01  0.16936161239E+03  0.15294330000E+03 0.  0.
<mgrwt>
<rscale>  0 0.47104468E+03</rscale>
<asrwt>0</asrwt>
<pdfrwt beam="1">  1        2 0.35414619E+00 0.66261312E+03</pdfrwt>
<pdfrwt beam="2">  1       -2 0.20135135E-01 0.66261312E+03</pdfrwt>
<totfact> 0.99561211E+01</totfact>
</mgrwt>
</event>
<event>
 4    5  0.6615028E-008  0.1439650E+04  0.7818608E-02  0.8953471E-01
         -2   -1    0    0    0  501 -0.00000000000E+00  0.00000000000E+00  0.19942285435E+04  0.19942285435E+04  0.25500000000E-02 0.  1.
          2   -1    0    0  501    0  0.00000000000E+00 -0.00000000000E+00 -0.98502923129E+03  0.98502923130E+03  0.25500000000E-02 0. -1.
    8880023    1    1    2    0    0  0.12662096586E+04 -0.18839979423E+03  0.19093126453E+03  0.14522556029E+04  0.65864270000E+03 0. -1.
    8880022    1    1    2    0    0 -0.12662096586E+04  0.18839979423E+03  0.81826804767E+03  0.15270021719E+04  0.15294330000E+03 0.  0.
<mgrwt>
<rscale>  0 0.14004809E+04</rscale>
<asrwt>0</asrwt>
<pdfrwt beam="1">  1        2 0.15154296E+00 0.14396498E+04</pdfrwt>
<pdfrwt beam="2">  1       -2 0.30680439E+00 0.14396498E+04</pdfrwt>
<totfact> 0.70937736E-01</totfact>
</mgrwt>
</event>
<event>
 4    5  0.6615028E-008  0.1426391E+04  0.7818608E-02  0.8963443E-01
         -2   -1    0    0    0  501 -0.00000000000E+00  0.00000000000E+00  0.10684772544E+04  0.10684772544E+04  0.25500000000E-02 0.  1.
          2   -1    0    0  501    0  0.00000000000E+00 -0.00000000000E+00 -0.19660490210E+04  0.19660490210E+04  0.25500000000E-02 0. -1.
    8880023    1    1    2    0    0 -0.10001101132E+04  0.77495885621E+03 -0.10209785458E+04  0.17541347909E+04  0.65864270000E+03 0.  0.
    8880022    1    1    2    0    0  0.10001101132E+04 -0.77495885621E+03  0.12340677920E+03  0.12803914845E+04  0.15294330000E+03 0.  0.
<mgrwt>
<rscale>  0 0.13867814E+04</rscale>
<asrwt>0</asrwt>
<pdfrwt beam="1">  1        2 0.30246908E+00 0.14263911E+04</pdfrwt>
<pdfrwt beam="2">  1       -2 0.16438112E+00 0.14263911E+04</pdfrwt>
<totfact> 0.15497452E+00</totfact>
</mgrwt>
</event>
<event>
 4    5  0.6615028E-008  0.8542761E+03  0.7818608E-02  0.9603827E-01
         -2   -1    0    0    0  501 -0.00000000000E+00  0.00000000000E+00  0.39187361139E+03  0.39187361139E+03  0.25500000000E-02 0.  1.
          2   -1    0    0  501    0  0.00000000000E+00 -0.00000000000E+00 -0.13878085053E+04  0.13878085053E+04  0.25500000000E-02 0. -1.
    8880023    1    1    2    0    0 -0.18421455413E+03 -0.51190077125E+03 -0.82905905858E+03  0.11904312372E+04  0.65864270000E+03 0. -1.
    8880022    1    1    2    0    0  0.18421455413E+03  0.51190077125E+03 -0.16687583531E+03  0.58925087949E+03  0.15294330000E+03 0.  0.
<mgrwt>
<rscale>  0 0.77043373E+03</rscale>
<asrwt>0</asrwt>
<pdfrwt beam="1">  1        2 0.21350900E+00 0.85427607E+03</pdfrwt>
<pdfrwt beam="2">  1       -2 0.60288248E-01 0.85427607E+03</pdfrwt>
<totfact> 0.38094248E+01</totfact>
</mgrwt>
</event>
<event>
 4    5  0.6615028E-008  0.1051016E+04  0.7818608E-02  0.9317661E-01
          2   -1    0    0  501    0  0.00000000000E+00  0.00000000000E+00  0.20550543483E+04  0.20550543483E+04  0.25500000000E-02 0. -1.
         -2   -1    0    0    0  501 -0.00000000000E+00 -0.00000000000E+00 -0.61018108017E+03  0.61018108017E+03  0.25500000000E-02 0.  1.
    8880023    1    1    2    0    0  0.81786577246E+03  0.43821141299E+02  0.14984739086E+04  0.18303166325E+04  0.65864270000E+03 0.  0.
    8880022    1    1    2    0    0 -0.81786577246E+03 -0.43821141299E+02 -0.53600640486E+02  0.83491879596E+03  0.15294330000E+03 0.  0.
<mgrwt>
<rscale>  0 0.99173101E+03</rscale>
<asrwt>0</asrwt>
<pdfrwt beam="1">  1        2 0.31616221E+00 0.10510161E+04</pdfrwt>
<pdfrwt beam="2">  1       -2 0.93874012E-01 0.10510161E+04</pdfrwt>
<totfact> 0.59406902E+00</totfact>
</mgrwt>
</event>
<event>
 4    5  0.6615028E-008  0.1115216E+04  0.7818608E-02  0.9244301E-01
         -2   -1    0    0    0  501 -0.00000000000E+00  0.00000000000E+00  0.14207585242E+04  0.14207585242E+04  0.25500000000E-02 0.  1.
          2   -1    0    0  501    0  0.00000000000E+00 -0.00000000000E+00 -0.11592986520E+04  0.11592986520E+04  0.25500000000E-02 0. -1.
    8880023    1    1    2    0    0  0.82002063816E+03  0.37075955120E+03 -0.64938944656E+03  0.12905089505E+04  0.65864270000E+03 0. -1.
    8880022    1    1    2    0    0 -0.82002063816E+03 -0.37075955120E+03  0.91084931878E+03  0.12895482257E+04  0.15294330000E+03 0.  0.
<mgrwt>
<rscale>  0 0.10607637E+04</rscale>
<asrwt>0</asrwt>
<pdfrwt beam="1">  1        2 0.17835364E+00 0.11152160E+04</pdfrwt>
<pdfrwt beam="2">  1       -2 0.21857823E+00 0.11152160E+04</pdfrwt>
<totfact> 0.19824743E+00</totfact>
</mgrwt>
</event>
<event>
 4    5  0.6615028E-008  0.6713097E+03  0.7818608E-02  0.1014741E+00
         -2   -1    0    0    0  501 -0.00000000000E+00  0.00000000000E+00  0.34240025826E+04  0.34240025826E+04  0.25500000000E-02 0.  1.
          2   -1    0    0  501    0  0.00000000000E+00 -0.00000000000E+00 -0.11834180109E+03  0.11834180112E+03  0.25500000000E-02 0. -1.
    8880023    1    1    2    0    0  0.28891006985E+02  0.12653795731E+03  0.87220755034E+03  0.11006374344E+04  0.65864270000E+03 0. -1.
    8880022    1    1    2    0    0 -0.28891006985E+02 -0.12653795731E+03  0.24334532312E+04  0.24417069493E+04  0.15294330000E+03 0.  0.
<mgrwt>
<rscale>  0 0.49633171E+03</rscale>
<asrwt>0</asrwt>
<pdfrwt beam="1">  1        2 0.18206431E-01 0.67130973E+03</pdfrwt>
<pdfrwt beam="2">  1       -2 0.52676964E+00 0.67130973E+03</pdfrwt>
<totfact> 0.38385685E-01</totfact>
</mgrwt>
</event>
<event>
 4    5  0.6615028E-008  0.7602661E+03  0.7818608E-02  0.9804419E-01
          2   -1    0    0  501    0  0.00000000000E+00  0.00000000000E+00  0.12543162948E+04  0.12543162948E+04  0.25500000000E-02 0. -1.
         -2   -1    0    0    0  501 -0.00000000000E+00 -0.00000000000E+00 -0.10653149109E+04  0.10653149109E+04  0.25500000000E-02 0.  1.
    8880023    1    1    2    0    0  0.30075259382E+03  0.23182351837E+03  0.10906032270E+04  0.13294434442E+04  0.65864270000E+03 0. -1.
    8880022    1    1    2    0    0 -0.30075259382E+03 -0.23182351837E+03 -0.90160184311E+03  0.99018776142E+03  0.15294330000E+03 0.  0.
<mgrwt>
<rscale>  0 0.65125923E+03</rscale>
<asrwt>0</asrwt>
<pdfrwt beam="1">  1        2 0.19297174E+00 0.76026605E+03</pdfrwt>
<pdfrwt beam="2">  1       -2 0.16389460E+00 0.76026605E+03</pdfrwt>
<totfact> 0.42375469E+00</totfact>
</mgrwt>
</event>
<event>
 4    5  0.6615028E-008  0.8634922E+03  0.7818608E-02  0.9587381E-01
          2   -1    0    0  501    0  0.00000000000E+00  0.00000000000E+00  0.60082402818E+03  0.60082402819E+03  0.25500000000E-02 0. -1.
         -2   -1    0    0    0  501 -0.00000000000E+00 -0.00000000000E+00 -0.34704984389E+04  0.34704984389E+04  0.25500000000E-02 0.  1.
    8880023    1    1    2    0    0 -0.26053247568E+03  0.49389415458E+03  0.24954400579E+03  0.89882758297E+03  0.65864270000E+03 0. -1.
    8880022    1    1    2    0    0  0.26053247568E+03 -0.49389415458E+03 -0.31192184166E+04  0.31724948842E+04  0.15294330000E+03 0.  0.
<mgrwt>
<rscale>  0 0.78137024E+03</rscale>
<asrwt>0</asrwt>
<pdfrwt beam="1">  1        2 0.92434468E-01 0.86349222E+03</pdfrwt>
<pdfrwt beam="2">  1       -2 0.53392282E+00 0.86349222E+03</pdfrwt>
<totfact> 0.52720230E-02</totfact>
</mgrwt>
</event>
<event>
 4    5  0.6615028E-008  0.7689133E+03  0.7818608E-02  0.9782555E-01
          2   -1    0    0  501    0  0.00000000000E+00  0.00000000000E+00  0.57721430214E+03  0.57721430215E+03  0.25500000000E-02 0. -1.
         -2   -1    0    0    0  501 -0.00000000000E+00 -0.00000000000E+00 -0.19135150929E+04  0.19135150929E+04  0.25500000000E-02 0.  1.
    8880023    1    1    2    0    0  0.31896956218E+02 -0.39547440959E+03  0.28085781396E+03  0.81860169948E+03  0.65864270000E+03 0. -1.
    8880022    1    1    2    0    0 -0.31896956218E+02  0.39547440959E+03 -0.16171586047E+04  0.16721276956E+04  0.15294330000E+03 0.  0.
<mgrwt>
<rscale>  0 0.66307179E+03</rscale>
<asrwt>0</asrwt>
<pdfrwt beam="1">  1        2 0.88802202E-01 0.76891328E+03</pdfrwt>
<pdfrwt beam="2">  1       -2 0.29438693E+00 0.76891328E+03</pdfrwt>
<totfact> 0.18547796E+00</totfact>
</mgrwt>
</event>
<event>
 4    5  0.6615028E-008  0.6875771E+03  0.7818608E-02  0.1005326E+00
         -2   -1    0    0    0  501 -0.00000000000E+00  0.00000000000E+00  0.56176408869E+03  0.56176408869E+03  0.25500000000E-02 0.  1.
          2   -1    0    0  501    0  0.00000000000E+00 -0.00000000000E+00 -0.11102745520E+04  0.11102745520E+04  0.25500000000E-02 0. -1.
    8880023    1    1    2    0    0  0.18836116790E+03 -0.58924769276E+02 -0.96592023644E+03  0.11856492599E+04  0.65864270000E+03 0. -1.
    8880022    1    1    2    0    0 -0.18836116790E+03  0.58924769276E+02  0.41740977316E+03  0.48638938079E+03  0.15294330000E+03 0.  0.
<mgrwt>
<rscale>  0 0.53375276E+03</rscale>
<asrwt>0</asrwt>
<pdfrwt beam="1">  1        2 0.17081147E+00 0.68757710E+03</pdfrwt>
<pdfrwt beam="2">  1       -2 0.86425244E-01 0.68757710E+03</pdfrwt>
<totfact> 0.25518203E+01</totfact>
</mgrwt>
</event>
<event>
 4    5  0.6615028E-008  0.6978548E+03  0.7818608E-02  0.1000622E+00
         -2   -1    0    0    0  501 -0.00000000000E+00  0.00000000000E+00  0.90691976256E+03  0.90691976256E+03  0.25500000000E-02 0.  1.
          2   -1    0    0  501    0  0.00000000000E+00 -0.00000000000E+00 -0.58298300328E+03  0.58298300329E+03  0.25500000000E-02 0. -1.
    8880023    1    1    2    0    0 -0.23044139758E+03 -0.93776950915E+01 -0.33582385066E+03  0.77445402951E+03  0.65864270000E+03 0. -1.
    8880022    1    1    2    0    0  0.23044139758E+03  0.93776950915E+01  0.65976060994E+03  0.71544873634E+03  0.15294330000E+03 0.  0.
<mgrwt>
<rscale>  0 0.55378381E+03</rscale>
<asrwt>0</asrwt>
<pdfrwt beam="1">  1        2 0.89689693E-01 0.69785485E+03</pdfrwt>
<pdfrwt beam="2">  1       -2 0.13952612E+00 0.69785485E+03</pdfrwt>
<totfact> 0.18952569E+01</totfact>
</mgrwt>
</event>
<event>
 4    5  0.6615028E-008  0.7697959E+03  0.7818608E-02  0.9780377E-01
         -2   -1    0    0    0  501 -0.00000000000E+00  0.00000000000E+00  0.41579606770E+03  0.41579606771E+03  0.25500000000E-02 0.  1.
          2   -1    0    0  501    0  0.00000000000E+00 -0.00000000000E+00 -0.99303649510E+03  0.99303649511E+03  0.25500000000E-02 0. -1.
    8880023    1    1    2    0    0  0.25606103648E+03  0.30530028888E+03 -0.60795930010E+03  0.98091805857E+03  0.65864270000E+03 0. -1.
    8880022    1    1    2    0    0 -0.25606103648E+03 -0.30530028888E+03  0.30718872694E+02  0.42791450425E+03  0.15294330000E+03 0.  0.
<mgrwt>
<rscale>  0 0.66426361E+03</rscale>
<asrwt>0</asrwt>
<pdfrwt beam="1">  1        2 0.15277485E+00 0.76979590E+03</pdfrwt>
<pdfrwt beam="2">  1       -2 0.63968626E-01 0.76979590E+03</pdfrwt>
<totfact> 0.58277416E+01</totfact>
</mgrwt>
</event>
<event>
 4    5  0.9561466E-008  0.1000886E+04  0.7818608E-02  0.9380400E-01
          2   -1    0    0  501    0  0.00000000000E+00  0.00000000000E+00  0.21866789070E+04  0.21866789070E+04  0.25500000000E-02 0. -1.
         -2   -1    0    0    0  501 -0.00000000000E+00 -0.00000000000E+00 -0.16378496762E+04  0.16378496762E+04  0.25500000000E-02 0.  1.
    8880023    1    1    2    0    0  0.28425074117E+03  0.69797104645E+03  0.19694172334E+04  0.22091574211E+04  0.65864270000E+03 0. -1.
    8880022    1    1    2    0    0 -0.28425074117E+03 -0.69797104645E+03 -0.14205880026E+04  0.16153711622E+04  0.15294330000E+03 0.  0.
<mgrwt>
<rscale>  0 0.93706409E+03</rscale>
<asrwt>0</asrwt>
<pdfrwt beam="1">  1        2 0.33641214E+00 0.10008857E+04</pdfrwt>
<pdfrwt beam="2">  1       -2 0.25197687E+00 0.10008857E+04</pdfrwt>
<totfact> 0.33028335E-01</totfact>
</mgrwt>
</event>
<event>
 4    5  0.6615028E-008  0.8719268E+03  0.7818608E-02  0.9572690E-01
          2   -1    0    0  501    0  0.00000000000E+00  0.00000000000E+00  0.31586903420E+04  0.31586903420E+04  0.25500000000E-02 0. -1.
         -2   -1    0    0    0  501 -0.00000000000E+00 -0.00000000000E+00 -0.27157770009E+03  0.27157770010E+03  0.25500000000E-02 0.  1.
    8880023    1    1    2    0    0 -0.43056242634E+03  0.37558241498E+03  0.26556389248E+04  0.27951161798E+04  0.65864270000E+03 0. -1.
    8880022    1    1    2    0    0  0.43056242634E+03 -0.37558241498E+03  0.23147371707E+03  0.63515186226E+03  0.15294330000E+03 0.  0.
<mgrwt>
<rscale>  0 0.79130401E+03</rscale>
<asrwt>0</asrwt>
<pdfrwt beam="1">  1        2 0.48595237E+00 0.87192681E+03</pdfrwt>
<pdfrwt beam="2">  1       -2 0.41781184E-01 0.87192681E+03</pdfrwt>
<totfact> 0.78396906E+00</totfact>
</mgrwt>
</event>
<event>
 4    5  0.6615028E-008  0.2085857E+04  0.7818608E-02  0.8578989E-01
          2   -1    0    0  501    0  0.00000000000E+00  0.00000000000E+00  0.36335043493E+04  0.36335043493E+04  0.25500000000E-02 0. -1.
         -2   -1    0    0    0  501 -0.00000000000E+00 -0.00000000000E+00 -0.15204806514E+04  0.15204806514E+04  0.25500000000E-02 0.  1.
    8880023    1    1    2    0    0  0.12916111363E+04  0.14995762106E+04 -0.21227943067E+03  0.20966308454E+04  0.65864270000E+03 0.  0.
    8880022    1    1    2    0    0 -0.12916111363E+04 -0.14995762106E+04  0.23253031285E+04  0.30573541554E+04  0.15294330000E+03 0.  0.
<mgrwt>
<rscale>  0 0.20601821E+04</rscale>
<asrwt>0</asrwt>
<pdfrwt beam="1">  1        2 0.55900067E+00 0.20858567E+04</pdfrwt>
<pdfrwt beam="2">  1       -2 0.23392010E+00 0.20858567E+04</pdfrwt>
<totfact> 0.46550081E-02</totfact>
</mgrwt>
</event>
<event>
 4    5  0.6615028E-008  0.8283292E+03  0.7818608E-02  0.9652592E-01
         -2   -1    0    0    0  501 -0.00000000000E+00  0.00000000000E+00  0.11222456701E+04  0.11222456701E+04  0.25500000000E-02 0.  1.
          2   -1    0    0  501    0  0.00000000000E+00 -0.00000000000E+00 -0.15145725880E+04  0.15145725880E+04  0.25500000000E-02 0. -1.
    8880023    1    1    2    0    0 -0.34396074338E+03 -0.36607383882E+03 -0.13272587764E+04  0.15645271216E+04  0.65864270000E+03 0.  0.
    8880022    1    1    2    0    0  0.34396074338E+03  0.36607383882E+03  0.93493185845E+03  0.10722911365E+04  0.15294330000E+03 0.  0.
<mgrwt>
<rscale>  0 0.73910975E+03</rscale>
<asrwt>0</asrwt>
<pdfrwt beam="1">  1        2 0.23301117E+00 0.82832919E+03</pdfrwt>
<pdfrwt beam="2">  1       -2 0.17265318E+00 0.82832919E+03</pdfrwt>
<totfact> 0.25834958E+00</totfact>
</mgrwt>
</event>
<event>
 4    5  0.6615028E-008  0.1066376E+04  0.7818608E-02  0.9299449E-01
          2   -1    0    0  501    0  0.00000000000E+00  0.00000000000E+00  0.10692809775E+04  0.10692809775E+04  0.25500000000E-02 0. -1.
         -2   -1    0    0    0  501 -0.00000000000E+00 -0.00000000000E+00 -0.96613061975E+03  0.96613061976E+03  0.25500000000E-02 0.  1.
    8880023    1    1    2    0    0 -0.69178552813E+02 -0.83580010204E+03  0.39075459125E+03  0.11357142420E+04  0.65864270000E+03 0.  0.
    8880022    1    1    2    0    0  0.69178552813E+02  0.83580010204E+03 -0.28760423354E+03  0.89969735517E+03  0.15294330000E+03 0.  0.
<mgrwt>
<rscale>  0 0.10083355E+04</rscale>
<asrwt>0</asrwt>
<pdfrwt beam="1">  1        2 0.16450477E+00 0.10663760E+04</pdfrwt>
<pdfrwt beam="2">  1       -2 0.14863548E+00 0.10663760E+04</pdfrwt>
<totfact> 0.68843377E+00</totfact>
</mgrwt>
</event>
<event>
 4    5  0.6615028E-008  0.1829549E+04  0.7818608E-02  0.8706365E-01
          2   -1    0    0  501    0  0.00000000000E+00  0.00000000000E+00  0.14496786560E+04  0.14496786560E+04  0.25500000000E-02 0. -1.
         -2   -1    0    0    0  501 -0.00000000000E+00 -0.00000000000E+00 -0.23144272532E+04  0.23144272532E+04  0.25500000000E-02 0.  1.
    8880023    1    1    2    0    0  0.39084442443E+03  0.16615288716E+04 -0.92343114405E+03  0.20493835266E+04  0.65864270000E+03 0.  0.
    8880022    1    1    2    0    0 -0.39084442443E+03 -0.16615288716E+04  0.58682546869E+02  0.17147223826E+04  0.15294330000E+03 0.  0.
<mgrwt>
<rscale>  0 0.17998768E+04</rscale>
<asrwt>0</asrwt>
<pdfrwt beam="1">  1        2 0.22302749E+00 0.18295485E+04</pdfrwt>
<pdfrwt beam="2">  1       -2 0.35606573E+00 0.18295485E+04</pdfrwt>
<totfact> 0.17586373E-01</totfact>
</mgrwt>
</event>
<event>
 4    5  0.6615028E-008  0.7538947E+03  0.7818608E-02  0.9821178E-01
          2   -1    0    0  501    0  0.00000000000E+00  0.00000000000E+00  0.25453444991E+04  0.25453444991E+04  0.25500000000E-02 0. -1.
         -2   -1    0    0    0  501 -0.00000000000E+00 -0.00000000000E+00 -0.29846112015E+03  0.29846112016E+03  0.25500000000E-02 0.  1.
    8880023    1    1    2    0    0  0.21016533070E+03  0.30062868912E+03  0.23202676928E+04  0.24396719959E+04  0.65864270000E+03 0.  0.
    8880022    1    1    2    0    0 -0.21016533070E+03 -0.30062868912E+03 -0.73384313910E+02  0.40413362332E+03  0.15294330000E+03 0.  0.
<mgrwt>
<rscale>  0 0.64238311E+03</rscale>
<asrwt>0</asrwt>
<pdfrwt beam="1">  1        2 0.39159147E+00 0.75389474E+03</pdfrwt>
<pdfrwt beam="2">  1       -2 0.45917095E-01 0.75389474E+03</pdfrwt>
<totfact> 0.15433496E+01</totfact>
</mgrwt>
</event>
<event>
 4    5  0.6615028E-008  0.8672430E+03  0.7818608E-02  0.9580807E-01
         -2   -1    0    0    0  501 -0.00000000000E+00  0.00000000000E+00  0.46403107035E+03  0.46403107036E+03  0.25500000000E-02 0.  1.
          2   -1    0    0  501    0  0.00000000000E+00 -0.00000000000E+00 -0.19317704491E+04  0.19317704491E+04  0.25500000000E-02 0. -1.
    8880023    1    1    2    0    0 -0.55651876329E+03  0.92666683960E+02 -0.15783198775E+04  0.18008898051E+04  0.65864270000E+03 0.  0.
    8880022    1    1    2    0    0  0.55651876329E+03 -0.92666683960E+02  0.11058049870E+03  0.59491171439E+03  0.15294330000E+03 0.  0.
<mgrwt>
<rscale>  0 0.78579624E+03</rscale>
<asrwt>0</asrwt>
<pdfrwt beam="1">  1        2 0.29719545E+00 0.86724302E+03</pdfrwt>
<pdfrwt beam="2">  1       -2 0.71389396E-01 0.86724302E+03</pdfrwt>
<totfact> 0.13207086E+01</totfact>
</mgrwt>
</event>
<event>
 4    5  0.6615028E-008  0.8981443E+03  0.7818608E-02  0.9529017E-01
          2   -1    0    0  501    0  0.00000000000E+00  0.00000000000E+00  0.15844201826E+04  0.15844201826E+04  0.25500000000E-02 0. -1.
         -2   -1    0    0    0  501 -0.00000000000E+00 -0.00000000000E+00 -0.68766776152E+03  0.68766776152E+03  0.25500000000E-02 0.  1.
    8880023    1    1    2    0    0 -0.53196952442E+03 -0.29976888174E+03  0.12584602717E+04  0.15460871318E+04  0.65864270000E+03 0.  0.
    8880022    1    1    2    0    0  0.53196952442E+03  0.29976888174E+03 -0.36170785058E+03  0.72600081237E+03  0.15294330000E+03 0.  0.
<mgrwt>
<rscale>  0 0.82177894E+03</rscale>
<asrwt>0</asrwt>
<pdfrwt beam="1">  1        2 0.24375695E+00 0.89814429E+03</pdfrwt>
<pdfrwt beam="2">  1       -2 0.10579504E+00 0.89814429E+03</pdfrwt>
<totfact> 0.82711383E+00</totfact>
</mgrwt>
</event>
<event>
 4    5  0.6615028E-008  0.6650743E+03  0.7818608E-02  0.1019471E+00
          2   -1    0    0  501    0  0.00000000000E+00  0.00000000000E+00  0.20153478924E+03  0.20153478925E+03  0.25500000000E-02 0. -1.
         -2   -1    0    0    0  501 -0.00000000000E+00 -0.00000000000E+00 -0.88300024648E+03  0.88300024648E+03  0.25500000000E-02 0.  1.
    8880023    1    1    2    0    0  0.72009526480E+02 -0.57690756318E+02 -0.53687928414E+03  0.85472987971E+03  0.65864270000E+03 0. -1.
    8880022    1    1    2    0    0 -0.72009526480E+02  0.57690756318E+02 -0.14458617310E+03  0.22980515602E+03  0.15294330000E+03 0.  1.
<mgrwt>
<rscale>  0 0.47877932E+03</rscale>
<asrwt>0</asrwt>
<pdfrwt beam="1">  1        2 0.31005353E-01 0.66507428E+03</pdfrwt>
<pdfrwt beam="2">  1       -2 0.13584619E+00 0.66507428E+03</pdfrwt>
<totfact> 0.67518453E+01</totfact>
</mgrwt>
</event>
<event>
 4    5  0.6615028E-008  0.1080762E+04  0.7818608E-02  0.9282784E-01
          2   -1    0    0  501    0  0.00000000000E+00  0.00000000000E+00  0.18307383558E+04  0.18307383558E+04  0.25500000000E-02 0. -1.
         -2   -1    0    0    0  501 -0.00000000000E+00 -0.00000000000E+00 -0.15877299417E+04  0.15877299417E+04  0.25500000000E-02 0.  1.
    8880023    1    1    2    0    0 -0.84105025499E+03 -0.16392114235E+03  0.15248624483E+04  0.18690241745E+04  0.65864270000E+03 0.  0.
    8880022    1    1    2    0    0  0.84105025499E+03  0.16392114235E+03 -0.12818540342E+04  0.15494441230E+04  0.15294330000E+03 0.  0.
<mgrwt>
<rscale>  0 0.10238337E+04</rscale>
<asrwt>0</asrwt>
<pdfrwt beam="1">  1        2 0.28165205E+00 0.10807617E+04</pdfrwt>
<pdfrwt beam="2">  1       -2 0.24426615E+00 0.10807617E+04</pdfrwt>
<totfact> 0.57148255E-01</totfact>
</mgrwt>
</event>
<event>
 4    5  0.6615028E-008  0.1148935E+04  0.7818608E-02  0.9208434E-01
          2   -1    0    0  501    0  0.00000000000E+00  0.00000000000E+00  0.22748756419E+04  0.22748756419E+04  0.25500000000E-02 0. -1.
         -2   -1    0    0    0  501 -0.00000000000E+00 -0.00000000000E+00 -0.66835633771E+03  0.66835633772E+03  0.25500000000E-02 0.  1.
    8880023    1    1    2    0    0  0.13106009451E+03  0.93223685366E+03  0.16239949896E+04  0.19893245668E+04  0.65864270000E+03 0.  0.
    8880022    1    1    2    0    0 -0.13106009451E+03 -0.93223685366E+03 -0.17475685341E+02  0.95390741285E+03  0.15294330000E+03 0.  0.
<mgrwt>
<rscale>  0 0.10966803E+04</rscale>
<asrwt>0</asrwt>
<pdfrwt beam="1">  1        2 0.34998087E+00 0.11489354E+04</pdfrwt>
<pdfrwt beam="2">  1       -2 0.10282405E+00 0.11489354E+04</pdfrwt>
<totfact> 0.35711783E+00</totfact>
</mgrwt>
</event>
<event>
 4    5  0.6615028E-008  0.6820971E+03  0.7818608E-02  0.1008161E+00
         -2   -1    0    0    0  501 -0.00000000000E+00  0.00000000000E+00  0.12653687260E+03  0.12653687262E+03  0.25500000000E-02 0.  1.
          2   -1    0    0  501    0  0.00000000000E+00 -0.00000000000E+00 -0.31663901204E+04  0.31663901204E+04  0.25500000000E-02 0. -1.
    8880023    1    1    2    0    0 -0.17222605038E+03  0.42243373247E+02 -0.29717855834E+04  0.30490598674E+04  0.65864270000E+03 0. -1.
    8880022    1    1    2    0    0  0.17222605038E+03 -0.42243373247E+02 -0.68067664411E+02  0.24386712563E+03  0.15294330000E+03 0.  0.
<mgrwt>
<rscale>  0 0.52211942E+03</rscale>
<asrwt>0</asrwt>
<pdfrwt beam="1">  1        2 0.48713688E+00 0.68209715E+03</pdfrwt>
<pdfrwt beam="2">  1       -2 0.19467214E-01 0.68209715E+03</pdfrwt>
<totfact> 0.32791221E+01</totfact>
</mgrwt>
</event>
<event>
 4    5  0.6615028E-008  0.7854482E+03  0.7818608E-02  0.9743191E-01
         -2   -1    0    0    0  501 -0.00000000000E+00  0.00000000000E+00  0.41623680802E+03  0.41623680803E+03  0.25500000000E-02 0.  1.
          2   -1    0    0  501    0  0.00000000000E+00 -0.00000000000E+00 -0.31537983998E+04  0.31537983998E+04  0.25500000000E-02 0. -1.
    8880023    1    1    2    0    0  0.28106575224E+03  0.32267738768E+03 -0.29611677049E+04  0.30635670446E+04  0.65864270000E+03 0. -1.
    8880022    1    1    2    0    0 -0.28106575224E+03 -0.32267738768E+03  0.22360611311E+03  0.50646816330E+03  0.15294330000E+03 0.  0.
<mgrwt>
<rscale>  0 0.68502414E+03</rscale>
<asrwt>0</asrwt>
<pdfrwt beam="1">  1        2 0.48519974E+00 0.78544819E+03</pdfrwt>
<pdfrwt beam="2">  1       -2 0.64036434E-01 0.78544819E+03</pdfrwt>
<totfact> 0.33361124E+00</totfact>
</mgrwt>
</event>
<event>
 4    5  0.6615028E-008  0.7389265E+03  0.7818608E-02  0.9863085E-01
          2   -1    0    0  501    0  0.00000000000E+00  0.00000000000E+00  0.24288367085E+04  0.24288367085E+04  0.25500000000E-02 0. -1.
         -2   -1    0    0    0  501 -0.00000000000E+00 -0.00000000000E+00 -0.40533662556E+03  0.40533662556E+03  0.25500000000E-02 0.  1.
    8880023    1    1    2    0    0 -0.35857482765E+02 -0.33304118809E+03  0.22725265504E+04  0.23896420905E+04  0.65864270000E+03 0. -1.
    8880022    1    1    2    0    0  0.35857482765E+02  0.33304118809E+03 -0.24902646745E+03  0.44453124360E+03  0.15294330000E+03 0.  0.
<mgrwt>
<rscale>  0 0.62084178E+03</rscale>
<asrwt>0</asrwt>
<pdfrwt beam="1">  1        2 0.37366719E+00 0.73892652E+03</pdfrwt>
<pdfrwt beam="2">  1       -2 0.62359480E-01 0.73892652E+03</pdfrwt>
<totfact> 0.95745037E+00</totfact>
</mgrwt>
</event>
<event>
 4    5  0.6615028E-008  0.1031294E+04  0.7818608E-02  0.9341715E-01
          2   -1    0    0  501    0  0.00000000000E+00  0.00000000000E+00  0.35836881772E+04  0.35836881772E+04  0.25500000000E-02 0. -1.
         -2   -1    0    0    0  501 -0.00000000000E+00 -0.00000000000E+00 -0.38829031006E+03  0.38829031007E+03  0.25500000000E-02 0.  1.
    8880023    1    1    2    0    0 -0.35567617516E+03  0.70940156201E+03  0.29535044335E+04  0.31283789353E+04  0.65864270000E+03 0. -1.
    8880022    1    1    2    0    0  0.35567617516E+03 -0.70940156201E+03  0.24189343357E+03  0.84359955191E+03  0.15294330000E+03 0.  0.
<mgrwt>
<rscale>  0 0.97031590E+03</rscale>
<asrwt>0</asrwt>
<pdfrwt beam="1">  1        2 0.55133661E+00 0.10312935E+04</pdfrwt>
<pdfrwt beam="2">  1       -2 0.59736974E-01 0.10312935E+04</pdfrwt>
<totfact> 0.19172414E+00</totfact>
</mgrwt>
</event>
<event>
 4    5  0.6615028E-008  0.6787582E+03  0.7818608E-02  0.1010035E+00
          2   -1    0    0  501    0  0.00000000000E+00  0.00000000000E+00  0.55066697396E+03  0.55066697397E+03  0.25500000000E-02 0. -1.
         -2   -1    0    0    0  501 -0.00000000000E+00 -0.00000000000E+00 -0.90496354229E+03  0.90496354229E+03  0.25500000000E-02 0.  1.
    8880023    1    1    2    0    0  0.14212308588E+03  0.81875301833E+02  0.31607379580E+03  0.74874253736E+03  0.65864270000E+03 0. -1.
    8880022    1    1    2    0    0 -0.14212308588E+03 -0.81875301833E+02 -0.67037036413E+03  0.70688797890E+03  0.15294330000E+03 0.  0.
<mgrwt>
<rscale>  0 0.51460744E+03</rscale>
<asrwt>0</asrwt>
<pdfrwt beam="1">  1        2 0.84717996E-01 0.67875824E+03</pdfrwt>
<pdfrwt beam="2">  1       -2 0.13922516E+00 0.67875824E+03</pdfrwt>
<totfact> 0.20432623E+01</totfact>
</mgrwt>
</event>
<event>
 4    5  0.6615028E-008  0.9053298E+03  0.7818608E-02  0.9517529E-01
         -2   -1    0    0    0  501 -0.00000000000E+00  0.00000000000E+00  0.11990860698E+04  0.11990860698E+04  0.25500000000E-02 0.  1.
          2   -1    0    0  501    0  0.00000000000E+00 -0.00000000000E+00 -0.12003766397E+04  0.12003766397E+04  0.25500000000E-02 0. -1.
    8880023    1    1    2    0    0 -0.41721202163E+03  0.46015862393E+03 -0.91297225829E+03  0.12857450684E+04  0.65864270000E+03 0. -1.
    8880022    1    1    2    0    0  0.41721202163E+03 -0.46015862393E+03  0.91168168842E+03  0.11137176411E+04  0.15294330000E+03 0.  0.
<mgrwt>
<rscale>  0 0.83003714E+03</rscale>
<asrwt>0</asrwt>
<pdfrwt beam="1">  1        2 0.18467333E+00 0.90532979E+03</pdfrwt>
<pdfrwt beam="2">  1       -2 0.18447478E+00 0.90532979E+03</pdfrwt>
<totfact> 0.32074355E+00</totfact>
</mgrwt>
</event>
<event>
 4    5  0.6615028E-008  0.1122415E+04  0.7818608E-02  0.9236501E-01
         -2   -1    0    0    0  501 -0.00000000000E+00  0.00000000000E+00  0.68350444399E+03  0.68350444399E+03  0.25500000000E-02 0.  1.
          2   -1    0    0  501    0  0.00000000000E+00 -0.00000000000E+00 -0.23951106634E+04  0.23951106634E+04  0.25500000000E-02 0. -1.
    8880023    1    1    2    0    0  0.33555325735E+03  0.84463551666E+03 -0.18326721768E+04  0.21490701846E+04  0.65864270000E+03 0.  0.
    8880022    1    1    2    0    0 -0.33555325735E+03 -0.84463551666E+03  0.12106595732E+03  0.92954492283E+03  0.15294330000E+03 0.  0.
<mgrwt>
<rscale>  0 0.10684493E+04</rscale>
<asrwt>0</asrwt>
<pdfrwt beam="1">  1        2 0.36847856E+00 0.11224150E+04</pdfrwt>
<pdfrwt beam="2">  1       -2 0.10515453E+00 0.11224150E+04</pdfrwt>
<totfact> 0.29029966E+00</totfact>
</mgrwt>
</event>
<event>
 4    5  0.6615028E-008  0.8595933E+03  0.7818608E-02  0.9594287E-01
         -2   -1    0    0    0  501 -0.00000000000E+00  0.00000000000E+00  0.65647915846E+03  0.65647915846E+03  0.25500000000E-02 0.  1.
          2   -1    0    0  501    0  0.00000000000E+00 -0.00000000000E+00 -0.84580982652E+03  0.84580982653E+03  0.25500000000E-02 0. -1.
    8880023    1    1    2    0    0 -0.46623976877E+03 -0.29616026631E+03  0.90768523414E+02  0.86437234826E+03  0.65864270000E+03 0.  0.
    8880022    1    1    2    0    0  0.46623976877E+03  0.29616026631E+03 -0.28009919148E+03  0.63791663673E+03  0.15294330000E+03 0.  0.
<mgrwt>
<rscale>  0 0.77675440E+03</rscale>
<asrwt>0</asrwt>
<pdfrwt beam="1">  1        2 0.13012459E+00 0.85959329E+03</pdfrwt>
<pdfrwt beam="2">  1       -2 0.10099679E+00 0.85959329E+03</pdfrwt>
<totfact> 0.25907970E+01</totfact>
</mgrwt>
</event>
<event>
 4    5  0.6615028E-008  0.7179823E+03  0.7818608E-02  0.9929473E-01
         -2   -1    0    0    0  501 -0.00000000000E+00  0.00000000000E+00  0.10074480935E+04  0.10074480935E+04  0.25500000000E-02 0.  1.
          2   -1    0    0  501    0  0.00000000000E+00 -0.00000000000E+00 -0.27121079184E+04  0.27121079184E+04  0.25500000000E-02 0. -1.
    8880023    1    1    2    0    0 -0.27813933282E+03 -0.65778873706E+02 -0.26367246367E+04  0.27327303864E+04  0.65864270000E+03 0. -1.
    8880022    1    1    2    0    0  0.27813933282E+03  0.65778873706E+02  0.93206481181E+03  0.98682562549E+03  0.15294330000E+03 0.  0.
<mgrwt>
<rscale>  0 0.58853908E+03</rscale>
<asrwt>0</asrwt>
<pdfrwt beam="1">  1        2 0.41724737E+00 0.71798228E+03</pdfrwt>
<pdfrwt beam="2">  1       -2 0.15499201E+00 0.71798228E+03</pdfrwt>
<totfact> 0.76553589E-01</totfact>
</mgrwt>
</event>
<event>
 4    5  0.6615028E-008  0.7798709E+03  0.7818608E-02  0.9756140E-01
         -2   -1    0    0    0  501 -0.00000000000E+00  0.00000000000E+00  0.30723700799E+03  0.30723700800E+03  0.25500000000E-02 0.  1.
          2   -1    0    0  501    0  0.00000000000E+00 -0.00000000000E+00 -0.16621457915E+04  0.16621457916E+04  0.25500000000E-02 0. -1.
    8880023    1    1    2    0    0  0.56153873972E+02  0.41380573897E+03 -0.13071289009E+04  0.15220987541E+04  0.65864270000E+03 0.  0.
    8880022    1    1    2    0    0 -0.56153873972E+02 -0.41380573897E+03 -0.47779882623E+02  0.44728404550E+03  0.15294330000E+03 0.  0.
<mgrwt>
<rscale>  0 0.67770372E+03</rscale>
<asrwt>0</asrwt>
<pdfrwt beam="1">  1        2 0.25571473E+00 0.77987092E+03</pdfrwt>
<pdfrwt beam="2">  1       -2 0.47267233E-01 0.77987092E+03</pdfrwt>
<totfact> 0.44603667E+01</totfact>
</mgrwt>
</event>
<event>
 4    5  0.6615028E-008  0.1282489E+04  0.7818608E-02  0.9080831E-01
         -2   -1    0    0    0  501 -0.00000000000E+00  0.00000000000E+00  0.25313472612E+04  0.25313472612E+04  0.25500000000E-02 0.  1.
          2   -1    0    0  501    0  0.00000000000E+00 -0.00000000000E+00 -0.82809101607E+03  0.82809101608E+03  0.25500000000E-02 0. -1.
    8880023    1    1    2    0    0 -0.82983167676E+03  0.72273636296E+03 -0.50382507008E+02  0.12834785021E+04  0.65864270000E+03 0.  0.
    8880022    1    1    2    0    0  0.82983167676E+03 -0.72273636296E+03  0.17536387521E+04  0.20759597752E+04  0.15294330000E+03 0.  0.
<mgrwt>
<rscale>  0 0.12372872E+04</rscale>
<asrwt>0</asrwt>
<pdfrwt beam="1">  1        2 0.12739862E+00 0.12824892E+04</pdfrwt>
<pdfrwt beam="2">  1       -2 0.38943803E+00 0.12824892E+04</pdfrwt>
<totfact> 0.27951352E-01</totfact>
</mgrwt>
</event>
<event>
 4    5  0.6615028E-008  0.1047539E+04  0.7818608E-02  0.9321845E-01
         -2   -1    0    0    0  501 -0.00000000000E+00  0.00000000000E+00  0.84537469475E+03  0.84537469475E+03  0.25500000000E-02 0.  1.
          2   -1    0    0  501    0  0.00000000000E+00 -0.00000000000E+00 -0.17106218593E+04  0.17106218593E+04  0.25500000000E-02 0. -1.
    8880023    1    1    2    0    0 -0.50616138917E+03 -0.63822324605E+03 -0.12595030894E+04  0.16381961122E+04  0.65864270000E+03 0.  0.
    8880022    1    1    2    0    0  0.50616138917E+03  0.63822324605E+03  0.39425592486E+03  0.91780044181E+03  0.15294330000E+03 0.  0.
<mgrwt>
<rscale>  0 0.98796371E+03</rscale>
<asrwt>0</asrwt>
<pdfrwt beam="1">  1        2 0.26317259E+00 0.10475392E+04</pdfrwt>
<pdfrwt beam="2">  1       -2 0.13005765E+00 0.10475392E+04</pdfrwt>
<totfact> 0.41535115E+00</totfact>
</mgrwt>
</event>
<event>
 4    5  0.6615028E-008  0.8328661E+03  0.7818608E-02  0.9643781E-01
          2   -1    0    0  501    0  0.00000000000E+00  0.00000000000E+00  0.42555834006E+03  0.42555834007E+03  0.25500000000E-02 0. -1.
         -2   -1    0    0    0  501 -0.00000000000E+00 -0.00000000000E+00 -0.12630385267E+04  0.12630385267E+04  0.25500000000E-02 0.  1.
    8880023    1    1    2    0    0 -0.50389048520E+03 -0.77136865880E+02 -0.19698965308E+03  0.85584510680E+03  0.65864270000E+03 0. -1.
    8880022    1    1    2    0    0  0.50389048520E+03  0.77136865880E+02 -0.64049053360E+03  0.83275176001E+03  0.15294330000E+03 0.  0.
<mgrwt>
<rscale>  0 0.74464987E+03</rscale>
<asrwt>0</asrwt>
<pdfrwt beam="1">  1        2 0.65470515E-01 0.83286609E+03</pdfrwt>
<pdfrwt beam="2">  1       -2 0.19431362E+00 0.83286609E+03</pdfrwt>
<totfact> 0.10857002E+01</totfact>
</mgrwt>
</event>
<event>
 4    5  0.6844228E-008  0.9355270E+03  0.7818608E-02  0.9471251E-01
          2   -1    0    0  501    0  0.00000000000E+00  0.00000000000E+00  0.19227169535E+04  0.19227169535E+04  0.25500000000E-02 0. -1.
         -2   -1    0    0    0  501 -0.00000000000E+00 -0.00000000000E+00 -0.87504778803E+03  0.87504778803E+03  0.25500000000E-02 0.  1.
    8880023    1    1    2    0    0 -0.22497946726E+03  0.62512779444E+03  0.16442996920E+04  0.18918065978E+04  0.65864270000E+03 0. -1.
    8880022    1    1    2    0    0  0.22497946726E+03 -0.62512779444E+03 -0.59663052651E+03  0.90595814376E+03  0.15294330000E+03 0.  0.
<mgrwt>
<rscale>  0 0.86436981E+03</rscale>
<asrwt>0</asrwt>
<pdfrwt beam="1">  1        2 0.29580261E+00 0.93552698E+03</pdfrwt>
<pdfrwt beam="2">  1       -2 0.13462274E+00 0.93552698E+03</pdfrwt>
<totfact> 0.29480168E+00</totfact>
</mgrwt>
</event>
<event>
 4    5  0.6615028E-008  0.7218096E+03  0.7818608E-02  0.9916510E-01
         -2   -1    0    0    0  501 -0.00000000000E+00  0.00000000000E+00  0.20015113009E+04  0.20015113010E+04  0.25500000000E-02 0.  1.
          2   -1    0    0  501    0  0.00000000000E+00 -0.00000000000E+00 -0.12709027185E+04  0.12709027185E+04  0.25500000000E-02 0. -1.
    8880023    1    1    2    0    0  0.19182992189E+03  0.22449993082E+03 -0.11526583046E+04  0.13600111438E+04  0.65864270000E+03 0. -1.
    8880022    1    1    2    0    0 -0.19182992189E+03 -0.22449993082E+03  0.18832668871E+04  0.19124028756E+04  0.15294330000E+03 0.  0.
<mgrwt>
<rscale>  0 0.59467787E+03</rscale>
<asrwt>0</asrwt>
<pdfrwt beam="1">  1        2 0.19552349E+00 0.72180963E+03</pdfrwt>
<pdfrwt beam="2">  1       -2 0.30792482E+00 0.72180963E+03</pdfrwt>
<totfact> 0.51743957E-01</totfact>
</mgrwt>
</event>
<event>
 4    5  0.6615028E-008  0.1317145E+04  0.7818608E-02  0.9050894E-01
          2   -1    0    0  501    0  0.00000000000E+00  0.00000000000E+00  0.13106723366E+04  0.13106723366E+04  0.25500000000E-02 0. -1.
         -2   -1    0    0    0  501 -0.00000000000E+00 -0.00000000000E+00 -0.17603716276E+04  0.17603716276E+04  0.25500000000E-02 0.  1.
    8880023    1    1    2    0    0  0.31735483251E+03  0.10956030771E+04  0.65919333014E+03  0.14728904389E+04  0.65864270000E+03 0.  0.
    8880022    1    1    2    0    0 -0.31735483251E+03 -0.10956030771E+04 -0.11088926212E+04  0.15981535253E+04  0.15294330000E+03 0.  0.
<mgrwt>
<rscale>  0 0.12734434E+04</rscale>
<asrwt>0</asrwt>
<pdfrwt beam="1">  1        2 0.20164190E+00 0.13171448E+04</pdfrwt>
<pdfrwt beam="2">  1       -2 0.27082641E+00 0.13171448E+04</pdfrwt>
<totfact> 0.74983469E-01</totfact>
</mgrwt>
</event>
<event>
 4    5  0.6615028E-008  0.1035507E+04  0.7818608E-02  0.9336511E-01
          2   -1    0    0  501    0  0.00000000000E+00  0.00000000000E+00  0.17276218164E+04  0.17276218164E+04  0.25500000000E-02 0. -1.
         -2   -1    0    0    0  501 -0.00000000000E+00 -0.00000000000E+00 -0.15262275181E+04  0.15262275181E+04  0.25500000000E-02 0.  1.
    8880023    1    1    2    0    0  0.76581416725E+03 -0.22801843462E+03  0.14389667114E+04  0.17728223678E+04  0.65864270000E+03 0. -1.
    8880022    1    1    2    0    0 -0.76581416725E+03  0.22801843462E+03 -0.12375724130E+04  0.14810269666E+04  0.15294330000E+03 0.  0.
<mgrwt>
<rscale>  0 0.97489995E+03</rscale>
<asrwt>0</asrwt>
<pdfrwt beam="1">  1        2 0.26578797E+00 0.10355066E+04</pdfrwt>
<pdfrwt beam="2">  1       -2 0.23480423E+00 0.10355066E+04</pdfrwt>
<totfact> 0.75003020E-01</totfact>
</mgrwt>
</event>
<event>
 4    5  0.6615028E-008  0.6896667E+03  0.7818608E-02  0.1004311E+00
         -2   -1    0    0    0  501 -0.00000000000E+00  0.00000000000E+00  0.18125511149E+03  0.18125511151E+03  0.25500000000E-02 0.  1.
          2   -1    0    0  501    0  0.00000000000E+00 -0.00000000000E+00 -0.20175247464E+04  0.20175247464E+04  0.25500000000E-02 0. -1.
    8880023    1    1    2    0    0 -0.20443087551E+03 -0.61569873852E+01 -0.53544155274E+03  0.87311955311E+03  0.65864270000E+03 0.  0.
    8880022    1    1    2    0    0  0.20443087551E+03  0.61569873852E+01 -0.13008280822E+04  0.13256603048E+04  0.15294330000E+03 0.  0.
<mgrwt>
<rscale>  0 0.53799508E+03</rscale>
<asrwt>0</asrwt>
<pdfrwt beam="1">  1        2 0.31038841E+00 0.68966666E+03</pdfrwt>
<pdfrwt beam="2">  1       -2 0.27885403E-01 0.68966666E+03</pdfrwt>
<totfact> 0.79373073E+01</totfact>
</mgrwt>
</event>
<event>
 4    5  0.6615028E-008  0.6731497E+03  0.7818608E-02  0.1013499E+00
         -2   -1    0    0    0  501 -0.00000000000E+00  0.00000000000E+00  0.67540565181E+03  0.67540565182E+03  0.25500000000E-02 0.  1.
          2   -1    0    0  501    0  0.00000000000E+00 -0.00000000000E+00 -0.12151701120E+04  0.12151701120E+04  0.25500000000E-02 0. -1.
    8880023    1    1    2    0    0  0.13612944782E+03  0.28090501141E+02 -0.11021276516E+04  0.12914394564E+04  0.65864270000E+03 0. -1.
    8880022    1    1    2    0    0 -0.13612944782E+03 -0.28090501141E+02  0.56236319141E+03  0.59913630744E+03  0.15294330000E+03 0.  0.
<mgrwt>
<rscale>  0 0.50107464E+03</rscale>
<asrwt>0</asrwt>
<pdfrwt beam="1">  1        2 0.18694925E+00 0.67314969E+03</pdfrwt>
<pdfrwt beam="2">  1       -2 0.10390856E+00 0.67314969E+03</pdfrwt>
<totfact> 0.14395372E+01</totfact>
</mgrwt>
</event>
<event>
 4    5  0.6615028E-008  0.8607369E+03  0.7818608E-02  0.9592254E-01
         -2   -1    0    0    0  501 -0.00000000000E+00  0.00000000000E+00  0.99150134549E+03  0.99150134549E+03  0.25500000000E-02 0.  1.
          2   -1    0    0  501    0  0.00000000000E+00 -0.00000000000E+00 -0.93788620284E+03  0.93788620285E+03  0.25500000000E-02 0. -1.
    8880023    1    1    2    0    0  0.51010937816E+03 -0.21643971865E+03 -0.60733057942E+03  0.10534317104E+04  0.65864270000E+03 0.  0.
    8880022    1    1    2    0    0 -0.51010937816E+03  0.21643971865E+03  0.66094572207E+03  0.87595583794E+03  0.15294330000E+03 0.  0.
<mgrwt>
<rscale>  0 0.77810986E+03</rscale>
<asrwt>0</asrwt>
<pdfrwt beam="1">  1        2 0.14429018E+00 0.86073686E+03</pdfrwt>
<pdfrwt beam="2">  1       -2 0.15253867E+00 0.86073686E+03</pdfrwt>
<totfact> 0.79642512E+00</totfact>
</mgrwt>
</event>
<event>
 4    5  0.6615028E-008  0.8482430E+03  0.7818608E-02  0.9614829E-01
         -2   -1    0    0    0  501 -0.00000000000E+00  0.00000000000E+00  0.11833388299E+04  0.11833388299E+04  0.25500000000E-02 0.  1.
          2   -1    0    0  501    0  0.00000000000E+00 -0.00000000000E+00 -0.10096138509E+04  0.10096138509E+04  0.25500000000E-02 0. -1.
    8880023    1    1    2    0    0 -0.13765719733E+03 -0.51648472152E+03 -0.73848786120E+03  0.11246690620E+04  0.65864270000E+03 0. -1.
    8880022    1    1    2    0    0  0.13765719733E+03  0.51648472152E+03  0.91221284021E+03  0.10682836189E+04  0.15294330000E+03 0.  0.
<mgrwt>
<rscale>  0 0.76322427E+03</rscale>
<asrwt>0</asrwt>
<pdfrwt beam="1">  1        2 0.15532521E+00 0.84824299E+03</pdfrwt>
<pdfrwt beam="2">  1       -2 0.18205213E+00 0.84824299E+03</pdfrwt>
<totfact> 0.43960692E+00</totfact>
</mgrwt>
</event>
<event>
 4    5  0.6615028E-008  0.1517921E+04  0.7818608E-02  0.8897084E-01
          2   -1    0    0  501    0  0.00000000000E+00  0.00000000000E+00  0.31785985706E+04  0.31785985706E+04  0.25500000000E-02 0. -1.
         -2   -1    0    0    0  501 -0.00000000000E+00 -0.00000000000E+00 -0.85150365554E+03  0.85150365554E+03  0.25500000000E-02 0.  1.
    8880023    1    1    2    0    0 -0.85782722769E+03  0.10650845271E+04  0.21655348040E+04  0.26445460472E+04  0.65864270000E+03 0.  0.
    8880022    1    1    2    0    0  0.85782722769E+03 -0.10650845271E+04  0.16156011105E+03  0.13855561789E+04  0.15294330000E+03 0.  0.
<mgrwt>
<rscale>  0 0.14811521E+04</rscale>
<asrwt>0</asrwt>
<pdfrwt beam="1">  1        2 0.48901516E+00 0.15179206E+04</pdfrwt>
<pdfrwt beam="2">  1       -2 0.13100056E+00 0.15179206E+04</pdfrwt>
<totfact> 0.54205629E-01</totfact>
</mgrwt>
</event>
<event>
 4    5  0.6615028E-008  0.8812623E+03  0.7818608E-02  0.9556807E-01
          2   -1    0    0  501    0  0.00000000000E+00  0.00000000000E+00  0.95839636893E+03  0.95839636894E+03  0.25500000000E-02 0. -1.
         -2   -1    0    0    0  501 -0.00000000000E+00 -0.00000000000E+00 -0.63599328281E+03  0.63599328281E+03  0.25500000000E-02 0.  1.
    8880023    1    1    2    0    0  0.24380994601E+03  0.53232477977E+03  0.42865559999E+03  0.97998407671E+03  0.65864270000E+03 0.  0.
    8880022    1    1    2    0    0 -0.24380994601E+03 -0.53232477977E+03 -0.10625251387E+03  0.61440557505E+03  0.15294330000E+03 0.  0.
<mgrwt>
<rscale>  0 0.80222161E+03</rscale>
<asrwt>0</asrwt>
<pdfrwt beam="1">  1        2 0.14744559E+00 0.88126226E+03</pdfrwt>
<pdfrwt beam="2">  1       -2 0.97845121E-01 0.88126226E+03</pdfrwt>
<totfact> 0.23398621E+01</totfact>
</mgrwt>
</event>
<event>
 4    5  0.6615028E-008  0.2119091E+04  0.7818608E-02  0.8563956E-01
          2   -1    0    0  501    0  0.00000000000E+00  0.00000000000E+00  0.15887915894E+04  0.15887915894E+04  0.25500000000E-02 0. -1.
         -2   -1    0    0    0  501 -0.00000000000E+00 -0.00000000000E+00 -0.31221101344E+04  0.31221101344E+04  0.25500000000E-02 0.  1.
    8880023    1    1    2    0    0 -0.18846999258E+04  0.71038198371E+03 -0.16528084754E+04  0.26874378943E+04  0.65864270000E+03 0.  0.
    8880022    1    1    2    0    0  0.18846999258E+04 -0.71038198371E+03  0.11948993037E+03  0.20234638296E+04  0.15294330000E+03 0.  0.
<mgrwt>
<rscale>  0 0.20938541E+04</rscale>
<asrwt>0</asrwt>
<pdfrwt beam="1">  1        2 0.24442948E+00 0.21190910E+04</pdfrwt>
<pdfrwt beam="2">  1       -2 0.48032464E+00 0.21190910E+04</pdfrwt>
<totfact> 0.21767143E-02</totfact>
</mgrwt>
</event>
<event>
 4    5  0.6615028E-008  0.7021432E+03  0.7818608E-02  0.9988424E-01
          2   -1    0    0  501    0  0.00000000000E+00  0.00000000000E+00  0.46101411779E+03  0.46101411780E+03  0.25500000000E-02 0. -1.
         -2   -1    0    0    0  501 -0.00000000000E+00 -0.00000000000E+00 -0.62119902080E+03  0.62119902080E+03  0.25500000000E-02 0.  1.
    8880023    1    1    2    0    0 -0.24025180158E+03 -0.38392039026E+02  0.81313629990E+02  0.70683589998E+03  0.65864270000E+03 0. -1.
    8880022    1    1    2    0    0  0.24025180158E+03  0.38392039026E+02 -0.24149853299E+03  0.37537723862E+03  0.15294330000E+03 0.  0.
<mgrwt>
<rscale>  0 0.56160754E+03</rscale>
<asrwt>0</asrwt>
<pdfrwt beam="1">  1        2 0.70925249E-01 0.70214321E+03</pdfrwt>
<pdfrwt beam="2">  1       -2 0.95569080E-01 0.70214321E+03</pdfrwt>
<totfact> 0.63061026E+01</totfact>
</mgrwt>
</event>
<event>
 4    5  0.6615028E-008  0.7908679E+03  0.7818608E-02  0.9730901E-01
          2   -1    0    0  501    0  0.00000000000E+00  0.00000000000E+00  0.23585038471E+04  0.23585038471E+04  0.25500000000E-02 0. -1.
         -2   -1    0    0    0  501 -0.00000000000E+00 -0.00000000000E+00 -0.45870647717E+03  0.45870647718E+03  0.25500000000E-02 0.  1.
    8880023    1    1    2    0    0  0.42097530525E+03 -0.12017307562E+03  0.21496004990E+04  0.22904703201E+04  0.65864270000E+03 0.  0.
    8880022    1    1    2    0    0 -0.42097530525E+03  0.12017307562E+03 -0.24980312905E+03  0.52674000420E+03  0.15294330000E+03 0.  0.
<mgrwt>
<rscale>  0 0.69206398E+03</rscale>
<asrwt>0</asrwt>
<pdfrwt beam="1">  1        2 0.36284675E+00 0.79086787E+03</pdfrwt>
<pdfrwt beam="2">  1       -2 0.70570227E-01 0.79086787E+03</pdfrwt>
<totfact> 0.79609211E+00</totfact>
</mgrwt>
</event>
<event>
 4    5  0.6615028E-008  0.7935438E+03  0.7818608E-02  0.9724934E-01
         -2   -1    0    0    0  501 -0.00000000000E+00  0.00000000000E+00  0.45692425779E+03  0.45692425780E+03  0.25500000000E-02 0.  1.
          2   -1    0    0  501    0  0.00000000000E+00 -0.00000000000E+00 -0.14422687015E+04  0.14422687015E+04  0.25500000000E-02 0. -1.
    8880023    1    1    2    0    0  0.35041558589E+03  0.27038939490E+03 -0.11548167707E+04  0.14011828888E+04  0.65864270000E+03 0. -1.
    8880022    1    1    2    0    0 -0.35041558589E+03 -0.27038939490E+03  0.16947232698E+03  0.49801007051E+03  0.15294330000E+03 0.  0.
<mgrwt>
<rscale>  0 0.69551468E+03</rscale>
<asrwt>0</asrwt>
<pdfrwt beam="1">  1        2 0.22188749E+00 0.79354377E+03</pdfrwt>
<pdfrwt beam="2">  1       -2 0.70296041E-01 0.79354377E+03</pdfrwt>
<totfact> 0.25655580E+01</totfact>
</mgrwt>
</event>
<event>
 4    5  0.6615028E-008  0.7340537E+03  0.7818608E-02  0.9877619E-01
         -2   -1    0    0    0  501 -0.00000000000E+00  0.00000000000E+00  0.12241495435E+04  0.12241495435E+04  0.25500000000E-02 0.  1.
          2   -1    0    0  501    0  0.00000000000E+00 -0.00000000000E+00 -0.16495997243E+04  0.16495997243E+04  0.25500000000E-02 0. -1.
    8880023    1    1    2    0    0  0.29974475156E+03 -0.12319810507E+03 -0.15383862608E+04  0.17045431009E+04  0.65864270000E+03 0. -1.
    8880022    1    1    2    0    0 -0.29974475156E+03  0.12319810507E+03  0.11129360801E+04  0.11692061668E+04  0.15294330000E+03 0.  0.
<mgrwt>
<rscale>  0 0.61358316E+03</rscale>
<asrwt>0</asrwt>
<pdfrwt beam="1">  1        2 0.25378457E+00 0.73405374E+03</pdfrwt>
<pdfrwt beam="2">  1       -2 0.18833070E+00 0.73405374E+03</pdfrwt>
<totfact> 0.17253245E+00</totfact>
</mgrwt>
</event>
<event>
 4    5  0.6615028E-008  0.8864717E+03  0.7818608E-02  0.9548107E-01
          2   -1    0    0  501    0  0.00000000000E+00  0.00000000000E+00  0.10207052222E+04  0.10207052222E+04  0.25500000000E-02 0. -1.
         -2   -1    0    0    0  501 -0.00000000000E+00 -0.00000000000E+00 -0.71942706863E+03  0.71942706863E+03  0.25500000000E-02 0.  1.
    8880023    1    1    2    0    0 -0.50141063553E+03 -0.31718959345E+03  0.58789586831E+03  0.10636980877E+04  0.65864270000E+03 0.  0.
    8880022    1    1    2    0    0  0.50141063553E+03  0.31718959345E+03 -0.28661771479E+03  0.67643420305E+03  0.15294330000E+03 0.  0.
<mgrwt>
<rscale>  0 0.80828104E+03</rscale>
<asrwt>0</asrwt>
<pdfrwt beam="1">  1        2 0.15703157E+00 0.88647170E+03</pdfrwt>
<pdfrwt beam="2">  1       -2 0.11068109E+00 0.88647170E+03</pdfrwt>
<totfact> 0.15861838E+01</totfact>
</mgrwt>
</event>
<event>
 4    5  0.6615028E-008  0.8169075E+03  0.7818608E-02  0.9675364E-01
          2   -1    0    0  501    0  0.00000000000E+00  0.00000000000E+00  0.96813642615E+03  0.96813642615E+03  0.25500000000E-02 0. -1.
         -2   -1    0    0    0  501 -0.00000000000E+00 -0.00000000000E+00 -0.85248282336E+03  0.85248282336E+03  0.25500000000E-02 0.  1.
    8880023    1    1    2    0    0  0.47217500493E+03  0.10285133782E+03  0.67940196950E+03  0.10625087649E+04  0.65864270000E+03 0. -1.
    8880022    1    1    2    0    0 -0.47217500493E+03 -0.10285133782E+03 -0.56374836671E+03  0.75811048466E+03  0.15294330000E+03 0.  0.
<mgrwt>
<rscale>  0 0.72502711E+03</rscale>
<asrwt>0</asrwt>
<pdfrwt beam="1">  1        2 0.14894407E+00 0.81690749E+03</pdfrwt>
<pdfrwt beam="2">  1       -2 0.13115120E+00 0.81690749E+03</pdfrwt>
<totfact> 0.11325011E+01</totfact>
</mgrwt>
</event>
<event>
 4    5  0.6615028E-008  0.6834000E+03  0.7818608E-02  0.1007462E+00
         -2   -1    0    0    0  501 -0.00000000000E+00  0.00000000000E+00  0.93588000404E+03  0.93588000405E+03  0.25500000000E-02 0.  1.
          2   -1    0    0  501    0  0.00000000000E+00 -0.00000000000E+00 -0.12380648675E+04  0.12380648675E+04  0.25500000000E-02 0. -1.
    8880023    1    1    2    0    0  0.20507605743E+02 -0.18112075229E+03 -0.11256116503E+04  0.13168284179E+04  0.65864270000E+03 0. -1.
    8880022    1    1    2    0    0 -0.20507605743E+02  0.18112075229E+03  0.82342678681E+03  0.85711645361E+03  0.15294330000E+03 0.  0.
<mgrwt>
<rscale>  0 0.52495794E+03</rscale>
<asrwt>0</asrwt>
<pdfrwt beam="1">  1        2 0.19047152E+00 0.68339995E+03</pdfrwt>
<pdfrwt beam="2">  1       -2 0.14398154E+00 0.68339995E+03</pdfrwt>
<totfact> 0.61894754E+00</totfact>
</mgrwt>
</event>
<event>
 4    5  0.6615028E-008  0.1171767E+04  0.7818608E-02  0.9185068E-01
          2   -1    0    0  501    0  0.00000000000E+00  0.00000000000E+00  0.13891063395E+04  0.13891063395E+04  0.25500000000E-02 0. -1.
         -2   -1    0    0    0  501 -0.00000000000E+00 -0.00000000000E+00 -0.86764555518E+03  0.86764555519E+03  0.25500000000E-02 0.  1.
    8880023    1    1    2    0    0 -0.82082262838E+03  0.51524538665E+03  0.50374736586E+03  0.12754603916E+04  0.65864270000E+03 0.  0.
    8880022    1    1    2    0    0  0.82082262838E+03 -0.51524538665E+03  0.17713418435E+02  0.98129150304E+03  0.15294330000E+03 0.  0.
<mgrwt>
<rscale>  0 0.11208894E+04</rscale>
<asrwt>0</asrwt>
<pdfrwt beam="1">  1        2 0.21370867E+00 0.11717670E+04</pdfrwt>
<pdfrwt beam="2">  1       -2 0.13348393E+00 0.11717670E+04</pdfrwt>
<totfact> 0.58190108E+00</totfact>
</mgrwt>
</event>
<event>
 4    5  0.6615028E-008  0.1062104E+04  0.7818608E-02  0.9304471E-01
         -2   -1    0    0    0  501 -0.00000000000E+00  0.00000000000E+00  0.18351876105E+04  0.18351876105E+04  0.25500000000E-02 0.  1.
          2   -1    0    0  501    0  0.00000000000E+00 -0.00000000000E+00 -0.11674371037E+04  0.11674371037E+04  0.25500000000E-02 0. -1.
    8880023    1    1    2    0    0  0.83299896146E+03  0.19141246910E+02  0.14848703493E+04  0.18256242268E+04  0.65864270000E+03 0.  0.
    8880022    1    1    2    0    0 -0.83299896146E+03 -0.19141246910E+02 -0.81711984251E+03  0.11770004873E+04  0.15294330000E+03 0.  0.
<mgrwt>
<rscale>  0 0.10037230E+04</rscale>
<asrwt>0</asrwt>
<pdfrwt beam="1">  1        2 0.17960571E+00 0.10621035E+04</pdfrwt>
<pdfrwt beam="2">  1       -2 0.28233655E+00 0.10621035E+04</pdfrwt>
<totfact> 0.80144864E-01</totfact>
</mgrwt>
</event>
<event>
 4    5  0.6615028E-008  0.7912502E+03  0.7818608E-02  0.9730044E-01
         -2   -1    0    0    0  501 -0.00000000000E+00  0.00000000000E+00  0.17681036957E+04  0.17681036957E+04  0.25500000000E-02 0.  1.
          2   -1    0    0  501    0  0.00000000000E+00 -0.00000000000E+00 -0.51617827162E+03  0.51617827162E+03  0.25500000000E-02 0. -1.
    8880023    1    1    2    0    0  0.29735631565E+02  0.43747284358E+03 -0.15184772448E+03  0.80568891909E+03  0.65864270000E+03 0.  0.
    8880022    1    1    2    0    0 -0.29735631565E+02 -0.43747284358E+03  0.14037731486E+04  0.14785930483E+04  0.15294330000E+03 0.  0.
<mgrwt>
<rscale>  0 0.69255802E+03</rscale>
<asrwt>0</asrwt>
<pdfrwt beam="1">  1        2 0.79412041E-01 0.79125022E+03</pdfrwt>
<pdfrwt beam="2">  1       -2 0.27201596E+00 0.79125022E+03</pdfrwt>
<totfact> 0.28749823E+00</totfact>
</mgrwt>
</event>
<event>
 4    5  0.6615028E-008  0.8637483E+03  0.7818608E-02  0.9586930E-01
          2   -1    0    0  501    0  0.00000000000E+00  0.00000000000E+00  0.43171446634E+04  0.43171446634E+04  0.25500000000E-02 0. -1.
         -2   -1    0    0    0  501 -0.00000000000E+00 -0.00000000000E+00 -0.19239096253E+03  0.19239096255E+03  0.25500000000E-02 0.  1.
    8880023    1    1    2    0    0  0.53854677705E+03 -0.14905795015E+03  0.36776677173E+04  0.37777375436E+04  0.65864270000E+03 0.  0.
    8880022    1    1    2    0    0 -0.53854677705E+03  0.14905795015E+03  0.44708598361E+03  0.73179808235E+03  0.15294330000E+03 0.  1.
<mgrwt>
<rscale>  0 0.78167285E+03</rscale>
<asrwt>0</asrwt>
<pdfrwt beam="1">  1        2 0.66417610E+00 0.86374829E+03</pdfrwt>
<pdfrwt beam="2">  1       -2 0.29598610E-01 0.86374829E+03</pdfrwt>
<totfact> 0.21080008E+00</totfact>
</mgrwt>
</event>
<event>
 4    5  0.6615028E-008  0.1052276E+04  0.7818608E-02  0.9316150E-01
         -2   -1    0    0    0  501 -0.00000000000E+00  0.00000000000E+00  0.17453212364E+04  0.17453212364E+04  0.25500000000E-02 0.  1.
          2   -1    0    0  501    0  0.00000000000E+00 -0.00000000000E+00 -0.92052304984E+03  0.92052304984E+03  0.25500000000E-02 0. -1.
    8880023    1    1    2    0    0  0.57390544606E+03 -0.58660722275E+03 -0.44803228760E+03  0.11436864220E+04  0.65864270000E+03 0.  0.
    8880022    1    1    2    0    0 -0.57390544606E+03  0.58660722275E+03  0.12728304741E+04  0.15221578643E+04  0.15294330000E+03 0.  0.
<mgrwt>
<rscale>  0 0.99309577E+03</rscale>
<asrwt>0</asrwt>
<pdfrwt beam="1">  1        2 0.14161893E+00 0.10522764E+04</pdfrwt>
<pdfrwt beam="2">  1       -2 0.26851096E+00 0.10522764E+04</pdfrwt>
<totfact> 0.13956849E+00</totfact>
</mgrwt>
</event>
<event>
 4    5  0.6615028E-008  0.1264817E+04  0.7818608E-02  0.9096554E-01
          2   -1    0    0  501    0  0.00000000000E+00  0.00000000000E+00  0.41136710624E+04  0.41136710624E+04  0.25500000000E-02 0. -1.
         -2   -1    0    0    0  501 -0.00000000000E+00 -0.00000000000E+00 -0.47988726441E+03  0.47988726441E+03  0.25500000000E-02 0.  1.
    8880023    1    1    2    0    0 -0.51022730188E+03 -0.95164086391E+03  0.31614912223E+04  0.34051122138E+04  0.65864270000E+03 0.  0.
    8880022    1    1    2    0    0  0.51022730188E+03  0.95164086391E+03  0.47229257563E+03  0.11884461130E+04  0.15294330000E+03 0.  0.
<mgrwt>
<rscale>  0 0.12188050E+04</rscale>
<asrwt>0</asrwt>
<pdfrwt beam="1">  1        2 0.63287246E+00 0.12648172E+04</pdfrwt>
<pdfrwt beam="2">  1       -2 0.73828811E-01 0.12648172E+04</pdfrwt>
<totfact> 0.46051254E-01</totfact>
</mgrwt>
</event>
<event>
 4    5  0.6615028E-008  0.1685702E+04  0.7818608E-02  0.8788545E-01
          2   -1    0    0  501    0  0.00000000000E+00  0.00000000000E+00  0.33259581104E+04  0.33259581104E+04  0.25500000000E-02 0. -1.
         -2   -1    0    0    0  501 -0.00000000000E+00 -0.00000000000E+00 -0.15451428014E+04  0.15451428014E+04  0.25500000000E-02 0.  1.
    8880023    1    1    2    0    0 -0.14247206177E+04  0.61477732113E+03  0.26085277626E+04  0.31058021971E+04  0.65864270000E+03 0. -1.
    8880022    1    1    2    0    0  0.14247206177E+04 -0.61477732113E+03 -0.82771245359E+03  0.17652987147E+04  0.15294330000E+03 0.  0.
<mgrwt>
<rscale>  0 0.16531509E+04</rscale>
<asrwt>0</asrwt>
<pdfrwt beam="1">  1        2 0.51168586E+00 0.16857017E+04</pdfrwt>
<pdfrwt beam="2">  1       -2 0.23771428E+00 0.16857017E+04</pdfrwt>
<totfact> 0.75459139E-02</totfact>
</mgrwt>
</event>
<event>
 4    5  0.6615028E-008  0.8382128E+03  0.7818608E-02  0.9633559E-01
         -2   -1    0    0    0  501 -0.00000000000E+00  0.00000000000E+00  0.16399306741E+03  0.16399306743E+03  0.25500000000E-02 0.  1.
          2   -1    0    0  501    0  0.00000000000E+00 -0.00000000000E+00 -0.37466015276E+04  0.37466015276E+04  0.25500000000E-02 0. -1.
    8880023    1    1    2    0    0  0.36321931743E+03  0.36994902151E+03 -0.30041196348E+04  0.31188676691E+04  0.65864270000E+03 0.  0.
    8880022    1    1    2    0    0 -0.36321931743E+03 -0.36994902151E+03 -0.57848882537E+03  0.79172692588E+03  0.15294330000E+03 0.  0.
<mgrwt>
<rscale>  0 0.75114270E+03</rscale>
<asrwt>0</asrwt>
<pdfrwt beam="1">  1        2 0.57640017E+00 0.83821284E+03</pdfrwt>
<pdfrwt beam="2">  1       -2 0.25229706E-01 0.83821284E+03</pdfrwt>
<totfact> 0.81482256E+00</totfact>
</mgrwt>
</event>
<event>
 4    5  0.6615028E-008  0.8020839E+03  0.7818608E-02  0.9706308E-01
         -2   -1    0    0    0  501 -0.00000000000E+00  0.00000000000E+00  0.27256219837E+04  0.27256219837E+04  0.25500000000E-02 0.  1.
          2   -1    0    0  501    0  0.00000000000E+00 -0.00000000000E+00 -0.44524556358E+03  0.44524556359E+03  0.25500000000E-02 0. -1.
    8880023    1    1    2    0    0 -0.16750553082E+03  0.42599320258E+03 -0.37811861400E+02  0.80297462888E+03  0.65864270000E+03 0.  0.
    8880022    1    1    2    0    0  0.16750553082E+03 -0.42599320258E+03  0.23181882815E+04  0.23678929184E+04  0.15294330000E+03 0.  0.
<mgrwt>
<rscale>  0 0.70642437E+03</rscale>
<asrwt>0</asrwt>
<pdfrwt beam="1">  1        2 0.68499318E-01 0.80208386E+03</pdfrwt>
<pdfrwt beam="2">  1       -2 0.41932646E+00 0.80208386E+03</pdfrwt>
<totfact> 0.41148061E-01</totfact>
</mgrwt>
</event>
<event>
 4    5  0.6615028E-008  0.1055148E+04  0.7818608E-02  0.9312719E-01
         -2   -1    0    0    0  501 -0.00000000000E+00  0.00000000000E+00  0.52886540621E+03  0.52886540621E+03  0.25500000000E-02 0.  1.
          2   -1    0    0  501    0  0.00000000000E+00 -0.00000000000E+00 -0.26303744835E+04  0.26303744835E+04  0.25500000000E-02 0. -1.
    8880023    1    1    2    0    0  0.71060046418E+03  0.41782013368E+03 -0.20662809990E+04  0.23200978550E+04  0.65864270000E+03 0.  0.
    8880022    1    1    2    0    0 -0.71060046418E+03 -0.41782013368E+03 -0.35228078253E+02  0.83914203465E+03  0.15294330000E+03 0.  0.
<mgrwt>
<rscale>  0 0.99620355E+03</rscale>
<asrwt>0</asrwt>
<pdfrwt beam="1">  1        2 0.40467299E+00 0.10551478E+04</pdfrwt>
<pdfrwt beam="2">  1       -2 0.81363910E-01 0.10551478E+04</pdfrwt>
<totfact> 0.39061764E+00</totfact>
</mgrwt>
</event>
<event>
 4    5  0.6615028E-008  0.1079463E+04  0.7818608E-02  0.9284273E-01
          2   -1    0    0  501    0  0.00000000000E+00  0.00000000000E+00  0.19223910096E+04  0.19223910096E+04  0.25500000000E-02 0. -1.
         -2   -1    0    0    0  501 -0.00000000000E+00 -0.00000000000E+00 -0.14963218937E+04  0.14963218937E+04  0.25500000000E-02 0.  1.
    8880023    1    1    2    0    0  0.71887240320E+03  0.46330686523E+03  0.16172145114E+04  0.19443826181E+04  0.65864270000E+03 0.  0.
    8880022    1    1    2    0    0 -0.71887240320E+03 -0.46330686523E+03 -0.11911453956E+04  0.14743302852E+04  0.15294330000E+03 0.  0.
<mgrwt>
<rscale>  0 0.10224369E+04</rscale>
<asrwt>0</asrwt>
<pdfrwt beam="1">  1        2 0.29575246E+00 0.10794633E+04</pdfrwt>
<pdfrwt beam="2">  1       -2 0.23020337E+00 0.10794633E+04</pdfrwt>
<totfact> 0.62148050E-01</totfact>
</mgrwt>
</event>
<event>
 4    5  0.6615028E-008  0.9983747E+03  0.7818608E-02  0.9383687E-01
         -2   -1    0    0    0  501 -0.00000000000E+00  0.00000000000E+00  0.76603210674E+03  0.76603210674E+03  0.25500000000E-02 0.  1.
          2   -1    0    0  501    0  0.00000000000E+00 -0.00000000000E+00 -0.19949162959E+04  0.19949162959E+04  0.25500000000E-02 0. -1.
    8880023    1    1    2    0    0 -0.70554909888E+02  0.74696977371E+03 -0.16186115209E+04  0.19017505883E+04  0.65864270000E+03 0.  0.
    8880022    1    1    2    0    0  0.70554909888E+02 -0.74696977371E+03  0.38972733172E+03  0.85919781439E+03  0.15294330000E+03 0.  0.
<mgrwt>
<rscale>  0 0.93430412E+03</rscale>
<asrwt>0</asrwt>
<pdfrwt beam="1">  1        2 0.30691020E+00 0.99837470E+03</pdfrwt>
<pdfrwt beam="2">  1       -2 0.11785109E+00 0.99837470E+03</pdfrwt>
<totfact> 0.37318512E+00</totfact>
</mgrwt>
</event>
<event>
 4    5  0.6615028E-008  0.1054681E+04  0.7818608E-02  0.9313275E-01
          2   -1    0    0  501    0  0.00000000000E+00  0.00000000000E+00  0.33716782744E+04  0.33716782744E+04  0.25500000000E-02 0. -1.
         -2   -1    0    0    0  501 -0.00000000000E+00 -0.00000000000E+00 -0.58805057459E+03  0.58805057459E+03  0.25500000000E-02 0.  1.
    8880023    1    1    2    0    0  0.31364331768E+03  0.76168879765E+03  0.29256619960E+04  0.31099598513E+04  0.65864270000E+03 0.  0.
    8880022    1    1    2    0    0 -0.31364331768E+03 -0.76168879765E+03 -0.14203429621E+03  0.84976899773E+03  0.15294330000E+03 0.  0.
<mgrwt>
<rscale>  0 0.99569854E+03</rscale>
<asrwt>0</asrwt>
<pdfrwt beam="1">  1        2 0.51871975E+00 0.10546811E+04</pdfrwt>
<pdfrwt beam="2">  1       -2 0.90469316E-01 0.10546811E+04</pdfrwt>
<totfact> 0.10626281E+00</totfact>
</mgrwt>
</event>
<event>
 4    5  0.6615028E-008  0.7018445E+03  0.7818608E-02  0.9989634E-01
         -2   -1    0    0    0  501 -0.00000000000E+00  0.00000000000E+00  0.46509853601E+03  0.46509853602E+03  0.25500000000E-02 0.  1.
          2   -1    0    0  501    0  0.00000000000E+00 -0.00000000000E+00 -0.17006653536E+04  0.17006653536E+04  0.25500000000E-02 0. -1.
    8880023    1    1    2    0    0  0.20918790727E+03 -0.12253943885E+03 -0.15733220682E+04  0.17227675499E+04  0.65864270000E+03 0. -1.
    8880022    1    1    2    0    0 -0.20918790727E+03  0.12253943885E+03  0.33775525061E+03  0.44299633966E+03  0.15294330000E+03 0.  0.
<mgrwt>
<rscale>  0 0.56107117E+03</rscale>
<asrwt>0</asrwt>
<pdfrwt beam="1">  1        2 0.26164082E+00 0.70184450E+03</pdfrwt>
<pdfrwt beam="2">  1       -2 0.71553622E-01 0.70184450E+03</pdfrwt>
<totfact> 0.17961146E+01</totfact>
</mgrwt>
</event>
<event>
 4    5  0.6615028E-008  0.7802842E+03  0.7818608E-02  0.9755170E-01
          2   -1    0    0  501    0  0.00000000000E+00  0.00000000000E+00  0.29310435576E+04  0.29310435576E+04  0.25500000000E-02 0. -1.
         -2   -1    0    0    0  501 -0.00000000000E+00 -0.00000000000E+00 -0.40593597631E+03  0.40593597631E+03  0.25500000000E-02 0.  1.
    8880023    1    1    2    0    0 -0.41676223490E+03 -0.36640465923E+02  0.27353086262E+04  0.28444255608E+04  0.65864270000E+03 0.  0.
    8880022    1    1    2    0    0  0.41676223490E+03  0.36640465923E+02 -0.21020104486E+03  0.49255397315E+03  0.15294330000E+03 0.  0.
<mgrwt>
<rscale>  0 0.67824899E+03</rscale>
<asrwt>0</asrwt>
<pdfrwt beam="1">  1        2 0.45092976E+00 0.78028424E+03</pdfrwt>
<pdfrwt beam="2">  1       -2 0.62451691E-01 0.78028424E+03</pdfrwt>
<totfact> 0.48362369E+00</totfact>
</mgrwt>
</event>
<event>
 4    5  0.6615028E-008  0.1532748E+04  0.7818608E-02  0.8886851E-01
         -2   -1    0    0    0  501 -0.00000000000E+00  0.00000000000E+00  0.11447925279E+04  0.11447925280E+04  0.25500000000E-02 0.  1.
          2   -1    0    0  501    0  0.00000000000E+00 -0.00000000000E+00 -0.29638511551E+04  0.29638511551E+04  0.25500000000E-02 0. -1.
    8880023    1    1    2    0    0 -0.63709198143E+03 -0.12286654645E+04 -0.21849272853E+04  0.26689365794E+04  0.65864270000E+03 0.  0.
    8880022    1    1    2    0    0  0.63709198143E+03  0.12286654645E+04  0.36586865810E+03  0.14397071037E+04  0.15294330000E+03 0.  0.
<mgrwt>
<rscale>  0 0.14963987E+04</rscale>
<asrwt>0</asrwt>
<pdfrwt beam="1">  1        2 0.45597710E+00 0.15327476E+04</pdfrwt>
<pdfrwt beam="2">  1       -2 0.17612193E+00 0.15327476E+04</pdfrwt>
<totfact> 0.33289995E-01</totfact>
</mgrwt>
</event>
<event>
 4    5  0.6615028E-008  0.1195653E+04  0.7818608E-02  0.9161359E-01
          2   -1    0    0  501    0  0.00000000000E+00  0.00000000000E+00  0.13132721256E+04  0.13132721256E+04  0.25500000000E-02 0. -1.
         -2   -1    0    0    0  501 -0.00000000000E+00 -0.00000000000E+00 -0.11605484655E+04  0.11605484655E+04  0.25500000000E-02 0.  1.
    8880023    1    1    2    0    0 -0.82525565428E+03 -0.56100761759E+03  0.63631712992E+03  0.13544320352E+04  0.65864270000E+03 0.  0.
    8880022    1    1    2    0    0  0.82525565428E+03  0.56100761759E+03 -0.48359346990E+03  0.11193885559E+04  0.15294330000E+03 0.  0.
<mgrwt>
<rscale>  0 0.11461321E+04</rscale>
<asrwt>0</asrwt>
<pdfrwt beam="1">  1        2 0.20204186E+00 0.11956532E+04</pdfrwt>
<pdfrwt beam="2">  1       -2 0.17854592E+00 0.11956532E+04</pdfrwt>
<totfact> 0.29273380E+00</totfact>
</mgrwt>
</event>
<event>
 4    5  0.6615028E-008  0.1046809E+04  0.7818608E-02  0.9322728E-01
          2   -1    0    0  501    0  0.00000000000E+00  0.00000000000E+00  0.90901976764E+03  0.90901976764E+03  0.25500000000E-02 0. -1.
         -2   -1    0    0    0  501 -0.00000000000E+00 -0.00000000000E+00 -0.15190758930E+04  0.15190758930E+04  0.25500000000E-02 0.  1.
    8880023    1    1    2    0    0 -0.57934363031E+03 -0.57127857242E+03  0.40130814786E+03  0.11210961980E+04  0.65864270000E+03 0.  0.
    8880022    1    1    2    0    0  0.57934363031E+03  0.57127857242E+03 -0.10113642732E+04  0.13069994627E+04  0.15294330000E+03 0.  0.
<mgrwt>
<rscale>  0 0.98717172E+03</rscale>
<asrwt>0</asrwt>
<pdfrwt beam="1">  1        2 0.13984919E+00 0.10468087E+04</pdfrwt>
<pdfrwt beam="2">  1       -2 0.23370398E+00 0.10468087E+04</pdfrwt>
<totfact> 0.23199139E+00</totfact>
</mgrwt>
</event>
<event>
 4    5  0.6615028E-008  0.1508962E+04  0.7818608E-02  0.8903333E-01
          2   -1    0    0  501    0  0.00000000000E+00  0.00000000000E+00  0.15700410177E+04  0.15700410177E+04  0.25500000000E-02 0. -1.
         -2   -1    0    0    0  501 -0.00000000000E+00 -0.00000000000E+00 -0.15055633668E+04  0.15055633668E+04  0.25500000000E-02 0.  1.
    8880023    1    1    2    0    0  0.63405454732E+03 -0.12004717023E+04 -0.51099187801E+03  0.15931353937E+04  0.65864270000E+03 0.  0.
    8880022    1    1    2    0    0 -0.63405454732E+03  0.12004717023E+04  0.57546952889E+03  0.14824689908E+04  0.15294330000E+03 0.  0.
<mgrwt>
<rscale>  0 0.14719354E+04</rscale>
<asrwt>0</asrwt>
<pdfrwt beam="1">  1        2 0.24154477E+00 0.15089625E+04</pdfrwt>
<pdfrwt beam="2">  1       -2 0.23162513E+00 0.15089625E+04</pdfrwt>
<totfact> 0.90944116E-01</totfact>
</mgrwt>
</event>
<event>
 4    5  0.6615028E-008  0.6885695E+03  0.7818608E-02  0.1004840E+00
          2   -1    0    0  501    0  0.00000000000E+00  0.00000000000E+00  0.43258222073E+03  0.43258222074E+03  0.25500000000E-02 0. -1.
         -2   -1    0    0    0  501 -0.00000000000E+00 -0.00000000000E+00 -0.67240467776E+03  0.67240467777E+03  0.25500000000E-02 0.  1.
    8880023    1    1    2    0    0 -0.97935876958E+02 -0.17528936678E+03  0.84811768964E+02  0.69377304684E+03  0.65864270000E+03 0.  0.
    8880022    1    1    2    0    0  0.97935876958E+02  0.17528936678E+03 -0.32463422599E+03  0.41121385167E+03  0.15294330000E+03 0.  0.
<mgrwt>
<rscale>  0 0.53577980E+03</rscale>
<asrwt>0</asrwt>
<pdfrwt beam="1">  1        2 0.66551111E-01 0.68856953E+03</pdfrwt>
<pdfrwt beam="2">  1       -2 0.10344687E+00 0.68856953E+03</pdfrwt>
<totfact> 0.56274827E+01</totfact>
</mgrwt>
</event>
<event>
 4    5  0.6615028E-008  0.1044000E+04  0.7818608E-02  0.9326129E-01
          2   -1    0    0  501    0  0.00000000000E+00  0.00000000000E+00  0.28640339751E+04  0.28640339751E+04  0.25500000000E-02 0. -1.
         -2   -1    0    0    0  501 -0.00000000000E+00 -0.00000000000E+00 -0.50165060670E+03  0.50165060671E+03  0.25500000000E-02 0.  1.
    8880023    1    1    2    0    0  0.65404371744E+03 -0.47786275082E+03  0.23155563118E+04  0.25400270141E+04  0.65864270000E+03 0.  0.
    8880022    1    1    2    0    0 -0.65404371744E+03  0.47786275082E+03  0.46827056637E+02  0.82565756776E+03  0.15294330000E+03 0.  0.
<mgrwt>
<rscale>  0 0.98412553E+03</rscale>
<asrwt>0</asrwt>
<pdfrwt beam="1">  1        2 0.44062061E+00 0.10440001E+04</pdfrwt>
<pdfrwt beam="2">  1       -2 0.77177016E-01 0.10440001E+04</pdfrwt>
<totfact> 0.32044541E+00</totfact>
</mgrwt>
</event>
<event>
 4    5  0.6615028E-008  0.1496088E+04  0.7818608E-02  0.8912403E-01
          2   -1    0    0  501    0  0.00000000000E+00  0.00000000000E+00  0.32852365895E+04  0.32852365895E+04  0.25500000000E-02 0. -1.
         -2   -1    0    0    0  501 -0.00000000000E+00 -0.00000000000E+00 -0.75144103281E+03  0.75144103281E+03  0.25500000000E-02 0.  1.
    8880023    1    1    2    0    0  0.10288314757E+04 -0.86369912814E+03  0.21715112331E+04  0.26369948106E+04  0.65864270000E+03 0. -1.
    8880022    1    1    2    0    0 -0.10288314757E+04  0.86369912814E+03  0.36228432358E+03  0.13996828117E+04  0.15294330000E+03 0.  0.
<mgrwt>
<rscale>  0 0.14586828E+04</rscale>
<asrwt>0</asrwt>
<pdfrwt beam="1">  1        2 0.50542102E+00 0.14960884E+04</pdfrwt>
<pdfrwt beam="2">  1       -2 0.11560631E+00 0.14960884E+04</pdfrwt>
<totfact> 0.63450673E-01</totfact>
</mgrwt>
</event>
<event>
 4    5  0.6615028E-008  0.1383663E+04  0.7818608E-02  0.8996482E-01
         -2   -1    0    0    0  501 -0.00000000000E+00  0.00000000000E+00  0.59284950796E+03  0.59284950797E+03  0.25500000000E-02 0.  1.
          2   -1    0    0  501    0  0.00000000000E+00 -0.00000000000E+00 -0.31478215301E+04  0.31478215301E+04  0.25500000000E-02 0. -1.
    8880023    1    1    2    0    0 -0.59964477088E+03 -0.10588387965E+04 -0.18996535816E+04  0.23501505025E+04  0.65864270000E+03 0. -1.
    8880022    1    1    2    0    0  0.59964477088E+03  0.10588387965E+04 -0.65531844057E+03  0.13905205356E+04  0.15294330000E+03 0.  0.
<mgrwt>
<rscale>  0 0.13425564E+04</rscale>
<asrwt>0</asrwt>
<pdfrwt beam="1">  1        2 0.48428022E+00 0.13836631E+04</pdfrwt>
<pdfrwt beam="2">  1       -2 0.91207619E-01 0.13836631E+04</pdfrwt>
<totfact> 0.13967198E+00</totfact>
</mgrwt>
</event>
<event>
 4    5  0.6615028E-008  0.8598505E+03  0.7818608E-02  0.9593829E-01
         -2   -1    0    0    0  501 -0.00000000000E+00  0.00000000000E+00  0.60205970239E+03  0.60205970240E+03  0.25500000000E-02 0.  1.
          2   -1    0    0  501    0  0.00000000000E+00 -0.00000000000E+00 -0.13693238343E+04  0.13693238343E+04  0.25500000000E-02 0. -1.
    8880023    1    1    2    0    0  0.44327015208E+03  0.33021856418E+03 -0.10289993219E+04  0.13409632876E+04  0.65864270000E+03 0.  0.
    8880022    1    1    2    0    0 -0.44327015208E+03 -0.33021856418E+03  0.26173518998E+03  0.63042024915E+03  0.15294330000E+03 0.  0.
<mgrwt>
<rscale>  0 0.77705942E+03</rscale>
<asrwt>0</asrwt>
<pdfrwt beam="1">  1        2 0.21066520E+00 0.85985053E+03</pdfrwt>
<pdfrwt beam="2">  1       -2 0.92624570E-01 0.85985053E+03</pdfrwt>
<totfact> 0.15036613E+01</totfact>
</mgrwt>
</event>
<event>
 4    5  0.6615028E-008  0.7810944E+03  0.7818608E-02  0.9753272E-01
         -2   -1    0    0    0  501 -0.00000000000E+00  0.00000000000E+00  0.10111889120E+04  0.10111889120E+04  0.25500000000E-02 0.  1.
          2   -1    0    0  501    0  0.00000000000E+00 -0.00000000000E+00 -0.27148099896E+04  0.27148099896E+04  0.25500000000E-02 0. -1.
    8880023    1    1    2    0    0 -0.41923716380E+03 -0.23204700653E+02 -0.26051872089E+04  0.27197626472E+04  0.65864270000E+03 0. -1.
    8880022    1    1    2    0    0  0.41923716380E+03  0.23204700653E+02  0.90156613127E+03  0.10062362544E+04  0.15294330000E+03 0.  0.
<mgrwt>
<rscale>  0 0.67931649E+03</rscale>
<asrwt>0</asrwt>
<pdfrwt beam="1">  1        2 0.41766307E+00 0.78109440E+03</pdfrwt>
<pdfrwt beam="2">  1       -2 0.15556753E+00 0.78109440E+03</pdfrwt>
<totfact> 0.74461880E-01</totfact>
</mgrwt>
</event>
<event>
 4    5  0.6615028E-008  0.7534365E+03  0.7818608E-02  0.9822406E-01
         -2   -1    0    0    0  501 -0.00000000000E+00  0.00000000000E+00  0.58438528901E+03  0.58438528902E+03  0.25500000000E-02 0.  1.
          2   -1    0    0  501    0  0.00000000000E+00 -0.00000000000E+00 -0.14454270611E+04  0.14454270611E+04  0.25500000000E-02 0. -1.
    8880023    1    1    2    0    0  0.29903457847E+03  0.21079526634E+03 -0.12595032032E+04  0.14676562433E+04  0.65864270000E+03 0. -1.
    8880022    1    1    2    0    0 -0.29903457847E+03 -0.21079526634E+03  0.39846143104E+03  0.56215610686E+03  0.15294330000E+03 0.  0.
<mgrwt>
<rscale>  0 0.64173853E+03</rscale>
<asrwt>0</asrwt>
<pdfrwt beam="1">  1        2 0.22237339E+00 0.75343648E+03</pdfrwt>
<pdfrwt beam="2">  1       -2 0.89905430E-01 0.75343648E+03</pdfrwt>
<totfact> 0.14771446E+01</totfact>
</mgrwt>
</event>
<event>
 4    5  0.6615028E-008  0.1574951E+04  0.7818608E-02  0.8858447E-01
          2   -1    0    0  501    0  0.00000000000E+00  0.00000000000E+00  0.24614006596E+04  0.24614006596E+04  0.25500000000E-02 0. -1.
         -2   -1    0    0    0  501 -0.00000000000E+00 -0.00000000000E+00 -0.23529680946E+04  0.23529680946E+04  0.25500000000E-02 0.  1.
    8880023    1    1    2    0    0 -0.11039616192E+04 -0.90990649069E+03  0.19313267078E+04  0.24920863021E+04  0.65864270000E+03 0. -1.
    8880022    1    1    2    0    0  0.11039616192E+04  0.90990649069E+03 -0.18228941428E+04  0.23222824521E+04  0.15294330000E+03 0.  0.
<mgrwt>
<rscale>  0 0.15397422E+04</rscale>
<asrwt>0</asrwt>
<pdfrwt beam="1">  1        2 0.37867702E+00 0.15749512E+04</pdfrwt>
<pdfrwt beam="2">  1       -2 0.36199509E+00 0.15749512E+04</pdfrwt>
<totfact> 0.44509289E-02</totfact>
</mgrwt>
</event>
<event>
 4    5  0.6615028E-008  0.1073033E+04  0.7818608E-02  0.9291692E-01
         -2   -1    0    0    0  501 -0.00000000000E+00  0.00000000000E+00  0.71508150288E+03  0.71508150288E+03  0.25500000000E-02 0.  1.
          2   -1    0    0  501    0  0.00000000000E+00 -0.00000000000E+00 -0.27861123573E+04  0.27861123573E+04  0.25500000000E-02 0. -1.
    8880023    1    1    2    0    0 -0.73964365379E+03 -0.41293695993E+03 -0.23605643030E+04  0.25930028350E+04  0.65864270000E+03 0.  0.
    8880022    1    1    2    0    0  0.73964365379E+03  0.41293695993E+03  0.28953344853E+03  0.90819102523E+03  0.15294330000E+03 0.  0.
<mgrwt>
<rscale>  0 0.10155136E+04</rscale>
<asrwt>0</asrwt>
<pdfrwt beam="1">  1        2 0.42863266E+00 0.10730330E+04</pdfrwt>
<pdfrwt beam="2">  1       -2 0.11001254E+00 0.10730330E+04</pdfrwt>
<totfact> 0.15528555E+00</totfact>
</mgrwt>
</event>
<event>
 4    5  0.6615028E-008  0.1386141E+04  0.7818608E-02  0.8994527E-01
          2   -1    0    0  501    0  0.00000000000E+00  0.00000000000E+00  0.16445432673E+04  0.16445432673E+04  0.25500000000E-02 0. -1.
         -2   -1    0    0    0  501 -0.00000000000E+00 -0.00000000000E+00 -0.19474313746E+04  0.19474313746E+04  0.25500000000E-02 0.  1.
    8880023    1    1    2    0    0 -0.12192183651E+04 -0.32901332176E+02  0.10686179831E+04  0.17502372752E+04  0.65864270000E+03 0.  0.
    8880022    1    1    2    0    0  0.12192183651E+04  0.32901332176E+02 -0.13715060903E+04  0.18417373667E+04  0.15294330000E+03 0.  0.
<mgrwt>
<rscale>  0 0.13451242E+04</rscale>
<asrwt>0</asrwt>
<pdfrwt beam="1">  1        2 0.25300666E+00 0.13861407E+04</pdfrwt>
<pdfrwt beam="2">  1       -2 0.29960483E+00 0.13861407E+04</pdfrwt>
<totfact> 0.32048843E-01</totfact>
</mgrwt>
</event>
<event>
 4    5  0.6615028E-008  0.1079182E+04  0.7818608E-02  0.9284596E-01
         -2   -1    0    0    0  501 -0.00000000000E+00  0.00000000000E+00  0.24632014313E+04  0.24632014313E+04  0.25500000000E-02 0.  1.
          2   -1    0    0  501    0  0.00000000000E+00 -0.00000000000E+00 -0.98250764845E+03  0.98250764845E+03  0.25500000000E-02 0. -1.
    8880023    1    1    2    0    0 -0.72494375437E+03  0.45307765348E+03 -0.56872999862E+03  0.12198716427E+04  0.65864270000E+03 0.  0.
    8880022    1    1    2    0    0  0.72494375437E+03 -0.45307765348E+03  0.20494237814E+04  0.22258374370E+04  0.15294330000E+03 0.  0.
<mgrwt>
<rscale>  0 0.10221338E+04</rscale>
<asrwt>0</asrwt>
<pdfrwt beam="1">  1        2 0.15115503E+00 0.10791816E+04</pdfrwt>
<pdfrwt beam="2">  1       -2 0.37895406E+00 0.10791816E+04</pdfrwt>
<totfact> 0.26351171E-01</totfact>
</mgrwt>
</event>
<event>
 4    5  0.6615028E-008  0.8918381E+03  0.7818608E-02  0.9539263E-01
         -2   -1    0    0    0  501 -0.00000000000E+00  0.00000000000E+00  0.22269831856E+03  0.22269831858E+03  0.25500000000E-02 0.  1.
          2   -1    0    0  501    0  0.00000000000E+00 -0.00000000000E+00 -0.29506906644E+04  0.29506906644E+04  0.25500000000E-02 0. -1.
    8880023    1    1    2    0    0  0.13303584735E+03 -0.58640123513E+03 -0.21407845084E+04  0.23191234256E+04  0.65864270000E+03 0.  0.
    8880022    1    1    2    0    0 -0.13303584735E+03  0.58640123513E+03 -0.58720783740E+03  0.85426555740E+03  0.15294330000E+03 0.  0.
<mgrwt>
<rscale>  0 0.81449979E+03</rscale>
<asrwt>0</asrwt>
<pdfrwt beam="1">  1        2 0.45395238E+00 0.89183807E+03</pdfrwt>
<pdfrwt beam="2">  1       -2 0.34261282E-01 0.89183807E+03</pdfrwt>
<totfact> 0.15454332E+01</totfact>
</mgrwt>
</event>
<event>
 4    5  0.6615028E-008  0.8331199E+03  0.7818608E-02  0.9643292E-01
          2   -1    0    0  501    0  0.00000000000E+00  0.00000000000E+00  0.39674005598E+04  0.39674005598E+04  0.25500000000E-02 0. -1.
         -2   -1    0    0    0  501 -0.00000000000E+00 -0.00000000000E+00 -0.13942900263E+03  0.13942900265E+03  0.25500000000E-02 0.  1.
    8880023    1    1    2    0    0 -0.15232545490E+03  0.48690399420E+03  0.30659469174E+04  0.31771243681E+04  0.65864270000E+03 0. -1.
    8880022    1    1    2    0    0  0.15232545490E+03 -0.48690399420E+03  0.76202463977E+03  0.92970519435E+03  0.15294330000E+03 0.  1.
<mgrwt>
<rscale>  0 0.74495895E+03</rscale>
<asrwt>0</asrwt>
<pdfrwt beam="1">  1        2 0.61036930E+00 0.83311989E+03</pdfrwt>
<pdfrwt beam="2">  1       -2 0.21450616E-01 0.83311989E+03</pdfrwt>
<totfact> 0.74245738E+00</totfact>
</mgrwt>
</event>
<event>
 4    5  0.6615028E-008  0.1309989E+04  0.7818608E-02  0.9056981E-01
         -2   -1    0    0    0  501 -0.00000000000E+00  0.00000000000E+00  0.11990939886E+04  0.11990939886E+04  0.25500000000E-02 0.  1.
          2   -1    0    0  501    0  0.00000000000E+00 -0.00000000000E+00 -0.23651562290E+04  0.23651562290E+04  0.25500000000E-02 0. -1.
    8880023    1    1    2    0    0 -0.10413701218E+04 -0.44475838855E+03 -0.18240317948E+04  0.22456989891E+04  0.65864270000E+03 0. -1.
    8880022    1    1    2    0    0  0.10413701218E+04  0.44475838855E+03  0.65796955434E+03  0.13185512285E+04  0.15294330000E+03 0.  0.
<mgrwt>
<rscale>  0 0.12659872E+04</rscale>
<asrwt>0</asrwt>
<pdfrwt beam="1">  1        2 0.36387019E+00 0.13099893E+04</pdfrwt>
<pdfrwt beam="2">  1       -2 0.18447600E+00 0.13099893E+04</pdfrwt>
<totfact> 0.67571927E-01</totfact>
</mgrwt>
</event>
<event>
 4    5  0.6615028E-008  0.7119351E+03  0.7818608E-02  0.9950884E-01
          2   -1    0    0  501    0  0.00000000000E+00  0.00000000000E+00  0.11888157086E+04  0.11888157086E+04  0.25500000000E-02 0. -1.
         -2   -1    0    0    0  501 -0.00000000000E+00 -0.00000000000E+00 -0.49266491246E+03  0.49266491246E+03  0.25500000000E-02 0.  1.
    8880023    1    1    2    0    0  0.87971427855E+02  0.25554333987E+03  0.10127893730E+04  0.12379797620E+04  0.65864270000E+03 0. -1.
    8880022    1    1    2    0    0 -0.87971427855E+02 -0.25554333987E+03 -0.31663857686E+03  0.44350085912E+03  0.15294330000E+03 0.  0.
<mgrwt>
<rscale>  0 0.57857348E+03</rscale>
<asrwt>0</asrwt>
<pdfrwt beam="1">  1        2 0.18289472E+00 0.71193509E+03</pdfrwt>
<pdfrwt beam="2">  1       -2 0.75794603E-01 0.71193509E+03</pdfrwt>
<totfact> 0.30682704E+01</totfact>
</mgrwt>
</event>
<event>
 4    5  0.7596261E-008  0.2312032E+04  0.7818608E-02  0.8482247E-01
         -2   -1    0    0    0  501 -0.00000000000E+00  0.00000000000E+00  0.25295149568E+04  0.25295149568E+04  0.25500000000E-02 0.  1.
          2   -1    0    0  501    0  0.00000000000E+00 -0.00000000000E+00 -0.43405329546E+04  0.43405329546E+04  0.25500000000E-02 0. -1.
    8880023    1    1    2    0    0  0.22045919937E+04 -0.22683859725E+03 -0.34192176965E+04  0.41275345510E+04  0.65864270000E+03 0.  0.
    8880022    1    1    2    0    0 -0.22045919937E+04  0.22683859725E+03  0.16081996987E+04  0.27425133603E+04  0.15294330000E+03 0.  0.
<mgrwt>
<rscale>  0 0.22890595E+04</rscale>
<asrwt>0</asrwt>
<pdfrwt beam="1">  1        2 0.66777430E+00 0.23120320E+04</pdfrwt>
<pdfrwt beam="2">  1       -2 0.38915615E+00 0.23120320E+04</pdfrwt>
<totfact> 0.12918694E-03</totfact>
</mgrwt>
</event>
<event>
 4    5  0.6615028E-008  0.8909336E+03  0.7818608E-02  0.9540746E-01
          2   -1    0    0  501    0  0.00000000000E+00  0.00000000000E+00  0.11632147840E+04  0.11632147840E+04  0.25500000000E-02 0. -1.
         -2   -1    0    0    0  501 -0.00000000000E+00 -0.00000000000E+00 -0.91263121006E+03  0.91263121007E+03  0.25500000000E-02 0.  1.
    8880023    1    1    2    0    0  0.59905275830E+03  0.32988820242E+02  0.83746666923E+03  0.12227481743E+04  0.65864270000E+03 0. -1.
    8880022    1    1    2    0    0 -0.59905275830E+03 -0.32988820242E+02 -0.58688309529E+03  0.85309781974E+03  0.15294330000E+03 0.  0.
<mgrwt>
<rscale>  0 0.81345326E+03</rscale>
<asrwt>0</asrwt>
<pdfrwt beam="1">  1        2 0.17895612E+00 0.89093360E+03</pdfrwt>
<pdfrwt beam="2">  1       -2 0.14040480E+00 0.89093360E+03</pdfrwt>
<totfact> 0.71255497E+00</totfact>
</mgrwt>
</event>
<event>
 4    5  0.6615028E-008  0.1117784E+04  0.7818608E-02  0.9241510E-01
          2   -1    0    0  501    0  0.00000000000E+00  0.00000000000E+00  0.12899720488E+04  0.12899720488E+04  0.25500000000E-02 0. -1.
         -2   -1    0    0    0  501 -0.00000000000E+00 -0.00000000000E+00 -0.82450999811E+03  0.82450999811E+03  0.25500000000E-02 0.  1.
    8880023    1    1    2    0    0  0.21719439742E+03  0.87661686299E+03  0.79820657849E+02  0.11206302131E+04  0.65864270000E+03 0.  0.
    8880022    1    1    2    0    0 -0.21719439742E+03 -0.87661686299E+03  0.38564139284E+03  0.99385183384E+03  0.15294330000E+03 0.  0.
<mgrwt>
<rscale>  0 0.10635063E+04</rscale>
<asrwt>0</asrwt>
<pdfrwt beam="1">  1        2 0.19845724E+00 0.11177839E+04</pdfrwt>
<pdfrwt beam="2">  1       -2 0.12684769E+00 0.11177839E+04</pdfrwt>
<totfact> 0.76008387E+00</totfact>
</mgrwt>
</event>
<event>
 4    5  0.6615028E-008  0.8296775E+03  0.7818608E-02  0.9649960E-01
          2   -1    0    0  501    0  0.00000000000E+00  0.00000000000E+00  0.72955828256E+03  0.72955828256E+03  0.25500000000E-02 0. -1.
         -2   -1    0    0    0  501 -0.00000000000E+00 -0.00000000000E+00 -0.18363548151E+04  0.18363548151E+04  0.25500000000E-02 0.  1.
    8880023    1    1    2    0    0 -0.36357817531E+03  0.34980777622E+03  0.43476816540E+03  0.93668998808E+03  0.65864270000E+03 0.  0.
    8880022    1    1    2    0    0  0.36357817531E+03 -0.34980777622E+03 -0.15415646980E+04  0.16292231096E+04  0.15294330000E+03 0.  0.
<mgrwt>
<rscale>  0 0.74075926E+03</rscale>
<asrwt>0</asrwt>
<pdfrwt beam="1">  1        2 0.11223974E+00 0.82967751E+03</pdfrwt>
<pdfrwt beam="2">  1       -2 0.28251612E+00 0.82967751E+03</pdfrwt>
<totfact> 0.16207365E+00</totfact>
</mgrwt>
</event>
<event>
 4    5  0.6615028E-008  0.9769128E+03  0.7818608E-02  0.9412406E-01
          2   -1    0    0  501    0  0.00000000000E+00  0.00000000000E+00  0.16293410431E+04  0.16293410431E+04  0.25500000000E-02 0. -1.
         -2   -1    0    0    0  501 -0.00000000000E+00 -0.00000000000E+00 -0.77814841593E+03  0.77814841593E+03  0.25500000000E-02 0.  1.
    8880023    1    1    2    0    0  0.22164927573E+03 -0.68660029725E+03  0.12361284946E+04  0.15755545789E+04  0.65864270000E+03 0. -1.
    8880022    1    1    2    0    0 -0.22164927573E+03  0.68660029725E+03 -0.38493586750E+03  0.83193488009E+03  0.15294330000E+03 0.  0.
<mgrwt>
<rscale>  0 0.91061693E+03</rscale>
<asrwt>0</asrwt>
<pdfrwt beam="1">  1        2 0.25066785E+00 0.97691278E+03</pdfrwt>
<pdfrwt beam="2">  1       -2 0.11971514E+00 0.97691278E+03</pdfrwt>
<totfact> 0.57222668E+00</totfact>
</mgrwt>
</event>
<event>
 4    5  0.6615028E-008  0.7703019E+03  0.7818608E-02  0.9779132E-01
          2   -1    0    0  501    0  0.00000000000E+00  0.00000000000E+00  0.27354079321E+04  0.27354079321E+04  0.25500000000E-02 0. -1.
         -2   -1    0    0    0  501 -0.00000000000E+00 -0.00000000000E+00 -0.26756056839E+03  0.26756056840E+03  0.25500000000E-02 0.  1.
    8880023    1    1    2    0    0 -0.39463332758E+03 -0.61801079575E+02  0.24572027011E+04  0.25751136203E+04  0.65864270000E+03 0. -1.
    8880022    1    1    2    0    0  0.39463332758E+03  0.61801079575E+02  0.10644662582E+02  0.42785488022E+03  0.15294330000E+03 0.  0.
<mgrwt>
<rscale>  0 0.66494580E+03</rscale>
<asrwt>0</asrwt>
<pdfrwt beam="1">  1        2 0.42083200E+00 0.77030192E+03</pdfrwt>
<pdfrwt beam="2">  1       -2 0.41163164E-01 0.77030192E+03</pdfrwt>
<totfact> 0.14845689E+01</totfact>
</mgrwt>
</event>
<event>
 4    5  0.6615028E-008  0.1159582E+04  0.7818608E-02  0.9197449E-01
         -2   -1    0    0    0  501 -0.00000000000E+00  0.00000000000E+00  0.22129227809E+04  0.22129227809E+04  0.25500000000E-02 0.  1.
          2   -1    0    0  501    0  0.00000000000E+00 -0.00000000000E+00 -0.23566664034E+04  0.23566664034E+04  0.25500000000E-02 0. -1.
    8880023    1    1    2    0    0  0.92324361383E+03 -0.24174559821E+03 -0.20936219087E+04  0.23932995232E+04  0.65864270000E+03 0. -1.
    8880022    1    1    2    0    0 -0.92324361383E+03  0.24174559821E+03  0.19498782863E+04  0.21762896611E+04  0.15294330000E+03 0.  0.
<mgrwt>
<rscale>  0 0.11079794E+04</rscale>
<asrwt>0</asrwt>
<pdfrwt beam="1">  1        2 0.36256406E+00 0.11595818E+04</pdfrwt>
<pdfrwt beam="2">  1       -2 0.34044966E+00 0.11595818E+04</pdfrwt>
<totfact> 0.74493186E-02</totfact>
</mgrwt>
</event>
<event>
 4    5  0.6615028E-008  0.8291089E+03  0.7818608E-02  0.9651069E-01
         -2   -1    0    0    0  501 -0.00000000000E+00  0.00000000000E+00  0.83708898438E+03  0.83708898439E+03  0.25500000000E-02 0.  1.
          2   -1    0    0  501    0  0.00000000000E+00 -0.00000000000E+00 -0.14889081527E+04  0.14889081527E+04  0.25500000000E-02 0. -1.
    8880023    1    1    2    0    0 -0.49143662784E+03  0.11000661890E+03 -0.12683951358E+04  0.15153375341E+04  0.65864270000E+03 0. -1.
    8880022    1    1    2    0    0  0.49143662784E+03 -0.11000661890E+03  0.61657596745E+03  0.81065960306E+03  0.15294330000E+03 0.  0.
<mgrwt>
<rscale>  0 0.74006398E+03</rscale>
<asrwt>0</asrwt>
<pdfrwt beam="1">  1        2 0.22906279E+00 0.82910893E+03</pdfrwt>
<pdfrwt beam="2">  1       -2 0.12878292E+00 0.82910893E+03</pdfrwt>
<totfact> 0.58080004E+00</totfact>
</mgrwt>
</event>
<event>
 4    5  0.6615028E-008  0.7998685E+03  0.7818608E-02  0.9711080E-01
         -2   -1    0    0    0  501 -0.00000000000E+00  0.00000000000E+00  0.40905883454E+03  0.40905883454E+03  0.25500000000E-02 0.  1.
          2   -1    0    0  501    0  0.00000000000E+00 -0.00000000000E+00 -0.13214263885E+04  0.13214263885E+04  0.25500000000E-02 0. -1.
    8880023    1    1    2    0    0 -0.32646947034E+03 -0.31527310657E+03 -0.95958414494E+03  0.12492363204E+04  0.65864270000E+03 0.  0.
    8880022    1    1    2    0    0  0.32646947034E+03  0.31527310657E+03  0.47216590977E+02  0.48124890262E+03  0.15294330000E+03 0.  0.
<mgrwt>
<rscale>  0 0.70360885E+03</rscale>
<asrwt>0</asrwt>
<pdfrwt beam="1">  1        2 0.20329637E+00 0.79986852E+03</pdfrwt>
<pdfrwt beam="2">  1       -2 0.62932129E-01 0.79986852E+03</pdfrwt>
<totfact> 0.38145382E+01</totfact>
</mgrwt>
</event>
<event>
 4    5  0.6615028E-008  0.1357929E+04  0.7818608E-02  0.9017082E-01
         -2   -1    0    0    0  501 -0.00000000000E+00  0.00000000000E+00  0.92397720635E+03  0.92397720635E+03  0.25500000000E-02 0.  1.
          2   -1    0    0  501    0  0.00000000000E+00 -0.00000000000E+00 -0.17979634117E+04  0.17979634117E+04  0.25500000000E-02 0. -1.
    8880023    1    1    2    0    0  0.45487250868E+02 -0.11866307836E+04 -0.28462798875E+03  0.13874382887E+04  0.65864270000E+03 0.  0.
    8880022    1    1    2    0    0 -0.45487250868E+02  0.11866307836E+04 -0.58935821665E+03  0.13345023294E+04  0.15294330000E+03 0.  0.
<mgrwt>
<rscale>  0 0.13158597E+04</rscale>
<asrwt>0</asrwt>
<pdfrwt beam="1">  1        2 0.27660975E+00 0.13579293E+04</pdfrwt>
<pdfrwt beam="2">  1       -2 0.14215034E+00 0.13579293E+04</pdfrwt>
<totfact> 0.28614819E+00</totfact>
</mgrwt>
</event>
<event>
 4    5  0.6615028E-008  0.6810359E+03  0.7818608E-02  0.1008744E+00
         -2   -1    0    0    0  501 -0.00000000000E+00  0.00000000000E+00  0.76462403315E+03  0.76462403316E+03  0.25500000000E-02 0.  1.
          2   -1    0    0  501    0  0.00000000000E+00 -0.00000000000E+00 -0.36287817292E+03  0.36287817293E+03  0.25500000000E-02 0. -1.
    8880023    1    1    2    0    0 -0.16369548193E+03 -0.56599667123E+02  0.20069505465E+02  0.68133158186E+03  0.65864270000E+03 0. -1.
    8880022    1    1    2    0    0  0.16369548193E+03  0.56599667123E+02  0.38167635477E+03  0.44617062423E+03  0.15294330000E+03 0.  0.
<mgrwt>
<rscale>  0 0.51977025E+03</rscale>
<asrwt>0</asrwt>
<pdfrwt beam="1">  1        2 0.55827412E-01 0.68103593E+03</pdfrwt>
<pdfrwt beam="2">  1       -2 0.11763447E+00 0.68103593E+03</pdfrwt>
<totfact> 0.50262175E+01</totfact>
</mgrwt>
</event>
<event>
 4    5  0.6615028E-008  0.9944187E+03  0.7818608E-02  0.9388896E-01
         -2   -1    0    0    0  501 -0.00000000000E+00  0.00000000000E+00  0.39048276535E+03  0.39048276536E+03  0.25500000000E-02 0.  1.
          2   -1    0    0  501    0  0.00000000000E+00 -0.00000000000E+00 -0.53191745076E+04  0.53191745076E+04  0.25500000000E-02 0. -1.
    8880023    1    1    2    0    0 -0.71854292878E+03 -0.19686130738E+03 -0.48432852187E+04  0.49443179743E+04  0.65864270000E+03 0.  0.
    8880022    1    1    2    0    0  0.71854292878E+03  0.19686130738E+03 -0.85406523557E+02  0.76533929869E+03  0.15294330000E+03 0.  0.
<mgrwt>
<rscale>  0 0.92995125E+03</rscale>
<asrwt>0</asrwt>
<pdfrwt beam="1">  1        2 0.81833448E+00 0.99441869E+03</pdfrwt>
<pdfrwt beam="2">  1       -2 0.60074276E-01 0.99441869E+03</pdfrwt>
<totfact> 0.35558583E-02</totfact>
</mgrwt>
</event>
<event>
 4    5  0.6615028E-008  0.8194754E+03  0.7818608E-02  0.9670168E-01
         -2   -1    0    0    0  501 -0.00000000000E+00  0.00000000000E+00  0.28375106905E+03  0.28375106906E+03  0.25500000000E-02 0.  1.
          2   -1    0    0  501    0  0.00000000000E+00 -0.00000000000E+00 -0.25035780440E+04  0.25035780440E+04  0.25500000000E-02 0. -1.
    8880023    1    1    2    0    0 -0.34866923313E+03 -0.34082176504E+03 -0.21115395011E+04  0.22649810111E+04  0.65864270000E+03 0. -1.
    8880022    1    1    2    0    0  0.34866923313E+03  0.34082176504E+03 -0.10828747389E+03  0.52234810201E+03  0.15294330000E+03 0.  0.
<mgrwt>
<rscale>  0 0.72821100E+03</rscale>
<asrwt>0</asrwt>
<pdfrwt beam="1">  1        2 0.38516584E+00 0.81947539E+03</pdfrwt>
<pdfrwt beam="2">  1       -2 0.43654012E-01 0.81947539E+03</pdfrwt>
<totfact> 0.17854852E+01</totfact>
</mgrwt>
</event>
<event>
 4    5  0.6615028E-008  0.7613867E+03  0.7818608E-02  0.9801531E-01
         -2   -1    0    0    0  501 -0.00000000000E+00  0.00000000000E+00  0.59277350090E+03  0.59277350090E+03  0.25500000000E-02 0.  1.
          2   -1    0    0  501    0  0.00000000000E+00 -0.00000000000E+00 -0.14726255104E+04  0.14726255104E+04  0.25500000000E-02 0. -1.
    8880023    1    1    2    0    0  0.32418651568E+03  0.20199654485E+03 -0.12813644273E+04  0.14905047812E+04  0.65864270000E+03 0. -1.
    8880022    1    1    2    0    0 -0.32418651568E+03 -0.20199654485E+03  0.40151241781E+03  0.57489423005E+03  0.15294330000E+03 0.  0.
<mgrwt>
<rscale>  0 0.65280466E+03</rscale>
<asrwt>0</asrwt>
<pdfrwt beam="1">  1        2 0.22655777E+00 0.76138670E+03</pdfrwt>
<pdfrwt beam="2">  1       -2 0.91195924E-01 0.76138670E+03</pdfrwt>
<totfact> 0.13786252E+01</totfact>
</mgrwt>
</event>
<event>
 4    5  0.6615028E-008  0.9054588E+03  0.7818608E-02  0.9517325E-01
          2   -1    0    0  501    0  0.00000000000E+00  0.00000000000E+00  0.18058894695E+04  0.18058894695E+04  0.25500000000E-02 0. -1.
         -2   -1    0    0    0  501 -0.00000000000E+00 -0.00000000000E+00 -0.70020964310E+03  0.70020964311E+03  0.25500000000E-02 0.  1.
    8880023    1    1    2    0    0 -0.58928643836E+03 -0.19694375301E+03  0.15017251052E+04  0.17535774423E+04  0.65864270000E+03 0. -1.
    8880022    1    1    2    0    0  0.58928643836E+03  0.19694375301E+03 -0.39604527886E+03  0.75252167026E+03  0.15294330000E+03 0.  0.
<mgrwt>
<rscale>  0 0.83018501E+03</rscale>
<asrwt>0</asrwt>
<pdfrwt beam="1">  1        2 0.27782915E+00 0.90545875E+03</pdfrwt>
<pdfrwt beam="2">  1       -2 0.10772456E+00 0.90545875E+03</pdfrwt>
<totfact> 0.59722981E+00</totfact>
</mgrwt>
</event>
<event>
 4    5  0.6615028E-008  0.1310748E+04  0.7818608E-02  0.9056334E-01
         -2   -1    0    0    0  501 -0.00000000000E+00  0.00000000000E+00  0.66874815403E+03  0.66874815404E+03  0.25500000000E-02 0.  1.
          2   -1    0    0  501    0  0.00000000000E+00 -0.00000000000E+00 -0.29540902901E+04  0.29540902901E+04  0.25500000000E-02 0. -1.
    8880023    1    1    2    0    0  0.11285888020E+04 -0.10264593288E+03 -0.20836939714E+04  0.24616741548E+04  0.65864270000E+03 0. -1.
    8880022    1    1    2    0    0 -0.11285888020E+04  0.10264593288E+03 -0.20164816467E+03  0.11611642894E+04  0.15294330000E+03 0.  0.
<mgrwt>
<rscale>  0 0.12667775E+04</rscale>
<asrwt>0</asrwt>
<pdfrwt beam="1">  1        2 0.45447542E+00 0.13107475E+04</pdfrwt>
<pdfrwt beam="2">  1       -2 0.10288433E+00 0.13107475E+04</pdfrwt>
<totfact> 0.14009357E+00</totfact>
</mgrwt>
</event>
<event>
 4    5  0.6615028E-008  0.9712747E+03  0.7818608E-02  0.9420143E-01
          2   -1    0    0  501    0  0.00000000000E+00  0.00000000000E+00  0.20420387423E+04  0.20420387423E+04  0.25500000000E-02 0. -1.
         -2   -1    0    0    0  501 -0.00000000000E+00 -0.00000000000E+00 -0.66047862535E+03  0.66047862536E+03  0.25500000000E-02 0.  1.
    8880023    1    1    2    0    0  0.39681155778E+03  0.59338432831E+03  0.16582848554E+04  0.19217916748E+04  0.65864270000E+03 0. -1.
    8880022    1    1    2    0    0 -0.39681155778E+03 -0.59338432831E+03 -0.27672473851E+03  0.78072569279E+03  0.15294330000E+03 0.  0.
<mgrwt>
<rscale>  0 0.90436342E+03</rscale>
<asrwt>0</asrwt>
<pdfrwt beam="1">  1        2 0.31415980E+00 0.97127472E+03</pdfrwt>
<pdfrwt beam="2">  1       -2 0.10161210E+00 0.97127472E+03</pdfrwt>
<totfact> 0.50565009E+00</totfact>
</mgrwt>
</event>
<event>
 4    5  0.6615028E-008  0.1701664E+04  0.7818608E-02  0.8778976E-01
          2   -1    0    0  501    0  0.00000000000E+00  0.00000000000E+00  0.33962784142E+04  0.33962784142E+04  0.25500000000E-02 0. -1.
         -2   -1    0    0    0  501 -0.00000000000E+00 -0.00000000000E+00 -0.84842586988E+03  0.84842586989E+03  0.25500000000E-02 0.  1.
    8880023    1    1    2    0    0 -0.15631269522E+04  0.13596155065E+03  0.76761441710E+03  0.18667869486E+04  0.65864270000E+03 0.  0.
    8880022    1    1    2    0    0  0.15631269522E+04 -0.13596155065E+03  0.17802381272E+04  0.23779173355E+04  0.15294330000E+03 0.  0.
<mgrwt>
<rscale>  0 0.16694620E+04</rscale>
<asrwt>0</asrwt>
<pdfrwt beam="1">  1        2 0.52250437E+00 0.17016644E+04</pdfrwt>
<pdfrwt beam="2">  1       -2 0.13052706E+00 0.17016644E+04</pdfrwt>
<totfact> 0.38486324E-01</totfact>
</mgrwt>
</event>
<event>
 4    5  0.6615028E-008  0.1080909E+04  0.7818608E-02  0.9282615E-01
         -2   -1    0    0    0  501 -0.00000000000E+00  0.00000000000E+00  0.10730590619E+04  0.10730590620E+04  0.25500000000E-02 0.  1.
          2   -1    0    0  501    0  0.00000000000E+00 -0.00000000000E+00 -0.11679209910E+04  0.11679209910E+04  0.25500000000E-02 0. -1.
    8880023    1    1    2    0    0 -0.83985456903E+03 -0.17087376417E+03  0.49552207931E+03  0.11890777425E+04  0.65864270000E+03 0.  0.
    8880022    1    1    2    0    0  0.83985456903E+03  0.17087376417E+03 -0.59038400840E+03  0.10519023105E+04  0.15294330000E+03 0.  0.
<mgrwt>
<rscale>  0 0.10239919E+04</rscale>
<asrwt>0</asrwt>
<pdfrwt beam="1">  1        2 0.17968015E+00 0.10809088E+04</pdfrwt>
<pdfrwt beam="2">  1       -2 0.16508601E+00 0.10809088E+04</pdfrwt>
<totfact> 0.45000239E+00</totfact>
</mgrwt>
</event>
<event>
 4    5  0.6615028E-008  0.8925298E+03  0.7818608E-02  0.9538132E-01
          2   -1    0    0  501    0  0.00000000000E+00  0.00000000000E+00  0.34005844632E+04  0.34005844632E+04  0.25500000000E-02 0. -1.
         -2   -1    0    0    0  501 -0.00000000000E+00 -0.00000000000E+00 -0.24104709907E+03  0.24104709909E+03  0.25500000000E-02 0.  1.
    8880023    1    1    2    0    0  0.58248263857E+03 -0.15333993528E+03  0.27651036287E+04  0.29055821179E+04  0.65864270000E+03 0. -1.
    8880022    1    1    2    0    0 -0.58248263857E+03  0.15333993528E+03  0.39443373546E+03  0.73604944445E+03  0.15294330000E+03 0.  0.
<mgrwt>
<rscale>  0 0.81529968E+03</rscale>
<asrwt>0</asrwt>
<pdfrwt beam="1">  1        2 0.52316682E+00 0.89252976E+03</pdfrwt>
<pdfrwt beam="2">  1       -2 0.37084171E-01 0.89252976E+03</pdfrwt>
<totfact> 0.68614309E+00</totfact>
</mgrwt>
</event>
<event>
 4    5  0.6615028E-008  0.7301584E+03  0.7818608E-02  0.9889602E-01
          2   -1    0    0  501    0  0.00000000000E+00  0.00000000000E+00  0.95115608823E+03  0.95115608823E+03  0.25500000000E-02 0. -1.
         -2   -1    0    0    0  501 -0.00000000000E+00 -0.00000000000E+00 -0.75581371451E+03  0.75581371451E+03  0.25500000000E-02 0.  1.
    8880023    1    1    2    0    0 -0.27931111128E+03 -0.14596728170E+03  0.75270531385E+03  0.10486642170E+04  0.65864270000E+03 0.  0.
    8880022    1    1    2    0    0  0.27931111128E+03  0.14596728170E+03 -0.55736294012E+03  0.65830558577E+03  0.15294330000E+03 0.  0.
<mgrwt>
<rscale>  0 0.60767877E+03</rscale>
<asrwt>0</asrwt>
<pdfrwt beam="1">  1        2 0.14633171E+00 0.73015844E+03</pdfrwt>
<pdfrwt beam="2">  1       -2 0.11627903E+00 0.73015844E+03</pdfrwt>
<totfact> 0.15840828E+01</totfact>
</mgrwt>
</event>
<event>
 4    5  0.6615028E-008  0.1555223E+04  0.7818608E-02  0.8871594E-01
          2   -1    0    0  501    0  0.00000000000E+00  0.00000000000E+00  0.31356678103E+04  0.31356678103E+04  0.25500000000E-02 0. -1.
         -2   -1    0    0    0  501 -0.00000000000E+00 -0.00000000000E+00 -0.91748025184E+03  0.91748025184E+03  0.25500000000E-02 0.  1.
    8880023    1    1    2    0    0 -0.64782430878E+03 -0.12510927663E+04  0.21244976669E+04  0.26329090352E+04  0.65864270000E+03 0.  0.
    8880022    1    1    2    0    0  0.64782430878E+03  0.12510927663E+04  0.93689891633E+02  0.14202390270E+04  0.15294330000E+03 0.  0.
<mgrwt>
<rscale>  0 0.15194912E+04</rscale>
<asrwt>0</asrwt>
<pdfrwt beam="1">  1        2 0.48241045E+00 0.15552233E+04</pdfrwt>
<pdfrwt beam="2">  1       -2 0.14115080E+00 0.15552233E+04</pdfrwt>
<totfact> 0.47397852E-01</totfact>
</mgrwt>
</event>
<event>
 4    5  0.6615028E-008  0.1619225E+04  0.7818608E-02  0.8829734E-01
          2   -1    0    0  501    0  0.00000000000E+00  0.00000000000E+00  0.27486708515E+04  0.27486708515E+04  0.25500000000E-02 0. -1.
         -2   -1    0    0    0  501 -0.00000000000E+00 -0.00000000000E+00 -0.10268888695E+04  0.10268888695E+04  0.25500000000E-02 0.  1.
    8880023    1    1    2    0    0  0.14560217208E+04 -0.26092336749E+03  0.16113416250E+04  0.22843625574E+04  0.65864270000E+03 0.  0.
    8880022    1    1    2    0    0 -0.14560217208E+04  0.26092336749E+03  0.11044035704E+03  0.14911971635E+04  0.15294330000E+03 0.  0.
<mgrwt>
<rscale>  0 0.15851327E+04</rscale>
<asrwt>0</asrwt>
<pdfrwt beam="1">  1        2 0.42287244E+00 0.16192253E+04</pdfrwt>
<pdfrwt beam="2">  1       -2 0.15798290E+00 0.16192253E+04</pdfrwt>
<totfact> 0.60425143E-01</totfact>
</mgrwt>
</event>
<event>
 4    5  0.6615028E-008  0.1284891E+04  0.7818608E-02  0.9078719E-01
         -2   -1    0    0    0  501 -0.00000000000E+00  0.00000000000E+00  0.21926565981E+04  0.21926565981E+04  0.25500000000E-02 0.  1.
          2   -1    0    0  501    0  0.00000000000E+00 -0.00000000000E+00 -0.11613709662E+04  0.11613709662E+04  0.25500000000E-02 0. -1.
    8880023    1    1    2    0    0  0.77709812824E+03 -0.78310451880E+03 -0.56823067917E+03  0.14049307810E+04  0.65864270000E+03 0.  0.
    8880022    1    1    2    0    0 -0.77709812824E+03  0.78310451880E+03  0.15995163111E+04  0.19490967833E+04  0.15294330000E+03 0.  0.
<mgrwt>
<rscale>  0 0.12397965E+04</rscale>
<asrwt>0</asrwt>
<pdfrwt beam="1">  1        2 0.17867246E+00 0.12848908E+04</pdfrwt>
<pdfrwt beam="2">  1       -2 0.33733178E+00 0.12848908E+04</pdfrwt>
<totfact> 0.36203981E-01</totfact>
</mgrwt>
</event>
<event>
 4    5  0.6615028E-008  0.9891708E+03  0.7818608E-02  0.9395865E-01
         -2   -1    0    0    0  501 -0.00000000000E+00  0.00000000000E+00  0.91081442724E+03  0.91081442724E+03  0.25500000000E-02 0.  1.
          2   -1    0    0  501    0  0.00000000000E+00 -0.00000000000E+00 -0.15286835859E+04  0.15286835859E+04  0.25500000000E-02 0. -1.
    8880023    1    1    2    0    0 -0.58098278532E+03 -0.45509077168E+03 -0.11499999591E+04  0.15168911364E+04  0.65864270000E+03 0.  0.
    8880022    1    1    2    0    0  0.58098278532E+03  0.45509077168E+03  0.53213080046E+03  0.92260687680E+03  0.15294330000E+03 0.  0.
<mgrwt>
<rscale>  0 0.92416783E+03</rscale>
<asrwt>0</asrwt>
<pdfrwt beam="1">  1        2 0.23518209E+00 0.98917077E+03</pdfrwt>
<pdfrwt beam="2">  1       -2 0.14012530E+00 0.98917077E+03</pdfrwt>
<totfact> 0.43577161E+00</totfact>
</mgrwt>
</event>
<event>
 4    5  0.6615028E-008  0.1767153E+04  0.7818608E-02  0.8740927E-01
         -2   -1    0    0    0  501 -0.00000000000E+00  0.00000000000E+00  0.17391134498E+04  0.17391134498E+04  0.25500000000E-02 0.  1.
          2   -1    0    0  501    0  0.00000000000E+00 -0.00000000000E+00 -0.31917061087E+04  0.31917061087E+04  0.25500000000E-02 0. -1.
    8880023    1    1    2    0    0 -0.43960136704E+02  0.16392336973E+04 -0.24383771433E+04  0.30113971686E+04  0.65864270000E+03 0.  0.
    8880022    1    1    2    0    0  0.43960136704E+02 -0.16392336973E+04  0.98578448434E+03  0.19194223898E+04  0.15294330000E+03 0.  0.
<mgrwt>
<rscale>  0 0.17363012E+04</rscale>
<asrwt>0</asrwt>
<pdfrwt beam="1">  1        2 0.49103171E+00 0.17671530E+04</pdfrwt>
<pdfrwt beam="2">  1       -2 0.26755592E+00 0.17671530E+04</pdfrwt>
<totfact> 0.59937333E-02</totfact>
</mgrwt>
</event>
<event>
 4    5  0.6615028E-008  0.6591792E+03  0.7818608E-02  0.1025014E+00
         -2   -1    0    0    0  501 -0.00000000000E+00  0.00000000000E+00  0.19769781011E+03  0.19769781013E+03  0.25500000000E-02 0.  1.
          2   -1    0    0  501    0  0.00000000000E+00 -0.00000000000E+00 -0.90935845194E+03  0.90935845194E+03  0.25500000000E-02 0. -1.
    8880023    1    1    2    0    0  0.18077123261E+02 -0.19499841253E+02 -0.68296603210E+03  0.94918903990E+03  0.65864270000E+03 0. -1.
    8880022    1    1    2    0    0 -0.18077123261E+02  0.19499841253E+02 -0.28694609727E+02  0.15786722217E+03  0.15294330000E+03 0.  0.
<mgrwt>
<rscale>  0 0.45919990E+03</rscale>
<asrwt>0</asrwt>
<pdfrwt beam="1">  1        2 0.13990130E+00 0.65917921E+03</pdfrwt>
<pdfrwt beam="2">  1       -2 0.30415048E-01 0.65917921E+03</pdfrwt>
<totfact> 0.29230178E+02</totfact>
</mgrwt>
</event>
<event>
 4    5  0.6615028E-008  0.9983296E+03  0.7818608E-02  0.9383746E-01
          2   -1    0    0  501    0  0.00000000000E+00  0.00000000000E+00  0.12641794912E+04  0.12641794912E+04  0.25500000000E-02 0. -1.
         -2   -1    0    0    0  501 -0.00000000000E+00 -0.00000000000E+00 -0.97580724382E+03  0.97580724382E+03  0.25500000000E-02 0.  1.
    8880023    1    1    2    0    0 -0.36218195509E+03 -0.65702053602E+03  0.83313688944E+03  0.13002995948E+04  0.65864270000E+03 0.  0.
    8880022    1    1    2    0    0  0.36218195509E+03  0.65702053602E+03 -0.54476464205E+03  0.93968714027E+03  0.15294330000E+03 0.  0.
<mgrwt>
<rscale>  0 0.93425451E+03</rscale>
<asrwt>0</asrwt>
<pdfrwt beam="1">  1        2 0.19448915E+00 0.99832958E+03</pdfrwt>
<pdfrwt beam="2">  1       -2 0.15012419E+00 0.99832958E+03</pdfrwt>
<totfact> 0.51441715E+00</totfact>
</mgrwt>
</event>
<event>
 4    5  0.6615028E-008  0.1177571E+04  0.7818608E-02  0.9179239E-01
         -2   -1    0    0    0  501 -0.00000000000E+00  0.00000000000E+00  0.11333265844E+04  0.11333265844E+04  0.25500000000E-02 0.  1.
          2   -1    0    0  501    0  0.00000000000E+00 -0.00000000000E+00 -0.16232155329E+04  0.16232155329E+04  0.25500000000E-02 0. -1.
    8880023    1    1    2    0    0  0.51864718815E+03 -0.82696358655E+03 -0.10865817243E+04  0.16022901514E+04  0.65864270000E+03 0.  0.
    8880022    1    1    2    0    0 -0.51864718815E+03  0.82696358655E+03  0.59669277575E+03  0.11542519660E+04  0.15294330000E+03 0.  0.
<mgrwt>
<rscale>  0 0.11270308E+04</rscale>
<asrwt>0</asrwt>
<pdfrwt beam="1">  1        2 0.24972546E+00 0.11775712E+04</pdfrwt>
<pdfrwt beam="2">  1       -2 0.17435794E+00 0.11775712E+04</pdfrwt>
<totfact> 0.20906801E+00</totfact>
</mgrwt>
</event>
<event>
 4    5  0.6615028E-008  0.8506718E+03  0.7818608E-02  0.9610377E-01
         -2   -1    0    0    0  501 -0.00000000000E+00  0.00000000000E+00  0.64028423137E+03  0.64028423138E+03  0.25500000000E-02 0.  1.
          2   -1    0    0  501    0  0.00000000000E+00 -0.00000000000E+00 -0.27976957512E+04  0.27976957512E+04  0.25500000000E-02 0. -1.
    8880023    1    1    2    0    0  0.47356430032E+03  0.25606461174E+03  0.31189301201E+03  0.90604618488E+03  0.65864270000E+03 0.  0.
    8880022    1    1    2    0    0 -0.47356430032E+03 -0.25606461174E+03 -0.24693045319E+04  0.25319337977E+04  0.15294330000E+03 0.  0.
<mgrwt>
<rscale>  0 0.76613159E+03</rscale>
<asrwt>0</asrwt>
<pdfrwt beam="1">  1        2 0.43041472E+00 0.85067176E+03</pdfrwt>
<pdfrwt beam="2">  1       -2 0.98505268E-01 0.85067176E+03</pdfrwt>
<totfact> 0.20652149E+00</totfact>
</mgrwt>
</event>
<event>
 4    5  0.6615028E-008  0.8462895E+03  0.7818608E-02  0.9618433E-01
          2   -1    0    0  501    0  0.00000000000E+00  0.00000000000E+00  0.15998611151E+04  0.15998611151E+04  0.25500000000E-02 0. -1.
         -2   -1    0    0    0  501 -0.00000000000E+00 -0.00000000000E+00 -0.66321538064E+03  0.66321538065E+03  0.25500000000E-02 0.  1.
    8880023    1    1    2    0    0 -0.47223166939E+03 -0.24370661333E+03  0.13356373474E+04  0.15811808856E+04  0.65864270000E+03 0. -1.
    8880022    1    1    2    0    0  0.47223166939E+03  0.24370661333E+03 -0.39899161293E+03  0.68189561016E+03  0.15294330000E+03 0.  0.
<mgrwt>
<rscale>  0 0.76088082E+03</rscale>
<asrwt>0</asrwt>
<pdfrwt beam="1">  1        2 0.24613248E+00 0.84628947E+03</pdfrwt>
<pdfrwt beam="2">  1       -2 0.10203314E+00 0.84628947E+03</pdfrwt>
<totfact> 0.89017095E+00</totfact>
</mgrwt>
</event>
<event>
 4    5  0.6615028E-008  0.6858981E+03  0.7818608E-02  0.1006166E+00
         -2   -1    0    0    0  501 -0.00000000000E+00  0.00000000000E+00  0.33848693543E+03  0.33848693544E+03  0.25500000000E-02 0.  1.
          2   -1    0    0  501    0  0.00000000000E+00 -0.00000000000E+00 -0.24509422857E+04  0.24509422857E+04  0.25500000000E-02 0. -1.
    8880023    1    1    2    0    0  0.68109910482E+02  0.17890507005E+03 -0.23500651433E+04  0.24481140431E+04  0.65864270000E+03 0. -1.
    8880022    1    1    2    0    0 -0.68109910482E+02 -0.17890507005E+03  0.23760979303E+03  0.34131517803E+03  0.15294330000E+03 0.  0.
<mgrwt>
<rscale>  0 0.53027072E+03</rscale>
<asrwt>0</asrwt>
<pdfrwt beam="1">  1        2 0.37706803E+00 0.68589809E+03</pdfrwt>
<pdfrwt beam="2">  1       -2 0.52074915E-01 0.68589809E+03</pdfrwt>
<totfact> 0.13681145E+01</totfact>
</mgrwt>
</event>
<event>
 4    5  0.6615028E-008  0.9400108E+03  0.7818608E-02  0.9464634E-01
          2   -1    0    0  501    0  0.00000000000E+00  0.00000000000E+00  0.23594160543E+04  0.23594160543E+04  0.25500000000E-02 0. -1.
         -2   -1    0    0    0  501 -0.00000000000E+00 -0.00000000000E+00 -0.54163554202E+03  0.54163554202E+03  0.25500000000E-02 0.  1.
    8880023    1    1    2    0    0  0.55420666663E+03  0.37771028153E+03  0.19821851783E+04  0.21937817515E+04  0.65864270000E+03 0. -1.
    8880022    1    1    2    0    0 -0.55420666663E+03 -0.37771028153E+03 -0.16440466601E+03  0.70726984477E+03  0.15294330000E+03 0.  0.
<mgrwt>
<rscale>  0 0.86942159E+03</rscale>
<asrwt>0</asrwt>
<pdfrwt beam="1">  1        2 0.36298708E+00 0.94001079E+03</pdfrwt>
<pdfrwt beam="2">  1       -2 0.83328546E-01 0.94001079E+03</pdfrwt>
<totfact> 0.53684971E+00</totfact>
</mgrwt>
</event>
<event>
 4    5  0.6615028E-008  0.6688530E+03  0.7818608E-02  0.1016499E+00
          2   -1    0    0  501    0  0.00000000000E+00  0.00000000000E+00  0.96182113126E+03  0.96182113127E+03  0.25500000000E-02 0. -1.
         -2   -1    0    0    0  501 -0.00000000000E+00 -0.00000000000E+00 -0.20188450472E+03  0.20188450474E+03  0.25500000000E-02 0.  1.
    8880023    1    1    2    0    0  0.11638566915E+03 -0.29185344720E+01  0.47645086975E+03  0.82120020663E+03  0.65864270000E+03 0.  1.
    8880022    1    1    2    0    0 -0.11638566915E+03  0.29185344720E+01  0.28348575679E+03  0.34250542937E+03  0.15294330000E+03 0.  0.
<mgrwt>
<rscale>  0 0.48971526E+03</rscale>
<asrwt>0</asrwt>
<pdfrwt beam="1">  1        2 0.14797248E+00 0.66885301E+03</pdfrwt>
<pdfrwt beam="2">  1       -2 0.31059154E-01 0.66885301E+03</pdfrwt>
<totfact> 0.25954516E+02</totfact>
</mgrwt>
</event>
<event>
 4    5  0.6615028E-008  0.7555732E+03  0.7818608E-02  0.9816706E-01
         -2   -1    0    0    0  501 -0.00000000000E+00  0.00000000000E+00  0.17045692268E+03  0.17045692270E+03  0.25500000000E-02 0.  1.
          2   -1    0    0  501    0  0.00000000000E+00 -0.00000000000E+00 -0.28497214013E+04  0.28497214013E+04  0.25500000000E-02 0. -1.
    8880023    1    1    2    0    0 -0.36929105945E+03  0.26546399612E+02 -0.24383350936E+04  0.25527179305E+04  0.65864270000E+03 0. -1.
    8880022    1    1    2    0    0  0.36929105945E+03 -0.26546399612E+02 -0.24092938511E+03  0.46746039356E+03  0.15294330000E+03 0.  0.
<mgrwt>
<rscale>  0 0.64473669E+03</rscale>
<asrwt>0</asrwt>
<pdfrwt beam="1">  1        2 0.43841864E+00 0.75557316E+03</pdfrwt>
<pdfrwt beam="2">  1       -2 0.26224144E-01 0.75557316E+03</pdfrwt>
<totfact> 0.29812668E+01</totfact>
</mgrwt>
</event>
<event>
 4    5  0.6615028E-008  0.8029110E+03  0.7818608E-02  0.9704537E-01
          2   -1    0    0  501    0  0.00000000000E+00  0.00000000000E+00  0.16073168021E+04  0.16073168021E+04  0.25500000000E-02 0. -1.
         -2   -1    0    0    0  501 -0.00000000000E+00 -0.00000000000E+00 -0.29115672235E+03  0.29115672236E+03  0.25500000000E-02 0.  1.
    8880023    1    1    2    0    0  0.22418743703E+03  0.40074411165E+03  0.11157876309E+04  0.13746447154E+04  0.65864270000E+03 0. -1.
    8880022    1    1    2    0    0 -0.22418743703E+03 -0.40074411165E+03  0.20037244880E+03  0.52382880905E+03  0.15294330000E+03 0.  1.
<mgrwt>
<rscale>  0 0.70747309E+03</rscale>
<asrwt>0</asrwt>
<pdfrwt beam="1">  1        2 0.24727951E+00 0.80291099E+03</pdfrwt>
<pdfrwt beam="2">  1       -2 0.44793341E-01 0.80291099E+03</pdfrwt>
<totfact> 0.53126968E+01</totfact>
</mgrwt>
</event>
<event>
 4    5  0.6615028E-008  0.1074815E+04  0.7818608E-02  0.9289628E-01
          2   -1    0    0  501    0  0.00000000000E+00  0.00000000000E+00  0.39316822771E+04  0.39316822771E+04  0.25500000000E-02 0. -1.
         -2   -1    0    0    0  501 -0.00000000000E+00 -0.00000000000E+00 -0.28411733508E+03  0.28411733509E+03  0.25500000000E-02 0.  1.
    8880023    1    1    2    0    0  0.80369912798E+03  0.27474536657E+03  0.28291038106E+04  0.30263932134E+04  0.65864270000E+03 0. -1.
    8880022    1    1    2    0    0 -0.80369912798E+03 -0.27474536657E+03  0.81846113142E+03  0.11894063988E+04  0.15294330000E+03 0.  0.
<mgrwt>
<rscale>  0 0.10174333E+04</rscale>
<asrwt>0</asrwt>
<pdfrwt beam="1">  1        2 0.60487419E+00 0.10748151E+04</pdfrwt>
<pdfrwt beam="2">  1       -2 0.43710359E-01 0.10748151E+04</pdfrwt>
<totfact> 0.20016096E+00</totfact>
</mgrwt>
</event>
<event>
 4    5  0.6615028E-008  0.8519234E+03  0.7818608E-02  0.9608095E-01
         -2   -1    0    0    0  501 -0.00000000000E+00  0.00000000000E+00  0.77192018944E+03  0.77192018944E+03  0.25500000000E-02 0.  1.
          2   -1    0    0  501    0  0.00000000000E+00 -0.00000000000E+00 -0.19492129763E+04  0.19492129763E+04  0.25500000000E-02 0. -1.
    8880023    1    1    2    0    0 -0.32570708038E+03 -0.43113585172E+03 -0.17330085801E+04  0.19310857489E+04  0.65864270000E+03 0. -1.
    8880022    1    1    2    0    0  0.32570708038E+03  0.43113585172E+03  0.55571579326E+03  0.79004741676E+03  0.15294330000E+03 0.  0.
<mgrwt>
<rscale>  0 0.76762718E+03</rscale>
<asrwt>0</asrwt>
<pdfrwt beam="1">  1        2 0.29987892E+00 0.85192337E+03</pdfrwt>
<pdfrwt beam="2">  1       -2 0.11875695E+00 0.85192337E+03</pdfrwt>
<totfact> 0.39577288E+00</totfact>
</mgrwt>
</event>
<event>
 4    5  0.6615028E-008  0.6676587E+03  0.7818608E-02  0.1017400E+00
          2   -1    0    0  501    0  0.00000000000E+00  0.00000000000E+00  0.18005800950E+04  0.18005800950E+04  0.25500000000E-02 0. -1.
         -2   -1    0    0    0  501 -0.00000000000E+00 -0.00000000000E+00 -0.34388281899E+03  0.34388281900E+03  0.25500000000E-02 0.  1.
    8880023    1    1    2    0    0  0.60606785071E+02  0.91020625407E+02  0.17061249526E+04  0.18321109401E+04  0.65864270000E+03 0. -1.
    8880022    1    1    2    0    0 -0.60606785071E+02 -0.91020625407E+02 -0.24942767668E+03  0.31235197383E+03  0.15294330000E+03 0.  0.
<mgrwt>
<rscale>  0 0.48636681E+03</rscale>
<asrwt>0</asrwt>
<pdfrwt beam="1">  1        2 0.27701232E+00 0.66765870E+03</pdfrwt>
<pdfrwt beam="2">  1       -2 0.52905050E-01 0.66765870E+03</pdfrwt>
<totfact> 0.30214222E+01</totfact>
</mgrwt>
</event>
<event>
 4    5  0.6615028E-008  0.1076224E+04  0.7818608E-02  0.9288001E-01
          2   -1    0    0  501    0  0.00000000000E+00  0.00000000000E+00  0.15765629200E+04  0.15765629200E+04  0.25500000000E-02 0. -1.
         -2   -1    0    0    0  501 -0.00000000000E+00 -0.00000000000E+00 -0.10964850169E+04  0.10964850169E+04  0.25500000000E-02 0.  1.
    8880023    1    1    2    0    0  0.78158360661E+03 -0.33700892781E+03  0.11530489767E+04  0.15772698249E+04  0.65864270000E+03 0.  0.
    8880022    1    1    2    0    0 -0.78158360661E+03  0.33700892781E+03 -0.67297107368E+03  0.10957781119E+04  0.15294330000E+03 0.  0.
<mgrwt>
<rscale>  0 0.10189505E+04</rscale>
<asrwt>0</asrwt>
<pdfrwt beam="1">  1        2 0.24254814E+00 0.10762240E+04</pdfrwt>
<pdfrwt beam="2">  1       -2 0.16869000E+00 0.10762240E+04</pdfrwt>
<totfact> 0.24632178E+00</totfact>
</mgrwt>
</event>
<event>
 4    5  0.6615028E-008  0.1438131E+04  0.7818608E-02  0.8954606E-01
         -2   -1    0    0    0  501 -0.00000000000E+00  0.00000000000E+00  0.85379846901E+03  0.85379846901E+03  0.25500000000E-02 0.  1.
          2   -1    0    0  501    0  0.00000000000E+00 -0.00000000000E+00 -0.26297564155E+04  0.26297564155E+04  0.25500000000E-02 0. -1.
    8880023    1    1    2    0    0 -0.11276383295E+04 -0.60236464152E+03 -0.16516428512E+04  0.21900104286E+04  0.65864270000E+03 0.  0.
    8880022    1    1    2    0    0  0.11276383295E+04  0.60236464152E+03 -0.12431509532E+03  0.12935444559E+04  0.15294330000E+03 0.  0.
<mgrwt>
<rscale>  0 0.13989124E+04</rscale>
<asrwt>0</asrwt>
<pdfrwt beam="1">  1        2 0.40457790E+00 0.14381313E+04</pdfrwt>
<pdfrwt beam="2">  1       -2 0.13135361E+00 0.14381313E+04</pdfrwt>
<totfact> 0.11800701E+00</totfact>
</mgrwt>
</event>
<event>
 4    5  0.6615028E-008  0.7172636E+03  0.7818608E-02  0.9931956E-01
         -2   -1    0    0    0  501 -0.00000000000E+00  0.00000000000E+00  0.11994507151E+04  0.11994507151E+04  0.25500000000E-02 0.  1.
          2   -1    0    0  501    0  0.00000000000E+00 -0.00000000000E+00 -0.24662686029E+04  0.24662686029E+04  0.25500000000E-02 0. -1.
    8880023    1    1    2    0    0  0.10659825359E+03  0.26323678930E+03 -0.23909521664E+04  0.24962209964E+04  0.65864270000E+03 0.  0.
    8880022    1    1    2    0    0 -0.10659825359E+03 -0.26323678930E+03  0.11241342786E+04  0.11694983216E+04  0.15294330000E+03 0.  0.
<mgrwt>
<rscale>  0 0.58737238E+03</rscale>
<asrwt>0</asrwt>
<pdfrwt beam="1">  1        2 0.37942594E+00 0.71726355E+03</pdfrwt>
<pdfrwt beam="2">  1       -2 0.18453088E+00 0.71726355E+03</pdfrwt>
<totfact> 0.65323798E-01</totfact>
</mgrwt>
</event>
<event>
 4    5  0.6615028E-008  0.1972715E+04  0.7818608E-02  0.8632571E-01
         -2   -1    0    0    0  501 -0.00000000000E+00  0.00000000000E+00  0.27177726037E+04  0.27177726037E+04  0.25500000000E-02 0.  1.
          2   -1    0    0  501    0  0.00000000000E+00 -0.00000000000E+00 -0.16847872980E+04  0.16847872980E+04  0.25500000000E-02 0. -1.
    8880023    1    1    2    0    0 -0.15542412115E+04 -0.10208465199E+04 -0.44502310695E+03  0.20222880934E+04  0.65864270000E+03 0.  0.
    8880022    1    1    2    0    0  0.15542412115E+04  0.10208465199E+04  0.14780084127E+04  0.23802718084E+04  0.15294330000E+03 0.  0.
<mgrwt>
<rscale>  0 0.19454233E+04</rscale>
<asrwt>0</asrwt>
<pdfrwt beam="1">  1        2 0.25919805E+00 0.19727148E+04</pdfrwt>
<pdfrwt beam="2">  1       -2 0.41811886E+00 0.19727148E+04</pdfrwt>
<totfact> 0.50321131E-02</totfact>
</mgrwt>
</event>
<event>
 4    5  0.6615028E-008  0.1282112E+04  0.7818608E-02  0.9081163E-01
         -2   -1    0    0    0  501 -0.00000000000E+00  0.00000000000E+00  0.16197747278E+04  0.16197747278E+04  0.25500000000E-02 0.  1.
          2   -1    0    0  501    0  0.00000000000E+00 -0.00000000000E+00 -0.15936303398E+04  0.15936303398E+04  0.25500000000E-02 0. -1.
    8880023    1    1    2    0    0  0.42174269388E+03  0.10159396214E+04 -0.10573308603E+04  0.16618540756E+04  0.65864270000E+03 0. -1.
    8880022    1    1    2    0    0 -0.42174269388E+03 -0.10159396214E+04  0.10834752483E+04  0.15515509920E+04  0.15294330000E+03 0.  0.
<mgrwt>
<rscale>  0 0.12368927E+04</rscale>
<asrwt>0</asrwt>
<pdfrwt beam="1">  1        2 0.24517390E+00 0.12821117E+04</pdfrwt>
<pdfrwt beam="2">  1       -2 0.24919611E+00 0.12821117E+04</pdfrwt>
<totfact> 0.70302104E-01</totfact>
</mgrwt>
</event>
<event>
 4    5  0.6615028E-008  0.1127841E+04  0.7818608E-02  0.9230674E-01
          2   -1    0    0  501    0  0.00000000000E+00  0.00000000000E+00  0.41637762205E+04  0.41637762205E+04  0.25500000000E-02 0. -1.
         -2   -1    0    0    0  501 -0.00000000000E+00 -0.00000000000E+00 -0.37093453066E+03  0.37093453067E+03  0.25500000000E-02 0.  1.
    8880023    1    1    2    0    0 -0.91278698960E+03  0.70953190276E+02  0.32923048960E+04  0.34801287588E+04  0.65864270000E+03 0.  0.
    8880022    1    1    2    0    0  0.91278698960E+03 -0.70953190276E+02  0.50053679387E+03  0.10545819924E+04  0.15294330000E+03 0.  0.
<mgrwt>
<rscale>  0 0.10742353E+04</rscale>
<asrwt>0</asrwt>
<pdfrwt beam="1">  1        2 0.64058092E+00 0.11278407E+04</pdfrwt>
<pdfrwt beam="2">  1       -2 0.57066854E-01 0.11278407E+04</pdfrwt>
<totfact> 0.74602000E-01</totfact>
</mgrwt>
</event>
<event>
 4    5  0.6615028E-008  0.8059083E+03  0.7818608E-02  0.9698164E-01
          2   -1    0    0  501    0  0.00000000000E+00  0.00000000000E+00  0.17884213054E+04  0.17884213054E+04  0.25500000000E-02 0. -1.
         -2   -1    0    0    0  501 -0.00000000000E+00 -0.00000000000E+00 -0.35563076293E+03  0.35563076294E+03  0.25500000000E-02 0.  1.
    8880023    1    1    2    0    0 -0.32706474907E+03 -0.32970676946E+03  0.14454551355E+04  0.16549406814E+04  0.65864270000E+03 0.  1.
    8880022    1    1    2    0    0  0.32706474907E+03  0.32970676946E+03 -0.12664593047E+02  0.48911138695E+03  0.15294330000E+03 0.  0.
<mgrwt>
<rscale>  0 0.71126221E+03</rscale>
<asrwt>0</asrwt>
<pdfrwt beam="1">  1        2 0.27514173E+00 0.80590825E+03</pdfrwt>
<pdfrwt beam="2">  1       -2 0.54712427E-01 0.80590825E+03</pdfrwt>
<totfact> 0.28122942E+01</totfact>
</mgrwt>
</event>
<event>
 4    5  0.6615028E-008  0.7659603E+03  0.7818608E-02  0.9789914E-01
          2   -1    0    0  501    0  0.00000000000E+00  0.00000000000E+00  0.89007240206E+03  0.89007240207E+03  0.25500000000E-02 0. -1.
         -2   -1    0    0    0  501 -0.00000000000E+00 -0.00000000000E+00 -0.81828370430E+03  0.81828370430E+03  0.25500000000E-02 0.  1.
    8880023    1    1    2    0    0  0.37674042243E+03  0.10464994905E+03  0.64256512527E+03  0.99979253058E+03  0.65864270000E+03 0. -1.
    8880022    1    1    2    0    0 -0.37674042243E+03 -0.10464994905E+03 -0.57077642750E+03  0.70856357579E+03  0.15294330000E+03 0.  0.
<mgrwt>
<rscale>  0 0.65906618E+03</rscale>
<asrwt>0</asrwt>
<pdfrwt beam="1">  1        2 0.13693422E+00 0.76596029E+03</pdfrwt>
<pdfrwt beam="2">  1       -2 0.12588980E+00 0.76596029E+03</pdfrwt>
<totfact> 0.14224841E+01</totfact>
</mgrwt>
</event>
<event>
 4    5  0.6615028E-008  0.9867436E+03  0.7818608E-02  0.9399110E-01
         -2   -1    0    0    0  501 -0.00000000000E+00  0.00000000000E+00  0.11564243777E+04  0.11564243778E+04  0.25500000000E-02 0.  1.
          2   -1    0    0  501    0  0.00000000000E+00 -0.00000000000E+00 -0.13171168703E+04  0.13171168703E+04  0.25500000000E-02 0. -1.
    8880023    1    1    2    0    0  0.51297623743E+03 -0.52603044153E+03 -0.96030551148E+03  0.13768985174E+04  0.65864270000E+03 0. -1.
    8880022    1    1    2    0    0 -0.51297623743E+03  0.52603044153E+03  0.79961301894E+03  0.10966427306E+04  0.15294330000E+03 0.  0.
<mgrwt>
<rscale>  0 0.92148936E+03</rscale>
<asrwt>0</asrwt>
<pdfrwt beam="1">  1        2 0.20263336E+00 0.98674356E+03</pdfrwt>
<pdfrwt beam="2">  1       -2 0.17791144E+00 0.98674356E+03</pdfrwt>
<totfact> 0.30086310E+00</totfact>
</mgrwt>
</event>
<event>
 4    5  0.6615028E-008  0.1215752E+04  0.7818608E-02  0.9141960E-01
         -2   -1    0    0    0  501 -0.00000000000E+00  0.00000000000E+00  0.58383817367E+03  0.58383817367E+03  0.25500000000E-02 0.  1.
          2   -1    0    0  501    0  0.00000000000E+00 -0.00000000000E+00 -0.28107577500E+04  0.28107577500E+04  0.25500000000E-02 0. -1.
    8880023    1    1    2    0    0  0.66986943508E+03 -0.77169774131E+03 -0.19940092301E+04  0.23354069196E+04  0.65864270000E+03 0.  0.
    8880022    1    1    2    0    0 -0.66986943508E+03  0.77169774131E+03 -0.23291034621E+03  0.10591890041E+04  0.15294330000E+03 0.  0.
<mgrwt>
<rscale>  0 0.11673108E+04</rscale>
<asrwt>0</asrwt>
<pdfrwt beam="1">  1        2 0.43242426E+00 0.12157519E+04</pdfrwt>
<pdfrwt beam="2">  1       -2 0.89821259E-01 0.12157519E+04</pdfrwt>
<totfact> 0.23872206E+00</totfact>
</mgrwt>
</event>
<event>
 4    5  0.6615028E-008  0.6703614E+03  0.7818608E-02  0.1015405E+00
         -2   -1    0    0    0  501 -0.00000000000E+00  0.00000000000E+00  0.49807551800E+03  0.49807551801E+03  0.25500000000E-02 0.  1.
          2   -1    0    0  501    0  0.00000000000E+00 -0.00000000000E+00 -0.38257058252E+03  0.38257058253E+03  0.25500000000E-02 0. -1.
    8880023    1    1    2    0    0  0.10018806697E+03 -0.74407989859E+02  0.48209441216E+02  0.67209266787E+03  0.65864270000E+03 0. -1.
    8880022    1    1    2    0    0 -0.10018806697E+03  0.74407989859E+02  0.67295494264E+02  0.20855343268E+03  0.15294330000E+03 0. -1.
<mgrwt>
<rscale>  0 0.49381840E+03</rscale>
<asrwt>0</asrwt>
<pdfrwt beam="1">  1        2 0.58857013E-01 0.67036140E+03</pdfrwt>
<pdfrwt beam="2">  1       -2 0.76627003E-01 0.67036140E+03</pdfrwt>
<totfact> 0.12904820E+02</totfact>
</mgrwt>
</event>
<event>
 4    5  0.6615028E-008  0.7930099E+03  0.7818608E-02  0.9726119E-01
          2   -1    0    0  501    0  0.00000000000E+00  0.00000000000E+00  0.15515272045E+04  0.15515272045E+04  0.25500000000E-02 0. -1.
         -2   -1    0    0    0  501 -0.00000000000E+00 -0.00000000000E+00 -0.25628481216E+03  0.25628481217E+03  0.25500000000E-02 0.  1.
    8880023    1    1    2    0    0 -0.15393486063E+03  0.41395485401E+03  0.84525270371E+03  0.11590154882E+04  0.65864270000E+03 0.  1.
    8880022    1    1    2    0    0  0.15393486063E+03 -0.41395485401E+03  0.44998968864E+03  0.64879652849E+03  0.15294330000E+03 0. -1.
<mgrwt>
<rscale>  0 0.69482757E+03</rscale>
<asrwt>0</asrwt>
<pdfrwt beam="1">  1        2 0.23869649E+00 0.79300994E+03</pdfrwt>
<pdfrwt beam="2">  1       -2 0.39428433E-01 0.79300994E+03</pdfrwt>
<totfact> 0.73411078E+01</totfact>
</mgrwt>
</event>
<event>
 4    5  0.6615028E-008  0.9959300E+03  0.7818608E-02  0.9386902E-01
         -2   -1    0    0    0  501 -0.00000000000E+00  0.00000000000E+00  0.48986858512E+03  0.48986858513E+03  0.25500000000E-02 0.  1.
          2   -1    0    0  501    0  0.00000000000E+00 -0.00000000000E+00 -0.25480669127E+04  0.25480669127E+04  0.25500000000E-02 0. -1.
    8880023    1    1    2    0    0  0.27507166072E+03 -0.69455168191E+03 -0.20457549439E+04  0.22752999701E+04  0.65864270000E+03 0. -1.
    8880022    1    1    2    0    0 -0.27507166072E+03  0.69455168191E+03 -0.12443383744E+02  0.76263552775E+03  0.15294330000E+03 0.  0.
<mgrwt>
<rscale>  0 0.93161491E+03</rscale>
<asrwt>0</asrwt>
<pdfrwt beam="1">  1        2 0.39201029E+00 0.99593005E+03</pdfrwt>
<pdfrwt beam="2">  1       -2 0.75364399E-01 0.99593005E+03</pdfrwt>
<totfact> 0.52187803E+00</totfact>
</mgrwt>
</event>
<event>
 4    5  0.6615028E-008  0.6648827E+03  0.7818608E-02  0.1019632E+00
          2   -1    0    0  501    0  0.00000000000E+00  0.00000000000E+00  0.23792068751E+04  0.23792068751E+04  0.25500000000E-02 0. -1.
         -2   -1    0    0    0  501 -0.00000000000E+00 -0.00000000000E+00 -0.80706409151E+03  0.80706409151E+03  0.25500000000E-02 0.  1.
    8880023    1    1    2    0    0  0.67160726917E+02 -0.61223364853E+02  0.23221457578E+04  0.24154564766E+04  0.65864270000E+03 0. -1.
    8880022    1    1    2    0    0 -0.67160726917E+02  0.61223364853E+02 -0.75000297421E+03  0.77081449000E+03  0.15294330000E+03 0.  0.
<mgrwt>
<rscale>  0 0.47819651E+03</rscale>
<asrwt>0</asrwt>
<pdfrwt beam="1">  1        2 0.36603182E+00 0.66488275E+03</pdfrwt>
<pdfrwt beam="2">  1       -2 0.12416371E+00 0.66488275E+03</pdfrwt>
<totfact> 0.21236862E+00</totfact>
</mgrwt>
</event>
<event>
 4    5  0.6615028E-008  0.6590306E+03  0.7818608E-02  0.1025172E+00
          2   -1    0    0  501    0  0.00000000000E+00  0.00000000000E+00  0.45043787342E+03  0.45043787343E+03  0.25500000000E-02 0. -1.
         -2   -1    0    0    0  501 -0.00000000000E+00 -0.00000000000E+00 -0.65527791710E+03  0.65527791710E+03  0.25500000000E-02 0.  1.
    8880023    1    1    2    0    0  0.15635707205E+02 -0.16330619584E+02  0.18652617974E+03  0.68491852542E+03  0.65864270000E+03 0. -1.
    8880022    1    1    2    0    0 -0.15635707205E+02  0.16330619584E+02 -0.39136622342E+03  0.42079726511E+03  0.15294330000E+03 0.  0.
<mgrwt>
<rscale>  0 0.45865416E+03</rscale>
<asrwt>0</asrwt>
<pdfrwt beam="1">  1        2 0.69298134E-01 0.65903063E+03</pdfrwt>
<pdfrwt beam="2">  1       -2 0.10081199E+00 0.65903063E+03</pdfrwt>
<totfact> 0.57270762E+01</totfact>
</mgrwt>
</event>
<event>
 4    5  0.6615028E-008  0.7288007E+03  0.7818608E-02  0.9893860E-01
          2   -1    0    0  501    0  0.00000000000E+00  0.00000000000E+00  0.24371585731E+04  0.24371585731E+04  0.25500000000E-02 0. -1.
         -2   -1    0    0    0  501 -0.00000000000E+00 -0.00000000000E+00 -0.24653943243E+03  0.24653943244E+03  0.25500000000E-02 0.  1.
    8880023    1    1    2    0    0 -0.16581140130E+03  0.26428562819E+03  0.22184739452E+04  0.23351182338E+04  0.65864270000E+03 0. -1.
    8880022    1    1    2    0    0  0.16581140130E+03 -0.26428562819E+03 -0.27854804596E+02  0.34857977167E+03  0.15294330000E+03 0.  0.
<mgrwt>
<rscale>  0 0.60559794E+03</rscale>
<asrwt>0</asrwt>
<pdfrwt beam="1">  1        2 0.37494747E+00 0.72880074E+03</pdfrwt>
<pdfrwt beam="2">  1       -2 0.37929144E-01 0.72880074E+03</pdfrwt>
<totfact> 0.25973960E+01</totfact>
</mgrwt>
</event>
<event>
 4    5  0.6615028E-008  0.1002583E+04  0.7818608E-02  0.9378186E-01
         -2   -1    0    0    0  501 -0.00000000000E+00  0.00000000000E+00  0.25854791639E+04  0.25854791639E+04  0.25500000000E-02 0.  1.
          2   -1    0    0  501    0  0.00000000000E+00 -0.00000000000E+00 -0.40995850008E+03  0.40995850009E+03  0.25500000000E-02 0. -1.
    8880023    1    1    2    0    0  0.26131334512E+03 -0.70928016649E+03  0.43727469528E+03  0.10937926606E+04  0.65864270000E+03 0. -1.
    8880022    1    1    2    0    0 -0.26131334512E+03  0.70928016649E+03  0.17382459685E+04  0.19016450034E+04  0.15294330000E+03 0.  0.
<mgrwt>
<rscale>  0 0.93892861E+03</rscale>
<asrwt>0</asrwt>
<pdfrwt beam="1">  1        2 0.63070539E-01 0.10025833E+04</pdfrwt>
<pdfrwt beam="2">  1       -2 0.39776602E+00 0.10025833E+04</pdfrwt>
<totfact> 0.60599269E-01</totfact>
</mgrwt>
</event>
<event>
 4    5  0.6615028E-008  0.1043958E+04  0.7818608E-02  0.9326180E-01
         -2   -1    0    0    0  501 -0.00000000000E+00  0.00000000000E+00  0.81480013596E+03  0.81480013596E+03  0.25500000000E-02 0.  1.
          2   -1    0    0  501    0  0.00000000000E+00 -0.00000000000E+00 -0.19433284950E+04  0.19433284950E+04  0.25500000000E-02 0. -1.
    8880023    1    1    2    0    0 -0.78846882184E+03 -0.18535122359E+03 -0.15213073748E+04  0.18450540626E+04  0.65864270000E+03 0.  0.
    8880022    1    1    2    0    0  0.78846882184E+03  0.18535122359E+03  0.39277901577E+03  0.91307456834E+03  0.15294330000E+03 0.  0.
<mgrwt>
<rscale>  0 0.98407988E+03</rscale>
<asrwt>0</asrwt>
<pdfrwt beam="1">  1        2 0.29897361E+00 0.10439580E+04</pdfrwt>
<pdfrwt beam="2">  1       -2 0.12535387E+00 0.10439580E+04</pdfrwt>
<totfact> 0.33947675E+00</totfact>
</mgrwt>
</event>
<event>
 4    5  0.6615028E-008  0.1496994E+04  0.7818608E-02  0.8911762E-01
          2   -1    0    0  501    0  0.00000000000E+00  0.00000000000E+00  0.19279294597E+04  0.19279294597E+04  0.25500000000E-02 0. -1.
         -2   -1    0    0    0  501 -0.00000000000E+00 -0.00000000000E+00 -0.15090188625E+04  0.15090188626E+04  0.25500000000E-02 0.  1.
    8880023    1    1    2    0    0  0.12379278549E+04 -0.52413174895E+03  0.11604243932E+04  0.18940893439E+04  0.65864270000E+03 0.  0.
    8880022    1    1    2    0    0 -0.12379278549E+04  0.52413174895E+03 -0.74151379610E+03  0.15428589783E+04  0.15294330000E+03 0.  0.
<mgrwt>
<rscale>  0 0.14596148E+04</rscale>
<asrwt>0</asrwt>
<pdfrwt beam="1">  1        2 0.29660453E+00 0.14969935E+04</pdfrwt>
<pdfrwt beam="2">  1       -2 0.23215675E+00 0.14969935E+04</pdfrwt>
<totfact> 0.56987374E-01</totfact>
</mgrwt>
</event>
<event>
 4    5  0.6615028E-008  0.1321159E+04  0.7818608E-02  0.9047500E-01
          2   -1    0    0  501    0  0.00000000000E+00  0.00000000000E+00  0.29940820259E+04  0.29940820259E+04  0.25500000000E-02 0. -1.
         -2   -1    0    0    0  501 -0.00000000000E+00 -0.00000000000E+00 -0.61568556177E+03  0.61568556178E+03  0.25500000000E-02 0.  1.
    8880023    1    1    2    0    0  0.11241720341E+04  0.21883396597E+03  0.51658859276E+03  0.14185644319E+04  0.65864270000E+03 0.  0.
    8880022    1    1    2    0    0 -0.11241720341E+04 -0.21883396597E+03  0.18618078714E+04  0.21912031558E+04  0.15294330000E+03 0.  0.
<mgrwt>
<rscale>  0 0.12776245E+04</rscale>
<asrwt>0</asrwt>
<pdfrwt beam="1">  1        2 0.46062801E+00 0.13211591E+04</pdfrwt>
<pdfrwt beam="2">  1       -2 0.94720854E-01 0.13211591E+04</pdfrwt>
<totfact> 0.16093427E+00</totfact>
</mgrwt>
</event>
<event>
 4    5  0.6615028E-008  0.8675615E+03  0.7818608E-02  0.9580252E-01
         -2   -1    0    0    0  501 -0.00000000000E+00  0.00000000000E+00  0.74055513197E+03  0.74055513197E+03  0.25500000000E-02 0.  1.
          2   -1    0    0  501    0  0.00000000000E+00 -0.00000000000E+00 -0.10737587789E+04  0.10737587789E+04  0.25500000000E-02 0. -1.
    8880023    1    1    2    0    0  0.51372817388E+03 -0.23438451210E+03 -0.70778400636E+03  0.11196522416E+04  0.65864270000E+03 0. -1.
    8880022    1    1    2    0    0 -0.51372817388E+03  0.23438451210E+03  0.37458035941E+03  0.69466166932E+03  0.15294330000E+03 0.  0.
<mgrwt>
<rscale>  0 0.78617140E+03</rscale>
<asrwt>0</asrwt>
<pdfrwt beam="1">  1        2 0.16519366E+00 0.86756149E+03</pdfrwt>
<pdfrwt beam="2">  1       -2 0.11393156E+00 0.86756149E+03</pdfrwt>
<totfact> 0.13714438E+01</totfact>
</mgrwt>
</event>
<event>
 4    5  0.6615028E-008  0.8016325E+03  0.7818608E-02  0.9707277E-01
         -2   -1    0    0    0  501 -0.00000000000E+00  0.00000000000E+00  0.21398914218E+03  0.21398914220E+03  0.25500000000E-02 0.  1.
          2   -1    0    0  501    0  0.00000000000E+00 -0.00000000000E+00 -0.39378264617E+04  0.39378264617E+04  0.25500000000E-02 0. -1.
    8880023    1    1    2    0    0  0.45678027906E+03  0.12499506808E+02 -0.35502619417E+04  0.36396393395E+04  0.65864270000E+03 0.  0.
    8880022    1    1    2    0    0 -0.45678027906E+03 -0.12499506808E+02 -0.17357537787E+03  0.51217626441E+03  0.15294330000E+03 0.  0.
<mgrwt>
<rscale>  0 0.70585152E+03</rscale>
<asrwt>0</asrwt>
<pdfrwt beam="1">  1        2 0.60581940E+00 0.80163250E+03</pdfrwt>
<pdfrwt beam="2">  1       -2 0.32921409E-01 0.80163250E+03</pdfrwt>
<totfact> 0.36045876E+00</totfact>
</mgrwt>
</event>
<event>
 4    5  0.6615028E-008  0.9352668E+03  0.7818608E-02  0.9471637E-01
         -2   -1    0    0    0  501 -0.00000000000E+00  0.00000000000E+00  0.98374764448E+03  0.98374764448E+03  0.25500000000E-02 0.  1.
          2   -1    0    0  501    0  0.00000000000E+00 -0.00000000000E+00 -0.14364520952E+04  0.14364520952E+04  0.25500000000E-02 0. -1.
    8880023    1    1    2    0    0  0.43715487107E+03  0.49980937263E+03 -0.11249849756E+04  0.14629816102E+04  0.65864270000E+03 0.  0.
    8880022    1    1    2    0    0 -0.43715487107E+03 -0.49980937263E+03  0.67228052486E+03  0.95721812947E+03  0.15294330000E+03 0.  0.
<mgrwt>
<rscale>  0 0.86407634E+03</rscale>
<asrwt>0</asrwt>
<pdfrwt beam="1">  1        2 0.22099263E+00 0.93526680E+03</pdfrwt>
<pdfrwt beam="2">  1       -2 0.15134579E+00 0.93526680E+03</pdfrwt>
<totfact> 0.40352186E+00</totfact>
</mgrwt>
</event>
<event>
 4    5  0.6615028E-008  0.7529896E+03  0.7818608E-02  0.9823607E-01
          2   -1    0    0  501    0  0.00000000000E+00  0.00000000000E+00  0.74085317851E+03  0.74085317852E+03  0.25500000000E-02 0. -1.
         -2   -1    0    0    0  501 -0.00000000000E+00 -0.00000000000E+00 -0.10615422760E+04  0.10615422760E+04  0.25500000000E-02 0.  1.
    8880023    1    1    2    0    0  0.14834798927E+02 -0.36464101937E+03  0.49132045450E+03  0.89910463214E+03  0.65864270000E+03 0. -1.
    8880022    1    1    2    0    0 -0.14834798927E+02  0.36464101937E+03 -0.81200955203E+03  0.90329082242E+03  0.15294330000E+03 0.  0.
<mgrwt>
<rscale>  0 0.64110914E+03</rscale>
<asrwt>0</asrwt>
<pdfrwt beam="1">  1        2 0.11397741E+00 0.75298961E+03</pdfrwt>
<pdfrwt beam="2">  1       -2 0.16331420E+00 0.75298961E+03</pdfrwt>
<totfact> 0.92225666E+00</totfact>
</mgrwt>
</event>
<event>
 4    5  0.6615407E-008  0.1223596E+04  0.7818608E-02  0.9134520E-01
          2   -1    0    0  501    0  0.00000000000E+00  0.00000000000E+00  0.38099164920E+04  0.38099164920E+04  0.25500000000E-02 0. -1.
         -2   -1    0    0    0  501 -0.00000000000E+00 -0.00000000000E+00 -0.10465667631E+04  0.10465667631E+04  0.25500000000E-02 0.  1.
    8880023    1    1    2    0    0 -0.10305042485E+04 -0.37916220742E+02  0.34146575508E+04  0.36272679859E+04  0.65864270000E+03 0.  0.
    8880022    1    1    2    0    0  0.10305042485E+04  0.37916220742E+02 -0.65130782192E+03  0.12292152692E+04  0.15294330000E+03 0.  0.
<mgrwt>
<rscale>  0 0.11755622E+04</rscale>
<asrwt>0</asrwt>
<pdfrwt beam="1">  1        2 0.58614100E+00 0.12235959E+04</pdfrwt>
<pdfrwt beam="2">  1       -2 0.16101027E+00 0.12235959E+04</pdfrwt>
<totfact> 0.11921403E-01</totfact>
</mgrwt>
</event>
<event>
 4    5  0.6615028E-008  0.6959194E+03  0.7818608E-02  0.1001457E+00
         -2   -1    0    0    0  501 -0.00000000000E+00  0.00000000000E+00  0.49830020967E+03  0.49830020967E+03  0.25500000000E-02 0.  1.
          2   -1    0    0  501    0  0.00000000000E+00 -0.00000000000E+00 -0.76621308374E+03  0.76621308375E+03  0.25500000000E-02 0. -1.
    8880023    1    1    2    0    0  0.20597447392E+03  0.89822489945E+02 -0.53928775674E+03  0.88041754551E+03  0.65864270000E+03 0.  0.
    8880022    1    1    2    0    0 -0.20597447392E+03 -0.89822489945E+02  0.27137488266E+03  0.38409574791E+03  0.15294330000E+03 0.  0.
<mgrwt>
<rscale>  0 0.55015984E+03</rscale>
<asrwt>0</asrwt>
<pdfrwt beam="1">  1        2 0.11787894E+00 0.69591937E+03</pdfrwt>
<pdfrwt beam="2">  1       -2 0.76661571E-01 0.69591937E+03</pdfrwt>
<totfact> 0.56435267E+01</totfact>
</mgrwt>
</event>
<event>
 4    5  0.6615028E-008  0.7574075E+03  0.7818608E-02  0.9811866E-01
          2   -1    0    0  501    0  0.00000000000E+00  0.00000000000E+00  0.23387008297E+04  0.23387008297E+04  0.25500000000E-02 0. -1.
         -2   -1    0    0    0  501 -0.00000000000E+00 -0.00000000000E+00 -0.46667654866E+03  0.46667654866E+03  0.25500000000E-02 0.  1.
    8880023    1    1    2    0    0 -0.83551197123E+01  0.37387982952E+03  0.21732218038E+04  0.23014254604E+04  0.65864270000E+03 0. -1.
    8880022    1    1    2    0    0  0.83551197123E+01 -0.37387982952E+03 -0.30119752273E+03  0.50395191800E+03  0.15294330000E+03 0.  0.
<mgrwt>
<rscale>  0 0.64729619E+03</rscale>
<asrwt>0</asrwt>
<pdfrwt beam="1">  1        2 0.35980013E+00 0.75740751E+03</pdfrwt>
<pdfrwt beam="2">  1       -2 0.71796392E-01 0.75740751E+03</pdfrwt>
<totfact> 0.79059959E+00</totfact>
</mgrwt>
</event>
<event>
 4    5  0.6615028E-008  0.9593162E+03  0.7818608E-02  0.9436835E-01
         -2   -1    0    0    0  501 -0.00000000000E+00  0.00000000000E+00  0.74153175859E+03  0.74153175860E+03  0.25500000000E-02 0.  1.
          2   -1    0    0  501    0  0.00000000000E+00 -0.00000000000E+00 -0.11164652346E+04  0.11164652347E+04  0.25500000000E-02 0. -1.
    8880023    1    1    2    0    0  0.31122250559E+03  0.62419375391E+03  0.15104718286E+03  0.97113477341E+03  0.65864270000E+03 0.  1.
    8880022    1    1    2    0    0 -0.31122250559E+03 -0.62419375391E+03 -0.52598065891E+03  0.88686221984E+03  0.15294330000E+03 0.  0.
<mgrwt>
<rscale>  0 0.89105321E+03</rscale>
<asrwt>0</asrwt>
<pdfrwt beam="1">  1        2 0.17176388E+00 0.95931616E+03</pdfrwt>
<pdfrwt beam="2">  1       -2 0.11408181E+00 0.95931616E+03</pdfrwt>
<totfact> 0.12754112E+01</totfact>
</mgrwt>
</event>
<event>
 4    5  0.6615028E-008  0.1025158E+04  0.7818608E-02  0.9349359E-01
         -2   -1    0    0    0  501 -0.00000000000E+00  0.00000000000E+00  0.15071333262E+04  0.15071333262E+04  0.25500000000E-02 0.  1.
          2   -1    0    0  501    0  0.00000000000E+00 -0.00000000000E+00 -0.94713330676E+03  0.94713330677E+03  0.25500000000E-02 0. -1.
    8880023    1    1    2    0    0  0.65759469811E+03 -0.42977564502E+03 -0.48819296939E+03  0.11354648712E+04  0.65864270000E+03 0. -1.
    8880022    1    1    2    0    0 -0.65759469811E+03  0.42977564502E+03  0.10481929888E+04  0.13188017617E+04  0.15294330000E+03 0.  0.
<mgrwt>
<rscale>  0 0.96363013E+03</rscale>
<asrwt>0</asrwt>
<pdfrwt beam="1">  1        2 0.14571282E+00 0.10251576E+04</pdfrwt>
<pdfrwt beam="2">  1       -2 0.23186666E+00 0.10251576E+04</pdfrwt>
<totfact> 0.22513076E+00</totfact>
</mgrwt>
</event>
<event>
 4    5  0.6615028E-008  0.7105819E+03  0.7818608E-02  0.9955846E-01
          2   -1    0    0  501    0  0.00000000000E+00  0.00000000000E+00  0.29979329979E+04  0.29979329979E+04  0.25500000000E-02 0. -1.
         -2   -1    0    0    0  501 -0.00000000000E+00 -0.00000000000E+00 -0.95825344803E+02  0.95825344837E+02  0.25500000000E-02 0.  1.
    8880023    1    1    2    0    0  0.19355463987E+03 -0.18344781435E+03  0.24183444848E+04  0.25205786543E+04  0.65864270000E+03 0.  0.
    8880022    1    1    2    0    0 -0.19355463987E+03  0.18344781435E+03  0.48376316835E+03  0.57317968847E+03  0.15294330000E+03 0.  0.
<mgrwt>
<rscale>  0 0.57629425E+03</rscale>
<asrwt>0</asrwt>
<pdfrwt beam="1">  1        2 0.46122043E+00 0.71058195E+03</pdfrwt>
<pdfrwt beam="2">  1       -2 0.14742362E-01 0.71058195E+03</pdfrwt>
<totfact> 0.66842954E+01</totfact>
</mgrwt>
</event>
<event>
 4    5  0.6615028E-008  0.7269926E+03  0.7818608E-02  0.9899599E-01
         -2   -1    0    0    0  501 -0.00000000000E+00  0.00000000000E+00  0.33122964755E+03  0.33122964756E+03  0.25500000000E-02 0.  1.
          2   -1    0    0  501    0  0.00000000000E+00 -0.00000000000E+00 -0.12486933436E+04  0.12486933436E+04  0.25500000000E-02 0. -1.
    8880023    1    1    2    0    0 -0.22137043993E+03  0.21378305694E+03 -0.99043089863E+03  0.12286055666E+04  0.65864270000E+03 0. -1.
    8880022    1    1    2    0    0  0.22137043993E+03 -0.21378305694E+03  0.72967202595E+02  0.35131742453E+03  0.15294330000E+03 0.  0.
<mgrwt>
<rscale>  0 0.60280745E+03</rscale>
<asrwt>0</asrwt>
<pdfrwt beam="1">  1        2 0.19210667E+00 0.72699262E+03</pdfrwt>
<pdfrwt beam="2">  1       -2 0.50958408E-01 0.72699262E+03</pdfrwt>
<totfact> 0.65760631E+01</totfact>
</mgrwt>
</event>
<event>
 4    5  0.6615028E-008  0.1632629E+04  0.7818608E-02  0.8821249E-01
         -2   -1    0    0    0  501 -0.00000000000E+00  0.00000000000E+00  0.10030502334E+04  0.10030502334E+04  0.25500000000E-02 0.  1.
          2   -1    0    0  501    0  0.00000000000E+00 -0.00000000000E+00 -0.26928021703E+04  0.26928021703E+04  0.25500000000E-02 0. -1.
    8880023    1    1    2    0    0 -0.14768107124E+04  0.22515948976E+03 -0.14331182107E+04  0.21723960707E+04  0.65864270000E+03 0.  0.
    8880022    1    1    2    0    0  0.14768107124E+04 -0.22515948976E+03 -0.25663372619E+03  0.15234563330E+04  0.15294330000E+03 0.  0.
<mgrwt>
<rscale>  0 0.15988596E+04</rscale>
<asrwt>0</asrwt>
<pdfrwt beam="1">  1        2 0.41427725E+00 0.16326288E+04</pdfrwt>
<pdfrwt beam="2">  1       -2 0.15431542E+00 0.16326288E+04</pdfrwt>
<totfact> 0.69467352E-01</totfact>
</mgrwt>
</event>
<event>
 4    5  0.6615028E-008  0.2159216E+04  0.7818608E-02  0.8546202E-01
         -2   -1    0    0    0  501 -0.00000000000E+00  0.00000000000E+00  0.11302971723E+04  0.11302971723E+04  0.25500000000E-02 0.  1.
          2   -1    0    0  501    0  0.00000000000E+00 -0.00000000000E+00 -0.43758165065E+04  0.43758165065E+04  0.25500000000E-02 0. -1.
    8880023    1    1    2    0    0  0.20481580169E+04 -0.18289827908E+03 -0.78891651454E+03  0.22988263344E+04  0.65864270000E+03 0.  0.
    8880022    1    1    2    0    0 -0.20481580169E+04  0.18289827908E+03 -0.24566028197E+04  0.32072873444E+04  0.15294330000E+03 0.  0.
<mgrwt>
<rscale>  0 0.21344874E+04</rscale>
<asrwt>0</asrwt>
<pdfrwt beam="1">  1        2 0.67320253E+00 0.21592159E+04</pdfrwt>
<pdfrwt beam="2">  1       -2 0.17389188E+00 0.21592159E+04</pdfrwt>
<totfact> 0.28698160E-02</totfact>
</mgrwt>
</event>
<event>
 4    5  0.6615028E-008  0.6822923E+03  0.7818608E-02  0.1008056E+00
          2   -1    0    0  501    0  0.00000000000E+00  0.00000000000E+00  0.14688511874E+04  0.14688511874E+04  0.25500000000E-02 0. -1.
         -2   -1    0    0    0  501 -0.00000000000E+00 -0.00000000000E+00 -0.32982288447E+03  0.32982288448E+03  0.25500000000E-02 0.  1.
    8880023    1    1    2    0    0 -0.14807282333E+03 -0.98929441354E+02  0.13308298586E+04  0.14955369986E+04  0.65864270000E+03 0. -1.
    8880022    1    1    2    0    0  0.14807282333E+03  0.98929441354E+02 -0.19180155573E+03  0.30313707324E+03  0.15294330000E+03 0.  0.
<mgrwt>
<rscale>  0 0.52254777E+03</rscale>
<asrwt>0</asrwt>
<pdfrwt beam="1">  1        2 0.22597711E+00 0.68229231E+03</pdfrwt>
<pdfrwt beam="2">  1       -2 0.50741982E-01 0.68229231E+03</pdfrwt>
<totfact> 0.49942793E+01</totfact>
</mgrwt>
</event>
<event>
 4    5  0.6615028E-008  0.6836860E+03  0.7818608E-02  0.1007311E+00
          2   -1    0    0  501    0  0.00000000000E+00  0.00000000000E+00  0.10195916269E+04  0.10195916269E+04  0.25500000000E-02 0. -1.
         -2   -1    0    0    0  501 -0.00000000000E+00 -0.00000000000E+00 -0.52401147067E+03  0.52401147067E+03  0.25500000000E-02 0.  1.
    8880023    1    1    2    0    0 -0.10457582644E+03  0.15059965120E+03  0.86572299039E+03  0.11031332017E+04  0.65864270000E+03 0. -1.
    8880022    1    1    2    0    0  0.10457582644E+03 -0.15059965120E+03 -0.37014283418E+03  0.44046989582E+03  0.15294330000E+03 0.  0.
<mgrwt>
<rscale>  0 0.52557477E+03</rscale>
<asrwt>0</asrwt>
<pdfrwt beam="1">  1        2 0.15686025E+00 0.68368601E+03</pdfrwt>
<pdfrwt beam="2">  1       -2 0.80617150E-01 0.68368601E+03</pdfrwt>
<totfact> 0.34008996E+01</totfact>
</mgrwt>
</event>
<event>
 4    5  0.6615028E-008  0.9836171E+03  0.7818608E-02  0.9403312E-01
         -2   -1    0    0    0  501 -0.00000000000E+00  0.00000000000E+00  0.23336122088E+04  0.23336122088E+04  0.25500000000E-02 0.  1.
          2   -1    0    0  501    0  0.00000000000E+00 -0.00000000000E+00 -0.81023731502E+03  0.81023731503E+03  0.25500000000E-02 0. -1.
    8880023    1    1    2    0    0 -0.26167798607E+03  0.68206822068E+03 -0.41436471968E+03  0.10673334780E+04  0.65864270000E+03 0. -1.
    8880022    1    1    2    0    0  0.26167798607E+03 -0.68206822068E+03  0.19377396135E+04  0.20765160458E+04  0.15294330000E+03 0.  0.
<mgrwt>
<rscale>  0 0.91803587E+03</rscale>
<asrwt>0</asrwt>
<pdfrwt beam="1">  1        2 0.12465190E+00 0.98361712E+03</pdfrwt>
<pdfrwt beam="2">  1       -2 0.35901726E+00 0.98361712E+03</pdfrwt>
<totfact> 0.46930463E-01</totfact>
</mgrwt>
</event>
<event>
 4    5  0.6615028E-008  0.9369619E+03  0.7818608E-02  0.9469127E-01
          2   -1    0    0  501    0  0.00000000000E+00  0.00000000000E+00  0.14782180287E+04  0.14782180287E+04  0.25500000000E-02 0. -1.
         -2   -1    0    0    0  501 -0.00000000000E+00 -0.00000000000E+00 -0.46304476057E+03  0.46304476057E+03  0.25500000000E-02 0.  1.
    8880023    1    1    2    0    0  0.83346083517E+02  0.66116628486E+03  0.77706946124E+03  0.12172652052E+04  0.65864270000E+03 0.  0.
    8880022    1    1    2    0    0 -0.83346083517E+02 -0.66116628486E+03  0.23810380685E+03  0.72399758406E+03  0.15294330000E+03 0.  0.
<mgrwt>
<rscale>  0 0.86598771E+03</rscale>
<asrwt>0</asrwt>
<pdfrwt beam="1">  1        2 0.22741816E+00 0.93696192E+03</pdfrwt>
<pdfrwt beam="2">  1       -2 0.71237656E-01 0.93696192E+03</pdfrwt>
<totfact> 0.23441707E+01</totfact>
</mgrwt>
</event>
<event>
 4    5  0.6615028E-008  0.1108885E+04  0.7818608E-02  0.9251228E-01
          2   -1    0    0  501    0  0.00000000000E+00  0.00000000000E+00  0.14472637312E+04  0.14472637312E+04  0.25500000000E-02 0. -1.
         -2   -1    0    0    0  501 -0.00000000000E+00 -0.00000000000E+00 -0.13960819537E+04  0.13960819537E+04  0.25500000000E-02 0.  1.
    8880023    1    1    2    0    0 -0.59350185837E+03  0.66601076923E+03  0.10276991357E+04  0.15118831040E+04  0.65864270000E+03 0. -1.
    8880022    1    1    2    0    0  0.59350185837E+03 -0.66601076923E+03 -0.97651735816E+03  0.13314625809E+04  0.15294330000E+03 0.  0.
<mgrwt>
<rscale>  0 0.10539959E+04</rscale>
<asrwt>0</asrwt>
<pdfrwt beam="1">  1        2 0.22265596E+00 0.11088846E+04</pdfrwt>
<pdfrwt beam="2">  1       -2 0.21478184E+00 0.11088846E+04</pdfrwt>
<totfact> 0.14227345E+00</totfact>
</mgrwt>
</event>
<event>
 4    5  0.6615028E-008  0.1341838E+04  0.7818608E-02  0.9030247E-01
         -2   -1    0    0    0  501 -0.00000000000E+00  0.00000000000E+00  0.10601924130E+04  0.10601924130E+04  0.25500000000E-02 0.  1.
          2   -1    0    0  501    0  0.00000000000E+00 -0.00000000000E+00 -0.20808923247E+04  0.20808923247E+04  0.25500000000E-02 0. -1.
    8880023    1    1    2    0    0  0.86131699886E+03  0.79047508438E+03 -0.13637102049E+04  0.19131736880E+04  0.65864270000E+03 0.  0.
    8880022    1    1    2    0    0 -0.86131699886E+03 -0.79047508438E+03  0.34301029312E+03  0.12279110496E+04  0.15294330000E+03 0.  0.
<mgrwt>
<rscale>  0 0.12991404E+04</rscale>
<asrwt>0</asrwt>
<pdfrwt beam="1">  1        2 0.32013728E+00 0.13418376E+04</pdfrwt>
<pdfrwt beam="2">  1       -2 0.16310653E+00 0.13418376E+04</pdfrwt>
<totfact> 0.13783124E+00</totfact>
</mgrwt>
</event>
<event>
 4    5  0.6615028E-008  0.8267450E+03  0.7818608E-02  0.9655699E-01
          2   -1    0    0  501    0  0.00000000000E+00  0.00000000000E+00  0.12748981523E+04  0.12748981523E+04  0.25500000000E-02 0. -1.
         -2   -1    0    0    0  501 -0.00000000000E+00 -0.00000000000E+00 -0.46394660504E+03  0.46394660505E+03  0.25500000000E-02 0.  1.
    8880023    1    1    2    0    0  0.38013636342E+03  0.32433542406E+03  0.88495218253E+03  0.12110523084E+04  0.65864270000E+03 0. -1.
    8880022    1    1    2    0    0 -0.38013636342E+03 -0.32433542406E+03 -0.74000635280E+02  0.52779244892E+03  0.15294330000E+03 0.  0.
<mgrwt>
<rscale>  0 0.73716834E+03</rscale>
<asrwt>0</asrwt>
<pdfrwt beam="1">  1        2 0.19613818E+00 0.82674502E+03</pdfrwt>
<pdfrwt beam="2">  1       -2 0.71376401E-01 0.82674502E+03</pdfrwt>
<totfact> 0.30820731E+01</totfact>
</mgrwt>
</event>
<event>
 4    5  0.6615028E-008  0.1255373E+04  0.7818608E-02  0.9105089E-01
         -2   -1    0    0    0  501 -0.00000000000E+00  0.00000000000E+00  0.69100328449E+03  0.69100328450E+03  0.25500000000E-02 0.  1.
          2   -1    0    0  501    0  0.00000000000E+00 -0.00000000000E+00 -0.33336010166E+04  0.33336010166E+04  0.25500000000E-02 0. -1.
    8880023    1    1    2    0    0  0.68128773219E+03 -0.82340630808E+03 -0.26638027845E+04  0.29447931003E+04  0.65864270000E+03 0.  0.
    8880022    1    1    2    0    0 -0.68128773219E+03  0.82340630808E+03  0.21205052405E+02  0.10798112009E+04  0.15294330000E+03 0.  0.
<mgrwt>
<rscale>  0 0.12089145E+04</rscale>
<asrwt>0</asrwt>
<pdfrwt beam="1">  1        2 0.51286168E+00 0.12553729E+04</pdfrwt>
<pdfrwt beam="2">  1       -2 0.10630820E+00 0.12553729E+04</pdfrwt>
<totfact> 0.74567448E-01</totfact>
</mgrwt>
</event>
<event>
 4    5  0.6615028E-008  0.6900224E+03  0.7818608E-02  0.1004142E+00
         -2   -1    0    0    0  501 -0.00000000000E+00  0.00000000000E+00  0.23167650788E+03  0.23167650790E+03  0.25500000000E-02 0.  1.
          2   -1    0    0  501    0  0.00000000000E+00 -0.00000000000E+00 -0.22973237306E+04  0.22973237306E+04  0.25500000000E-02 0. -1.
    8880023    1    1    2    0    0  0.50199680555E+02 -0.19950095827E+03 -0.21508840309E+04  0.22588565605E+04  0.65864270000E+03 0. -1.
    8880022    1    1    2    0    0 -0.50199680555E+02  0.19950095827E+03  0.85236808182E+02  0.27014367800E+03  0.15294330000E+03 0.  0.
<mgrwt>
<rscale>  0 0.53870772E+03</rscale>
<asrwt>0</asrwt>
<pdfrwt beam="1">  1        2 0.35343440E+00 0.69002235E+03</pdfrwt>
<pdfrwt beam="2">  1       -2 0.35642541E-01 0.69002235E+03</pdfrwt>
<totfact> 0.35230723E+01</totfact>
</mgrwt>
</event>
<event>
 4    5  0.6615028E-008  0.7997258E+03  0.7818608E-02  0.9711389E-01
         -2   -1    0    0    0  501 -0.00000000000E+00  0.00000000000E+00  0.76147493191E+03  0.76147493191E+03  0.25500000000E-02 0.  1.
          2   -1    0    0  501    0  0.00000000000E+00 -0.00000000000E+00 -0.19536238118E+04  0.19536238118E+04  0.25500000000E-02 0. -1.
    8880023    1    1    2    0    0 -0.36204863154E+03  0.27326161971E+03 -0.17833172149E+04  0.19544261612E+04  0.65864270000E+03 0. -1.
    8880022    1    1    2    0    0  0.36204863154E+03 -0.27326161971E+03  0.59116833502E+03  0.76067258249E+03  0.15294330000E+03 0.  0.
<mgrwt>
<rscale>  0 0.70342710E+03</rscale>
<asrwt>0</asrwt>
<pdfrwt beam="1">  1        2 0.30055751E+00 0.79972578E+03</pdfrwt>
<pdfrwt beam="2">  1       -2 0.11714999E+00 0.79972578E+03</pdfrwt>
<totfact> 0.41026784E+00</totfact>
</mgrwt>
</event>
<event>
 4    5  0.6615028E-008  0.7874811E+03  0.7818608E-02  0.9738548E-01
          2   -1    0    0  501    0  0.00000000000E+00  0.00000000000E+00  0.15222790337E+04  0.15222790337E+04  0.25500000000E-02 0. -1.
         -2   -1    0    0    0  501 -0.00000000000E+00 -0.00000000000E+00 -0.99515843572E+03  0.99515843572E+03  0.25500000000E-02 0.  1.
    8880023    1    1    2    0    0  0.16918608808E+02  0.43131201687E+03  0.13573750779E+04  0.15692653069E+04  0.65864270000E+03 0. -1.
    8880022    1    1    2    0    0 -0.16918608808E+02 -0.43131201687E+03 -0.83025447993E+03  0.94817216247E+03  0.15294330000E+03 0.  0.
<mgrwt>
<rscale>  0 0.68767300E+03</rscale>
<asrwt>0</asrwt>
<pdfrwt beam="1">  1        2 0.23419677E+00 0.78748111E+03</pdfrwt>
<pdfrwt beam="2">  1       -2 0.15310130E+00 0.78748111E+03</pdfrwt>
<totfact> 0.35734492E+00</totfact>
</mgrwt>
</event>
<event>
 4    5  0.6615028E-008  0.1202263E+04  0.7818608E-02  0.9154926E-01
         -2   -1    0    0    0  501 -0.00000000000E+00  0.00000000000E+00  0.11825275855E+04  0.11825275855E+04  0.25500000000E-02 0.  1.
          2   -1    0    0  501    0  0.00000000000E+00 -0.00000000000E+00 -0.14877962380E+04  0.14877962381E+04  0.25500000000E-02 0. -1.
    8880023    1    1    2    0    0  0.54682303071E+03  0.84416207835E+03 -0.89096816706E+03  0.14964155581E+04  0.65864270000E+03 0. -1.
    8880022    1    1    2    0    0 -0.54682303071E+03 -0.84416207835E+03  0.58569951448E+03  0.11739082655E+04  0.15294330000E+03 0.  0.
<mgrwt>
<rscale>  0 0.11531025E+04</rscale>
<asrwt>0</asrwt>
<pdfrwt beam="1">  1        2 0.22889173E+00 0.12022626E+04</pdfrwt>
<pdfrwt beam="2">  1       -2 0.18192732E+00 0.12022626E+04</pdfrwt>
<totfact> 0.22004121E+00</totfact>
</mgrwt>
</event>
<event>
 4    5  0.6615028E-008  0.6772502E+03  0.7818608E-02  0.1010924E+00
          2   -1    0    0  501    0  0.00000000000E+00  0.00000000000E+00  0.11755321819E+04  0.11755321820E+04  0.25500000000E-02 0. -1.
         -2   -1    0    0    0  501 -0.00000000000E+00 -0.00000000000E+00 -0.42343411478E+03  0.42343411478E+03  0.25500000000E-02 0.  1.
    8880023    1    1    2    0    0  0.75129946465E+02  0.13861141096E+03  0.10374027110E+04  0.12388996017E+04  0.65864270000E+03 0. -1.
    8880022    1    1    2    0    0 -0.75129946465E+02 -0.13861141096E+03 -0.28530464378E+03  0.36006669505E+03  0.15294330000E+03 0.  0.
<mgrwt>
<rscale>  0 0.51109098E+03</rscale>
<asrwt>0</asrwt>
<pdfrwt beam="1">  1        2 0.18085110E+00 0.67725020E+03</pdfrwt>
<pdfrwt beam="2">  1       -2 0.65143711E-01 0.67725020E+03</pdfrwt>
<totfact> 0.43646447E+01</totfact>
</mgrwt>
</event>
<event>
 4    5  0.6615028E-008  0.1256777E+04  0.7818608E-02  0.9103814E-01
          2   -1    0    0  501    0  0.00000000000E+00  0.00000000000E+00  0.30019707189E+04  0.30019707189E+04  0.25500000000E-02 0. -1.
         -2   -1    0    0    0  501 -0.00000000000E+00 -0.00000000000E+00 -0.56819216939E+03  0.56819216939E+03  0.25500000000E-02 0.  1.
    8880023    1    1    2    0    0  0.77839020574E+03  0.73470179828E+03  0.20842383906E+04  0.24338319416E+04  0.65864270000E+03 0.  0.
    8880022    1    1    2    0    0 -0.77839020574E+03 -0.73470179828E+03  0.34954015894E+03  0.11363309467E+04  0.15294330000E+03 0.  0.
<mgrwt>
<rscale>  0 0.12103855E+04</rscale>
<asrwt>0</asrwt>
<pdfrwt beam="1">  1        2 0.46184165E+00 0.12567769E+04</pdfrwt>
<pdfrwt beam="2">  1       -2 0.87414179E-01 0.12567769E+04</pdfrwt>
<totfact> 0.19334572E+00</totfact>
</mgrwt>
</event>
<event>
 4    5  0.6615028E-008  0.6896020E+03  0.7818608E-02  0.1004342E+00
         -2   -1    0    0    0  501 -0.00000000000E+00  0.00000000000E+00  0.38266045583E+03  0.38266045584E+03  0.25500000000E-02 0.  1.
          2   -1    0    0  501    0  0.00000000000E+00 -0.00000000000E+00 -0.16921282025E+04  0.16921282025E+04  0.25500000000E-02 0. -1.
    8880023    1    1    2    0    0 -0.18212783294E+03  0.92574995772E+02 -0.15671188154E+04  0.17121367542E+04  0.65864270000E+03 0.  0.
    8880022    1    1    2    0    0  0.18212783294E+03 -0.92574995772E+02  0.25765106868E+03  0.36265190415E+03  0.15294330000E+03 0.  0.
<mgrwt>
<rscale>  0 0.53786520E+03</rscale>
<asrwt>0</asrwt>
<pdfrwt beam="1">  1        2 0.26032741E+00 0.68960197E+03</pdfrwt>
<pdfrwt beam="2">  1       -2 0.58870841E-01 0.68960197E+03</pdfrwt>
<totfact> 0.27638681E+01</totfact>
</mgrwt>
</event>
<event>
 4    5  0.6615028E-008  0.7483999E+03  0.7818608E-02  0.9836121E-01
         -2   -1    0    0    0  501 -0.00000000000E+00  0.00000000000E+00  0.58234684623E+03  0.58234684624E+03  0.25500000000E-02 0.  1.
          2   -1    0    0  501    0  0.00000000000E+00 -0.00000000000E+00 -0.63431921582E+03  0.63431921582E+03  0.25500000000E-02 0. -1.
    8880023    1    1    2    0    0  0.20108076029E+03 -0.29301647930E+03 -0.24075980371E+03  0.78617276641E+03  0.65864270000E+03 0. -1.
    8880022    1    1    2    0    0 -0.20108076029E+03  0.29301647930E+03  0.18878743413E+03  0.43049329565E+03  0.15294330000E+03 0.  1.
<mgrwt>
<rscale>  0 0.63459568E+03</rscale>
<asrwt>0</asrwt>
<pdfrwt beam="1">  1        2 0.97587571E-01 0.74839985E+03</pdfrwt>
<pdfrwt beam="2">  1       -2 0.89591823E-01 0.74839985E+03</pdfrwt>
<totfact> 0.50112346E+01</totfact>
</mgrwt>
</event>
<event>
 4    5  0.6615028E-008  0.7329609E+03  0.7818608E-02  0.9880947E-01
          2   -1    0    0  501    0  0.00000000000E+00  0.00000000000E+00  0.18473924099E+04  0.18473924099E+04  0.25500000000E-02 0. -1.
         -2   -1    0    0    0  501 -0.00000000000E+00 -0.00000000000E+00 -0.71397751353E+03  0.71397751353E+03  0.25500000000E-02 0.  1.
    8880023    1    1    2    0    0  0.15574816349E+03 -0.28136097494E+03  0.17230926698E+04  0.18725063534E+04  0.65864270000E+03 0.  0.
    8880022    1    1    2    0    0 -0.15574816349E+03  0.28136097494E+03 -0.58967777341E+03  0.68886357003E+03  0.15294330000E+03 0.  1.
<mgrwt>
<rscale>  0 0.61193620E+03</rscale>
<asrwt>0</asrwt>
<pdfrwt beam="1">  1        2 0.28421421E+00 0.73296091E+03</pdfrwt>
<pdfrwt beam="2">  1       -2 0.10984270E+00 0.73296091E+03</pdfrwt>
<totfact> 0.55431773E+00</totfact>
</mgrwt>
</event>
<event>
 4    5  0.6615028E-008  0.1522728E+04  0.7818608E-02  0.8893751E-01
          2   -1    0    0  501    0  0.00000000000E+00  0.00000000000E+00  0.21453851576E+04  0.21453851576E+04  0.25500000000E-02 0. -1.
         -2   -1    0    0    0  501 -0.00000000000E+00 -0.00000000000E+00 -0.10081198044E+04  0.10081198044E+04  0.25500000000E-02 0.  1.
    8880023    1    1    2    0    0  0.13499184906E+04 -0.25022157945E+03  0.84517126227E+03  0.17415554654E+04  0.65864270000E+03 0.  0.
    8880022    1    1    2    0    0 -0.13499184906E+04  0.25022157945E+03  0.29209409094E+03  0.14119494967E+04  0.15294330000E+03 0.  0.
<mgrwt>
<rscale>  0 0.14860968E+04</rscale>
<asrwt>0</asrwt>
<pdfrwt beam="1">  1        2 0.33005925E+00 0.15227281E+04</pdfrwt>
<pdfrwt beam="2">  1       -2 0.15509536E+00 0.15227281E+04</pdfrwt>
<totfact> 0.14302667E+00</totfact>
</mgrwt>
</event>
<event>
 4    5  0.6615028E-008  0.7634118E+03  0.7818608E-02  0.9796353E-01
          2   -1    0    0  501    0  0.00000000000E+00  0.00000000000E+00  0.10118857851E+04  0.10118857851E+04  0.25500000000E-02 0. -1.
         -2   -1    0    0    0  501 -0.00000000000E+00 -0.00000000000E+00 -0.11176765786E+04  0.11176765786E+04  0.25500000000E-02 0.  1.
    8880023    1    1    2    0    0  0.38193228045E+03 -0.55813785912E+02  0.81670161991E+03  0.11179441792E+04  0.65864270000E+03 0. -1.
    8880022    1    1    2    0    0 -0.38193228045E+03  0.55813785912E+02 -0.92249241333E+03  0.10116181845E+04  0.15294330000E+03 0.  0.
<mgrwt>
<rscale>  0 0.65558612E+03</rscale>
<asrwt>0</asrwt>
<pdfrwt beam="1">  1        2 0.15567474E+00 0.76341185E+03</pdfrwt>
<pdfrwt beam="2">  1       -2 0.17195024E+00 0.76341185E+03</pdfrwt>
<totfact> 0.52053554E+00</totfact>
</mgrwt>
</event>
<event>
 4    5  0.6615028E-008  0.1635264E+04  0.7818608E-02  0.8819592E-01
         -2   -1    0    0    0  501 -0.00000000000E+00  0.00000000000E+00  0.16352244186E+04  0.16352244186E+04  0.25500000000E-02 0.  1.
          2   -1    0    0  501    0  0.00000000000E+00 -0.00000000000E+00 -0.24845873403E+04  0.24845873403E+04  0.25500000000E-02 0. -1.
    8880023    1    1    2    0    0 -0.14105615639E+04  0.50059481547E+03 -0.17267013400E+04  0.23781477706E+04  0.65864270000E+03 0.  0.
    8880022    1    1    2    0    0  0.14105615639E+04 -0.50059481547E+03  0.87733841831E+03  0.17416639883E+04  0.15294330000E+03 0.  0.
<mgrwt>
<rscale>  0 0.16015578E+04</rscale>
<asrwt>0</asrwt>
<pdfrwt beam="1">  1        2 0.38224421E+00 0.16352643E+04</pdfrwt>
<pdfrwt beam="2">  1       -2 0.25157299E+00 0.16352643E+04</pdfrwt>
<totfact> 0.20615233E-01</totfact>
</mgrwt>
</event>
<event>
 4    5  0.6615028E-008  0.1001227E+04  0.7818608E-02  0.9379955E-01
          2   -1    0    0  501    0  0.00000000000E+00  0.00000000000E+00  0.57628252440E+03  0.57628252441E+03  0.25500000000E-02 0. -1.
         -2   -1    0    0    0  501 -0.00000000000E+00 -0.00000000000E+00 -0.14928108976E+04  0.14928108976E+04  0.25500000000E-02 0.  1.
    8880023    1    1    2    0    0 -0.72472622665E+03  0.20836558876E+03 -0.81894086370E+03  0.12934908839E+04  0.65864270000E+03 0.  0.
    8880022    1    1    2    0    0  0.72472622665E+03 -0.20836558876E+03 -0.97587509538E+02  0.77560253817E+03  0.15294330000E+03 0.  0.
<mgrwt>
<rscale>  0 0.93743846E+03</rscale>
<asrwt>0</asrwt>
<pdfrwt beam="1">  1        2 0.88658851E-01 0.10012265E+04</pdfrwt>
<pdfrwt beam="2">  1       -2 0.22966321E+00 0.10012265E+04</pdfrwt>
<totfact> 0.44592880E+00</totfact>
</mgrwt>
</event>
<event>
 4    5  0.6615028E-008  0.9790374E+03  0.7818608E-02  0.9409512E-01
         -2   -1    0    0    0  501 -0.00000000000E+00  0.00000000000E+00  0.91037596461E+03  0.91037596462E+03  0.25500000000E-02 0.  1.
          2   -1    0    0  501    0  0.00000000000E+00 -0.00000000000E+00 -0.18779003305E+04  0.18779003305E+04  0.25500000000E-02 0. -1.
    8880023    1    1    2    0    0  0.66185174872E+02  0.72133454607E+03 -0.15588351011E+04  0.18407827366E+04  0.65864270000E+03 0.  0.
    8880022    1    1    2    0    0 -0.66185174872E+02 -0.72133454607E+03  0.59131073524E+03  0.94749355848E+03  0.15294330000E+03 0.  0.
<mgrwt>
<rscale>  0 0.91296999E+03</rscale>
<asrwt>0</asrwt>
<pdfrwt beam="1">  1        2 0.28890774E+00 0.97903739E+03</pdfrwt>
<pdfrwt beam="2">  1       -2 0.14005784E+00 0.97903739E+03</pdfrwt>
<totfact> 0.28002264E+00</totfact>
</mgrwt>
</event>
<event>
 4    5  0.6615028E-008  0.7479720E+03  0.7818608E-02  0.9837305E-01
         -2   -1    0    0    0  501 -0.00000000000E+00  0.00000000000E+00  0.11078675337E+04  0.11078675337E+04  0.25500000000E-02 0.  1.
          2   -1    0    0  501    0  0.00000000000E+00 -0.00000000000E+00 -0.38212084391E+03  0.38212084392E+03  0.25500000000E-02 0. -1.
    8880023    1    1    2    0    0  0.24464765710E+03 -0.25651393182E+03  0.99854531085E+02  0.75460784980E+03  0.65864270000E+03 0.  0.
    8880022    1    1    2    0    0 -0.24464765710E+03  0.25651393182E+03  0.62589215867E+03  0.73538052779E+03  0.15294330000E+03 0.  0.
<mgrwt>
<rscale>  0 0.63398376E+03</rscale>
<asrwt>0</asrwt>
<pdfrwt beam="1">  1        2 0.58787823E-01 0.74797198E+03</pdfrwt>
<pdfrwt beam="2">  1       -2 0.17044116E+00 0.74797198E+03</pdfrwt>
<totfact> 0.17976997E+01</totfact>
</mgrwt>
</event>
<event>
 4    5  0.6615028E-008  0.1563773E+04  0.7818608E-02  0.8865869E-01
         -2   -1    0    0    0  501 -0.00000000000E+00  0.00000000000E+00  0.18372788698E+04  0.18372788698E+04  0.25500000000E-02 0.  1.
          2   -1    0    0  501    0  0.00000000000E+00 -0.00000000000E+00 -0.22293258197E+04  0.22293258197E+04  0.25500000000E-02 0. -1.
    8880023    1    1    2    0    0  0.15421210261E+03  0.14098915757E+04 -0.15705033693E+04  0.22162731481E+04  0.65864270000E+03 0.  0.
    8880022    1    1    2    0    0 -0.15421210261E+03 -0.14098915757E+04  0.11784564194E+04  0.18503315415E+04  0.15294330000E+03 0.  0.
<mgrwt>
<rscale>  0 0.15282695E+04</rscale>
<asrwt>0</asrwt>
<pdfrwt beam="1">  1        2 0.34297320E+00 0.15637729E+04</pdfrwt>
<pdfrwt beam="2">  1       -2 0.28265829E+00 0.15637729E+04</pdfrwt>
<totfact> 0.18761266E-01</totfact>
</mgrwt>
</event>
<event>
 4    5  0.6615028E-008  0.1249637E+04  0.7818608E-02  0.9110320E-01
         -2   -1    0    0    0  501 -0.00000000000E+00  0.00000000000E+00  0.11516468340E+04  0.11516468340E+04  0.25500000000E-02 0.  1.
          2   -1    0    0  501    0  0.00000000000E+00 -0.00000000000E+00 -0.14792378248E+04  0.14792378248E+04  0.25500000000E-02 0. -1.
    8880023    1    1    2    0    0 -0.96676052891E+03 -0.43949551520E+03 -0.77276111532E+03  0.14692692659E+04  0.65864270000E+03 0.  0.
    8880022    1    1    2    0    0  0.96676052891E+03  0.43949551520E+03  0.44517012459E+03  0.11616153929E+04  0.15294330000E+03 0.  0.
<mgrwt>
<rscale>  0 0.12029027E+04</rscale>
<asrwt>0</asrwt>
<pdfrwt beam="1">  1        2 0.22757505E+00 0.12496369E+04</pdfrwt>
<pdfrwt beam="2">  1       -2 0.17717644E+00 0.12496369E+04</pdfrwt>
<totfact> 0.23892203E+00</totfact>
</mgrwt>
</event>
<event>
 4    5  0.6615028E-008  0.8312574E+03  0.7818608E-02  0.9646891E-01
         -2   -1    0    0    0  501 -0.00000000000E+00  0.00000000000E+00  0.11732739482E+04  0.11732739482E+04  0.25500000000E-02 0.  1.
          2   -1    0    0  501    0  0.00000000000E+00 -0.00000000000E+00 -0.89886902414E+03  0.89886902414E+03  0.25500000000E-02 0. -1.
    8880023    1    1    2    0    0 -0.19175696931E+03 -0.46947621898E+03 -0.61701285068E+03  0.10352264098E+04  0.65864270000E+03 0.  0.
    8880022    1    1    2    0    0  0.19175696931E+03  0.46947621898E+03  0.89141777476E+03  0.10369165625E+04  0.15294330000E+03 0.  0.
<mgrwt>
<rscale>  0 0.74268877E+03</rscale>
<asrwt>0</asrwt>
<pdfrwt beam="1">  1        2 0.13828754E+00 0.83125740E+03</pdfrwt>
<pdfrwt beam="2">  1       -2 0.18050368E+00 0.83125740E+03</pdfrwt>
<totfact> 0.53357761E+00</totfact>
</mgrwt>
</event>
<event>
 4    5  0.6615028E-008  0.9689262E+03  0.7818608E-02  0.9423391E-01
          2   -1    0    0  501    0  0.00000000000E+00  0.00000000000E+00  0.64142785205E+03  0.64142785206E+03  0.25500000000E-02 0. -1.
         -2   -1    0    0    0  501 -0.00000000000E+00 -0.00000000000E+00 -0.11940263231E+04  0.11940263231E+04  0.25500000000E-02 0.  1.
    8880023    1    1    2    0    0  0.17135312752E+03 -0.68967083827E+03 -0.88357124111E+02  0.97294652840E+03  0.65864270000E+03 0. -1.
    8880022    1    1    2    0    0 -0.17135312752E+03  0.68967083827E+03 -0.46424134689E+03  0.86250764672E+03  0.15294330000E+03 0.  0.
<mgrwt>
<rscale>  0 0.90175449E+03</rscale>
<asrwt>0</asrwt>
<pdfrwt beam="1">  1        2 0.98681208E-01 0.96892619E+03</pdfrwt>
<pdfrwt beam="2">  1       -2 0.18369636E+00 0.96892619E+03</pdfrwt>
<totfact> 0.77851152E+00</totfact>
</mgrwt>
</event>
<event>
 4    5  0.6615028E-008  0.1965682E+04  0.7818608E-02  0.8636032E-01
         -2   -1    0    0    0  501 -0.00000000000E+00  0.00000000000E+00  0.15665591486E+04  0.15665591486E+04  0.25500000000E-02 0.  1.
          2   -1    0    0  501    0  0.00000000000E+00 -0.00000000000E+00 -0.27310209531E+04  0.27310209531E+04  0.25500000000E-02 0. -1.
    8880023    1    1    2    0    0 -0.16638027333E+04  0.81354609420E+03  0.22317052268E+03  0.19783104082E+04  0.65864270000E+03 0.  0.
    8880022    1    1    2    0    0  0.16638027333E+04 -0.81354609420E+03 -0.13876323272E+04  0.23192696935E+04  0.15294330000E+03 0.  0.
<mgrwt>
<rscale>  0 0.19382833E+04</rscale>
<asrwt>0</asrwt>
<pdfrwt beam="1">  1        2 0.42015707E+00 0.19656823E+04</pdfrwt>
<pdfrwt beam="2">  1       -2 0.24100910E+00 0.19656823E+04</pdfrwt>
<totfact> 0.16584543E-01</totfact>
</mgrwt>
</event>
<event>
 4    5  0.6615028E-008  0.6646588E+03  0.7818608E-02  0.1019821E+00
         -2   -1    0    0    0  501 -0.00000000000E+00  0.00000000000E+00  0.76688892844E+03  0.76688892844E+03  0.25500000000E-02 0.  1.
          2   -1    0    0  501    0  0.00000000000E+00 -0.00000000000E+00 -0.54734192528E+03  0.54734192528E+03  0.25500000000E-02 0. -1.
    8880023    1    1    2    0    0 -0.89064455436E+02 -0.53474143555E+01 -0.32626293719E+03  0.74041797825E+03  0.65864270000E+03 0. -1.
    8880022    1    1    2    0    0  0.89064455436E+02  0.53474143555E+01  0.54580994035E+03  0.57381287548E+03  0.15294330000E+03 0.  0.
<mgrwt>
<rscale>  0 0.47751109E+03</rscale>
<asrwt>0</asrwt>
<pdfrwt beam="1">  1        2 0.84206451E-01 0.66465877E+03</pdfrwt>
<pdfrwt beam="2">  1       -2 0.11798291E+00 0.66465877E+03</pdfrwt>
<totfact> 0.31265930E+01</totfact>
</mgrwt>
</event>
<event>
 4    5  0.6615028E-008  0.7634544E+03  0.7818608E-02  0.9796245E-01
         -2   -1    0    0    0  501 -0.00000000000E+00  0.00000000000E+00  0.96265694741E+03  0.96265694741E+03  0.25500000000E-02 0.  1.
          2   -1    0    0  501    0  0.00000000000E+00 -0.00000000000E+00 -0.12232926794E+04  0.12232926794E+04  0.25500000000E-02 0. -1.
    8880023    1    1    2    0    0 -0.38587889498E+03  0.12242770130E+02 -0.10475217989E+04  0.12962116079E+04  0.65864270000E+03 0.  0.
    8880022    1    1    2    0    0  0.38587889498E+03 -0.12242770130E+02  0.78688606691E+03  0.88973801892E+03  0.15294330000E+03 0.  0.
<mgrwt>
<rscale>  0 0.65564440E+03</rscale>
<asrwt>0</asrwt>
<pdfrwt beam="1">  1        2 0.18819887E+00 0.76345440E+03</pdfrwt>
<pdfrwt beam="2">  1       -2 0.14810107E+00 0.76345440E+03</pdfrwt>
<totfact> 0.57966840E+00</totfact>
</mgrwt>
</event>
<event>
 4    5  0.6615028E-008  0.1069401E+04  0.7818608E-02  0.9295915E-01
         -2   -1    0    0    0  501 -0.00000000000E+00  0.00000000000E+00  0.80978156241E+03  0.80978156241E+03  0.25500000000E-02 0.  1.
          2   -1    0    0  501    0  0.00000000000E+00 -0.00000000000E+00 -0.13401729579E+04  0.13401729579E+04  0.25500000000E-02 0. -1.
    8880023    1    1    2    0    0  0.64106857331E+03 -0.54666115439E+03 -0.69853849480E+03  0.12773306418E+04  0.65864270000E+03 0.  0.
    8880022    1    1    2    0    0 -0.64106857331E+03  0.54666115439E+03  0.16814709930E+03  0.87262387856E+03  0.15294330000E+03 0.  0.
<mgrwt>
<rscale>  0 0.10115982E+04</rscale>
<asrwt>0</asrwt>
<pdfrwt beam="1">  1        2 0.20618046E+00 0.10694006E+04</pdfrwt>
<pdfrwt beam="2">  1       -2 0.12458178E+00 0.10694006E+04</pdfrwt>
<totfact> 0.74700440E+00</totfact>
</mgrwt>
</event>
<event>
 4    5  0.6615028E-008  0.1195233E+04  0.7818608E-02  0.9161771E-01
         -2   -1    0    0    0  501 -0.00000000000E+00  0.00000000000E+00  0.87508360484E+03  0.87508360484E+03  0.25500000000E-02 0.  1.
          2   -1    0    0  501    0  0.00000000000E+00 -0.00000000000E+00 -0.18658482117E+04  0.18658482117E+04  0.25500000000E-02 0. -1.
    8880023    1    1    2    0    0 -0.99733020506E+03  0.10150208289E+02 -0.12181417536E+04  0.17065901977E+04  0.65864270000E+03 0.  0.
    8880022    1    1    2    0    0  0.99733020506E+03 -0.10150208289E+02  0.22737714674E+03  0.10343416189E+04  0.15294330000E+03 0.  0.
<mgrwt>
<rscale>  0 0.11456882E+04</rscale>
<asrwt>0</asrwt>
<pdfrwt beam="1">  1        2 0.28705357E+00 0.11952325E+04</pdfrwt>
<pdfrwt beam="2">  1       -2 0.13462825E+00 0.11952325E+04</pdfrwt>
<totfact> 0.30712375E+00</totfact>
</mgrwt>
</event>
<event>
 4    5  0.6615028E-008  0.7686150E+03  0.7818608E-02  0.9783294E-01
          2   -1    0    0  501    0  0.00000000000E+00  0.00000000000E+00  0.83222442012E+03  0.83222442012E+03  0.25500000000E-02 0. -1.
         -2   -1    0    0    0  501 -0.00000000000E+00 -0.00000000000E+00 -0.51632865075E+03  0.51632865076E+03  0.25500000000E-02 0.  1.
    8880023    1    1    2    0    0 -0.35966665975E+03  0.16612840949E+03  0.46515664501E+03  0.89840951979E+03  0.65864270000E+03 0.  0.
    8880022    1    1    2    0    0  0.35966665975E+03 -0.16612840949E+03 -0.14926087565E+03  0.45014355110E+03  0.15294330000E+03 0.  0.
<mgrwt>
<rscale>  0 0.66266841E+03</rscale>
<asrwt>0</asrwt>
<pdfrwt beam="1">  1        2 0.12803452E+00 0.76861496E+03</pdfrwt>
<pdfrwt beam="2">  1       -2 0.79435178E-01 0.76861496E+03</pdfrwt>
<totfact> 0.46451402E+01</totfact>
</mgrwt>
</event>
<event>
 4    5  0.6681324E-008  0.1115221E+04  0.7818608E-02  0.9244295E-01
          2   -1    0    0  501    0  0.00000000000E+00  0.00000000000E+00  0.28777520815E+04  0.28777520815E+04  0.25500000000E-02 0. -1.
         -2   -1    0    0    0  501 -0.00000000000E+00 -0.00000000000E+00 -0.11418622522E+04  0.11418622522E+04  0.25500000000E-02 0.  1.
    8880023    1    1    2    0    0 -0.89870423656E+03  0.47320484180E+02  0.25583776510E+04  0.27908806754E+04  0.65864270000E+03 0.  0.
    8880022    1    1    2    0    0  0.89870423656E+03 -0.47320484180E+02 -0.82248782177E+03  0.12287336583E+04  0.15294330000E+03 0.  0.
<mgrwt>
<rscale>  0 0.10607694E+04</rscale>
<asrwt>0</asrwt>
<pdfrwt beam="1">  1        2 0.44273109E+00 0.11152214E+04</pdfrwt>
<pdfrwt beam="2">  1       -2 0.17567112E+00 0.11152214E+04</pdfrwt>
<totfact> 0.40065657E-01</totfact>
</mgrwt>
</event>
<event>
 4    5  0.7522394E-008  0.9354086E+03  0.7818608E-02  0.9471426E-01
          2   -1    0    0  501    0  0.00000000000E+00  0.00000000000E+00  0.16326886655E+04  0.16326886655E+04  0.25500000000E-02 0. -1.
         -2   -1    0    0    0  501 -0.00000000000E+00 -0.00000000000E+00 -0.24124437593E+04  0.24124437593E+04  0.25500000000E-02 0.  1.
    8880023    1    1    2    0    0 -0.65421111884E+03 -0.11483428214E+03  0.14433114965E+04  0.17199236560E+04  0.65864270000E+03 0. -1.
    8880022    1    1    2    0    0  0.65421111884E+03  0.11483428214E+03 -0.22230665903E+04  0.23252087687E+04  0.15294330000E+03 0.  0.
<mgrwt>
<rscale>  0 0.86423632E+03</rscale>
<asrwt>0</asrwt>
<pdfrwt beam="1">  1        2 0.25118287E+00 0.93540863E+03</pdfrwt>
<pdfrwt beam="2">  1       -2 0.37114519E+00 0.93540863E+03</pdfrwt>
<totfact> 0.12569381E-01</totfact>
</mgrwt>
</event>
<event>
 4    5  0.6615028E-008  0.8205037E+03  0.7818608E-02  0.9668100E-01
          2   -1    0    0  501    0  0.00000000000E+00  0.00000000000E+00  0.74813685809E+03  0.74813685809E+03  0.25500000000E-02 0. -1.
         -2   -1    0    0    0  501 -0.00000000000E+00 -0.00000000000E+00 -0.30680365375E+04  0.30680365375E+04  0.25500000000E-02 0.  1.
    8880023    1    1    2    0    0  0.69986806424E+01 -0.48925163767E+03  0.49281173121E+03  0.95712577813E+03  0.65864270000E+03 0.  0.
    8880022    1    1    2    0    0 -0.69986806424E+01  0.48925163767E+03 -0.28127114106E+04  0.28590476175E+04  0.15294330000E+03 0.  0.
<mgrwt>
<rscale>  0 0.72948304E+03</rscale>
<asrwt>0</asrwt>
<pdfrwt beam="1">  1        2 0.11509798E+00 0.82050372E+03</pdfrwt>
<pdfrwt beam="2">  1       -2 0.47200562E+00 0.82050372E+03</pdfrwt>
<totfact> 0.98335336E-02</totfact>
</mgrwt>
</event>
<event>
 4    5  0.6615028E-008  0.8791940E+03  0.7818608E-02  0.9560293E-01
          2   -1    0    0  501    0  0.00000000000E+00  0.00000000000E+00  0.22196462687E+04  0.22196462687E+04  0.25500000000E-02 0. -1.
         -2   -1    0    0    0  501 -0.00000000000E+00 -0.00000000000E+00 -0.63399027240E+03  0.63399027241E+03  0.25500000000E-02 0.  1.
    8880023    1    1    2    0    0 -0.55451870594E+03 -0.17799115101E+03  0.19575452296E+04  0.21459183063E+04  0.65864270000E+03 0. -1.
    8880022    1    1    2    0    0  0.55451870594E+03  0.17799115101E+03 -0.37188923328E+03  0.70771823484E+03  0.15294330000E+03 0.  0.
<mgrwt>
<rscale>  0 0.79980946E+03</rscale>
<asrwt>0</asrwt>
<pdfrwt beam="1">  1        2 0.34148404E+00 0.87919398E+03</pdfrwt>
<pdfrwt beam="2">  1       -2 0.97536965E-01 0.87919398E+03</pdfrwt>
<totfact> 0.45010876E+00</totfact>
</mgrwt>
</event>
<event>
 4    5  0.6615028E-008  0.1043017E+04  0.7818608E-02  0.9327324E-01
         -2   -1    0    0    0  501 -0.00000000000E+00  0.00000000000E+00  0.53433522745E+03  0.53433522746E+03  0.25500000000E-02 0.  1.
          2   -1    0    0  501    0  0.00000000000E+00 -0.00000000000E+00 -0.34309669154E+04  0.34309669154E+04  0.25500000000E-02 0. -1.
    8880023    1    1    2    0    0  0.74199175365E+03  0.32174773758E+03 -0.29613667069E+04  0.31396777459E+04  0.65864270000E+03 0.  0.
    8880022    1    1    2    0    0 -0.74199175365E+03 -0.32174773758E+03  0.64735018967E+02  0.82562439694E+03  0.15294330000E+03 0.  0.
<mgrwt>
<rscale>  0 0.98305828E+03</rscale>
<asrwt>0</asrwt>
<pdfrwt beam="1">  1        2 0.52784105E+00 0.10430166E+04</pdfrwt>
<pdfrwt beam="2">  1       -2 0.82205422E-01 0.10430166E+04</pdfrwt>
<totfact> 0.12102534E+00</totfact>
</mgrwt>
</event>
<event>
 4    5  0.6693419E-008  0.1291140E+04  0.7818608E-02  0.9073249E-01
         -2   -1    0    0    0  501 -0.00000000000E+00  0.00000000000E+00  0.25019665411E+04  0.25019665411E+04  0.25500000000E-02 0.  1.
          2   -1    0    0  501    0  0.00000000000E+00 -0.00000000000E+00 -0.14719861500E+04  0.14719861500E+04  0.25500000000E-02 0. -1.
    8880023    1    1    2    0    0  0.62281251651E+03 -0.91942152884E+03 -0.10146944575E+04  0.16421468956E+04  0.65864270000E+03 0. -1.
    8880022    1    1    2    0    0 -0.62281251651E+03  0.91942152884E+03  0.20446748486E+04  0.23318057955E+04  0.15294330000E+03 0.  0.
<mgrwt>
<rscale>  0 0.12463228E+04</rscale>
<asrwt>0</asrwt>
<pdfrwt beam="1">  1        2 0.22645941E+00 0.12911396E+04</pdfrwt>
<pdfrwt beam="2">  1       -2 0.38491793E+00 0.12911396E+04</pdfrwt>
<totfact> 0.11876564E-01</totfact>
</mgrwt>
</event>
<event>
 4    5  0.6615028E-008  0.8409093E+03  0.7818608E-02  0.9628468E-01
         -2   -1    0    0    0  501 -0.00000000000E+00  0.00000000000E+00  0.65391811611E+03  0.65391811612E+03  0.25500000000E-02 0.  1.
          2   -1    0    0  501    0  0.00000000000E+00 -0.00000000000E+00 -0.17239291123E+04  0.17239291123E+04  0.25500000000E-02 0. -1.
    8880023    1    1    2    0    0  0.40566905729E+03 -0.32977385381E+03 -0.14758268132E+04  0.16985856373E+04  0.65864270000E+03 0. -1.
    8880022    1    1    2    0    0 -0.40566905729E+03  0.32977385381E+03  0.40581581701E+03  0.67926159103E+03  0.15294330000E+03 0.  0.
<mgrwt>
<rscale>  0 0.75440289E+03</rscale>
<asrwt>0</asrwt>
<pdfrwt beam="1">  1        2 0.26521986E+00 0.84090926E+03</pdfrwt>
<pdfrwt beam="2">  1       -2 0.10060279E+00 0.84090926E+03</pdfrwt>
<totfact> 0.78715515E+00</totfact>
</mgrwt>
</event>
<event>
 4    5  0.6615028E-008  0.1160606E+04  0.7818608E-02  0.9196400E-01
         -2   -1    0    0    0  501 -0.00000000000E+00  0.00000000000E+00  0.13750288440E+04  0.13750288440E+04  0.25500000000E-02 0.  1.
          2   -1    0    0  501    0  0.00000000000E+00 -0.00000000000E+00 -0.13476866488E+04  0.13476866488E+04  0.25500000000E-02 0. -1.
    8880023    1    1    2    0    0  0.87509443013E+03 -0.38393603911E+03 -0.83236788913E+03  0.14282309522E+04  0.65864270000E+03 0.  0.
    8880022    1    1    2    0    0 -0.87509443013E+03  0.38393603911E+03  0.85971008427E+03  0.12944845406E+04  0.15294330000E+03 0.  0.
<mgrwt>
<rscale>  0 0.11090659E+04</rscale>
<asrwt>0</asrwt>
<pdfrwt beam="1">  1        2 0.20733641E+00 0.11606065E+04</pdfrwt>
<pdfrwt beam="2">  1       -2 0.21154290E+00 0.11606065E+04</pdfrwt>
<totfact> 0.16918478E+00</totfact>
</mgrwt>
</event>
<event>
 4    5  0.6615028E-008  0.1031608E+04  0.7818608E-02  0.9341326E-01
         -2   -1    0    0    0  501 -0.00000000000E+00  0.00000000000E+00  0.12747441742E+04  0.12747441742E+04  0.25500000000E-02 0.  1.
          2   -1    0    0  501    0  0.00000000000E+00 -0.00000000000E+00 -0.14521506601E+04  0.14521506601E+04  0.25500000000E-02 0. -1.
    8880023    1    1    2    0    0 -0.60730236613E+03  0.51145646821E+03 -0.10946414968E+04  0.15041456364E+04  0.65864270000E+03 0. -1.
    8880022    1    1    2    0    0  0.60730236613E+03 -0.51145646821E+03  0.91723501088E+03  0.12227491979E+04  0.15294330000E+03 0.  0.
<mgrwt>
<rscale>  0 0.97065774E+03</rscale>
<asrwt>0</asrwt>
<pdfrwt beam="1">  1        2 0.22340779E+00 0.10316075E+04</pdfrwt>
<pdfrwt beam="2">  1       -2 0.19611449E+00 0.10316075E+04</pdfrwt>
<totfact> 0.18856542E+00</totfact>
</mgrwt>
</event>
<event>
 4    5  0.6615028E-008  0.6939425E+03  0.7818608E-02  0.1002332E+00
         -2   -1    0    0    0  501 -0.00000000000E+00  0.00000000000E+00  0.38595249820E+03  0.38595249820E+03  0.25500000000E-02 0.  1.
          2   -1    0    0  501    0  0.00000000000E+00 -0.00000000000E+00 -0.11767592739E+04  0.11767592739E+04  0.25500000000E-02 0. -1.
    8880023    1    1    2    0    0  0.20199338550E+03 -0.83334358079E+02 -0.10045390068E+04  0.12209237345E+04  0.65864270000E+03 0. -1.
    8880022    1    1    2    0    0 -0.20199338550E+03  0.83334358079E+02  0.21373223109E+03  0.34178803760E+03  0.15294330000E+03 0.  0.
<mgrwt>
<rscale>  0 0.54639284E+03</rscale>
<asrwt>0</asrwt>
<pdfrwt beam="1">  1        2 0.18103989E+00 0.69394247E+03</pdfrwt>
<pdfrwt beam="2">  1       -2 0.59377308E-01 0.69394247E+03</pdfrwt>
<totfact> 0.52968101E+01</totfact>
</mgrwt>
</event>
<event>
 4    5  0.6615028E-008  0.1601398E+04  0.7818608E-02  0.8841167E-01
          2   -1    0    0  501    0  0.00000000000E+00  0.00000000000E+00  0.16991923586E+04  0.16991923586E+04  0.25500000000E-02 0. -1.
         -2   -1    0    0    0  501 -0.00000000000E+00 -0.00000000000E+00 -0.15661029177E+04  0.15661029177E+04  0.25500000000E-02 0.  1.
    8880023    1    1    2    0    0  0.12563887167E+04  0.74306901528E+03 -0.48434231978E+03  0.16730397060E+04  0.65864270000E+03 0.  1.
    8880022    1    1    2    0    0 -0.12563887167E+04 -0.74306901528E+03  0.61743176066E+03  0.15922555703E+04  0.15294330000E+03 0.  0.
<mgrwt>
<rscale>  0 0.15668647E+04</rscale>
<asrwt>0</asrwt>
<pdfrwt beam="1">  1        2 0.26141421E+00 0.16013976E+04</pdfrwt>
<pdfrwt beam="2">  1       -2 0.24093891E+00 0.16013976E+04</pdfrwt>
<totfact> 0.66721395E-01</totfact>
</mgrwt>
</event>
<event>
 4    5  0.6615028E-008  0.1570815E+04  0.7818608E-02  0.8861185E-01
          2   -1    0    0  501    0  0.00000000000E+00  0.00000000000E+00  0.62407086792E+03  0.62407086793E+03  0.25500000000E-02 0. -1.
         -2   -1    0    0    0  501 -0.00000000000E+00 -0.00000000000E+00 -0.48682585411E+04  0.48682585411E+04  0.25500000000E-02 0.  1.
    8880023    1    1    2    0    0  0.91190042075E+03  0.10963971070E+04 -0.80288029123E+03  0.17641076957E+04  0.65864270000E+03 0.  0.
    8880022    1    1    2    0    0 -0.91190042075E+03 -0.10963971070E+04 -0.34413073819E+04  0.37282217133E+04  0.15294330000E+03 0.  0.
<mgrwt>
<rscale>  0 0.15354975E+04</rscale>
<asrwt>0</asrwt>
<pdfrwt beam="1">  1        2 0.96010906E-01 0.15708148E+04</pdfrwt>
<pdfrwt beam="2">  1       -2 0.74896283E+00 0.15708148E+04</pdfrwt>
<totfact> 0.65306861E-03</totfact>
</mgrwt>
</event>
<event>
 4    5  0.6615028E-008  0.7794758E+03  0.7818608E-02  0.9757070E-01
         -2   -1    0    0    0  501 -0.00000000000E+00  0.00000000000E+00  0.15697942588E+04  0.15697942588E+04  0.25500000000E-02 0.  1.
          2   -1    0    0  501    0  0.00000000000E+00 -0.00000000000E+00 -0.64479436408E+03  0.64479436408E+03  0.25500000000E-02 0. -1.
    8880023    1    1    2    0    0 -0.14216094923E+03 -0.39187064689E+03 -0.35738878557E+03  0.85750177241E+03  0.65864270000E+03 0.  0.
    8880022    1    1    2    0    0  0.14216094923E+03  0.39187064689E+03  0.12823886803E+04  0.13570868505E+04  0.15294330000E+03 0.  0.
<mgrwt>
<rscale>  0 0.67718204E+03</rscale>
<asrwt>0</asrwt>
<pdfrwt beam="1">  1        2 0.99199133E-01 0.77947581E+03</pdfrwt>
<pdfrwt beam="2">  1       -2 0.24150681E+00 0.77947581E+03</pdfrwt>
<totfact> 0.33721990E+00</totfact>
</mgrwt>
</event>
<event>
 4    5  0.6615028E-008  0.7755369E+03  0.7818608E-02  0.9766427E-01
         -2   -1    0    0    0  501 -0.00000000000E+00  0.00000000000E+00  0.15173304134E+04  0.15173304134E+04  0.25500000000E-02 0.  1.
          2   -1    0    0  501    0  0.00000000000E+00 -0.00000000000E+00 -0.47256536959E+03  0.47256536960E+03  0.25500000000E-02 0. -1.
    8880023    1    1    2    0    0  0.35553008507E+03 -0.20309019279E+03 -0.83412842992E+02  0.78000972842E+03  0.65864270000E+03 0. -1.
    8880022    1    1    2    0    0 -0.35553008507E+03  0.20309019279E+03  0.11281778868E+04  0.12098860546E+04  0.15294330000E+03 0.  0.
<mgrwt>
<rscale>  0 0.67195792E+03</rscale>
<asrwt>0</asrwt>
<pdfrwt beam="1">  1        2 0.72702365E-01 0.77553689E+03</pdfrwt>
<pdfrwt beam="2">  1       -2 0.23343545E+00 0.77553689E+03</pdfrwt>
<totfact> 0.54684409E+00</totfact>
</mgrwt>
</event>
<event>
 4    5  0.6615028E-008  0.1077011E+04  0.7818608E-02  0.9287093E-01
          2   -1    0    0  501    0  0.00000000000E+00  0.00000000000E+00  0.15379657750E+04  0.15379657750E+04  0.25500000000E-02 0. -1.
         -2   -1    0    0    0  501 -0.00000000000E+00 -0.00000000000E+00 -0.17970903880E+04  0.17970903880E+04  0.25500000000E-02 0.  1.
    8880023    1    1    2    0    0  0.79845357437E+03  0.29768311954E+03  0.12161607846E+04  0.16245001109E+04  0.65864270000E+03 0.  0.
    8880022    1    1    2    0    0 -0.79845357437E+03 -0.29768311954E+03 -0.14752853976E+04  0.17105560521E+04  0.15294330000E+03 0.  0.
<mgrwt>
<rscale>  0 0.10197981E+04</rscale>
<asrwt>0</asrwt>
<pdfrwt beam="1">  1        2 0.23661012E+00 0.10770114E+04</pdfrwt>
<pdfrwt beam="2">  1       -2 0.27647544E+00 0.10770114E+04</pdfrwt>
<totfact> 0.52948971E-01</totfact>
</mgrwt>
</event>
<event>
 4    5  0.6615028E-008  0.8857162E+03  0.7818608E-02  0.9549362E-01
          2   -1    0    0  501    0  0.00000000000E+00  0.00000000000E+00  0.10513510896E+04  0.10513510896E+04  0.25500000000E-02 0. -1.
         -2   -1    0    0    0  501 -0.00000000000E+00 -0.00000000000E+00 -0.57984997795E+03  0.57984997796E+03  0.25500000000E-02 0.  1.
    8880023    1    1    2    0    0  0.59207511135E+03  0.11402956997E+02  0.50335842929E+03  0.10187555543E+04  0.65864270000E+03 0.  0.
    8880022    1    1    2    0    0 -0.59207511135E+03 -0.11402956997E+02 -0.31857317673E+02  0.61244551318E+03  0.15294330000E+03 0.  0.
<mgrwt>
<rscale>  0 0.80740367E+03</rscale>
<asrwt>0</asrwt>
<pdfrwt beam="1">  1        2 0.16174632E+00 0.88571619E+03</pdfrwt>
<pdfrwt beam="2">  1       -2 0.89207689E-01 0.88571619E+03</pdfrwt>
<totfact> 0.25301905E+01</totfact>
</mgrwt>
</event>
<event>
 4    5  0.6615028E-008  0.7465026E+03  0.7818608E-02  0.9841395E-01
         -2   -1    0    0    0  501 -0.00000000000E+00  0.00000000000E+00  0.34597382968E+03  0.34597382969E+03  0.25500000000E-02 0.  1.
          2   -1    0    0  501    0  0.00000000000E+00 -0.00000000000E+00 -0.17851153566E+04  0.17851153566E+04  0.25500000000E-02 0. -1.
    8880023    1    1    2    0    0 -0.12261643179E+03  0.32927366497E+03 -0.15598863128E+04  0.17293095302E+04  0.65864270000E+03 0. -1.
    8880022    1    1    2    0    0  0.12261643179E+03 -0.32927366497E+03  0.12074478589E+03  0.40177965619E+03  0.15294330000E+03 0.  0.
<mgrwt>
<rscale>  0 0.63187598E+03</rscale>
<asrwt>0</asrwt>
<pdfrwt beam="1">  1        2 0.27463313E+00 0.74650261E+03</pdfrwt>
<pdfrwt beam="2">  1       -2 0.53226744E-01 0.74650261E+03</pdfrwt>
<totfact> 0.30108277E+01</totfact>
</mgrwt>
</event>
<event>
 4    5  0.6615028E-008  0.1311413E+04  0.7818608E-02  0.9055766E-01
         -2   -1    0    0    0  501 -0.00000000000E+00  0.00000000000E+00  0.97250388163E+03  0.97250388163E+03  0.25500000000E-02 0.  1.
          2   -1    0    0  501    0  0.00000000000E+00 -0.00000000000E+00 -0.18244408938E+04  0.18244408938E+04  0.25500000000E-02 0. -1.
    8880023    1    1    2    0    0  0.67164108400E+03 -0.91372495536E+03  0.90486673963E+02  0.13145315075E+04  0.65864270000E+03 0.  1.
    8880022    1    1    2    0    0 -0.67164108400E+03  0.91372495536E+03 -0.94242368615E+03  0.14824132680E+04  0.15294330000E+03 0.  0.
<mgrwt>
<rscale>  0 0.12674715E+04</rscale>
<asrwt>0</asrwt>
<pdfrwt beam="1">  1        2 0.28068321E+00 0.13114135E+04</pdfrwt>
<pdfrwt beam="2">  1       -2 0.14961598E+00 0.13114135E+04</pdfrwt>
<totfact> 0.24259470E+00</totfact>
</mgrwt>
</event>
<event>
 4    5  0.6615028E-008  0.6688950E+03  0.7818608E-02  0.1016468E+00
         -2   -1    0    0    0  501 -0.00000000000E+00  0.00000000000E+00  0.48852668359E+03  0.48852668360E+03  0.25500000000E-02 0.  1.
          2   -1    0    0  501    0  0.00000000000E+00 -0.00000000000E+00 -0.21608463947E+04  0.21608463947E+04  0.25500000000E-02 0. -1.
    8880023    1    1    2    0    0  0.11005180454E+03  0.38716179187E+02 -0.20873642662E+04  0.21919192796E+04  0.65864270000E+03 0. -1.
    8880022    1    1    2    0    0 -0.11005180454E+03 -0.38716179187E+02  0.41504455510E+03  0.45745379870E+03  0.15294330000E+03 0.  0.
<mgrwt>
<rscale>  0 0.48983139E+03</rscale>
<asrwt>0</asrwt>
<pdfrwt beam="1">  1        2 0.33243790E+00 0.66889502E+03</pdfrwt>
<pdfrwt beam="2">  1       -2 0.75157953E-01 0.66889502E+03</pdfrwt>
<totfact> 0.90990758E+00</totfact>
</mgrwt>
</event>
<event>
 4    5  0.6615028E-008  0.8850030E+03  0.7818608E-02  0.9550549E-01
          2   -1    0    0  501    0  0.00000000000E+00  0.00000000000E+00  0.23143919735E+04  0.23143919735E+04  0.25500000000E-02 0. -1.
         -2   -1    0    0    0  501 -0.00000000000E+00 -0.00000000000E+00 -0.36853511084E+03  0.36853511085E+03  0.25500000000E-02 0.  1.
    8880023    1    1    2    0    0 -0.20493525013E+03  0.55445612214E+03  0.18684631984E+04  0.20674585796E+04  0.65864270000E+03 0.  0.
    8880022    1    1    2    0    0  0.20493525013E+03 -0.55445612214E+03  0.77393664260E+02  0.61546850481E+03  0.15294330000E+03 0.  0.
<mgrwt>
<rscale>  0 0.80657496E+03</rscale>
<asrwt>0</asrwt>
<pdfrwt beam="1">  1        2 0.35606030E+00 0.88500297E+03</pdfrwt>
<pdfrwt beam="2">  1       -2 0.56697709E-01 0.88500297E+03</pdfrwt>
<totfact> 0.13277598E+01</totfact>
</mgrwt>
</event>
<event>
 4    5  0.6615028E-008  0.8300590E+03  0.7818608E-02  0.9649218E-01
         -2   -1    0    0    0  501 -0.00000000000E+00  0.00000000000E+00  0.49182401293E+03  0.49182401294E+03  0.25500000000E-02 0.  1.
          2   -1    0    0  501    0  0.00000000000E+00 -0.00000000000E+00 -0.10672282915E+04  0.10672282915E+04  0.25500000000E-02 0. -1.
    8880023    1    1    2    0    0  0.44712567795E+03  0.23508794918E+03 -0.61002653609E+03  0.10301117885E+04  0.65864270000E+03 0.  0.
    8880022    1    1    2    0    0 -0.44712567795E+03 -0.23508794918E+03  0.34622257506E+02  0.52894051600E+03  0.15294330000E+03 0.  0.
<mgrwt>
<rscale>  0 0.74122547E+03</rscale>
<asrwt>0</asrwt>
<pdfrwt beam="1">  1        2 0.16418897E+00 0.83005899E+03</pdfrwt>
<pdfrwt beam="2">  1       -2 0.75665233E-01 0.83005899E+03</pdfrwt>
<totfact> 0.36085403E+01</totfact>
</mgrwt>
</event>
<event>
 4    5  0.6615028E-008  0.8034708E+03  0.7818608E-02  0.9703341E-01
          2   -1    0    0  501    0  0.00000000000E+00  0.00000000000E+00  0.38327096149E+04  0.38327096149E+04  0.25500000000E-02 0. -1.
         -2   -1    0    0    0  501 -0.00000000000E+00 -0.00000000000E+00 -0.37435113615E+03  0.37435113616E+03  0.25500000000E-02 0.  1.
    8880023    1    1    2    0    0  0.38768826554E+03 -0.24789708649E+03  0.36105107629E+04  0.36988313468E+04  0.65864270000E+03 0. -1.
    8880022    1    1    2    0    0 -0.38768826554E+03  0.24789708649E+03 -0.15215228419E+03  0.50822940423E+03  0.15294330000E+03 0.  0.
<mgrwt>
<rscale>  0 0.70818214E+03</rscale>
<asrwt>0</asrwt>
<pdfrwt beam="1">  1        2 0.58964760E+00 0.80347082E+03</pdfrwt>
<pdfrwt beam="2">  1       -2 0.57592486E-01 0.80347082E+03</pdfrwt>
<totfact> 0.14265119E+00</totfact>
</mgrwt>
</event>
<event>
 4    5  0.6615028E-008  0.7619379E+03  0.7818608E-02  0.9800116E-01
         -2   -1    0    0    0  501 -0.00000000000E+00  0.00000000000E+00  0.45682304838E+03  0.45682304839E+03  0.25500000000E-02 0.  1.
          2   -1    0    0  501    0  0.00000000000E+00 -0.00000000000E+00 -0.12739673182E+04  0.12739673182E+04  0.25500000000E-02 0. -1.
    8880023    1    1    2    0    0 -0.30499295530E+03  0.23177233404E+03 -0.10183655208E+04  0.12718559894E+04  0.65864270000E+03 0. -1.
    8880022    1    1    2    0    0  0.30499295530E+03 -0.23177233404E+03  0.20122125104E+03  0.45893437711E+03  0.15294330000E+03 0.  0.
<mgrwt>
<rscale>  0 0.65356311E+03</rscale>
<asrwt>0</asrwt>
<pdfrwt beam="1">  1        2 0.19599497E+00 0.76193787E+03</pdfrwt>
<pdfrwt beam="2">  1       -2 0.70280470E-01 0.76193787E+03</pdfrwt>
<totfact> 0.32130106E+01</totfact>
</mgrwt>
</event>
<event>
 4    5  0.6615028E-008  0.1637893E+04  0.7818608E-02  0.8817942E-01
          2   -1    0    0  501    0  0.00000000000E+00  0.00000000000E+00  0.15292007844E+04  0.15292007844E+04  0.25500000000E-02 0. -1.
         -2   -1    0    0    0  501 -0.00000000000E+00 -0.00000000000E+00 -0.21028433875E+04  0.21028433875E+04  0.25500000000E-02 0.  1.
    8880023    1    1    2    0    0  0.32941323887E+03  0.14629999867E+04 -0.11679991693E+04  0.20116943875E+04  0.65864270000E+03 0.  0.
    8880022    1    1    2    0    0 -0.32941323887E+03 -0.14629999867E+04  0.59435656615E+03  0.16203497844E+04  0.15294330000E+03 0.  0.
<mgrwt>
<rscale>  0 0.16042485E+04</rscale>
<asrwt>0</asrwt>
<pdfrwt beam="1">  1        2 0.23526166E+00 0.16378926E+04</pdfrwt>
<pdfrwt beam="2">  1       -2 0.32351437E+00 0.16378926E+04</pdfrwt>
<totfact> 0.25813494E-01</totfact>
</mgrwt>
</event>
<event>
 4    5  0.6615028E-008  0.1151501E+04  0.7818608E-02  0.9205772E-01
         -2   -1    0    0    0  501 -0.00000000000E+00  0.00000000000E+00  0.91513489585E+03  0.91513489585E+03  0.25500000000E-02 0.  1.
          2   -1    0    0  501    0  0.00000000000E+00 -0.00000000000E+00 -0.36104020299E+04  0.36104020299E+04  0.25500000000E-02 0. -1.
    8880023    1    1    2    0    0 -0.93419732048E+03 -0.13935845920E+03 -0.32302093912E+04  0.34293160150E+04  0.65864270000E+03 0. -1.
    8880022    1    1    2    0    0  0.93419732048E+03  0.13935845920E+03  0.53494225710E+03  0.10962209108E+04  0.15294330000E+03 0.  0.
<mgrwt>
<rscale>  0 0.10994054E+04</rscale>
<asrwt>0</asrwt>
<pdfrwt beam="1">  1        2 0.55544646E+00 0.11515015E+04</pdfrwt>
<pdfrwt beam="2">  1       -2 0.14078999E+00 0.11515015E+04</pdfrwt>
<totfact> 0.24168151E-01</totfact>
</mgrwt>
</event>
<event>
 4    5  0.6615028E-008  0.1312934E+04  0.7818608E-02  0.9054471E-01
          2   -1    0    0  501    0  0.00000000000E+00  0.00000000000E+00  0.13085891429E+04  0.13085891429E+04  0.25500000000E-02 0. -1.
         -2   -1    0    0    0  501 -0.00000000000E+00 -0.00000000000E+00 -0.22622426765E+04  0.22622426765E+04  0.25500000000E-02 0.  1.
    8880023    1    1    2    0    0  0.65757837455E+03 -0.92605339406E+03  0.75417298939E+03  0.15141239419E+04  0.65864270000E+03 0.  0.
    8880022    1    1    2    0    0 -0.65757837455E+03  0.92605339406E+03 -0.17078265230E+04  0.20567078774E+04  0.15294330000E+03 0.  0.
<mgrwt>
<rscale>  0 0.12690557E+04</rscale>
<asrwt>0</asrwt>
<pdfrwt beam="1">  1        2 0.20132141E+00 0.13129335E+04</pdfrwt>
<pdfrwt beam="2">  1       -2 0.34803733E+00 0.13129335E+04</pdfrwt>
<totfact> 0.25261506E-01</totfact>
</mgrwt>
</event>
<event>
 4    5  0.6615028E-008  0.1245817E+04  0.7818608E-02  0.9113823E-01
          2   -1    0    0  501    0  0.00000000000E+00  0.00000000000E+00  0.31034870561E+04  0.31034870561E+04  0.25500000000E-02 0. -1.
         -2   -1    0    0    0  501 -0.00000000000E+00 -0.00000000000E+00 -0.73310042442E+03  0.73310042442E+03  0.25500000000E-02 0.  1.
    8880023    1    1    2    0    0  0.13206707665E+03 -0.10491937657E+04  0.24670329466E+04  0.27637494526E+04  0.65864270000E+03 0.  0.
    8880022    1    1    2    0    0 -0.13206707665E+03  0.10491937657E+04 -0.96646314995E+02  0.10728380279E+04  0.15294330000E+03 0.  0.
<mgrwt>
<rscale>  0 0.11988969E+04</rscale>
<asrwt>0</asrwt>
<pdfrwt beam="1">  1        2 0.47745955E+00 0.12458168E+04</pdfrwt>
<pdfrwt beam="2">  1       -2 0.11278468E+00 0.12458168E+04</pdfrwt>
<totfact> 0.91130742E-01</totfact>
</mgrwt>
</event>
<event>
 4    5  0.6615028E-008  0.1472135E+04  0.7818608E-02  0.8929567E-01
         -2   -1    0    0    0  501 -0.00000000000E+00  0.00000000000E+00  0.55342280114E+03  0.55342280115E+03  0.25500000000E-02 0.  1.
          2   -1    0    0  501    0  0.00000000000E+00 -0.00000000000E+00 -0.37380145057E+04  0.37380145057E+04  0.25500000000E-02 0. -1.
    8880023    1    1    2    0    0 -0.95724664207E+03  0.90390856321E+03 -0.11724086730E+04  0.18819468981E+04  0.65864270000E+03 0.  0.
    8880022    1    1    2    0    0  0.95724664207E+03 -0.90390856321E+03 -0.20121830315E+04  0.24094904088E+04  0.15294330000E+03 0.  0.
<mgrwt>
<rscale>  0 0.14340026E+04</rscale>
<asrwt>0</asrwt>
<pdfrwt beam="1">  1        2 0.57507914E+00 0.14721352E+04</pdfrwt>
<pdfrwt beam="2">  1       -2 0.85141972E-01 0.14721352E+04</pdfrwt>
<totfact> 0.63811690E-01</totfact>
</mgrwt>
</event>
<event>
 4    5  0.6615028E-008  0.7201442E+03  0.7818608E-02  0.9922099E-01
          2   -1    0    0  501    0  0.00000000000E+00  0.00000000000E+00  0.24554328675E+04  0.24554328675E+04  0.25500000000E-02 0. -1.
         -2   -1    0    0    0  501 -0.00000000000E+00 -0.00000000000E+00 -0.11433743457E+03  0.11433743460E+03  0.25500000000E-02 0.  1.
    8880023    1    1    2    0    0  0.27436957036E+03  0.97564021462E+02  0.17671977674E+04  0.19082965060E+04  0.65864270000E+03 0.  1.
    8880022    1    1    2    0    0 -0.27436957036E+03 -0.97564021462E+02  0.57389766555E+03  0.66147379613E+03  0.15294330000E+03 0. -1.
<mgrwt>
<rscale>  0 0.59202152E+03</rscale>
<asrwt>0</asrwt>
<pdfrwt beam="1">  1        2 0.37775887E+00 0.72014416E+03</pdfrwt>
<pdfrwt beam="2">  1       -2 0.17590376E-01 0.72014416E+03</pdfrwt>
<totfact> 0.10257537E+02</totfact>
</mgrwt>
</event>
<event>
 4    5  0.6615028E-008  0.7524529E+03  0.7818608E-02  0.9825053E-01
          2   -1    0    0  501    0  0.00000000000E+00  0.00000000000E+00  0.41790482868E+03  0.41790482869E+03  0.25500000000E-02 0. -1.
         -2   -1    0    0    0  501 -0.00000000000E+00 -0.00000000000E+00 -0.13657008379E+04  0.13657008379E+04  0.25500000000E-02 0.  1.
    8880023    1    1    2    0    0  0.34391802411E+03  0.11872462110E+03  0.48200824425E+01  0.75246832652E+03  0.65864270000E+03 0. -1.
    8880022    1    1    2    0    0 -0.34391802411E+03 -0.11872462110E+03 -0.95261609165E+03  0.10311373401E+04  0.15294330000E+03 0.  0.
<mgrwt>
<rscale>  0 0.64035211E+03</rscale>
<asrwt>0</asrwt>
<pdfrwt beam="1">  1        2 0.64293051E-01 0.75245289E+03</pdfrwt>
<pdfrwt beam="2">  1       -2 0.21010782E+00 0.75245289E+03</pdfrwt>
<totfact> 0.88254242E+00</totfact>
</mgrwt>
</event>
<event>
 4    5  0.6615028E-008  0.9387047E+03  0.7818608E-02  0.9466555E-01
          2   -1    0    0  501    0  0.00000000000E+00  0.00000000000E+00  0.17250826265E+04  0.17250826265E+04  0.25500000000E-02 0. -1.
         -2   -1    0    0    0  501 -0.00000000000E+00 -0.00000000000E+00 -0.82309537855E+03  0.82309537856E+03  0.25500000000E-02 0.  1.
    8880023    1    1    2    0    0  0.45043857601E+03 -0.49443033581E+03  0.14104025265E+04  0.16942260064E+04  0.65864270000E+03 0. -1.
    8880022    1    1    2    0    0 -0.45043857601E+03  0.49443033581E+03 -0.50841527848E+03  0.85395199873E+03  0.15294330000E+03 0.  0.
<mgrwt>
<rscale>  0 0.86795116E+03</rscale>
<asrwt>0</asrwt>
<pdfrwt beam="1">  1        2 0.26539732E+00 0.93870468E+03</pdfrwt>
<pdfrwt beam="2">  1       -2 0.12663006E+00 0.93870468E+03</pdfrwt>
<totfact> 0.44205450E+00</totfact>
</mgrwt>
</event>
<event>
 4    5  0.6615028E-008  0.7018292E+03  0.7818608E-02  0.9989696E-01
          2   -1    0    0  501    0  0.00000000000E+00  0.00000000000E+00  0.55376499115E+03  0.55376499116E+03  0.25500000000E-02 0. -1.
         -2   -1    0    0    0  501 -0.00000000000E+00 -0.00000000000E+00 -0.16830969292E+04  0.16830969292E+04  0.25500000000E-02 0.  1.
    8880023    1    1    2    0    0  0.23561288592E+03  0.56925566369E+02  0.31146278681E+03  0.76783671829E+03  0.65864270000E+03 0. -1.
    8880022    1    1    2    0    0 -0.23561288592E+03 -0.56925566369E+02 -0.14407947249E+04  0.14690252021E+04  0.15294330000E+03 0.  0.
<mgrwt>
<rscale>  0 0.56104358E+03</rscale>
<asrwt>0</asrwt>
<pdfrwt beam="1">  1        2 0.85194615E-01 0.70182915E+03</pdfrwt>
<pdfrwt beam="2">  1       -2 0.25893799E+00 0.70182915E+03</pdfrwt>
<totfact> 0.32132961E+00</totfact>
</mgrwt>
</event>
<event>
 4    5  0.6615028E-008  0.7906769E+03  0.7818608E-02  0.9731329E-01
         -2   -1    0    0    0  501 -0.00000000000E+00  0.00000000000E+00  0.36223823302E+03  0.36223823303E+03  0.25500000000E-02 0.  1.
          2   -1    0    0  501    0  0.00000000000E+00 -0.00000000000E+00 -0.14445878505E+04  0.14445878505E+04  0.25500000000E-02 0. -1.
    8880023    1    1    2    0    0  0.36703401401E+03 -0.23800386605E+03 -0.20850407054E+03  0.81770652522E+03  0.65864270000E+03 0.  0.
    8880022    1    1    2    0    0 -0.36703401401E+03  0.23800386605E+03 -0.87384554691E+03  0.98911955827E+03  0.15294330000E+03 0.  0.
<mgrwt>
<rscale>  0 0.69181714E+03</rscale>
<asrwt>0</asrwt>
<pdfrwt beam="1">  1        2 0.22224428E+00 0.79067693E+03</pdfrwt>
<pdfrwt beam="2">  1       -2 0.55728959E-01 0.79067693E+03</pdfrwt>
<totfact> 0.41989028E+01</totfact>
</mgrwt>
</event>
<event>
 4    5  0.6615028E-008  0.2248874E+04  0.7818608E-02  0.8508009E-01
          2   -1    0    0  501    0  0.00000000000E+00  0.00000000000E+00  0.23997487552E+04  0.23997487552E+04  0.25500000000E-02 0. -1.
         -2   -1    0    0    0  501 -0.00000000000E+00 -0.00000000000E+00 -0.24732414617E+04  0.24732414617E+04  0.25500000000E-02 0.  1.
    8880023    1    1    2    0    0 -0.21268553193E+04 -0.31640541522E+03 -0.10789918149E+04  0.24943254557E+04  0.65864270000E+03 0.  0.
    8880022    1    1    2    0    0  0.21268553193E+04  0.31640541522E+03  0.10054991084E+04  0.23786647612E+04  0.15294330000E+03 0.  0.
<mgrwt>
<rscale>  0 0.22252084E+04</rscale>
<asrwt>0</asrwt>
<pdfrwt beam="1">  1        2 0.36919212E+00 0.22488744E+04</pdfrwt>
<pdfrwt beam="2">  1       -2 0.38049869E+00 0.22488744E+04</pdfrwt>
<totfact> 0.34055426E-02</totfact>
</mgrwt>
</event>
<event>
 4    5  0.6615028E-008  0.6701857E+03  0.7818608E-02  0.1015530E+00
         -2   -1    0    0    0  501 -0.00000000000E+00  0.00000000000E+00  0.10962674000E+04  0.10962674000E+04  0.25500000000E-02 0.  1.
          2   -1    0    0  501    0  0.00000000000E+00 -0.00000000000E+00 -0.46067551495E+03  0.46067551496E+03  0.25500000000E-02 0. -1.
    8880023    1    1    2    0    0  0.11784501778E+03 -0.38095322663E+02 -0.19928234376E+03  0.69918692824E+03  0.65864270000E+03 0. -1.
    8880022    1    1    2    0    0 -0.11784501778E+03  0.38095322663E+02  0.83487422884E+03  0.85775598676E+03  0.15294330000E+03 0.  0.
<mgrwt>
<rscale>  0 0.49334737E+03</rscale>
<asrwt>0</asrwt>
<pdfrwt beam="1">  1        2 0.70873157E-01 0.67018573E+03</pdfrwt>
<pdfrwt beam="2">  1       -2 0.16865652E+00 0.67018573E+03</pdfrwt>
<totfact> 0.15091055E+01</totfact>
</mgrwt>
</event>
<event>
 4    5  0.6615028E-008  0.7330501E+03  0.7818608E-02  0.9880675E-01
         -2   -1    0    0    0  501 -0.00000000000E+00  0.00000000000E+00  0.23171597746E+03  0.23171597748E+03  0.25500000000E-02 0.  1.
          2   -1    0    0  501    0  0.00000000000E+00 -0.00000000000E+00 -0.22493785073E+04  0.22493785073E+04  0.25500000000E-02 0. -1.
    8880023    1    1    2    0    0 -0.94960575907E+02 -0.30746500022E+03 -0.19934741607E+04  0.21239825030E+04  0.65864270000E+03 0.  0.
    8880022    1    1    2    0    0  0.94960575907E+02  0.30746500022E+03 -0.24188369155E+02  0.35711198181E+03  0.15294330000E+03 0.  0.
<mgrwt>
<rscale>  0 0.61207088E+03</rscale>
<asrwt>0</asrwt>
<pdfrwt beam="1">  1        2 0.34605822E+00 0.73305010E+03</pdfrwt>
<pdfrwt beam="2">  1       -2 0.35648613E-01 0.73305010E+03</pdfrwt>
<totfact> 0.37209215E+01</totfact>
</mgrwt>
</event>
<event>
 4    5  0.6615028E-008  0.1400639E+04  0.7818608E-02  0.8983186E-01
         -2   -1    0    0    0  501 -0.00000000000E+00  0.00000000000E+00  0.15878499228E+04  0.15878499228E+04  0.25500000000E-02 0.  1.
          2   -1    0    0  501    0  0.00000000000E+00 -0.00000000000E+00 -0.16338600142E+04  0.16338600142E+04  0.25500000000E-02 0. -1.
    8880023    1    1    2    0    0  0.10837768483E+04 -0.59448115839E+03  0.89367607029E+03  0.16614593674E+04  0.65864270000E+03 0.  0.
    8880022    1    1    2    0    0 -0.10837768483E+04  0.59448115839E+03 -0.93968616174E+03  0.15602505697E+04  0.15294330000E+03 0.  0.
<mgrwt>
<rscale>  0 0.13601419E+04</rscale>
<asrwt>0</asrwt>
<pdfrwt beam="1">  1        2 0.25136308E+00 0.14006393E+04</pdfrwt>
<pdfrwt beam="2">  1       -2 0.24428460E+00 0.14006393E+04</pdfrwt>
<totfact> 0.70616397E-01</totfact>
</mgrwt>
</event>
<event>
 4    5  0.7095031E-008  0.6891461E+03  0.7818608E-02  0.1004561E+00
         -2   -1    0    0    0  501 -0.00000000000E+00  0.00000000000E+00  0.10213838469E+04  0.10213838469E+04  0.25500000000E-02 0.  1.
          2   -1    0    0  501    0  0.00000000000E+00 -0.00000000000E+00 -0.16925966400E+04  0.16925966400E+04  0.25500000000E-02 0. -1.
    8880023    1    1    2    0    0 -0.12206892137E+03  0.16189918709E+03 -0.16047741262E+04  0.17464885831E+04  0.65864270000E+03 0. -1.
    8880022    1    1    2    0    0  0.12206892137E+03 -0.16189918709E+03  0.93356133313E+03  0.96749190388E+03  0.15294330000E+03 0.  0.
<mgrwt>
<rscale>  0 0.53694731E+03</rscale>
<asrwt>0</asrwt>
<pdfrwt beam="1">  1        2 0.26039948E+00 0.68914612E+03</pdfrwt>
<pdfrwt beam="2">  1       -2 0.15713598E+00 0.68914612E+03</pdfrwt>
<totfact> 0.27304548E+00</totfact>
</mgrwt>
</event>
<event>
 4    5  0.6615028E-008  0.7873623E+03  0.7818608E-02  0.9738819E-01
          2   -1    0    0  501    0  0.00000000000E+00  0.00000000000E+00  0.12294147244E+04  0.12294147244E+04  0.25500000000E-02 0. -1.
         -2   -1    0    0    0  501 -0.00000000000E+00 -0.00000000000E+00 -0.77637210821E+03  0.77637210821E+03  0.25500000000E-02 0.  1.
    8880023    1    1    2    0    0  0.40266011163E+03  0.15490018088E+03  0.10127066446E+04  0.12827759687E+04  0.65864270000E+03 0. -1.
    8880022    1    1    2    0    0 -0.40266011163E+03 -0.15490018088E+03 -0.55966402847E+03  0.72301086389E+03  0.15294330000E+03 0.  0.
<mgrwt>
<rscale>  0 0.68751850E+03</rscale>
<asrwt>0</asrwt>
<pdfrwt beam="1">  1        2 0.18914073E+00 0.78736233E+03</pdfrwt>
<pdfrwt beam="2">  1       -2 0.11944186E+00 0.78736233E+03</pdfrwt>
<totfact> 0.99240662E+00</totfact>
</mgrwt>
</event>
<event>
 4    5  0.6615028E-008  0.9145880E+03  0.7818608E-02  0.9503008E-01
         -2   -1    0    0    0  501 -0.00000000000E+00  0.00000000000E+00  0.12005198292E+04  0.12005198292E+04  0.25500000000E-02 0.  1.
          2   -1    0    0  501    0  0.00000000000E+00 -0.00000000000E+00 -0.13706865936E+04  0.13706865936E+04  0.25500000000E-02 0. -1.
    8880023    1    1    2    0    0 -0.41564570933E+03  0.47947857386E+03 -0.11028916555E+04  0.14327739768E+04  0.65864270000E+03 0.  0.
    8880022    1    1    2    0    0  0.41564570933E+03 -0.47947857386E+03  0.93272489112E+03  0.11384324460E+04  0.15294330000E+03 0.  0.
<mgrwt>
<rscale>  0 0.84062452E+03</rscale>
<asrwt>0</asrwt>
<pdfrwt beam="1">  1        2 0.21087486E+00 0.91458803E+03</pdfrwt>
<pdfrwt beam="2">  1       -2 0.18469536E+00 0.91458803E+03</pdfrwt>
<totfact> 0.25401646E+00</totfact>
</mgrwt>
</event>
<event>
 4    5  0.6615028E-008  0.7165550E+03  0.7818608E-02  0.9934420E-01
          2   -1    0    0  501    0  0.00000000000E+00  0.00000000000E+00  0.55161281311E+03  0.55161281311E+03  0.25500000000E-02 0. -1.
         -2   -1    0    0    0  501 -0.00000000000E+00 -0.00000000000E+00 -0.48835210138E+03  0.48835210139E+03  0.25500000000E-02 0.  1.
    8880023    1    1    2    0    0  0.14905253860E+03  0.23963349840E+03  0.28799356303E+02  0.71713351756E+03  0.65864270000E+03 0.  0.
    8880022    1    1    2    0    0 -0.14905253860E+03 -0.23963349840E+03  0.34461355421E+02  0.32283139694E+03  0.15294330000E+03 0.  1.
<mgrwt>
<rscale>  0 0.58621772E+03</rscale>
<asrwt>0</asrwt>
<pdfrwt beam="1">  1        2 0.84863509E-01 0.71655501E+03</pdfrwt>
<pdfrwt beam="2">  1       -2 0.75131093E-01 0.71655501E+03</pdfrwt>
<totfact> 0.88433460E+01</totfact>
</mgrwt>
</event>
<event>
 4    5  0.6793877E-008  0.1055500E+04  0.7818608E-02  0.9312299E-01
          2   -1    0    0  501    0  0.00000000000E+00  0.00000000000E+00  0.22957320880E+04  0.22957320880E+04  0.25500000000E-02 0. -1.
         -2   -1    0    0    0  501 -0.00000000000E+00 -0.00000000000E+00 -0.13493405189E+04  0.13493405189E+04  0.25500000000E-02 0.  1.
    8880023    1    1    2    0    0 -0.81705430173E+03 -0.11265871787E+03  0.20220736735E+04  0.22809782695E+04  0.65864270000E+03 0.  0.
    8880022    1    1    2    0    0  0.81705430173E+03  0.11265871787E+03 -0.10756821044E+04  0.13640943374E+04  0.15294330000E+03 0.  0.
<mgrwt>
<rscale>  0 0.99658442E+03</rscale>
<asrwt>0</asrwt>
<pdfrwt beam="1">  1        2 0.35318955E+00 0.10554998E+04</pdfrwt>
<pdfrwt beam="2">  1       -2 0.20759085E+00 0.10554998E+04</pdfrwt>
<totfact> 0.53808088E-01</totfact>
</mgrwt>
</event>
<event>
 4    5  0.6615028E-008  0.1114568E+04  0.7818608E-02  0.9245007E-01
         -2   -1    0    0    0  501 -0.00000000000E+00  0.00000000000E+00  0.39623874336E+03  0.39623874337E+03  0.25500000000E-02 0.  1.
          2   -1    0    0  501    0  0.00000000000E+00 -0.00000000000E+00 -0.33502956590E+04  0.33502956590E+04  0.25500000000E-02 0. -1.
    8880023    1    1    2    0    0  0.76091185966E+02  0.89591369189E+03 -0.24793170022E+04  0.27183219485E+04  0.65864270000E+03 0. -1.
    8880022    1    1    2    0    0 -0.76091185966E+02 -0.89591369189E+03 -0.47473991341E+03  0.10282124539E+04  0.15294330000E+03 0.  0.
<mgrwt>
<rscale>  0 0.10600712E+04</rscale>
<asrwt>0</asrwt>
<pdfrwt beam="1">  1        2 0.51543008E+00 0.11145678E+04</pdfrwt>
<pdfrwt beam="2">  1       -2 0.60959809E-01 0.11145678E+04</pdfrwt>
<totfact> 0.26186532E+00</totfact>
</mgrwt>
</event>
<event>
 4    5  0.6615028E-008  0.1324821E+04  0.7818608E-02  0.9044416E-01
          2   -1    0    0  501    0  0.00000000000E+00  0.00000000000E+00  0.14577840224E+04  0.14577840224E+04  0.25500000000E-02 0. -1.
         -2   -1    0    0    0  501 -0.00000000000E+00 -0.00000000000E+00 -0.13890313248E+04  0.13890313248E+04  0.25500000000E-02 0.  1.
    8880023    1    1    2    0    0 -0.92243561236E+03 -0.68589652157E+03  0.72925933534E+03  0.15122734150E+04  0.65864270000E+03 0.  0.
    8880022    1    1    2    0    0  0.92243561236E+03  0.68589652157E+03 -0.66050663778E+03  0.13345419322E+04  0.15294330000E+03 0.  0.
<mgrwt>
<rscale>  0 0.12814377E+04</rscale>
<asrwt>0</asrwt>
<pdfrwt beam="1">  1        2 0.22427446E+00 0.13248214E+04</pdfrwt>
<pdfrwt beam="2">  1       -2 0.21369713E+00 0.13248214E+04</pdfrwt>
<totfact> 0.13923831E+00</totfact>
</mgrwt>
</event>
<event>
 4    5  0.6615028E-008  0.1109175E+04  0.7818608E-02  0.9250909E-01
          2   -1    0    0  501    0  0.00000000000E+00  0.00000000000E+00  0.13949080823E+04  0.13949080823E+04  0.25500000000E-02 0. -1.
         -2   -1    0    0    0  501 -0.00000000000E+00 -0.00000000000E+00 -0.16621624150E+04  0.16621624150E+04  0.25500000000E-02 0.  1.
    8880023    1    1    2    0    0  0.88949133038E+03 -0.72554179794E+02  0.10041556991E+04  0.14961944426E+04  0.65864270000E+03 0.  0.
    8880022    1    1    2    0    0 -0.88949133038E+03  0.72554179794E+02 -0.12714100319E+04  0.15608760546E+04  0.15294330000E+03 0.  0.
<mgrwt>
<rscale>  0 0.10543065E+04</rscale>
<asrwt>0</asrwt>
<pdfrwt beam="1">  1        2 0.21460124E+00 0.11091750E+04</pdfrwt>
<pdfrwt beam="2">  1       -2 0.25571729E+00 0.11091750E+04</pdfrwt>
<totfact> 0.84909163E-01</totfact>
</mgrwt>
</event>
<event>
 4    5  0.6615028E-008  0.7062906E+03  0.7818608E-02  0.9972042E-01
          2   -1    0    0  501    0  0.00000000000E+00  0.00000000000E+00  0.69220697220E+03  0.69220697220E+03  0.25500000000E-02 0. -1.
         -2   -1    0    0    0  501 -0.00000000000E+00 -0.00000000000E+00 -0.81991494519E+03  0.81991494519E+03  0.25500000000E-02 0.  1.
    8880023    1    1    2    0    0  0.23882311061E+03 -0.89441463370E+02  0.46733978115E+03  0.84690786443E+03  0.65864270000E+03 0. -1.
    8880022    1    1    2    0    0 -0.23882311061E+03  0.89441463370E+02 -0.59504775414E+03  0.66521405296E+03  0.15294330000E+03 0.  0.
<mgrwt>
<rscale>  0 0.56893317E+03</rscale>
<asrwt>0</asrwt>
<pdfrwt beam="1">  1        2 0.10649338E+00 0.70629063E+03</pdfrwt>
<pdfrwt beam="2">  1       -2 0.12614076E+00 0.70629063E+03</pdfrwt>
<totfact> 0.19830534E+01</totfact>
</mgrwt>
</event>
<event>
 4    5  0.6615028E-008  0.9882479E+03  0.7818608E-02  0.9397097E-01
         -2   -1    0    0    0  501 -0.00000000000E+00  0.00000000000E+00  0.23725887249E+04  0.23725887249E+04  0.25500000000E-02 0.  1.
          2   -1    0    0  501    0  0.00000000000E+00 -0.00000000000E+00 -0.15518769912E+04  0.15518769912E+04  0.25500000000E-02 0. -1.
    8880023    1    1    2    0    0 -0.35391332069E+03 -0.64619579529E+03 -0.13236722941E+04  0.16518904906E+04  0.65864270000E+03 0.  0.
    8880022    1    1    2    0    0  0.35391332069E+03  0.64619579529E+03  0.21443840277E+04  0.22725752256E+04  0.15294330000E+03 0.  0.
<mgrwt>
<rscale>  0 0.92314966E+03</rscale>
<asrwt>0</asrwt>
<pdfrwt beam="1">  1        2 0.23875031E+00 0.98824787E+03</pdfrwt>
<pdfrwt beam="2">  1       -2 0.36501365E+00 0.98824787E+03</pdfrwt>
<totfact> 0.15086157E-01</totfact>
</mgrwt>
</event>
<event>
 4    5  0.6615028E-008  0.8706611E+03  0.7818608E-02  0.9574874E-01
         -2   -1    0    0    0  501 -0.00000000000E+00  0.00000000000E+00  0.23025936856E+04  0.23025936856E+04  0.25500000000E-02 0.  1.
          2   -1    0    0  501    0  0.00000000000E+00 -0.00000000000E+00 -0.15075145317E+04  0.15075145317E+04  0.25500000000E-02 0. -1.
    8880023    1    1    2    0    0  0.56449742827E+03 -0.74720329848E+02 -0.13383911305E+04  0.15966657442E+04  0.65864270000E+03 0.  0.
    8880022    1    1    2    0    0 -0.56449742827E+03  0.74720329848E+02  0.21334702844E+04  0.22134424731E+04  0.15294330000E+03 0.  1.
<mgrwt>
<rscale>  0 0.78981764E+03</rscale>
<asrwt>0</asrwt>
<pdfrwt beam="1">  1        2 0.23192531E+00 0.87066106E+03</pdfrwt>
<pdfrwt beam="2">  1       -2 0.35424518E+00 0.87066106E+03</pdfrwt>
<totfact> 0.19110876E-01</totfact>
</mgrwt>
</event>
<event>
 4    5  0.6615028E-008  0.7939414E+03  0.7818608E-02  0.9724052E-01
         -2   -1    0    0    0  501 -0.00000000000E+00  0.00000000000E+00  0.18201342624E+04  0.18201342624E+04  0.25500000000E-02 0.  1.
          2   -1    0    0  501    0  0.00000000000E+00 -0.00000000000E+00 -0.19445609815E+04  0.19445609815E+04  0.25500000000E-02 0. -1.
    8880023    1    1    2    0    0  0.42726391257E+03 -0.11823000461E+03 -0.18305422074E+04  0.19953014219E+04  0.65864270000E+03 0. -1.
    8880022    1    1    2    0    0 -0.42726391257E+03  0.11823000461E+03  0.17061154883E+04  0.17693938220E+04  0.15294330000E+03 0.  0.
<mgrwt>
<rscale>  0 0.69602611E+03</rscale>
<asrwt>0</asrwt>
<pdfrwt beam="1">  1        2 0.29916323E+00 0.79394143E+03</pdfrwt>
<pdfrwt beam="2">  1       -2 0.28002066E+00 0.79394143E+03</pdfrwt>
<totfact> 0.31678530E-01</totfact>
</mgrwt>
</event>
<event>
 4    5  0.7014435E-008  0.1225767E+04  0.7818608E-02  0.9132473E-01
          2   -1    0    0  501    0  0.00000000000E+00  0.00000000000E+00  0.28330116601E+04  0.28330116601E+04  0.25500000000E-02 0. -1.
         -2   -1    0    0    0  501 -0.00000000000E+00 -0.00000000000E+00 -0.14872593639E+04  0.14872593639E+04  0.25500000000E-02 0.  1.
    8880023    1    1    2    0    0 -0.84189502360E+03 -0.59992246863E+03  0.24871089186E+04  0.27727630945E+04  0.65864270000E+03 0. -1.
    8880022    1    1    2    0    0  0.84189502360E+03  0.59992246863E+03 -0.11413566224E+04  0.15475079295E+04  0.15294330000E+03 0.  0.
<mgrwt>
<rscale>  0 0.11778446E+04</rscale>
<asrwt>0</asrwt>
<pdfrwt beam="1">  1        2 0.43584794E+00 0.12257669E+04</pdfrwt>
<pdfrwt beam="2">  1       -2 0.22880913E+00 0.12257669E+04</pdfrwt>
<totfact> 0.18760256E-01</totfact>
</mgrwt>
</event>
<event>
 4    5  0.6615028E-008  0.1112990E+04  0.7818608E-02  0.9246729E-01
          2   -1    0    0  501    0  0.00000000000E+00  0.00000000000E+00  0.20946076813E+04  0.20946076813E+04  0.25500000000E-02 0. -1.
         -2   -1    0    0    0  501 -0.00000000000E+00 -0.00000000000E+00 -0.51501386906E+03  0.51501386906E+03  0.25500000000E-02 0.  1.
    8880023    1    1    2    0    0  0.47107235648E+03 -0.76356285824E+03  0.57036662154E+03  0.12506261203E+04  0.65864270000E+03 0.  0.
    8880022    1    1    2    0    0 -0.47107235648E+03  0.76356285824E+03  0.10092271908E+04  0.13589954301E+04  0.15294330000E+03 0.  0.
<mgrwt>
<rscale>  0 0.10583856E+04</rscale>
<asrwt>0</asrwt>
<pdfrwt beam="1">  1        2 0.32224733E+00 0.11129904E+04</pdfrwt>
<pdfrwt beam="2">  1       -2 0.79232904E-01 0.11129904E+04</pdfrwt>
<totfact> 0.82839708E+00</totfact>
</mgrwt>
</event>
<event>
 4    5  0.6615028E-008  0.8451908E+03  0.7818608E-02  0.9620469E-01
         -2   -1    0    0    0  501 -0.00000000000E+00  0.00000000000E+00  0.66064936372E+03  0.66064936373E+03  0.25500000000E-02 0.  1.
          2   -1    0    0  501    0  0.00000000000E+00 -0.00000000000E+00 -0.15266265843E+04  0.15266265843E+04  0.25500000000E-02 0. -1.
    8880023    1    1    2    0    0  0.19437310062E+03 -0.49270317269E+03 -0.12546254114E+04  0.15127565726E+04  0.65864270000E+03 0.  0.
    8880022    1    1    2    0    0 -0.19437310062E+03  0.49270317269E+03  0.38864819083E+03  0.67451937547E+03  0.15294330000E+03 0.  0.
<mgrwt>
<rscale>  0 0.75956088E+03</rscale>
<asrwt>0</asrwt>
<pdfrwt beam="1">  1        2 0.23486563E+00 0.84519082E+03</pdfrwt>
<pdfrwt beam="2">  1       -2 0.10163836E+00 0.84519082E+03</pdfrwt>
<totfact> 0.98678725E+00</totfact>
</mgrwt>
</event>
<event>
 4    5  0.6615028E-008  0.1450797E+04  0.7818608E-02  0.8945184E-01
         -2   -1    0    0    0  501 -0.00000000000E+00  0.00000000000E+00  0.10718266208E+04  0.10718266208E+04  0.25500000000E-02 0.  1.
          2   -1    0    0  501    0  0.00000000000E+00 -0.00000000000E+00 -0.36792801497E+04  0.36792801497E+04  0.25500000000E-02 0. -1.
    8880023    1    1    2    0    0  0.70590552078E+03  0.10829126933E+04 -0.30489995453E+04  0.33765679231E+04  0.65864270000E+03 0. -1.
    8880022    1    1    2    0    0 -0.70590552078E+03 -0.10829126933E+04  0.44154601648E+03  0.13745388475E+04  0.15294330000E+03 0.  0.
<mgrwt>
<rscale>  0 0.14119908E+04</rscale>
<asrwt>0</asrwt>
<pdfrwt beam="1">  1        2 0.56604309E+00 0.14507973E+04</pdfrwt>
<pdfrwt beam="2">  1       -2 0.16489640E+00 0.14507973E+04</pdfrwt>
<totfact> 0.13463933E-01</totfact>
</mgrwt>
</event>
<event>
 4    5  0.6615028E-008  0.1710335E+04  0.7818608E-02  0.8773828E-01
          2   -1    0    0  501    0  0.00000000000E+00  0.00000000000E+00  0.43555940215E+04  0.43555940215E+04  0.25500000000E-02 0. -1.
         -2   -1    0    0    0  501 -0.00000000000E+00 -0.00000000000E+00 -0.73134156910E+03  0.73134156911E+03  0.25500000000E-02 0.  1.
    8880023    1    1    2    0    0  0.99959283212E+03  0.12215768918E+04  0.89486044128E+03  0.19302904829E+04  0.65864270000E+03 0.  0.
    8880022    1    1    2    0    0 -0.99959283212E+03 -0.12215768918E+04  0.27293920111E+04  0.31566451077E+04  0.15294330000E+03 0.  0.
<mgrwt>
<rscale>  0 0.16783187E+04</rscale>
<asrwt>0</asrwt>
<pdfrwt beam="1">  1        2 0.67009139E+00 0.17103351E+04</pdfrwt>
<pdfrwt beam="2">  1       -2 0.11251409E+00 0.17103351E+04</pdfrwt>
<totfact> 0.99482041E-02</totfact>
</mgrwt>
</event>
<event>
 4    5  0.6615028E-008  0.6835181E+03  0.7818608E-02  0.1007400E+00
          2   -1    0    0  501    0  0.00000000000E+00  0.00000000000E+00  0.96306230900E+03  0.96306230900E+03  0.25500000000E-02 0. -1.
         -2   -1    0    0    0  501 -0.00000000000E+00 -0.00000000000E+00 -0.35085373455E+03  0.35085373456E+03  0.25500000000E-02 0.  1.
    8880023    1    1    2    0    0  0.12446423608E+02 -0.18229626379E+03  0.76885597419E+03  0.10287548574E+04  0.65864270000E+03 0. -1.
    8880022    1    1    2    0    0 -0.12446423608E+02  0.18229626379E+03 -0.15664739974E+03  0.28516118619E+03  0.15294330000E+03 0.  0.
<mgrwt>
<rscale>  0 0.52521306E+03</rscale>
<asrwt>0</asrwt>
<pdfrwt beam="1">  1        2 0.14816343E+00 0.68351814E+03</pdfrwt>
<pdfrwt beam="2">  1       -2 0.53977498E-01 0.68351814E+03</pdfrwt>
<totfact> 0.87685325E+01</totfact>
</mgrwt>
</event>
<event>
 4    5  0.6615028E-008  0.8729851E+03  0.7818608E-02  0.9570870E-01
          2   -1    0    0  501    0  0.00000000000E+00  0.00000000000E+00  0.12436322774E+04  0.12436322774E+04  0.25500000000E-02 0. -1.
         -2   -1    0    0    0  501 -0.00000000000E+00 -0.00000000000E+00 -0.11110856936E+04  0.11110856936E+04  0.25500000000E-02 0.  1.
    8880023    1    1    2    0    0 -0.56832169786E+03 -0.72823015659E+02  0.98506177439E+03  0.13162255314E+04  0.65864270000E+03 0. -1.
    8880022    1    1    2    0    0  0.56832169786E+03  0.72823015659E+02 -0.85251519060E+03  0.10384924396E+04  0.15294330000E+03 0.  0.
<mgrwt>
<rscale>  0 0.79254559E+03</rscale>
<asrwt>0</asrwt>
<pdfrwt beam="1">  1        2 0.19132804E+00 0.87298508E+03</pdfrwt>
<pdfrwt beam="2">  1       -2 0.17093626E+00 0.87298508E+03</pdfrwt>
<totfact> 0.37692207E+00</totfact>
</mgrwt>
</event>
<event>
 4    5  0.6615028E-008  0.9980831E+03  0.7818608E-02  0.9384070E-01
          2   -1    0    0  501    0  0.00000000000E+00  0.00000000000E+00  0.34223338633E+04  0.34223338633E+04  0.25500000000E-02 0. -1.
         -2   -1    0    0    0  501 -0.00000000000E+00 -0.00000000000E+00 -0.44960998554E+03  0.44960998555E+03  0.25500000000E-02 0.  1.
    8880023    1    1    2    0    0  0.40786124732E+03 -0.62929236015E+03  0.29412185103E+04  0.31059517387E+04  0.65864270000E+03 0. -1.
    8880022    1    1    2    0    0 -0.40786124732E+03  0.62929236015E+03  0.31505367473E+02  0.76599211015E+03  0.15294330000E+03 0.  0.
<mgrwt>
<rscale>  0 0.93398346E+03</rscale>
<asrwt>0</asrwt>
<pdfrwt beam="1">  1        2 0.52651289E+00 0.99808310E+03</pdfrwt>
<pdfrwt beam="2">  1       -2 0.69170768E-01 0.99808310E+03</pdfrwt>
<totfact> 0.18158233E+00</totfact>
</mgrwt>
</event>
<event>
 4    5  0.6615028E-008  0.8075703E+03  0.7818608E-02  0.9694660E-01
         -2   -1    0    0    0  501 -0.00000000000E+00  0.00000000000E+00  0.63919820934E+03  0.63919820934E+03  0.25500000000E-02 0.  1.
          2   -1    0    0  501    0  0.00000000000E+00 -0.00000000000E+00 -0.21810558618E+04  0.21810558618E+04  0.25500000000E-02 0. -1.
    8880023    1    1    2    0    0  0.44807714314E+03  0.13261381939E+03 -0.19945969811E+04  0.21518798467E+04  0.65864270000E+03 0. -1.
    8880022    1    1    2    0    0 -0.44807714314E+03 -0.13261381939E+03  0.45273932860E+03  0.66837422450E+03  0.15294330000E+03 0.  0.
<mgrwt>
<rscale>  0 0.71335601E+03</rscale>
<asrwt>0</asrwt>
<pdfrwt beam="1">  1        2 0.33554705E+00 0.80757028E+03</pdfrwt>
<pdfrwt beam="2">  1       -2 0.98338187E-01 0.80757028E+03</pdfrwt>
<totfact> 0.46887594E+00</totfact>
</mgrwt>
</event>
<event>
 4    5  0.6615028E-008  0.9876570E+03  0.7818608E-02  0.9397887E-01
         -2   -1    0    0    0  501 -0.00000000000E+00  0.00000000000E+00  0.75176686830E+03  0.75176686831E+03  0.25500000000E-02 0.  1.
          2   -1    0    0  501    0  0.00000000000E+00 -0.00000000000E+00 -0.41304467731E+04  0.41304467731E+04  0.25500000000E-02 0. -1.
    8880023    1    1    2    0    0  0.46185293113E+03 -0.57301662129E+03 -0.38634920030E+04  0.39877358039E+04  0.65864270000E+03 0.  0.
    8880022    1    1    2    0    0 -0.46185293113E+03  0.57301662129E+03  0.48481209818E+03  0.89447783753E+03  0.15294330000E+03 0.  0.
<mgrwt>
<rscale>  0 0.92249765E+03</rscale>
<asrwt>0</asrwt>
<pdfrwt beam="1">  1        2 0.63545334E+00 0.98765702E+03</pdfrwt>
<pdfrwt beam="2">  1       -2 0.11565644E+00 0.98765702E+03</pdfrwt>
<totfact> 0.16410584E-01</totfact>
</mgrwt>
</event>
<event>
 4    5  0.6615028E-008  0.1430015E+04  0.7818608E-02  0.8960704E-01
         -2   -1    0    0    0  501 -0.00000000000E+00  0.00000000000E+00  0.25851981522E+04  0.25851981522E+04  0.25500000000E-02 0.  1.
          2   -1    0    0  501    0  0.00000000000E+00 -0.00000000000E+00 -0.15688702069E+04  0.15688702069E+04  0.25500000000E-02 0. -1.
    8880023    1    1    2    0    0  0.63721838637E+03  0.10977643728E+04 -0.10151977177E+04  0.17537304532E+04  0.65864270000E+03 0.  0.
    8880022    1    1    2    0    0 -0.63721838637E+03 -0.10977643728E+04  0.20315256630E+04  0.24003379060E+04  0.15294330000E+03 0.  0.
<mgrwt>
<rscale>  0 0.13905272E+04</rscale>
<asrwt>0</asrwt>
<pdfrwt beam="1">  1        2 0.24136465E+00 0.14300154E+04</pdfrwt>
<pdfrwt beam="2">  1       -2 0.39772278E+00 0.14300154E+04</pdfrwt>
<totfact> 0.84784423E-02</totfact>
</mgrwt>
</event>
<event>
 4    5  0.6615028E-008  0.1675433E+04  0.7818608E-02  0.8794764E-01
         -2   -1    0    0    0  501 -0.00000000000E+00  0.00000000000E+00  0.97774806433E+03  0.97774806433E+03  0.25500000000E-02 0.  1.
          2   -1    0    0  501    0  0.00000000000E+00 -0.00000000000E+00 -0.37014331718E+04  0.37014331718E+04  0.25500000000E-02 0. -1.
    8880023    1    1    2    0    0 -0.12555986022E+04  0.89260167658E+03 -0.26425771925E+04  0.31289439157E+04  0.65864270000E+03 0.  0.
    8880022    1    1    2    0    0  0.12555986022E+04 -0.89260167658E+03 -0.81107915020E+02  0.15502373205E+04  0.15294330000E+03 0.  0.
<mgrwt>
<rscale>  0 0.16426538E+04</rscale>
<asrwt>0</asrwt>
<pdfrwt beam="1">  1        2 0.56945125E+00 0.16754330E+04</pdfrwt>
<pdfrwt beam="2">  1       -2 0.15042278E+00 0.16754330E+04</pdfrwt>
<totfact> 0.16197437E-01</totfact>
</mgrwt>
</event>
<event>
 4    5  0.6615028E-008  0.1211500E+04  0.7818608E-02  0.9146024E-01
         -2   -1    0    0    0  501 -0.00000000000E+00  0.00000000000E+00  0.50309074079E+03  0.50309074079E+03  0.25500000000E-02 0.  1.
          2   -1    0    0  501    0  0.00000000000E+00 -0.00000000000E+00 -0.35431192406E+04  0.35431192406E+04  0.25500000000E-02 0. -1.
    8880023    1    1    2    0    0  0.17472971554E+03 -0.10016945997E+04 -0.27063912702E+04  0.29651789927E+04  0.65864270000E+03 0.  0.
    8880022    1    1    2    0    0 -0.17472971554E+03  0.10016945997E+04 -0.33363722952E+03  0.10810309887E+04  0.15294330000E+03 0.  0.
<mgrwt>
<rscale>  0 0.11628351E+04</rscale>
<asrwt>0</asrwt>
<pdfrwt beam="1">  1        2 0.54509525E+00 0.12115002E+04</pdfrwt>
<pdfrwt beam="2">  1       -2 0.77398578E-01 0.12115002E+04</pdfrwt>
<totfact> 0.11321481E+00</totfact>
</mgrwt>
</event>
<event>
 4    5  0.6615028E-008  0.7766044E+03  0.7818608E-02  0.9763875E-01
         -2   -1    0    0    0  501 -0.00000000000E+00  0.00000000000E+00  0.77032397762E+03  0.77032397762E+03  0.25500000000E-02 0.  1.
          2   -1    0    0  501    0  0.00000000000E+00 -0.00000000000E+00 -0.19095274382E+04  0.19095274382E+04  0.25500000000E-02 0. -1.
    8880023    1    1    2    0    0  0.77522210837E+02  0.40409719687E+03 -0.17575783941E+04  0.19215088487E+04  0.65864270000E+03 0. -1.
    8880022    1    1    2    0    0 -0.77522210837E+02 -0.40409719687E+03  0.61837493356E+03  0.75834256716E+03  0.15294330000E+03 0.  0.
<mgrwt>
<rscale>  0 0.67337805E+03</rscale>
<asrwt>0</asrwt>
<pdfrwt beam="1">  1        2 0.29377345E+00 0.77660443E+03</pdfrwt>
<pdfrwt beam="2">  1       -2 0.11851138E+00 0.77660443E+03</pdfrwt>
<totfact> 0.42306048E+00</totfact>
</mgrwt>
</event>
<event>
 4    5  0.6615028E-008  0.7471828E+03  0.7818608E-02  0.9839497E-01
         -2   -1    0    0    0  501 -0.00000000000E+00  0.00000000000E+00  0.41378596147E+03  0.41378596148E+03  0.25500000000E-02 0.  1.
          2   -1    0    0  501    0  0.00000000000E+00 -0.00000000000E+00 -0.17942008616E+04  0.17942008616E+04  0.25500000000E-02 0. -1.
    8880023    1    1    2    0    0 -0.34987680672E+03  0.45366573151E+02 -0.15995080025E+04  0.17654200526E+04  0.65864270000E+03 0. -1.
    8880022    1    1    2    0    0  0.34987680672E+03 -0.45366573151E+02  0.21909310234E+03  0.44256677049E+03  0.15294330000E+03 0.  0.
<mgrwt>
<rscale>  0 0.63285292E+03</rscale>
<asrwt>0</asrwt>
<pdfrwt beam="1">  1        2 0.27603090E+00 0.74718278E+03</pdfrwt>
<pdfrwt beam="2">  1       -2 0.63659380E-01 0.74718278E+03</pdfrwt>
<totfact> 0.20441879E+01</totfact>
</mgrwt>
</event>
<event>
 4    5  0.6615028E-008  0.7071291E+03  0.7818608E-02  0.9968820E-01
         -2   -1    0    0    0  501 -0.00000000000E+00  0.00000000000E+00  0.67159696453E+03  0.67159696454E+03  0.25500000000E-02 0.  1.
          2   -1    0    0  501    0  0.00000000000E+00 -0.00000000000E+00 -0.16460754374E+04  0.16460754374E+04  0.25500000000E-02 0. -1.
    8880023    1    1    2    0    0  0.24375550338E+03 -0.82489913976E+02 -0.15306272183E+04  0.16860756860E+04  0.65864270000E+03 0. -1.
    8880022    1    1    2    0    0 -0.24375550338E+03  0.82489913976E+02  0.55614874550E+03  0.63159671585E+03  0.15294330000E+03 0.  0.
<mgrwt>
<rscale>  0 0.57038801E+03</rscale>
<asrwt>0</asrwt>
<pdfrwt beam="1">  1        2 0.25324237E+00 0.70712908E+03</pdfrwt>
<pdfrwt beam="2">  1       -2 0.10332261E+00 0.70712908E+03</pdfrwt>
<totfact> 0.83047972E+00</totfact>
</mgrwt>
</event>
<event>
 4    5  0.6615028E-008  0.1694059E+04  0.7818608E-02  0.8783520E-01
          2   -1    0    0  501    0  0.00000000000E+00  0.00000000000E+00  0.20267762106E+04  0.20267762106E+04  0.25500000000E-02 0. -1.
         -2   -1    0    0    0  501 -0.00000000000E+00 -0.00000000000E+00 -0.18418187936E+04  0.18418187936E+04  0.25500000000E-02 0.  1.
    8880023    1    1    2    0    0 -0.15600909349E+04  0.46265111557E+02  0.11311690611E+04  0.20370021690E+04  0.65864270000E+03 0.  0.
    8880022    1    1    2    0    0  0.15600909349E+04 -0.46265111557E+02 -0.94621164408E+03  0.18315928352E+04  0.15294330000E+03 0.  0.
<mgrwt>
<rscale>  0 0.16616912E+04</rscale>
<asrwt>0</asrwt>
<pdfrwt beam="1">  1        2 0.31181172E+00 0.16940586E+04</pdfrwt>
<pdfrwt beam="2">  1       -2 0.28335674E+00 0.16940586E+04</pdfrwt>
<totfact> 0.23804312E-01</totfact>
</mgrwt>
</event>
<event>
 4    5  0.6615028E-008  0.6737841E+03  0.7818608E-02  0.1013084E+00
          2   -1    0    0  501    0  0.00000000000E+00  0.00000000000E+00  0.72645299047E+03  0.72645299048E+03  0.25500000000E-02 0. -1.
         -2   -1    0    0    0  501 -0.00000000000E+00 -0.00000000000E+00 -0.48914893807E+03  0.48914893808E+03  0.25500000000E-02 0.  1.
    8880023    1    1    2    0    0 -0.14066569785E+03 -0.19696865690E+02  0.52919790354E+03  0.85675867807E+03  0.65864270000E+03 0.  0.
    8880022    1    1    2    0    0  0.14066569785E+03  0.19696865690E+02 -0.29189385114E+03  0.35884325049E+03  0.15294330000E+03 0.  1.
<mgrwt>
<rscale>  0 0.50267189E+03</rscale>
<asrwt>0</asrwt>
<pdfrwt beam="1">  1        2 0.11176200E+00 0.67378410E+03</pdfrwt>
<pdfrwt beam="2">  1       -2 0.75253682E-01 0.67378410E+03</pdfrwt>
<totfact> 0.63091864E+01</totfact>
</mgrwt>
</event>
<event>
 4    5  0.6615028E-008  0.8381408E+03  0.7818608E-02  0.9633696E-01
          2   -1    0    0  501    0  0.00000000000E+00  0.00000000000E+00  0.40108379235E+04  0.40108379235E+04  0.25500000000E-02 0. -1.
         -2   -1    0    0    0  501 -0.00000000000E+00 -0.00000000000E+00 -0.30070022583E+03  0.30070022584E+03  0.25500000000E-02 0.  1.
    8880023    1    1    2    0    0  0.44852160299E+03  0.25980399672E+03  0.36756654284E+04  0.37700127709E+04  0.65864270000E+03 0. -1.
    8880022    1    1    2    0    0 -0.44852160299E+03 -0.25980399672E+03  0.34472269218E+02  0.54152537837E+03  0.15294330000E+03 0.  0.
<mgrwt>
<rscale>  0 0.75105544E+03</rscale>
<asrwt>0</asrwt>
<pdfrwt beam="1">  1        2 0.61705196E+00 0.83814077E+03</pdfrwt>
<pdfrwt beam="2">  1       -2 0.46261576E-01 0.83814077E+03</pdfrwt>
<totfact> 0.16176009E+00</totfact>
</mgrwt>
</event>
<event>
 4    5  0.6615028E-008  0.1263314E+04  0.7818608E-02  0.9097906E-01
         -2   -1    0    0    0  501 -0.00000000000E+00  0.00000000000E+00  0.40099112334E+03  0.40099112334E+03  0.25500000000E-02 0.  1.
          2   -1    0    0  501    0  0.00000000000E+00 -0.00000000000E+00 -0.35662483207E+04  0.35662483207E+04  0.25500000000E-02 0. -1.
    8880023    1    1    2    0    0  0.34339465381E+03 -0.10218765743E+04 -0.20544263974E+04  0.24117689877E+04  0.65864270000E+03 0.  1.
    8880022    1    1    2    0    0 -0.34339465381E+03  0.10218765743E+04 -0.11108308000E+04  0.15554704564E+04  0.15294330000E+03 0.  0.
<mgrwt>
<rscale>  0 0.12172313E+04</rscale>
<asrwt>0</asrwt>
<pdfrwt beam="1">  1        2 0.54865357E+00 0.12633138E+04</pdfrwt>
<pdfrwt beam="2">  1       -2 0.61690944E-01 0.12633138E+04</pdfrwt>
<totfact> 0.17807279E+00</totfact>
</mgrwt>
</event>
<event>
 4    5  0.6615028E-008  0.1103314E+04  0.7818608E-02  0.9257376E-01
          2   -1    0    0  501    0  0.00000000000E+00  0.00000000000E+00  0.24719925470E+04  0.24719925470E+04  0.25500000000E-02 0. -1.
         -2   -1    0    0    0  501 -0.00000000000E+00 -0.00000000000E+00 -0.50879654891E+03  0.50879654891E+03  0.25500000000E-02 0.  1.
    8880023    1    1    2    0    0 -0.83364636871E+03  0.29753129908E+03  0.17314660514E+04  0.20531137415E+04  0.65864270000E+03 0.  0.
    8880022    1    1    2    0    0  0.83364636871E+03 -0.29753129908E+03  0.23172994665E+03  0.92767535441E+03  0.15294330000E+03 0.  0.
<mgrwt>
<rscale>  0 0.10480345E+04</rscale>
<asrwt>0</asrwt>
<pdfrwt beam="1">  1        2 0.38030654E+00 0.11033138E+04</pdfrwt>
<pdfrwt beam="2">  1       -2 0.78276393E-01 0.11033138E+04</pdfrwt>
<totfact> 0.52298997E+00</totfact>
</mgrwt>
</event>
<event>
 4    5  0.6615028E-008  0.1872713E+04  0.7818608E-02  0.8683346E-01
         -2   -1    0    0    0  501 -0.00000000000E+00  0.00000000000E+00  0.15299350555E+04  0.15299350555E+04  0.25500000000E-02 0.  1.
          2   -1    0    0  501    0  0.00000000000E+00 -0.00000000000E+00 -0.31723316745E+04  0.31723316745E+04  0.25500000000E-02 0. -1.
    8880023    1    1    2    0    0  0.14290728021E+04 -0.10153785314E+04  0.49173385616E+03  0.19361960199E+04  0.65864270000E+03 0.  0.
    8880022    1    1    2    0    0 -0.14290728021E+04  0.10153785314E+04 -0.21341304751E+04  0.27660707102E+04  0.15294330000E+03 0. -1.
<mgrwt>
<rscale>  0 0.18438034E+04</rscale>
<asrwt>0</asrwt>
<pdfrwt beam="1">  1        2 0.48805103E+00 0.18727127E+04</pdfrwt>
<pdfrwt beam="2">  1       -2 0.23537462E+00 0.18727127E+04</pdfrwt>
<totfact> 0.96392714E-02</totfact>
</mgrwt>
</event>
<event>
 4    5  0.6615028E-008  0.1330130E+04  0.7818608E-02  0.9039968E-01
          2   -1    0    0  501    0  0.00000000000E+00  0.00000000000E+00  0.24839853960E+04  0.24839853960E+04  0.25500000000E-02 0. -1.
         -2   -1    0    0    0  501 -0.00000000000E+00 -0.00000000000E+00 -0.12731244809E+04  0.12731244809E+04  0.25500000000E-02 0.  1.
    8880023    1    1    2    0    0  0.53459896982E+03 -0.10245193705E+04  0.19619970223E+04  0.23703751857E+04  0.65864270000E+03 0.  0.
    8880022    1    1    2    0    0 -0.53459896982E+03  0.10245193705E+04 -0.75113610723E+03  0.13867346912E+04  0.15294330000E+03 0.  0.
<mgrwt>
<rscale>  0 0.12869633E+04</rscale>
<asrwt>0</asrwt>
<pdfrwt beam="1">  1        2 0.38215160E+00 0.13301301E+04</pdfrwt>
<pdfrwt beam="2">  1       -2 0.19586531E+00 0.13301301E+04</pdfrwt>
<totfact> 0.48300130E-01</totfact>
</mgrwt>
</event>
<event>
 4    5  0.6615028E-008  0.7648929E+03  0.7818608E-02  0.9792601E-01
         -2   -1    0    0    0  501 -0.00000000000E+00  0.00000000000E+00  0.51879126405E+03  0.51879126406E+03  0.25500000000E-02 0.  1.
          2   -1    0    0  501    0  0.00000000000E+00 -0.00000000000E+00 -0.13160571941E+04  0.13160571941E+04  0.25500000000E-02 0. -1.
    8880023    1    1    2    0    0 -0.32675565791E+03 -0.21090697152E+03 -0.10849697079E+04  0.13274865288E+04  0.65864270000E+03 0. -1.
    8880022    1    1    2    0    0  0.32675565791E+03  0.21090697152E+03  0.28770377787E+03  0.50736192942E+03  0.15294330000E+03 0.  0.
<mgrwt>
<rscale>  0 0.65761133E+03</rscale>
<asrwt>0</asrwt>
<pdfrwt beam="1">  1        2 0.20247034E+00 0.76489294E+03</pdfrwt>
<pdfrwt beam="2">  1       -2 0.79814041E-01 0.76489294E+03</pdfrwt>
<totfact> 0.22908968E+01</totfact>
</mgrwt>
</event>
<event>
 4    5  0.6615028E-008  0.9765375E+03  0.7818608E-02  0.9412919E-01
         -2   -1    0    0    0  501 -0.00000000000E+00  0.00000000000E+00  0.65831130585E+03  0.65831130585E+03  0.25500000000E-02 0.  1.
          2   -1    0    0  501    0  0.00000000000E+00 -0.00000000000E+00 -0.23281207826E+04  0.23281207826E+04  0.25500000000E-02 0. -1.
    8880023    1    1    2    0    0  0.71853140219E+03 -0.59396619139E+02 -0.19635889951E+04  0.21930132882E+04  0.65864270000E+03 0.  0.
    8880022    1    1    2    0    0 -0.71853140219E+03  0.59396619139E+02  0.29377951829E+03  0.79341880030E+03  0.15294330000E+03 0.  0.
<mgrwt>
<rscale>  0 0.91020113E+03</rscale>
<asrwt>0</asrwt>
<pdfrwt beam="1">  1        2 0.35817242E+00 0.97653753E+03</pdfrwt>
<pdfrwt beam="2">  1       -2 0.10127866E+00 0.97653753E+03</pdfrwt>
<totfact> 0.35320508E+00</totfact>
</mgrwt>
</event>
<event>
 4    5  0.6615028E-008  0.9042486E+03  0.7818608E-02  0.9519245E-01
          2   -1    0    0  501    0  0.00000000000E+00  0.00000000000E+00  0.81197345942E+03  0.81197345942E+03  0.25500000000E-02 0. -1.
         -2   -1    0    0    0  501 -0.00000000000E+00 -0.00000000000E+00 -0.25218493760E+04  0.25218493760E+04  0.25500000000E-02 0.  1.
    8880023    1    1    2    0    0  0.60735888392E+03 -0.12235438390E+03  0.50025621741E+03  0.10334030668E+04  0.65864270000E+03 0. -1.
    8880022    1    1    2    0    0 -0.60735888392E+03  0.12235438390E+03 -0.22101321340E+04  0.23004197686E+04  0.15294330000E+03 0.  0.
<mgrwt>
<rscale>  0 0.82879695E+03</rscale>
<asrwt>0</asrwt>
<pdfrwt beam="1">  1        2 0.12491900E+00 0.90424865E+03</pdfrwt>
<pdfrwt beam="2">  1       -2 0.38797682E+00 0.90424865E+03</pdfrwt>
<totfact> 0.31010936E-01</totfact>
</mgrwt>
</event>
<event>
 4    5  0.6615028E-008  0.1076719E+04  0.7818608E-02  0.9287430E-01
          2   -1    0    0  501    0  0.00000000000E+00  0.00000000000E+00  0.19021957531E+04  0.19021957531E+04  0.25500000000E-02 0. -1.
         -2   -1    0    0    0  501 -0.00000000000E+00 -0.00000000000E+00 -0.74564256505E+03  0.74564256505E+03  0.25500000000E-02 0.  1.
    8880023    1    1    2    0    0 -0.56234953780E+02 -0.84991216735E+03  0.13835689993E+04  0.17531646940E+04  0.65864270000E+03 0. -1.
    8880022    1    1    2    0    0  0.56234953780E+02  0.84991216735E+03 -0.22701581122E+03  0.89467362417E+03  0.15294330000E+03 0.  0.
<mgrwt>
<rscale>  0 0.10194831E+04</rscale>
<asrwt>0</asrwt>
<pdfrwt beam="1">  1        2 0.29264550E+00 0.10767188E+04</pdfrwt>
<pdfrwt beam="2">  1       -2 0.11471424E+00 0.10767188E+04</pdfrwt>
<totfact> 0.44439275E+00</totfact>
</mgrwt>
</event>
<event>
 4    5  0.6615028E-008  0.7521582E+03  0.7818608E-02  0.9825849E-01
         -2   -1    0    0    0  501 -0.00000000000E+00  0.00000000000E+00  0.23128851840E+03  0.23128851841E+03  0.25500000000E-02 0.  1.
          2   -1    0    0  501    0  0.00000000000E+00 -0.00000000000E+00 -0.22188249917E+04  0.22188249917E+04  0.25500000000E-02 0. -1.
    8880023    1    1    2    0    0  0.25454128852E+03  0.25911467672E+03 -0.19040882245E+04  0.20472649697E+04  0.65864270000E+03 0. -1.
    8880022    1    1    2    0    0 -0.25454128852E+03 -0.25911467672E+03 -0.83448248789E+02  0.40284854039E+03  0.15294330000E+03 0.  0.
<mgrwt>
<rscale>  0 0.63993589E+03</rscale>
<asrwt>0</asrwt>
<pdfrwt beam="1">  1        2 0.34135768E+00 0.75215815E+03</pdfrwt>
<pdfrwt beam="2">  1       -2 0.35582850E-01 0.75215815E+03</pdfrwt>
<totfact> 0.38722294E+01</totfact>
</mgrwt>
</event>
<event>
 4    5  0.6615028E-008  0.1213026E+04  0.7818608E-02  0.9144563E-01
          2   -1    0    0  501    0  0.00000000000E+00  0.00000000000E+00  0.29887484774E+04  0.29887484774E+04  0.25500000000E-02 0. -1.
         -2   -1    0    0    0  501 -0.00000000000E+00 -0.00000000000E+00 -0.71292209331E+03  0.71292209331E+03  0.25500000000E-02 0.  1.
    8880023    1    1    2    0    0 -0.41014513661E+03 -0.93241824241E+03  0.23750077072E+04  0.26668510696E+04  0.65864270000E+03 0. -1.
    8880022    1    1    2    0    0  0.41014513661E+03  0.93241824241E+03 -0.99181323196E+02  0.10348195010E+04  0.15294330000E+03 0.  0.
<mgrwt>
<rscale>  0 0.11644420E+04</rscale>
<asrwt>0</asrwt>
<pdfrwt beam="1">  1        2 0.45980745E+00 0.12130264E+04</pdfrwt>
<pdfrwt beam="2">  1       -2 0.10968032E+00 0.12130264E+04</pdfrwt>
<totfact> 0.11560884E+00</totfact>
</mgrwt>
</event>
<event>
 4    5  0.6615028E-008  0.7017091E+03  0.7818608E-02  0.9990184E-01
         -2   -1    0    0    0  501 -0.00000000000E+00  0.00000000000E+00  0.60226866098E+03  0.60226866098E+03  0.25500000000E-02 0.  1.
          2   -1    0    0  501    0  0.00000000000E+00 -0.00000000000E+00 -0.61766223848E+03  0.61766223849E+03  0.25500000000E-02 0. -1.
    8880023    1    1    2    0    0  0.16515974315E+03  0.17693996078E+03 -0.34616865549E+03  0.78245027624E+03  0.65864270000E+03 0. -1.
    8880022    1    1    2    0    0 -0.16515974315E+03 -0.17693996078E+03  0.33077507798E+03  0.43748062323E+03  0.15294330000E+03 0.  0.
<mgrwt>
<rscale>  0 0.56082768E+03</rscale>
<asrwt>0</asrwt>
<pdfrwt beam="1">  1        2 0.95024960E-01 0.70170913E+03</pdfrwt>
<pdfrwt beam="2">  1       -2 0.92656717E-01 0.70170913E+03</pdfrwt>
<totfact> 0.48058702E+01</totfact>
</mgrwt>
</event>
<event>
 4    5  0.6615028E-008  0.1902435E+04  0.7818608E-02  0.8667894E-01
          2   -1    0    0  501    0  0.00000000000E+00  0.00000000000E+00  0.31658574486E+04  0.31658574486E+04  0.25500000000E-02 0. -1.
         -2   -1    0    0    0  501 -0.00000000000E+00 -0.00000000000E+00 -0.12555749669E+04  0.12555749669E+04  0.25500000000E-02 0.  1.
    8880023    1    1    2    0    0 -0.12743363918E+04  0.12496064691E+04  0.18122105765E+04  0.26274259165E+04  0.65864270000E+03 0.  0.
    8880022    1    1    2    0    0  0.12743363918E+04 -0.12496064691E+04  0.98071905301E+02  0.17940064990E+04  0.15294330000E+03 0.  0.
<mgrwt>
<rscale>  0 0.18740274E+04</rscale>
<asrwt>0</asrwt>
<pdfrwt beam="1">  1        2 0.48705498E+00 0.19024352E+04</pdfrwt>
<pdfrwt beam="2">  1       -2 0.19316538E+00 0.19024352E+04</pdfrwt>
<totfact> 0.18195345E-01</totfact>
</mgrwt>
</event>
<event>
 4    5  0.6615028E-008  0.7602906E+03  0.7818608E-02  0.9804356E-01
         -2   -1    0    0    0  501 -0.00000000000E+00  0.00000000000E+00  0.18985340036E+03  0.18985340038E+03  0.25500000000E-02 0.  1.
          2   -1    0    0  501    0  0.00000000000E+00 -0.00000000000E+00 -0.31629539220E+04  0.31629539220E+04  0.25500000000E-02 0. -1.
    8880023    1    1    2    0    0  0.36142505570E+02  0.37805453998E+03 -0.28117753305E+04  0.29127516597E+04  0.65864270000E+03 0. -1.
    8880022    1    1    2    0    0 -0.36142505570E+02 -0.37805453998E+03 -0.16132519115E+03  0.44005566264E+03  0.15294330000E+03 0.  0.
<mgrwt>
<rscale>  0 0.65129306E+03</rscale>
<asrwt>0</asrwt>
<pdfrwt beam="1">  1        2 0.48660826E+00 0.76029055E+03</pdfrwt>
<pdfrwt beam="2">  1       -2 0.29208218E-01 0.76029055E+03</pdfrwt>
<totfact> 0.15712154E+01</totfact>
</mgrwt>
</event>
<event>
 4    5  0.6615028E-008  0.6666943E+03  0.7818608E-02  0.1018152E+00
          2   -1    0    0  501    0  0.00000000000E+00  0.00000000000E+00  0.35174706954E+04  0.35174706954E+04  0.25500000000E-02 0. -1.
         -2   -1    0    0    0  501 -0.00000000000E+00 -0.00000000000E+00 -0.17511649193E+03  0.17511649195E+03  0.25500000000E-02 0.  1.
    8880023    1    1    2    0    0 -0.69433913132E+02 -0.76485097631E+02  0.34257777109E+04  0.34900478749E+04  0.65864270000E+03 0. -1.
    8880022    1    1    2    0    0  0.69433913132E+02  0.76485097631E+02 -0.83423507464E+02  0.20253931239E+03  0.15294330000E+03 0.  0.
<mgrwt>
<rscale>  0 0.48359289E+03</rscale>
<asrwt>0</asrwt>
<pdfrwt beam="1">  1        2 0.54114937E+00 0.66669427E+03</pdfrwt>
<pdfrwt beam="2">  1       -2 0.26940997E-01 0.66669427E+03</pdfrwt>
<totfact> 0.10859829E+01</totfact>
</mgrwt>
</event>
<event>
 4    5  0.6615028E-008  0.8309141E+03  0.7818608E-02  0.9647556E-01
          2   -1    0    0  501    0  0.00000000000E+00  0.00000000000E+00  0.87966322917E+03  0.87966322917E+03  0.25500000000E-02 0. -1.
         -2   -1    0    0    0  501 -0.00000000000E+00 -0.00000000000E+00 -0.68027688605E+03  0.68027688606E+03  0.25500000000E-02 0.  1.
    8880023    1    1    2    0    0 -0.13298714089E+03 -0.48879691662E+03  0.48143805853E+03  0.96031287392E+03  0.65864270000E+03 0. -1.
    8880022    1    1    2    0    0  0.13298714089E+03  0.48879691662E+03 -0.28205171542E+03  0.59962724131E+03  0.15294330000E+03 0.  0.
<mgrwt>
<rscale>  0 0.74226978E+03</rscale>
<asrwt>0</asrwt>
<pdfrwt beam="1">  1        2 0.13533280E+00 0.83091408E+03</pdfrwt>
<pdfrwt beam="2">  1       -2 0.10465798E+00 0.83091408E+03</pdfrwt>
<totfact> 0.22597712E+01</totfact>
</mgrwt>
</event>
<event>
 4    5  0.6939153E-008  0.1227054E+04  0.7818608E-02  0.9131262E-01
         -2   -1    0    0    0  501 -0.00000000000E+00  0.00000000000E+00  0.23464015705E+04  0.23464015705E+04  0.25500000000E-02 0.  1.
          2   -1    0    0  501    0  0.00000000000E+00 -0.00000000000E+00 -0.18842628753E+04  0.18842628753E+04  0.25500000000E-02 0. -1.
    8880023    1    1    2    0    0  0.61752157046E+03 -0.83097481322E+03 -0.15414552540E+04  0.19702148453E+04  0.65864270000E+03 0.  0.
    8880022    1    1    2    0    0 -0.61752157046E+03  0.83097481322E+03  0.20035939492E+04  0.22604496005E+04  0.15294330000E+03 0.  0.
<mgrwt>
<rscale>  0 0.11791979E+04</rscale>
<asrwt>0</asrwt>
<pdfrwt beam="1">  1        2 0.28988660E+00 0.12270543E+04</pdfrwt>
<pdfrwt beam="2">  1       -2 0.36098486E+00 0.12270543E+04</pdfrwt>
<totfact> 0.10038324E-01</totfact>
</mgrwt>
</event>
<event>
 4    5  0.6615028E-008  0.1061399E+04  0.7818608E-02  0.9305302E-01
         -2   -1    0    0    0  501 -0.00000000000E+00  0.00000000000E+00  0.33305265862E+03  0.33305265863E+03  0.25500000000E-02 0.  1.
          2   -1    0    0  501    0  0.00000000000E+00 -0.00000000000E+00 -0.41229690431E+04  0.41229690431E+04  0.25500000000E-02 0. -1.
    8880023    1    1    2    0    0  0.67271872905E+03  0.49010952047E+03 -0.33253537417E+04  0.34906368393E+04  0.65864270000E+03 0. -1.
    8880022    1    1    2    0    0 -0.67271872905E+03 -0.49010952047E+03 -0.46456264279E+03  0.96538486240E+03  0.15294330000E+03 0.  0.
<mgrwt>
<rscale>  0 0.10029620E+04</rscale>
<asrwt>0</asrwt>
<pdfrwt beam="1">  1        2 0.63430289E+00 0.10613991E+04</pdfrwt>
<pdfrwt beam="2">  1       -2 0.51238874E-01 0.10613991E+04</pdfrwt>
<totfact> 0.10209804E+00</totfact>
</mgrwt>
</event>
<event>
 4    5  0.6615028E-008  0.7188405E+03  0.7818608E-02  0.9926529E-01
         -2   -1    0    0    0  501 -0.00000000000E+00  0.00000000000E+00  0.48331897393E+03  0.48331897394E+03  0.25500000000E-02 0.  1.
          2   -1    0    0  501    0  0.00000000000E+00 -0.00000000000E+00 -0.14676415514E+04  0.14676415514E+04  0.25500000000E-02 0. -1.
    8880023    1    1    2    0    0 -0.16022553421E+03  0.23926809304E+03 -0.13073753273E+04  0.14919657820E+04  0.65864270000E+03 0. -1.
    8880022    1    1    2    0    0  0.16022553421E+03 -0.23926809304E+03  0.32305274983E+03  0.45899474327E+03  0.15294330000E+03 0.  0.
<mgrwt>
<rscale>  0 0.58992628E+03</rscale>
<asrwt>0</asrwt>
<pdfrwt beam="1">  1        2 0.22579101E+00 0.71884049E+03</pdfrwt>
<pdfrwt beam="2">  1       -2 0.74356766E-01 0.71884049E+03</pdfrwt>
<totfact> 0.22135842E+01</totfact>
</mgrwt>
</event>
<event>
 4    5  0.6615028E-008  0.1212382E+04  0.7818608E-02  0.9145180E-01
          2   -1    0    0  501    0  0.00000000000E+00  0.00000000000E+00  0.12543866600E+04  0.12543866600E+04  0.25500000000E-02 0. -1.
         -2   -1    0    0    0  501 -0.00000000000E+00 -0.00000000000E+00 -0.12324180093E+04  0.12324180093E+04  0.25500000000E-02 0.  1.
    8880023    1    1    2    0    0 -0.75745416942E+03  0.67994255492E+03  0.54846426331E+03  0.13306697378E+04  0.65864270000E+03 0.  0.
    8880022    1    1    2    0    0  0.75745416942E+03 -0.67994255492E+03 -0.52649561256E+03  0.11561349315E+04  0.15294330000E+03 0.  0.
<mgrwt>
<rscale>  0 0.11637630E+04</rscale>
<asrwt>0</asrwt>
<pdfrwt beam="1">  1        2 0.19298256E+00 0.12123815E+04</pdfrwt>
<pdfrwt beam="2">  1       -2 0.18960277E+00 0.12123815E+04</pdfrwt>
<totfact> 0.26590481E+00</totfact>
</mgrwt>
</event>
<event>
 4    5  0.6615028E-008  0.8281758E+03  0.7818608E-02  0.9652892E-01
         -2   -1    0    0    0  501 -0.00000000000E+00  0.00000000000E+00  0.64620303498E+03  0.64620303499E+03  0.25500000000E-02 0.  1.
          2   -1    0    0  501    0  0.00000000000E+00 -0.00000000000E+00 -0.25584286895E+04  0.25584286895E+04  0.25500000000E-02 0. -1.
    8880023    1    1    2    0    0  0.42404230049E+03  0.26879921813E+03 -0.23685440874E+04  0.25091584630E+04  0.65864270000E+03 0. -1.
    8880022    1    1    2    0    0 -0.42404230049E+03 -0.26879921813E+03  0.45631843286E+03  0.69547326150E+03  0.15294330000E+03 0.  0.
<mgrwt>
<rscale>  0 0.73892188E+03</rscale>
<asrwt>0</asrwt>
<pdfrwt beam="1">  1        2 0.39360441E+00 0.82817577E+03</pdfrwt>
<pdfrwt beam="2">  1       -2 0.99415853E-01 0.82817577E+03</pdfrwt>
<totfact> 0.27965225E+00</totfact>
</mgrwt>
</event>
<event>
 4    5  0.6615028E-008  0.1497172E+04  0.7818608E-02  0.8911636E-01
         -2   -1    0    0    0  501 -0.00000000000E+00  0.00000000000E+00  0.11696711054E+04  0.11696711054E+04  0.25500000000E-02 0.  1.
          2   -1    0    0  501    0  0.00000000000E+00 -0.00000000000E+00 -0.27472714727E+04  0.27472714727E+04  0.25500000000E-02 0. -1.
    8880023    1    1    2    0    0  0.67927810646E+03 -0.11602990815E+04 -0.20009656315E+04  0.24990771034E+04  0.65864270000E+03 0. -1.
    8880022    1    1    2    0    0 -0.67927810646E+03  0.11602990815E+04  0.42336526412E+03  0.14178654747E+04  0.15294330000E+03 0.  0.
<mgrwt>
<rscale>  0 0.14597982E+04</rscale>
<asrwt>0</asrwt>
<pdfrwt beam="1">  1        2 0.42265715E+00 0.14971716E+04</pdfrwt>
<pdfrwt beam="2">  1       -2 0.17994940E+00 0.14971716E+04</pdfrwt>
<totfact> 0.42567008E-01</totfact>
</mgrwt>
</event>
<event>
 4    5  0.6615028E-008  0.6797995E+03  0.7818608E-02  0.1009437E+00
         -2   -1    0    0    0  501 -0.00000000000E+00  0.00000000000E+00  0.40245486374E+03  0.40245486374E+03  0.25500000000E-02 0.  1.
          2   -1    0    0  501    0  0.00000000000E+00 -0.00000000000E+00 -0.10863439417E+04  0.10863439417E+04  0.25500000000E-02 0. -1.
    8880023    1    1    2    0    0  0.56455654126E+02 -0.15852424401E+03 -0.93113489346E+03  0.11528831567E+04  0.65864270000E+03 0. -1.
    8880022    1    1    2    0    0 -0.56455654126E+02  0.15852424401E+03  0.24724581548E+03  0.33591564880E+03  0.15294330000E+03 0.  0.
<mgrwt>
<rscale>  0 0.51698891E+03</rscale>
<asrwt>0</asrwt>
<pdfrwt beam="1">  1        2 0.16712984E+00 0.67979952E+03</pdfrwt>
<pdfrwt beam="2">  1       -2 0.61916133E-01 0.67979952E+03</pdfrwt>
<totfact> 0.55047574E+01</totfact>
</mgrwt>
</event>
<event>
 4    5  0.6615028E-008  0.1075701E+04  0.7818608E-02  0.9288605E-01
         -2   -1    0    0    0  501 -0.00000000000E+00  0.00000000000E+00  0.10240401805E+04  0.10240401805E+04  0.25500000000E-02 0.  1.
          2   -1    0    0  501    0  0.00000000000E+00 -0.00000000000E+00 -0.14914080453E+04  0.14914080453E+04  0.25500000000E-02 0. -1.
    8880023    1    1    2    0    0 -0.38089472806E+03  0.76042195312E+03 -0.10259460793E+04  0.14865052656E+04  0.65864270000E+03 0. -1.
    8880022    1    1    2    0    0  0.38089472806E+03 -0.76042195312E+03  0.55857821455E+03  0.10289429602E+04  0.15294330000E+03 0.  0.
<mgrwt>
<rscale>  0 0.10183872E+04</rscale>
<asrwt>0</asrwt>
<pdfrwt beam="1">  1        2 0.22944739E+00 0.10757010E+04</pdfrwt>
<pdfrwt beam="2">  1       -2 0.15754464E+00 0.10757010E+04</pdfrwt>
<totfact> 0.33183960E+00</totfact>
</mgrwt>
</event>
<event>
 4    5  0.6615028E-008  0.2902783E+04  0.7818608E-02  0.8277438E-01
         -2   -1    0    0    0  501 -0.00000000000E+00  0.00000000000E+00  0.43315578836E+04  0.43315578836E+04  0.25500000000E-02 0.  1.
          2   -1    0    0  501    0  0.00000000000E+00 -0.00000000000E+00 -0.22447873268E+04  0.22447873268E+04  0.25500000000E-02 0. -1.
    8880023    1    1    2    0    0 -0.28149777269E+04  0.26122786861E+03  0.23474192798E+04  0.37331658259E+04  0.65864270000E+03 0.  0.
    8880022    1    1    2    0    0  0.28149777269E+04 -0.26122786861E+03 -0.26064872302E+03  0.28431793845E+04  0.15294330000E+03 0.  0.
<mgrwt>
<rscale>  0 0.28847211E+04</rscale>
<asrwt>0</asrwt>
<pdfrwt beam="1">  1        2 0.34535190E+00 0.29027831E+04</pdfrwt>
<pdfrwt beam="2">  1       -2 0.66639351E+00 0.29027831E+04</pdfrwt>
<totfact> 0.11428789E-03</totfact>
</mgrwt>
</event>
<event>
 4    5  0.6615028E-008  0.1920976E+04  0.7818608E-02  0.8658413E-01
         -2   -1    0    0    0  501 -0.00000000000E+00  0.00000000000E+00  0.13899616187E+04  0.13899616187E+04  0.25500000000E-02 0.  1.
          2   -1    0    0  501    0  0.00000000000E+00 -0.00000000000E+00 -0.26006612538E+04  0.26006612538E+04  0.25500000000E-02 0. -1.
    8880023    1    1    2    0    0  0.44771961412E+03  0.17481091731E+04 -0.10049639083E+04  0.21679716781E+04  0.65864270000E+03 0. -1.
    8880022    1    1    2    0    0 -0.44771961412E+03 -0.17481091731E+04 -0.20573572682E+03  0.18226511943E+04  0.15294330000E+03 0.  1.
<mgrwt>
<rscale>  0 0.18928719E+04</rscale>
<asrwt>0</asrwt>
<pdfrwt beam="1">  1        2 0.40010173E+00 0.19209760E+04</pdfrwt>
<pdfrwt beam="2">  1       -2 0.21384025E+00 0.19209760E+04</pdfrwt>
<totfact> 0.29592129E-01</totfact>
</mgrwt>
</event>
<event>
 4    5  0.6615028E-008  0.8313670E+03  0.7818608E-02  0.9646678E-01
         -2   -1    0    0    0  501 -0.00000000000E+00  0.00000000000E+00  0.21546778687E+04  0.21546778687E+04  0.25500000000E-02 0.  1.
          2   -1    0    0  501    0  0.00000000000E+00 -0.00000000000E+00 -0.72209831620E+03  0.72209831620E+03  0.25500000000E-02 0. -1.
    8880023    1    1    2    0    0 -0.29103435448E+03  0.41552368455E+03 -0.43302926542E+03  0.93738224801E+03  0.65864270000E+03 0. -1.
    8880022    1    1    2    0    0  0.29103435448E+03 -0.41552368455E+03  0.18656088179E+04  0.19393939369E+04  0.15294330000E+03 0.  0.
<mgrwt>
<rscale>  0 0.74282253E+03</rscale>
<asrwt>0</asrwt>
<pdfrwt beam="1">  1        2 0.11109205E+00 0.83136703E+03</pdfrwt>
<pdfrwt beam="2">  1       -2 0.33148890E+00 0.83136703E+03</pdfrwt>
<totfact> 0.82924853E-01</totfact>
</mgrwt>
</event>
<event>
 4    5  0.6615028E-008  0.1294559E+04  0.7818608E-02  0.9070273E-01
          2   -1    0    0  501    0  0.00000000000E+00  0.00000000000E+00  0.40302784643E+04  0.40302784643E+04  0.25500000000E-02 0. -1.
         -2   -1    0    0    0  501 -0.00000000000E+00 -0.00000000000E+00 -0.10296097531E+04  0.10296097531E+04  0.25500000000E-02 0.  1.
    8880023    1    1    2    0    0  0.37146306604E+03  0.10507562969E+04  0.35711657378E+04  0.37985666425E+04  0.65864270000E+03 0.  0.
    8880022    1    1    2    0    0 -0.37146306604E+03 -0.10507562969E+04 -0.57049702654E+03  0.12613215748E+04  0.15294330000E+03 0.  0.
<mgrwt>
<rscale>  0 0.12498927E+04</rscale>
<asrwt>0</asrwt>
<pdfrwt beam="1">  1        2 0.62004284E+00 0.12945593E+04</pdfrwt>
<pdfrwt beam="2">  1       -2 0.15840150E+00 0.12945593E+04</pdfrwt>
<totfact> 0.82966550E-02</totfact>
</mgrwt>
</event>
<event>
 4    5  0.6615028E-008  0.7088762E+03  0.7818608E-02  0.9962198E-01
         -2   -1    0    0    0  501 -0.00000000000E+00  0.00000000000E+00  0.37425728550E+03  0.37425728551E+03  0.25500000000E-02 0.  1.
          2   -1    0    0  501    0  0.00000000000E+00 -0.00000000000E+00 -0.10796019532E+04  0.10796019532E+04  0.25500000000E-02 0. -1.
    8880023    1    1    2    0    0  0.10568600499E+02  0.26188470864E+03 -0.85899210972E+03  0.11137203180E+04  0.65864270000E+03 0.  0.
    8880022    1    1    2    0    0 -0.10568600499E+02 -0.26188470864E+03  0.15364744200E+03  0.34013892072E+03  0.15294330000E+03 0.  0.
<mgrwt>
<rscale>  0 0.57339324E+03</rscale>
<asrwt>0</asrwt>
<pdfrwt beam="1">  1        2 0.16609261E+00 0.70887622E+03</pdfrwt>
<pdfrwt beam="2">  1       -2 0.57578044E-01 0.70887622E+03</pdfrwt>
<totfact> 0.64591409E+01</totfact>
</mgrwt>
</event>
<event>
 4    5  0.1871873E-007  0.1888983E+04  0.7818608E-02  0.8674848E-01
          2   -1    0    0  501    0  0.00000000000E+00  0.00000000000E+00  0.24338936685E+04  0.24338936685E+04  0.25500000000E-02 0. -1.
         -2   -1    0    0    0  501 -0.00000000000E+00 -0.00000000000E+00 -0.29685751768E+04  0.29685751768E+04  0.25500000000E-02 0.  1.
    8880023    1    1    2    0    0  0.12298602624E+04 -0.12735344977E+04  0.17041664238E+04  0.25440990130E+04  0.65864270000E+03 0. -1.
    8880022    1    1    2    0    0 -0.12298602624E+04  0.12735344977E+04 -0.22388479322E+04  0.28583698323E+04  0.15294330000E+03 0.  0.
<mgrwt>
<rscale>  0 0.18603504E+04</rscale>
<asrwt>0</asrwt>
<pdfrwt beam="1">  1        2 0.37444518E+00 0.18889830E+04</pdfrwt>
<pdfrwt beam="2">  1       -2 0.45670387E+00 0.18889830E+04</pdfrwt>
<totfact> 0.10595068E-02</totfact>
</mgrwt>
</event>
<event>
 4    5  0.6615028E-008  0.1036242E+04  0.7818608E-02  0.9335606E-01
          2   -1    0    0  501    0  0.00000000000E+00  0.00000000000E+00  0.12188109502E+04  0.12188109502E+04  0.25500000000E-02 0. -1.
         -2   -1    0    0    0  501 -0.00000000000E+00 -0.00000000000E+00 -0.99992079260E+03  0.99992079261E+03  0.25500000000E-02 0.  1.
    8880023    1    1    2    0    0 -0.62992103489E+03 -0.49314003717E+03  0.72056498935E+03  0.12621456796E+04  0.65864270000E+03 0. -1.
    8880022    1    1    2    0    0  0.62992103489E+03  0.49314003717E+03 -0.50167483175E+03  0.95658606319E+03  0.15294330000E+03 0.  0.
<mgrwt>
<rscale>  0 0.97569972E+03</rscale>
<asrwt>0</asrwt>
<pdfrwt beam="1">  1        2 0.18750938E+00 0.10362422E+04</pdfrwt>
<pdfrwt beam="2">  1       -2 0.15383397E+00 0.10362422E+04</pdfrwt>
<totfact> 0.51065727E+00</totfact>
</mgrwt>
</event>
<event>
 4    5  0.6615028E-008  0.7000460E+03  0.7818608E-02  0.9997011E-01
          2   -1    0    0  501    0  0.00000000000E+00  0.00000000000E+00  0.90091251953E+03  0.90091251953E+03  0.25500000000E-02 0. -1.
         -2   -1    0    0    0  501 -0.00000000000E+00 -0.00000000000E+00 -0.38911882313E+03  0.38911882313E+03  0.25500000000E-02 0.  1.
    8880023    1    1    2    0    0  0.12591577014E+01  0.23717623928E+03  0.66787180150E+03  0.96753144831E+03  0.65864270000E+03 0. -1.
    8880022    1    1    2    0    0 -0.12591577014E+01 -0.23717623928E+03 -0.15607810510E+03  0.32249989436E+03  0.15294330000E+03 0.  0.
<mgrwt>
<rscale>  0 0.55781512E+03</rscale>
<asrwt>0</asrwt>
<pdfrwt beam="1">  1        2 0.13860192E+00 0.70004597E+03</pdfrwt>
<pdfrwt beam="2">  1       -2 0.59864435E-01 0.70004597E+03</pdfrwt>
<totfact> 0.77536567E+01</totfact>
</mgrwt>
</event>
<event>
 4    5  0.6615028E-008  0.1127986E+04  0.7818608E-02  0.9230519E-01
          2   -1    0    0  501    0  0.00000000000E+00  0.00000000000E+00  0.10246243224E+04  0.10246243224E+04  0.25500000000E-02 0. -1.
         -2   -1    0    0    0  501 -0.00000000000E+00 -0.00000000000E+00 -0.11271281026E+04  0.11271281026E+04  0.25500000000E-02 0.  1.
    8880023    1    1    2    0    0 -0.22292284379E+03 -0.88817099007E+03  0.25576450712E+03  0.11566192075E+04  0.65864270000E+03 0.  0.
    8880022    1    1    2    0    0  0.22292284379E+03  0.88817099007E+03 -0.35826828727E+03  0.99513321750E+03  0.15294330000E+03 0.  0.
<mgrwt>
<rscale>  0 0.10743902E+04</rscale>
<asrwt>0</asrwt>
<pdfrwt beam="1">  1        2 0.15763451E+00 0.11279860E+04</pdfrwt>
<pdfrwt beam="2">  1       -2 0.17340432E+00 0.11279860E+04</pdfrwt>
<totfact> 0.47953514E+00</totfact>
</mgrwt>
</event>
<event>
 4    5  0.6615028E-008  0.1018379E+04  0.7818608E-02  0.9357898E-01
         -2   -1    0    0    0  501 -0.00000000000E+00  0.00000000000E+00  0.66955123172E+03  0.66955123172E+03  0.25500000000E-02 0.  1.
          2   -1    0    0  501    0  0.00000000000E+00 -0.00000000000E+00 -0.20345108824E+04  0.20345108824E+04  0.25500000000E-02 0. -1.
    8880023    1    1    2    0    0 -0.95199216359E+02 -0.77085808116E+03 -0.15836075000E+04  0.18827926047E+04  0.65864270000E+03 0. -1.
    8880022    1    1    2    0    0  0.95199216359E+02  0.77085808116E+03  0.21864784929E+03  0.82126950942E+03  0.15294330000E+03 0.  0.
<mgrwt>
<rscale>  0 0.95623017E+03</rscale>
<asrwt>0</asrwt>
<pdfrwt beam="1">  1        2 0.31300167E+00 0.10183787E+04</pdfrwt>
<pdfrwt beam="2">  1       -2 0.10300788E+00 0.10183787E+04</pdfrwt>
<totfact> 0.49120605E+00</totfact>
</mgrwt>
</event>
<event>
 4    5  0.6615028E-008  0.7353530E+03  0.7818608E-02  0.9873696E-01
          2   -1    0    0  501    0  0.00000000000E+00  0.00000000000E+00  0.58693289054E+03  0.58693289054E+03  0.25500000000E-02 0. -1.
         -2   -1    0    0    0  501 -0.00000000000E+00 -0.00000000000E+00 -0.84710398639E+03  0.84710398639E+03  0.25500000000E-02 0.  1.
    8880023    1    1    2    0    0 -0.56696963185E+02  0.32205472278E+03  0.27787420609E+03  0.78610309169E+03  0.65864270000E+03 0. -1.
    8880022    1    1    2    0    0  0.56696963185E+02 -0.32205472278E+03 -0.53804530194E+03  0.64793378524E+03  0.15294330000E+03 0.  0.
<mgrwt>
<rscale>  0 0.61553187E+03</rscale>
<asrwt>0</asrwt>
<pdfrwt beam="1">  1        2 0.90297367E-01 0.73535297E+03</pdfrwt>
<pdfrwt beam="2">  1       -2 0.13032369E+00 0.73535297E+03</pdfrwt>
<totfact> 0.22300959E+01</totfact>
</mgrwt>
</event>
<event>
 4    5  0.6615028E-008  0.1145220E+04  0.7818608E-02  0.9212305E-01
         -2   -1    0    0    0  501 -0.00000000000E+00  0.00000000000E+00  0.56908148761E+03  0.56908148762E+03  0.25500000000E-02 0.  1.
          2   -1    0    0  501    0  0.00000000000E+00 -0.00000000000E+00 -0.29886464803E+04  0.29886464803E+04  0.25500000000E-02 0. -1.
    8880023    1    1    2    0    0  0.79016174581E+03 -0.50335104665E+03 -0.23399014881E+04  0.26051232295E+04  0.65864270000E+03 0.  0.
    8880022    1    1    2    0    0 -0.79016174581E+03  0.50335104665E+03 -0.79663504622E+02  0.95260473843E+03  0.15294330000E+03 0.  0.
<mgrwt>
<rscale>  0 0.10927323E+04</rscale>
<asrwt>0</asrwt>
<pdfrwt beam="1">  1        2 0.45979176E+00 0.11452197E+04</pdfrwt>
<pdfrwt beam="2">  1       -2 0.87551000E-01 0.11452197E+04</pdfrwt>
<totfact> 0.19917248E+00</totfact>
</mgrwt>
</event>
<event>
 4    5  0.6615028E-008  0.1091889E+04  0.7818608E-02  0.9270141E-01
         -2   -1    0    0    0  501 -0.00000000000E+00  0.00000000000E+00  0.20398220129E+04  0.20398220129E+04  0.25500000000E-02 0.  1.
          2   -1    0    0  501    0  0.00000000000E+00 -0.00000000000E+00 -0.65873653869E+03  0.65873653869E+03  0.25500000000E-02 0. -1.
    8880023    1    1    2    0    0  0.85018695060E+03  0.18866237187E+03  0.40499011518E+02  0.10926397932E+04  0.65864270000E+03 0.  0.
    8880022    1    1    2    0    0 -0.85018695060E+03 -0.18866237187E+03  0.13405864626E+04  0.16059187583E+04  0.15294330000E+03 0.  0.
<mgrwt>
<rscale>  0 0.10357884E+04</rscale>
<asrwt>0</asrwt>
<pdfrwt beam="1">  1        2 0.10134409E+00 0.10918890E+04</pdfrwt>
<pdfrwt beam="2">  1       -2 0.31381876E+00 0.10918890E+04</pdfrwt>
<totfact> 0.11517125E+00</totfact>
</mgrwt>
</event>
<event>
 4    5  0.6615028E-008  0.1507257E+04  0.7818608E-02  0.8904529E-01
         -2   -1    0    0    0  501 -0.00000000000E+00  0.00000000000E+00  0.14166214073E+04  0.14166214073E+04  0.25500000000E-02 0.  1.
          2   -1    0    0  501    0  0.00000000000E+00 -0.00000000000E+00 -0.16550437948E+04  0.16550437948E+04  0.25500000000E-02 0. -1.
    8880023    1    1    2    0    0  0.13384275471E+04 -0.21592556375E+03 -0.65749447715E+03  0.16444212786E+04  0.65864270000E+03 0.  0.
    8880022    1    1    2    0    0 -0.13384275471E+04  0.21592556375E+03  0.41907208958E+03  0.14272439235E+04  0.15294330000E+03 0.  0.
<mgrwt>
<rscale>  0 0.14701798E+04</rscale>
<asrwt>0</asrwt>
<pdfrwt beam="1">  1        2 0.25462212E+00 0.15072566E+04</pdfrwt>
<pdfrwt beam="2">  1       -2 0.21794176E+00 0.15072566E+04</pdfrwt>
<totfact> 0.99404269E-01</totfact>
</mgrwt>
</event>
<event>
 4    5  0.6615028E-008  0.6998342E+03  0.7818608E-02  0.9997890E-01
          2   -1    0    0  501    0  0.00000000000E+00  0.00000000000E+00  0.38503695975E+04  0.38503695975E+04  0.25500000000E-02 0. -1.
         -2   -1    0    0    0  501 -0.00000000000E+00 -0.00000000000E+00 -0.14264331072E+03  0.14264331074E+03  0.25500000000E-02 0.  1.
    8880023    1    1    2    0    0  0.54213420682E+02 -0.23025755280E+03  0.36354513868E+04  0.37021986208E+04  0.65864270000E+03 0. -1.
    8880022    1    1    2    0    0 -0.54213420682E+02  0.23025755280E+03  0.72274899953E+02  0.29081428745E+03  0.15294330000E+03 0.  0.
<mgrwt>
<rscale>  0 0.55742858E+03</rscale>
<asrwt>0</asrwt>
<pdfrwt beam="1">  1        2 0.59236462E+00 0.69983415E+03</pdfrwt>
<pdfrwt beam="2">  1       -2 0.21945122E-01 0.69983415E+03</pdfrwt>
<totfact> 0.90036675E+00</totfact>
</mgrwt>
</event>
<event>
 4    5  0.6615028E-008  0.7094143E+03  0.7818608E-02  0.9960182E-01
          2   -1    0    0  501    0  0.00000000000E+00  0.00000000000E+00  0.13985667011E+04  0.13985667011E+04  0.25500000000E-02 0. -1.
         -2   -1    0    0    0  501 -0.00000000000E+00 -0.00000000000E+00 -0.99369331064E+03  0.99369331064E+03  0.25500000000E-02 0.  1.
    8880023    1    1    2    0    0  0.25374282604E+02 -0.26232533215E+03  0.12811857036E+04  0.14644812895E+04  0.65864270000E+03 0. -1.
    8880022    1    1    2    0    0 -0.25374282604E+02  0.26232533215E+03 -0.87631231316E+03  0.92777872217E+03  0.15294330000E+03 0.  0.
<mgrwt>
<rscale>  0 0.57431180E+03</rscale>
<asrwt>0</asrwt>
<pdfrwt beam="1">  1        2 0.21516411E+00 0.70941429E+03</pdfrwt>
<pdfrwt beam="2">  1       -2 0.15287589E+00 0.70941429E+03</pdfrwt>
<totfact> 0.42594079E+00</totfact>
</mgrwt>
</event>
<event>
 4    5  0.6615028E-008  0.1420153E+04  0.7818608E-02  0.8968180E-01
          2   -1    0    0  501    0  0.00000000000E+00  0.00000000000E+00  0.16013944042E+04  0.16013944042E+04  0.25500000000E-02 0. -1.
         -2   -1    0    0    0  501 -0.00000000000E+00 -0.00000000000E+00 -0.21334222784E+04  0.21334222784E+04  0.25500000000E-02 0.  1.
    8880023    1    1    2    0    0 -0.12552867425E+04  0.85318763188E+02 -0.15551005086E+04  0.21059847804E+04  0.65864270000E+03 0.  1.
    8880022    1    1    2    0    0  0.12552867425E+04 -0.85318763188E+02  0.10230726343E+04  0.16288319022E+04  0.15294330000E+03 0.  0.
<mgrwt>
<rscale>  0 0.13803321E+04</rscale>
<asrwt>0</asrwt>
<pdfrwt beam="1">  1        2 0.24636837E+00 0.14201529E+04</pdfrwt>
<pdfrwt beam="2">  1       -2 0.32821881E+00 0.14201529E+04</pdfrwt>
<totfact> 0.22514937E-01</totfact>
</mgrwt>
</event>
<event>
 4    5  0.6615028E-008  0.6837905E+03  0.7818608E-02  0.1007256E+00
          2   -1    0    0  501    0  0.00000000000E+00  0.00000000000E+00  0.76250395739E+03  0.76250395739E+03  0.25500000000E-02 0. -1.
         -2   -1    0    0    0  501 -0.00000000000E+00 -0.00000000000E+00 -0.35248673404E+03  0.35248673405E+03  0.25500000000E-02 0.  1.
    8880023    1    1    2    0    0  0.17860682825E+03 -0.43114546011E+02  0.51285708626E+03  0.85474666444E+03  0.65864270000E+03 0. -1.
    8880022    1    1    2    0    0 -0.17860682825E+03  0.43114546011E+02 -0.10283986291E+03  0.26024402701E+03  0.15294330000E+03 0.  0.
<mgrwt>
<rscale>  0 0.52579954E+03</rscale>
<asrwt>0</asrwt>
<pdfrwt beam="1">  1        2 0.11730830E+00 0.68379052E+03</pdfrwt>
<pdfrwt beam="2">  1       -2 0.54228729E-01 0.68379052E+03</pdfrwt>
<totfact> 0.11936804E+02</totfact>
</mgrwt>
</event>
<event>
 4    5  0.6615028E-008  0.1451485E+04  0.7818608E-02  0.8944676E-01
          2   -1    0    0  501    0  0.00000000000E+00  0.00000000000E+00  0.17648832190E+04  0.17648832190E+04  0.25500000000E-02 0. -1.
         -2   -1    0    0    0  501 -0.00000000000E+00 -0.00000000000E+00 -0.20113129539E+04  0.20113129539E+04  0.25500000000E-02 0.  1.
    8880023    1    1    2    0    0  0.40194094274E+02 -0.12928200309E+04  0.11609191335E+04  0.18586399969E+04  0.65864270000E+03 0.  0.
    8880022    1    1    2    0    0 -0.40194094274E+02  0.12928200309E+04 -0.14073488683E+04  0.19175561759E+04  0.15294330000E+03 0.  0.
<mgrwt>
<rscale>  0 0.14127009E+04</rscale>
<asrwt>0</asrwt>
<pdfrwt beam="1">  1        2 0.27152049E+00 0.14514852E+04</pdfrwt>
<pdfrwt beam="2">  1       -2 0.30943276E+00 0.14514852E+04</pdfrwt>
<totfact> 0.23715115E-01</totfact>
</mgrwt>
</event>
<event>
 4    5  0.6615028E-008  0.9032533E+03  0.7818608E-02  0.9520829E-01
         -2   -1    0    0    0  501 -0.00000000000E+00  0.00000000000E+00  0.62657951597E+03  0.62657951598E+03  0.25500000000E-02 0.  1.
          2   -1    0    0  501    0  0.00000000000E+00 -0.00000000000E+00 -0.19056817473E+04  0.19056817473E+04  0.25500000000E-02 0. -1.
    8880023    1    1    2    0    0 -0.53003238775E+03  0.31799669192E+03 -0.15861830906E+04  0.18253337315E+04  0.65864270000E+03 0. -1.
    8880022    1    1    2    0    0  0.53003238775E+03 -0.31799669192E+03  0.30708085923E+03  0.70692753183E+03  0.15294330000E+03 0.  0.
<mgrwt>
<rscale>  0 0.82765440E+03</rscale>
<asrwt>0</asrwt>
<pdfrwt beam="1">  1        2 0.29318180E+00 0.90325325E+03</pdfrwt>
<pdfrwt beam="2">  1       -2 0.96396850E-01 0.90325325E+03</pdfrwt>
<totfact> 0.68671313E+00</totfact>
</mgrwt>
</event>
<event>
 4    5  0.6615028E-008  0.1436535E+04  0.7818608E-02  0.8955801E-01
         -2   -1    0    0    0  501 -0.00000000000E+00  0.00000000000E+00  0.15366115939E+04  0.15366115939E+04  0.25500000000E-02 0.  1.
          2   -1    0    0  501    0  0.00000000000E+00 -0.00000000000E+00 -0.14007748276E+04  0.14007748277E+04  0.25500000000E-02 0. -1.
    8880023    1    1    2    0    0  0.87295697184E+03  0.93154167987E+03 -0.47615909056E+03  0.15133940207E+04  0.65864270000E+03 0.  0.
    8880022    1    1    2    0    0 -0.87295697184E+03 -0.93154167987E+03  0.61199585682E+03  0.14239924009E+04  0.15294330000E+03 0.  0.
<mgrwt>
<rscale>  0 0.13972639E+04</rscale>
<asrwt>0</asrwt>
<pdfrwt beam="1">  1        2 0.21550382E+00 0.14365354E+04</pdfrwt>
<pdfrwt beam="2">  1       -2 0.23640178E+00 0.14365354E+04</pdfrwt>
<totfact> 0.10679713E+00</totfact>
</mgrwt>
</event>
<event>
 4    5  0.6615028E-008  0.7775176E+03  0.7818608E-02  0.9761701E-01
         -2   -1    0    0    0  501 -0.00000000000E+00  0.00000000000E+00  0.53362389154E+03  0.53362389154E+03  0.25500000000E-02 0.  1.
          2   -1    0    0  501    0  0.00000000000E+00 -0.00000000000E+00 -0.23716201578E+04  0.23716201578E+04  0.25500000000E-02 0. -1.
    8880023    1    1    2    0    0  0.15472888915E+03 -0.38312180797E+03 -0.22010531201E+04  0.23343453885E+04  0.65864270000E+03 0.  0.
    8880022    1    1    2    0    0 -0.15472888915E+03  0.38312180797E+03  0.36305685383E+03  0.57089866089E+03  0.15294330000E+03 0.  0.
<mgrwt>
<rscale>  0 0.67459022E+03</rscale>
<asrwt>0</asrwt>
<pdfrwt beam="1">  1        2 0.36486463E+00 0.77751756E+03</pdfrwt>
<pdfrwt beam="2">  1       -2 0.82095984E-01 0.77751756E+03</pdfrwt>
<totfact> 0.56021393E+00</totfact>
</mgrwt>
</event>
<event>
 4    5  0.6615028E-008  0.9561461E+03  0.7818608E-02  0.9441326E-01
         -2   -1    0    0    0  501 -0.00000000000E+00  0.00000000000E+00  0.44457560534E+03  0.44457560535E+03  0.25500000000E-02 0.  1.
          2   -1    0    0  501    0  0.00000000000E+00 -0.00000000000E+00 -0.20642157225E+04  0.20642157225E+04  0.25500000000E-02 0. -1.
    8880023    1    1    2    0    0 -0.18820584733E+02 -0.69285702038E+03 -0.15147742431E+04  0.17913001643E+04  0.65864270000E+03 0.  0.
    8880022    1    1    2    0    0  0.18820584733E+02  0.69285702038E+03 -0.10486587407E+03  0.71749116347E+03  0.15294330000E+03 0.  0.
<mgrwt>
<rscale>  0 0.88751376E+03</rscale>
<asrwt>0</asrwt>
<pdfrwt beam="1">  1        2 0.31757165E+00 0.95614605E+03</pdfrwt>
<pdfrwt beam="2">  1       -2 0.68396248E-01 0.95614605E+03</pdfrwt>
<totfact> 0.12138292E+01</totfact>
</mgrwt>
</event>
<event>
 4    5  0.6615028E-008  0.1250036E+04  0.7818608E-02  0.9109955E-01
          2   -1    0    0  501    0  0.00000000000E+00  0.00000000000E+00  0.35411771586E+04  0.35411771586E+04  0.25500000000E-02 0. -1.
         -2   -1    0    0    0  501 -0.00000000000E+00 -0.00000000000E+00 -0.11542841214E+04  0.11542841214E+04  0.25500000000E-02 0.  1.
    8880023    1    1    2    0    0  0.10390422692E+04  0.22174469164E+03  0.31430258634E+04  0.33824844907E+04  0.65864270000E+03 0. -1.
    8880022    1    1    2    0    0 -0.10390422692E+04 -0.22174469164E+03 -0.75613282622E+03  0.13129767893E+04  0.15294330000E+03 0.  0.
<mgrwt>
<rscale>  0 0.12033210E+04</rscale>
<asrwt>0</asrwt>
<pdfrwt beam="1">  1        2 0.54479650E+00 0.12500359E+04</pdfrwt>
<pdfrwt beam="2">  1       -2 0.17758217E+00 0.12500359E+04</pdfrwt>
<totfact> 0.14129528E-01</totfact>
</mgrwt>
</event>
<event>
 4    5  0.6615028E-008  0.7429839E+03  0.7818608E-02  0.9851339E-01
          2   -1    0    0  501    0  0.00000000000E+00  0.00000000000E+00  0.41836828807E+04  0.41836828807E+04  0.25500000000E-02 0. -1.
         -2   -1    0    0    0  501 -0.00000000000E+00 -0.00000000000E+00 -0.86917511305E+02  0.86917511342E+02  0.25500000000E-02 0.  1.
    8880023    1    1    2    0    0 -0.16870191703E+03 -0.29959056687E+03  0.33839273210E+04  0.34645330371E+04  0.65864270000E+03 0. -1.
    8880022    1    1    2    0    0  0.16870191703E+03  0.29959056687E+03  0.71283804835E+03  0.80606735498E+03  0.15294330000E+03 0.  0.
<mgrwt>
<rscale>  0 0.62678695E+03</rscale>
<asrwt>0</asrwt>
<pdfrwt beam="1">  1        2 0.64364343E+00 0.74298388E+03</pdfrwt>
<pdfrwt beam="2">  1       -2 0.13371927E-01 0.74298388E+03</pdfrwt>
<totfact> 0.11365877E+01</totfact>
</mgrwt>
</event>
<event>
 4    5  0.6615028E-008  0.7178757E+03  0.7818608E-02  0.9929840E-01
         -2   -1    0    0    0  501 -0.00000000000E+00  0.00000000000E+00  0.44741572616E+03  0.44741572617E+03  0.25500000000E-02 0.  1.
          2   -1    0    0  501    0  0.00000000000E+00 -0.00000000000E+00 -0.12438459203E+04  0.12438459203E+04  0.25500000000E-02 0. -1.
    8880023    1    1    2    0    0 -0.14491785097E+03  0.24603690899E+03 -0.10554930703E+04  0.12764839097E+04  0.65864270000E+03 0. -1.
    8880022    1    1    2    0    0  0.14491785097E+03 -0.24603690899E+03  0.25906287612E+03  0.41477773676E+03  0.15294330000E+03 0.  0.
<mgrwt>
<rscale>  0 0.58836639E+03</rscale>
<asrwt>0</asrwt>
<pdfrwt beam="1">  1        2 0.19136091E+00 0.71787572E+03</pdfrwt>
<pdfrwt beam="2">  1       -2 0.68833189E-01 0.71787572E+03</pdfrwt>
<totfact> 0.35168545E+01</totfact>
</mgrwt>
</event>
<event>
 4    5  0.6615028E-008  0.8067282E+03  0.7818608E-02  0.9696433E-01
          2   -1    0    0  501    0  0.00000000000E+00  0.00000000000E+00  0.24107817583E+04  0.24107817583E+04  0.25500000000E-02 0. -1.
         -2   -1    0    0    0  501 -0.00000000000E+00 -0.00000000000E+00 -0.31597567166E+03  0.31597567167E+03  0.25500000000E-02 0.  1.
    8880023    1    1    2    0    0  0.30921852465E+02  0.46480540033E+03  0.20858024302E+04  0.22363770266E+04  0.65864270000E+03 0. -1.
    8880022    1    1    2    0    0 -0.30921852465E+02 -0.46480540033E+03  0.90036564408E+01  0.49038040334E+03  0.15294330000E+03 0.  1.
<mgrwt>
<rscale>  0 0.71229585E+03</rscale>
<asrwt>0</asrwt>
<pdfrwt beam="1">  1        2 0.37088949E+00 0.80672822E+03</pdfrwt>
<pdfrwt beam="2">  1       -2 0.48611643E-01 0.80672822E+03</pdfrwt>
<totfact> 0.16268358E+01</totfact>
</mgrwt>
</event>
<event>
 4    5  0.6615028E-008  0.1304307E+04  0.7818608E-02  0.9061850E-01
          2   -1    0    0  501    0  0.00000000000E+00  0.00000000000E+00  0.48223180774E+04  0.48223180774E+04  0.25500000000E-02 0. -1.
         -2   -1    0    0    0  501 -0.00000000000E+00 -0.00000000000E+00 -0.37068448902E+03  0.37068448903E+03  0.25500000000E-02 0.  1.
    8880023    1    1    2    0    0  0.10903257676E+04 -0.28034835791E+03  0.34127314183E+04  0.36534848325E+04  0.65864270000E+03 0.  0.
    8880022    1    1    2    0    0 -0.10903257676E+04  0.28034835791E+03  0.10389021700E+04  0.15395177339E+04  0.15294330000E+03 0.  0.
<mgrwt>
<rscale>  0 0.12600623E+04</rscale>
<asrwt>0</asrwt>
<pdfrwt beam="1">  1        2 0.74189505E+00 0.13043066E+04</pdfrwt>
<pdfrwt beam="2">  1       -2 0.57028386E-01 0.13043066E+04</pdfrwt>
<totfact> 0.16678782E-01</totfact>
</mgrwt>
</event>
<event>
 4    5  0.6615028E-008  0.7210693E+03  0.7818608E-02  0.9918984E-01
         -2   -1    0    0    0  501 -0.00000000000E+00  0.00000000000E+00  0.84324624920E+03  0.84324624920E+03  0.25500000000E-02 0.  1.
          2   -1    0    0  501    0  0.00000000000E+00 -0.00000000000E+00 -0.74901114182E+03  0.74901114182E+03  0.25500000000E-02 0. -1.
    8880023    1    1    2    0    0 -0.29340233608E+03 -0.67693885297E+01 -0.52376923890E+03  0.89122117194E+03  0.65864270000E+03 0.  0.
    8880022    1    1    2    0    0  0.29340233608E+03  0.67693885297E+01  0.61800434627E+03  0.70103621908E+03  0.15294330000E+03 0.  0.
<mgrwt>
<rscale>  0 0.59349988E+03</rscale>
<asrwt>0</asrwt>
<pdfrwt beam="1">  1        2 0.11523248E+00 0.72106932E+03</pdfrwt>
<pdfrwt beam="2">  1       -2 0.12973019E+00 0.72106932E+03</pdfrwt>
<totfact> 0.16687807E+01</totfact>
</mgrwt>
</event>
<event>
 4    5  0.6615028E-008  0.8457923E+03  0.7818608E-02  0.9619354E-01
          2   -1    0    0  501    0  0.00000000000E+00  0.00000000000E+00  0.43552417764E+04  0.43552417764E+04  0.25500000000E-02 0. -1.
         -2   -1    0    0    0  501 -0.00000000000E+00 -0.00000000000E+00 -0.37265355959E+03  0.37265355960E+03  0.25500000000E-02 0.  1.
    8880023    1    1    2    0    0 -0.48372091757E+03 -0.21810182170E+03  0.40803513544E+04  0.41670891174E+04  0.65864270000E+03 0. -1.
    8880022    1    1    2    0    0  0.48372091757E+03  0.21810182170E+03 -0.97763137597E+02  0.56080621860E+03  0.15294330000E+03 0.  0.
<mgrwt>
<rscale>  0 0.76028363E+03</rscale>
<asrwt>0</asrwt>
<pdfrwt beam="1">  1        2 0.67003718E+00 0.84579225E+03</pdfrwt>
<pdfrwt beam="2">  1       -2 0.57331318E-01 0.84579225E+03</pdfrwt>
<totfact> 0.53255260E-01</totfact>
</mgrwt>
</event>
<event>
 4    5  0.6615028E-008  0.7266922E+03  0.7818608E-02  0.9900560E-01
         -2   -1    0    0    0  501 -0.00000000000E+00  0.00000000000E+00  0.40478611058E+03  0.40478611058E+03  0.25500000000E-02 0.  1.
          2   -1    0    0  501    0  0.00000000000E+00 -0.00000000000E+00 -0.11341128738E+04  0.11341128738E+04  0.25500000000E-02 0. -1.
    8880023    1    1    2    0    0 -0.18284639671E+03  0.24665465094E+03 -0.89918968419E+03  0.11561243947E+04  0.65864270000E+03 0.  0.
    8880022    1    1    2    0    0  0.18284639671E+03 -0.24665465094E+03  0.16986292092E+03  0.38277458972E+03  0.15294330000E+03 0.  1.
<mgrwt>
<rscale>  0 0.60234158E+03</rscale>
<asrwt>0</asrwt>
<pdfrwt beam="1">  1        2 0.17447890E+00 0.72669218E+03</pdfrwt>
<pdfrwt beam="2">  1       -2 0.62274787E-01 0.72669218E+03</pdfrwt>
<totfact> 0.50627840E+01</totfact>
</mgrwt>
</event>
<event>
 4    5  0.6615028E-008  0.7173170E+03  0.7818608E-02  0.9931771E-01
         -2   -1    0    0    0  501 -0.00000000000E+00  0.00000000000E+00  0.41774790906E+03  0.41774790907E+03  0.25500000000E-02 0.  1.
          2   -1    0    0  501    0  0.00000000000E+00 -0.00000000000E+00 -0.76980266831E+03  0.76980266831E+03  0.25500000000E-02 0. -1.
    8880023    1    1    2    0    0  0.22793743521E+03  0.16964076746E+03 -0.45427351707E+03  0.84906307123E+03  0.65864270000E+03 0. -1.
    8880022    1    1    2    0    0 -0.22793743521E+03 -0.16964076746E+03  0.10221875782E+03  0.33848750615E+03  0.15294330000E+03 0.  0.
<mgrwt>
<rscale>  0 0.58745929E+03</rscale>
<asrwt>0</asrwt>
<pdfrwt beam="1">  1        2 0.11843118E+00 0.71731699E+03</pdfrwt>
<pdfrwt beam="2">  1       -2 0.64268909E-01 0.71731699E+03</pdfrwt>
<totfact> 0.82289855E+01</totfact>
</mgrwt>
</event>
<event>
 4    5  0.6615028E-008  0.1089450E+04  0.7818608E-02  0.9272895E-01
          2   -1    0    0  501    0  0.00000000000E+00  0.00000000000E+00  0.11555316869E+04  0.11555316869E+04  0.25500000000E-02 0. -1.
         -2   -1    0    0    0  501 -0.00000000000E+00 -0.00000000000E+00 -0.15260185258E+04  0.15260185258E+04  0.25500000000E-02 0.  1.
    8880023    1    1    2    0    0  0.81392968234E+03  0.30101270120E+03  0.70006346653E+03  0.12949861920E+04  0.65864270000E+03 0.  0.
    8880022    1    1    2    0    0 -0.81392968234E+03 -0.30101270120E+03 -0.10705503054E+04  0.13865640207E+04  0.15294330000E+03 0.  0.
<mgrwt>
<rscale>  0 0.10331699E+04</rscale>
<asrwt>0</asrwt>
<pdfrwt beam="1">  1        2 0.17777411E+00 0.10894496E+04</pdfrwt>
<pdfrwt beam="2">  1       -2 0.23477208E+00 0.10894496E+04</pdfrwt>
<totfact> 0.15828144E+00</totfact>
</mgrwt>
</event>
<event>
 4    5  0.6615028E-008  0.7793584E+03  0.7818608E-02  0.9757346E-01
          2   -1    0    0  501    0  0.00000000000E+00  0.00000000000E+00  0.74437818189E+03  0.74437818189E+03  0.25500000000E-02 0. -1.
         -2   -1    0    0    0  501 -0.00000000000E+00 -0.00000000000E+00 -0.10241559183E+04  0.10241559183E+04  0.25500000000E-02 0.  1.
    8880023    1    1    2    0    0  0.21091609980E+03 -0.35931001710E+03  0.46062053944E+03  0.90530148412E+03  0.65864270000E+03 0. -1.
    8880022    1    1    2    0    0 -0.21091609980E+03  0.35931001710E+03 -0.74039827585E+03  0.86323261606E+03  0.15294330000E+03 0.  0.
<mgrwt>
<rscale>  0 0.67702692E+03</rscale>
<asrwt>0</asrwt>
<pdfrwt beam="1">  1        2 0.11451972E+00 0.77935839E+03</pdfrwt>
<pdfrwt beam="2">  1       -2 0.15756245E+00 0.77935839E+03</pdfrwt>
<totfact> 0.10074281E+01</totfact>
</mgrwt>
</event>
<event>
 4    5  0.6615028E-008  0.9897316E+03  0.7818608E-02  0.9395117E-01
         -2   -1    0    0    0  501 -0.00000000000E+00  0.00000000000E+00  0.67111160694E+03  0.67111160695E+03  0.25500000000E-02 0.  1.
          2   -1    0    0  501    0  0.00000000000E+00 -0.00000000000E+00 -0.26347845384E+04  0.26347845384E+04  0.25500000000E-02 0. -1.
    8880023    1    1    2    0    0 -0.65329209223E+03 -0.34491733986E+03 -0.22817546641E+04  0.24871616519E+04  0.65864270000E+03 0.  0.
    8880022    1    1    2    0    0  0.65329209223E+03  0.34491733986E+03  0.31808173267E+03  0.81873449346E+03  0.15294330000E+03 0.  1.
<mgrwt>
<rscale>  0 0.92478644E+03</rscale>
<asrwt>0</asrwt>
<pdfrwt beam="1">  1        2 0.40535146E+00 0.98973165E+03</pdfrwt>
<pdfrwt beam="2">  1       -2 0.10324794E+00 0.98973165E+03</pdfrwt>
<totfact> 0.22497426E+00</totfact>
</mgrwt>
</event>
<event>
 4    5  0.6615028E-008  0.1313930E+04  0.7818608E-02  0.9053622E-01
         -2   -1    0    0    0  501 -0.00000000000E+00  0.00000000000E+00  0.18433243371E+04  0.18433243372E+04  0.25500000000E-02 0.  1.
          2   -1    0    0  501    0  0.00000000000E+00 -0.00000000000E+00 -0.19987963444E+04  0.19987963444E+04  0.25500000000E-02 0. -1.
    8880023    1    1    2    0    0  0.61562627557E+03  0.95582813608E+03 -0.15528691917E+04  0.20341622526E+04  0.65864270000E+03 0.  0.
    8880022    1    1    2    0    0 -0.61562627557E+03 -0.95582813608E+03  0.13973971845E+04  0.18079584290E+04  0.15294330000E+03 0.  0.
<mgrwt>
<rscale>  0 0.12700946E+04</rscale>
<asrwt>0</asrwt>
<pdfrwt beam="1">  1        2 0.30750713E+00 0.13139305E+04</pdfrwt>
<pdfrwt beam="2">  1       -2 0.28358836E+00 0.13139305E+04</pdfrwt>
<totfact> 0.25719214E-01</totfact>
</mgrwt>
</event>
<event>
 4    5  0.6615028E-008  0.1062327E+04  0.7818608E-02  0.9304208E-01
          2   -1    0    0  501    0  0.00000000000E+00  0.00000000000E+00  0.19253567684E+04  0.19253567684E+04  0.25500000000E-02 0. -1.
         -2   -1    0    0    0  501 -0.00000000000E+00 -0.00000000000E+00 -0.60183391052E+03  0.60183391053E+03  0.25500000000E-02 0.  1.
    8880023    1    1    2    0    0 -0.76005386554E+03 -0.34211951429E+03  0.13992202203E+03  0.10715017588E+04  0.65864270000E+03 0.  0.
    8880022    1    1    2    0    0  0.76005386554E+03  0.34211951429E+03  0.11836008358E+04  0.14556889201E+04  0.15294330000E+03 0.  0.
<mgrwt>
<rscale>  0 0.10039640E+04</rscale>
<asrwt>0</asrwt>
<pdfrwt beam="1">  1        2 0.29620874E+00 0.10623266E+04</pdfrwt>
<pdfrwt beam="2">  1       -2 0.92589830E-01 0.10623266E+04</pdfrwt>
<totfact> 0.72252688E+00</totfact>
</mgrwt>
</event>
<event>
 4    5  0.6615028E-008  0.1339467E+04  0.7818608E-02  0.9032205E-01
          2   -1    0    0  501    0  0.00000000000E+00  0.00000000000E+00  0.46175007076E+04  0.46175007076E+04  0.25500000000E-02 0. -1.
         -2   -1    0    0    0  501 -0.00000000000E+00 -0.00000000000E+00 -0.64399942683E+03  0.64399942684E+03  0.25500000000E-02 0.  1.
    8880023    1    1    2    0    0  0.84896320519E+03  0.79976499767E+03  0.38527917941E+04  0.40789922027E+04  0.65864270000E+03 0.  0.
    8880022    1    1    2    0    0 -0.84896320519E+03 -0.79976499767E+03  0.12070948665E+03  0.11825079317E+04  0.15294330000E+03 0.  0.
<mgrwt>
<rscale>  0 0.12966760E+04</rscale>
<asrwt>0</asrwt>
<pdfrwt beam="1">  1        2 0.71038476E+00 0.13394673E+04</pdfrwt>
<pdfrwt beam="2">  1       -2 0.99076830E-01 0.13394673E+04</pdfrwt>
<totfact> 0.79878568E-02</totfact>
</mgrwt>
</event>
<event>
 4    5  0.6615028E-008  0.1304968E+04  0.7818608E-02  0.9061281E-01
          2   -1    0    0  501    0  0.00000000000E+00  0.00000000000E+00  0.39322709789E+04  0.39322709789E+04  0.25500000000E-02 0. -1.
         -2   -1    0    0    0  501 -0.00000000000E+00 -0.00000000000E+00 -0.50416811827E+03  0.50416811828E+03  0.25500000000E-02 0.  1.
    8880023    1    1    2    0    0  0.84083115877E+03  0.74975661095E+03  0.29056680469E+04  0.31852549378E+04  0.65864270000E+03 0. -1.
    8880022    1    1    2    0    0 -0.84083115877E+03 -0.74975661095E+03  0.52243481368E+03  0.12511841594E+04  0.15294330000E+03 0.  0.
<mgrwt>
<rscale>  0 0.12607523E+04</rscale>
<asrwt>0</asrwt>
<pdfrwt beam="1">  1        2 0.60496476E+00 0.13049683E+04</pdfrwt>
<pdfrwt beam="2">  1       -2 0.77564327E-01 0.13049683E+04</pdfrwt>
<totfact> 0.57392429E-01</totfact>
</mgrwt>
</event>
<event>
 4    5  0.6615028E-008  0.7382234E+03  0.7818608E-02  0.9865153E-01
         -2   -1    0    0    0  501 -0.00000000000E+00  0.00000000000E+00  0.33584181651E+03  0.33584181652E+03  0.25500000000E-02 0.  1.
          2   -1    0    0  501    0  0.00000000000E+00 -0.00000000000E+00 -0.11881311777E+04  0.11881311777E+04  0.25500000000E-02 0. -1.
    8880023    1    1    2    0    0  0.21567250428E+03  0.25426162508E+03 -0.88873895920E+03  0.11553487556E+04  0.65864270000E+03 0. -1.
    8880022    1    1    2    0    0 -0.21567250428E+03 -0.25426162508E+03  0.36449598050E+02  0.36862423863E+03  0.15294330000E+03 0.  1.
<mgrwt>
<rscale>  0 0.61980267E+03</rscale>
<asrwt>0</asrwt>
<pdfrwt beam="1">  1        2 0.18278941E+00 0.73822341E+03</pdfrwt>
<pdfrwt beam="2">  1       -2 0.51667973E-01 0.73822341E+03</pdfrwt>
<totfact> 0.69322370E+01</totfact>
</mgrwt>
</event>
<event>
 4    5  0.6615028E-008  0.7695906E+03  0.7818608E-02  0.9780882E-01
          2   -1    0    0  501    0  0.00000000000E+00  0.00000000000E+00  0.13739617689E+04  0.13739617689E+04  0.25500000000E-02 0. -1.
         -2   -1    0    0    0  501 -0.00000000000E+00 -0.00000000000E+00 -0.27517631302E+03  0.27517631303E+03  0.25500000000E-02 0.  1.
    8880023    1    1    2    0    0 -0.19299907789E+03 -0.34815353982E+03  0.51429303607E+03  0.92561712634E+03  0.65864270000E+03 0.  1.
    8880022    1    1    2    0    0  0.19299907789E+03  0.34815353982E+03  0.58449241982E+03  0.72352095560E+03  0.15294330000E+03 0.  0.
<mgrwt>
<rscale>  0 0.66398665E+03</rscale>
<asrwt>0</asrwt>
<pdfrwt beam="1">  1        2 0.21137874E+00 0.76959063E+03</pdfrwt>
<pdfrwt beam="2">  1       -2 0.42334817E-01 0.76959063E+03</pdfrwt>
<totfact> 0.80493224E+01</totfact>
</mgrwt>
</event>
<event>
 4    5  0.6615028E-008  0.8745685E+03  0.7818608E-02  0.9568156E-01
         -2   -1    0    0    0  501 -0.00000000000E+00  0.00000000000E+00  0.19563096102E+04  0.19563096102E+04  0.25500000000E-02 0.  1.
          2   -1    0    0  501    0  0.00000000000E+00 -0.00000000000E+00 -0.39708103734E+03  0.39708103735E+03  0.25500000000E-02 0. -1.
    8880023    1    1    2    0    0 -0.57324651449E+03  0.49480646179E+02  0.24132878086E+03  0.90725392667E+03  0.65864270000E+03 0.  0.
    8880022    1    1    2    0    0  0.57324651449E+03 -0.49480646179E+02  0.13178997920E+04  0.14461367208E+04  0.15294330000E+03 0.  0.
<mgrwt>
<rscale>  0 0.79440139E+03</rscale>
<asrwt>0</asrwt>
<pdfrwt beam="1">  1        2 0.61089389E-01 0.87456853E+03</pdfrwt>
<pdfrwt beam="2">  1       -2 0.30097071E+00 0.87456853E+03</pdfrwt>
<totfact> 0.25725327E+00</totfact>
</mgrwt>
</event>
<event>
 4    5  0.6615028E-008  0.1022682E+04  0.7818608E-02  0.9352466E-01
         -2   -1    0    0    0  501 -0.00000000000E+00  0.00000000000E+00  0.76769419437E+03  0.76769419437E+03  0.25500000000E-02 0.  1.
          2   -1    0    0  501    0  0.00000000000E+00 -0.00000000000E+00 -0.31452602458E+04  0.31452602458E+04  0.25500000000E-02 0. -1.
    8880023    1    1    2    0    0  0.25296820945E+03 -0.74032175505E+03 -0.28210763862E+04  0.30007251455E+04  0.65864270000E+03 0. -1.
    8880022    1    1    2    0    0 -0.25296820945E+03  0.74032175505E+03  0.44351033474E+03  0.91222929466E+03  0.15294330000E+03 0.  0.
<mgrwt>
<rscale>  0 0.96092990E+03</rscale>
<asrwt>0</asrwt>
<pdfrwt beam="1">  1        2 0.48388618E+00 0.10226825E+04</pdfrwt>
<pdfrwt beam="2">  1       -2 0.11810680E+00 0.10226825E+04</pdfrwt>
<totfact> 0.79132950E-01</totfact>
</mgrwt>
</event>
<event>
 4    5  0.6615028E-008  0.1079897E+04  0.7818608E-02  0.9283775E-01
          2   -1    0    0  501    0  0.00000000000E+00  0.00000000000E+00  0.22173359787E+04  0.22173359787E+04  0.25500000000E-02 0. -1.
         -2   -1    0    0    0  501 -0.00000000000E+00 -0.00000000000E+00 -0.94571494347E+03  0.94571494347E+03  0.25500000000E-02 0.  1.
    8880023    1    1    2    0    0 -0.83319985795E+03  0.19531009588E+03  0.18335336852E+04  0.21279154160E+04  0.65864270000E+03 0.  0.
    8880022    1    1    2    0    0  0.83319985795E+03 -0.19531009588E+03 -0.56191264997E+03  0.10351355061E+04  0.15294330000E+03 0.  0.
<mgrwt>
<rscale>  0 0.10229039E+04</rscale>
<asrwt>0</asrwt>
<pdfrwt beam="1">  1        2 0.34112862E+00 0.10798973E+04</pdfrwt>
<pdfrwt beam="2">  1       -2 0.14549461E+00 0.10798973E+04</pdfrwt>
<totfact> 0.16233175E+00</totfact>
</mgrwt>
</event>
<event>
 4    5  0.6615028E-008  0.1074182E+04  0.7818608E-02  0.9290360E-01
         -2   -1    0    0    0  501 -0.00000000000E+00  0.00000000000E+00  0.10422527992E+04  0.10422527992E+04  0.25500000000E-02 0.  1.
          2   -1    0    0  501    0  0.00000000000E+00 -0.00000000000E+00 -0.95394387202E+03  0.95394387203E+03  0.25500000000E-02 0. -1.
    8880023    1    1    2    0    0  0.42489132151E+03 -0.73452338824E+03  0.28596889029E+03  0.11115959947E+04  0.65864270000E+03 0.  0.
    8880022    1    1    2    0    0 -0.42489132151E+03  0.73452338824E+03 -0.19765996308E+03  0.88460067657E+03  0.15294330000E+03 0.  0.
<mgrwt>
<rscale>  0 0.10167516E+04</rscale>
<asrwt>0</asrwt>
<pdfrwt beam="1">  1        2 0.14676060E+00 0.10741822E+04</pdfrwt>
<pdfrwt beam="2">  1       -2 0.16034658E+00 0.10741822E+04</pdfrwt>
<totfact> 0.66536543E+00</totfact>
</mgrwt>
</event>
<event>
 4    5  0.6615028E-008  0.8535420E+03  0.7818608E-02  0.9605156E-01
         -2   -1    0    0    0  501 -0.00000000000E+00  0.00000000000E+00  0.70363493685E+03  0.70363493685E+03  0.25500000000E-02 0.  1.
          2   -1    0    0  501    0  0.00000000000E+00 -0.00000000000E+00 -0.12650466873E+04  0.12650466873E+04  0.25500000000E-02 0. -1.
    8880023    1    1    2    0    0  0.51946823320E+03 -0.15772310856E+03 -0.95505221222E+03  0.12808820237E+04  0.65864270000E+03 0. -1.
    8880022    1    1    2    0    0 -0.51946823320E+03  0.15772310856E+03  0.39364046176E+03  0.68779960048E+03  0.15294330000E+03 0.  0.
<mgrwt>
<rscale>  0 0.76955877E+03</rscale>
<asrwt>0</asrwt>
<pdfrwt beam="1">  1        2 0.19462257E+00 0.85354205E+03</pdfrwt>
<pdfrwt beam="2">  1       -2 0.10825153E+00 0.85354205E+03</pdfrwt>
<totfact> 0.11935269E+01</totfact>
</mgrwt>
</event>
<event>
 4    5  0.6615028E-008  0.9118635E+03  0.7818608E-02  0.9507249E-01
         -2   -1    0    0    0  501 -0.00000000000E+00  0.00000000000E+00  0.15766641997E+04  0.15766641997E+04  0.25500000000E-02 0.  1.
          2   -1    0    0  501    0  0.00000000000E+00 -0.00000000000E+00 -0.83455181549E+03  0.83455181550E+03  0.25500000000E-02 0. -1.
    8880023    1    1    2    0    0  0.63060859832E+03 -0.41972043663E+01 -0.47779651291E+03  0.10294583696E+04  0.65864270000E+03 0.  0.
    8880022    1    1    2    0    0 -0.63060859832E+03  0.41972043663E+01  0.12199088971E+04  0.13817576456E+04  0.15294330000E+03 0.  0.
<mgrwt>
<rscale>  0 0.83751481E+03</rscale>
<asrwt>0</asrwt>
<pdfrwt beam="1">  1        2 0.12839259E+00 0.91186349E+03</pdfrwt>
<pdfrwt beam="2">  1       -2 0.24256372E+00 0.91186349E+03</pdfrwt>
<totfact> 0.23407540E+00</totfact>
</mgrwt>
</event>
<event>
 4    5  0.6615028E-008  0.1009368E+04  0.7818608E-02  0.9369403E-01
         -2   -1    0    0    0  501 -0.00000000000E+00  0.00000000000E+00  0.62148596931E+03  0.62148596932E+03  0.25500000000E-02 0.  1.
          2   -1    0    0  501    0  0.00000000000E+00 -0.00000000000E+00 -0.18700768383E+04  0.18700768383E+04  0.25500000000E-02 0. -1.
    8880023    1    1    2    0    0  0.65771142465E+03 -0.39042081091E+03 -0.13705059845E+04  0.17020897707E+04  0.65864270000E+03 0.  0.
    8880022    1    1    2    0    0 -0.65771142465E+03  0.39042081091E+03  0.12191511546E+03  0.78947303697E+03  0.15294330000E+03 0.  0.
<mgrwt>
<rscale>  0 0.94637020E+03</rscale>
<asrwt>0</asrwt>
<pdfrwt beam="1">  1        2 0.28770413E+00 0.10093676E+04</pdfrwt>
<pdfrwt beam="2">  1       -2 0.95613227E-01 0.10093676E+04</pdfrwt>
<totfact> 0.72300140E+00</totfact>
</mgrwt>
</event>
<event>
 4    5  0.6615028E-008  0.8271901E+03  0.7818608E-02  0.9654825E-01
         -2   -1    0    0    0  501 -0.00000000000E+00  0.00000000000E+00  0.63107729846E+03  0.63107729847E+03  0.25500000000E-02 0.  1.
          2   -1    0    0  501    0  0.00000000000E+00 -0.00000000000E+00 -0.25121947914E+04  0.25121947914E+04  0.25500000000E-02 0. -1.
    8880023    1    1    2    0    0  0.49997022876E+03  0.21517566388E+02 -0.23182637613E+04  0.24614203843E+04  0.65864270000E+03 0. -1.
    8880022    1    1    2    0    0 -0.49997022876E+03 -0.21517566388E+02  0.43714626838E+03  0.68185170549E+03  0.15294330000E+03 0.  0.
<mgrwt>
<rscale>  0 0.73771414E+03</rscale>
<asrwt>0</asrwt>
<pdfrwt beam="1">  1        2 0.38649150E+00 0.82719009E+03</pdfrwt>
<pdfrwt beam="2">  1       -2 0.97088817E-01 0.82719009E+03</pdfrwt>
<totfact> 0.31431728E+00</totfact>
</mgrwt>
</event>
<event>
 4    5  0.6615028E-008  0.1618288E+04  0.7818608E-02  0.8830331E-01
          2   -1    0    0  501    0  0.00000000000E+00  0.00000000000E+00  0.23342532766E+04  0.23342532766E+04  0.25500000000E-02 0. -1.
         -2   -1    0    0    0  501 -0.00000000000E+00 -0.00000000000E+00 -0.12637097111E+04  0.12637097111E+04  0.25500000000E-02 0.  1.
    8880023    1    1    2    0    0 -0.10946819256E+04  0.99333605499E+03  0.13234139575E+04  0.20905214052E+04  0.65864270000E+03 0.  0.
    8880022    1    1    2    0    0  0.10946819256E+04 -0.99333605499E+03 -0.25287039199E+03  0.15074415825E+04  0.15294330000E+03 0.  0.
<mgrwt>
<rscale>  0 0.15841724E+04</rscale>
<asrwt>0</asrwt>
<pdfrwt beam="1">  1        2 0.35911589E+00 0.16182878E+04</pdfrwt>
<pdfrwt beam="2">  1       -2 0.19441688E+00 0.16182878E+04</pdfrwt>
<totfact> 0.58276969E-01</totfact>
</mgrwt>
</event>
<event>
 4    5  0.6615028E-008  0.9039787E+03  0.7818608E-02  0.9519674E-01
          2   -1    0    0  501    0  0.00000000000E+00  0.00000000000E+00  0.29612873052E+04  0.29612873052E+04  0.25500000000E-02 0. -1.
         -2   -1    0    0    0  501 -0.00000000000E+00 -0.00000000000E+00 -0.43865825556E+03  0.43865825557E+03  0.25500000000E-02 0.  1.
    8880023    1    1    2    0    0  0.41129534839E+03 -0.46282112919E+03  0.26045163029E+04  0.27569335574E+04  0.65864270000E+03 0. -1.
    8880022    1    1    2    0    0 -0.41129534839E+03  0.46282112919E+03 -0.81887253305E+02  0.64301200339E+03  0.15294330000E+03 0.  0.
<mgrwt>
<rscale>  0 0.82848715E+03</rscale>
<asrwt>0</asrwt>
<pdfrwt beam="1">  1        2 0.45558265E+00 0.90397869E+03</pdfrwt>
<pdfrwt beam="2">  1       -2 0.67485887E-01 0.90397869E+03</pdfrwt>
<totfact> 0.38408143E+00</totfact>
</mgrwt>
</event>
<event>
 4    5  0.6615028E-008  0.1085925E+04  0.7818608E-02  0.9276891E-01
         -2   -1    0    0    0  501 -0.00000000000E+00  0.00000000000E+00  0.85484449278E+03  0.85484449278E+03  0.25500000000E-02 0.  1.
          2   -1    0    0  501    0  0.00000000000E+00 -0.00000000000E+00 -0.22371049726E+04  0.22371049726E+04  0.25500000000E-02 0. -1.
    8880023    1    1    2    0    0  0.80955278570E+03 -0.30007807051E+03 -0.18143095658E+04  0.21144625719E+04  0.65864270000E+03 0.  0.
    8880022    1    1    2    0    0 -0.80955278570E+03  0.30007807051E+03  0.43204908596E+03  0.97748689348E+03  0.15294330000E+03 0.  0.
<mgrwt>
<rscale>  0 0.10293842E+04</rscale>
<asrwt>0</asrwt>
<pdfrwt beam="1">  1        2 0.34416999E+00 0.10859248E+04</pdfrwt>
<pdfrwt beam="2">  1       -2 0.13151454E+00 0.10859248E+04</pdfrwt>
<totfact> 0.20553276E+00</totfact>
</mgrwt>
</event>
<event>
 4    5  0.6615028E-008  0.8199972E+03  0.7818608E-02  0.9669117E-01
         -2   -1    0    0    0  501 -0.00000000000E+00  0.00000000000E+00  0.76961052497E+03  0.76961052498E+03  0.25500000000E-02 0.  1.
          2   -1    0    0  501    0  0.00000000000E+00 -0.00000000000E+00 -0.63925365383E+03  0.63925365383E+03  0.25500000000E-02 0. -1.
    8880023    1    1    2    0    0 -0.18994449310E+03  0.45000704908E+03 -0.13707031694E+03  0.83137460434E+03  0.65864270000E+03 0.  0.
    8880022    1    1    2    0    0  0.18994449310E+03 -0.45000704908E+03  0.26742718809E+03  0.57748957448E+03  0.15294330000E+03 0.  0.
<mgrwt>
<rscale>  0 0.72885673E+03</rscale>
<asrwt>0</asrwt>
<pdfrwt beam="1">  1        2 0.98346716E-01 0.81999723E+03</pdfrwt>
<pdfrwt beam="2">  1       -2 0.11840162E+00 0.81999723E+03</pdfrwt>
<totfact> 0.25383123E+01</totfact>
</mgrwt>
</event>
<event>
 4    5  0.6615028E-008  0.9662171E+03  0.7818608E-02  0.9427155E-01
          2   -1    0    0  501    0  0.00000000000E+00  0.00000000000E+00  0.10848959586E+04  0.10848959586E+04  0.25500000000E-02 0. -1.
         -2   -1    0    0    0  501 -0.00000000000E+00 -0.00000000000E+00 -0.95175725569E+03  0.95175725569E+03  0.25500000000E-02 0.  1.
    8880023    1    1    2    0    0 -0.63255217665E+03 -0.31566276540E+03  0.63508862986E+03  0.11562495456E+04  0.65864270000E+03 0.  0.
    8880022    1    1    2    0    0  0.63255217665E+03  0.31566276540E+03 -0.50194992696E+03  0.88040366869E+03  0.15294330000E+03 0.  0.
<mgrwt>
<rscale>  0 0.89874198E+03</rscale>
<asrwt>0</asrwt>
<pdfrwt beam="1">  1        2 0.16690707E+00 0.96621708E+03</pdfrwt>
<pdfrwt beam="2">  1       -2 0.14642419E+00 0.96621708E+03</pdfrwt>
<totfact> 0.70710218E+00</totfact>
</mgrwt>
</event>
<event>
 4    5  0.6615028E-008  0.7823838E+03  0.7818608E-02  0.9750267E-01
         -2   -1    0    0    0  501 -0.00000000000E+00  0.00000000000E+00  0.95445124802E+03  0.95445124803E+03  0.25500000000E-02 0.  1.
          2   -1    0    0  501    0  0.00000000000E+00 -0.00000000000E+00 -0.14443219306E+04  0.14443219306E+04  0.25500000000E-02 0. -1.
    8880023    1    1    2    0    0 -0.22921050676E+03  0.35465016200E+03 -0.12740435250E+04  0.14950957507E+04  0.65864270000E+03 0. -1.
    8880022    1    1    2    0    0  0.22921050676E+03 -0.35465016200E+03  0.78417284248E+03  0.90367742791E+03  0.15294330000E+03 0.  0.
<mgrwt>
<rscale>  0 0.68101189E+03</rscale>
<asrwt>0</asrwt>
<pdfrwt beam="1">  1        2 0.22220337E+00 0.78238379E+03</pdfrwt>
<pdfrwt beam="2">  1       -2 0.14683865E+00 0.78238379E+03</pdfrwt>
<totfact> 0.44155713E+00</totfact>
</mgrwt>
</event>
<event>
 4    5  0.6615028E-008  0.1210849E+04  0.7818608E-02  0.9146648E-01
          2   -1    0    0  501    0  0.00000000000E+00  0.00000000000E+00  0.14252112737E+04  0.14252112737E+04  0.25500000000E-02 0. -1.
         -2   -1    0    0    0  501 -0.00000000000E+00 -0.00000000000E+00 -0.12414969063E+04  0.12414969063E+04  0.25500000000E-02 0.  1.
    8880023    1    1    2    0    0 -0.92262516987E+03  0.42556814546E+03  0.81610798804E+03  0.14602013234E+04  0.65864270000E+03 0.  0.
    8880022    1    1    2    0    0  0.92262516987E+03 -0.42556814546E+03 -0.63239362070E+03  0.12065068566E+04  0.15294330000E+03 0.  0.
<mgrwt>
<rscale>  0 0.11621495E+04</rscale>
<asrwt>0</asrwt>
<pdfrwt beam="1">  1        2 0.21926327E+00 0.12108491E+04</pdfrwt>
<pdfrwt beam="2">  1       -2 0.19099953E+00 0.12108491E+04</pdfrwt>
<totfact> 0.20706077E+00</totfact>
</mgrwt>
</event>
<event>
 4    5  0.6615028E-008  0.8223938E+03  0.7818608E-02  0.9664317E-01
          2   -1    0    0  501    0  0.00000000000E+00  0.00000000000E+00  0.15463585795E+04  0.15463585795E+04  0.25500000000E-02 0. -1.
         -2   -1    0    0    0  501 -0.00000000000E+00 -0.00000000000E+00 -0.87524395917E+03  0.87524395917E+03  0.25500000000E-02 0.  1.
    8880023    1    1    2    0    0 -0.27290761067E+01  0.49245704090E+03  0.13429064969E+04  0.15747156729E+04  0.65864270000E+03 0. -1.
    8880022    1    1    2    0    0  0.27290761067E+01 -0.49245704090E+03 -0.67179187653E+03  0.84688686575E+03  0.15294330000E+03 0.  0.
<mgrwt>
<rscale>  0 0.73181673E+03</rscale>
<asrwt>0</asrwt>
<pdfrwt beam="1">  1        2 0.23790132E+00 0.82239382E+03</pdfrwt>
<pdfrwt beam="2">  1       -2 0.13465292E+00 0.82239382E+03</pdfrwt>
<totfact> 0.48217236E+00</totfact>
</mgrwt>
</event>
<event>
 4    5  0.6615028E-008  0.7444637E+03  0.7818608E-02  0.9847130E-01
          2   -1    0    0  501    0  0.00000000000E+00  0.00000000000E+00  0.12302567003E+04  0.12302567003E+04  0.25500000000E-02 0. -1.
         -2   -1    0    0    0  501 -0.00000000000E+00 -0.00000000000E+00 -0.30404683452E+03  0.30404683453E+03  0.25500000000E-02 0.  1.
    8880023    1    1    2    0    0  0.26201981371E+03 -0.22751165302E+03  0.87940506960E+03  0.11522063260E+04  0.65864270000E+03 0.  0.
    8880022    1    1    2    0    0 -0.26201981371E+03  0.22751165302E+03  0.46804796202E+02  0.38209720883E+03  0.15294330000E+03 0.  0.
<mgrwt>
<rscale>  0 0.62893440E+03</rscale>
<asrwt>0</asrwt>
<pdfrwt beam="1">  1        2 0.18927026E+00 0.74446366E+03</pdfrwt>
<pdfrwt beam="2">  1       -2 0.46776437E-01 0.74446366E+03</pdfrwt>
<totfact> 0.80055922E+01</totfact>
</mgrwt>
</event>
<event>
 4    5  0.9166986E-008  0.6658026E+03  0.7818608E-02  0.1018869E+00
         -2   -1    0    0    0  501 -0.00000000000E+00  0.00000000000E+00  0.87035537462E+03  0.87035537462E+03  0.25500000000E-02 0.  1.
          2   -1    0    0  501    0  0.00000000000E+00 -0.00000000000E+00 -0.17936999970E+04  0.17936999971E+04  0.25500000000E-02 0. -1.
    8880023    1    1    2    0    0 -0.97316240477E+02  0.35248550013E+01 -0.17213941744E+04  0.18456681677E+04  0.65864270000E+03 0. -1.
    8880022    1    1    2    0    0  0.97316240477E+02 -0.35248550013E+01  0.79804955197E+03  0.81838720400E+03  0.15294330000E+03 0.  0.
<mgrwt>
<rscale>  0 0.48096841E+03</rscale>
<asrwt>0</asrwt>
<pdfrwt beam="1">  1        2 0.27595385E+00 0.66580258E+03</pdfrwt>
<pdfrwt beam="2">  1       -2 0.13390083E+00 0.66580258E+03</pdfrwt>
<totfact> 0.36704369E+00</totfact>
</mgrwt>
</event>
<event>
 4    5  0.6615028E-008  0.6693673E+03  0.7818608E-02  0.1016121E+00
          2   -1    0    0  501    0  0.00000000000E+00  0.00000000000E+00  0.32777697319E+03  0.32777697320E+03  0.25500000000E-02 0. -1.
         -2   -1    0    0    0  501 -0.00000000000E+00 -0.00000000000E+00 -0.10737938455E+04  0.10737938455E+04  0.25500000000E-02 0.  1.
    8880023    1    1    2    0    0  0.62070586827E+02  0.10192956027E+03 -0.41300272266E+02  0.67064022528E+03  0.65864270000E+03 0. -1.
    8880022    1    1    2    0    0 -0.62070586827E+02 -0.10192956027E+03 -0.70471660009E+03  0.73093059347E+03  0.15294330000E+03 0.  0.
<mgrwt>
<rscale>  0 0.49112946E+03</rscale>
<asrwt>0</asrwt>
<pdfrwt beam="1">  1        2 0.50427227E-01 0.66936731E+03</pdfrwt>
<pdfrwt beam="2">  1       -2 0.16519905E+00 0.66936731E+03</pdfrwt>
<totfact> 0.23411376E+01</totfact>
</mgrwt>
</event>
<event>
 4    5  0.6615028E-008  0.7903043E+03  0.7818608E-02  0.9732166E-01
         -2   -1    0    0    0  501 -0.00000000000E+00  0.00000000000E+00  0.54173185922E+03  0.54173185922E+03  0.25500000000E-02 0.  1.
          2   -1    0    0  501    0  0.00000000000E+00 -0.00000000000E+00 -0.14185564521E+04  0.14185564521E+04  0.25500000000E-02 0. -1.
    8880023    1    1    2    0    0 -0.40575652046E+01 -0.43675424667E+03 -0.11704066016E+04  0.14122438016E+04  0.65864270000E+03 0. -1.
    8880022    1    1    2    0    0  0.40575652046E+01  0.43675424667E+03  0.29358200869E+03  0.54804450975E+03  0.15294330000E+03 0.  0.
<mgrwt>
<rscale>  0 0.69133521E+03</rscale>
<asrwt>0</asrwt>
<pdfrwt beam="1">  1        2 0.21823945E+00 0.79030434E+03</pdfrwt>
<pdfrwt beam="2">  1       -2 0.83343363E-01 0.79030434E+03</pdfrwt>
<totfact> 0.18110404E+01</totfact>
</mgrwt>
</event>
<event>
 4    5  0.6615028E-008  0.7435591E+03  0.7818608E-02  0.9849698E-01
         -2   -1    0    0    0  501 -0.00000000000E+00  0.00000000000E+00  0.78622821297E+03  0.78622821297E+03  0.25500000000E-02 0.  1.
          2   -1    0    0  501    0  0.00000000000E+00 -0.00000000000E+00 -0.17475461227E+04  0.17475461227E+04  0.25500000000E-02 0. -1.
    8880023    1    1    2    0    0  0.23594743771E+03 -0.25179097168E+03 -0.16155629624E+04  0.17784610703E+04  0.65864270000E+03 0.  0.
    8880022    1    1    2    0    0 -0.23594743771E+03  0.25179097168E+03  0.65424505272E+03  0.75531326534E+03  0.15294330000E+03 0.  0.
<mgrwt>
<rscale>  0 0.62762294E+03</rscale>
<asrwt>0</asrwt>
<pdfrwt beam="1">  1        2 0.26885325E+00 0.74355907E+03</pdfrwt>
<pdfrwt beam="2">  1       -2 0.12095819E+00 0.74355907E+03</pdfrwt>
<totfact> 0.49546050E+00</totfact>
</mgrwt>
</event>
<event>
 4    5  0.6615028E-008  0.8956955E+03  0.7818608E-02  0.9532977E-01
          2   -1    0    0  501    0  0.00000000000E+00  0.00000000000E+00  0.66890419852E+03  0.66890419852E+03  0.25500000000E-02 0. -1.
         -2   -1    0    0    0  501 -0.00000000000E+00 -0.00000000000E+00 -0.17228492519E+04  0.17228492519E+04  0.25500000000E-02 0.  1.
    8880023    1    1    2    0    0 -0.57351041814E+03  0.19886181448E+03  0.26308106634E+03  0.93353204268E+03  0.65864270000E+03 0. -1.
    8880022    1    1    2    0    0  0.57351041814E+03 -0.19886181448E+03 -0.13170261198E+04  0.14582214078E+04  0.15294330000E+03 0.  0.
<mgrwt>
<rscale>  0 0.81895594E+03</rscale>
<asrwt>0</asrwt>
<pdfrwt beam="1">  1        2 0.10290834E+00 0.89569550E+03</pdfrwt>
<pdfrwt beam="2">  1       -2 0.26505373E+00 0.89569550E+03</pdfrwt>
<totfact> 0.22838253E+00</totfact>
</mgrwt>
</event>
<event>
 4    5  0.6615028E-008  0.1129553E+04  0.7818608E-02  0.9228845E-01
         -2   -1    0    0    0  501 -0.00000000000E+00  0.00000000000E+00  0.15835075762E+04  0.15835075762E+04  0.25500000000E-02 0.  1.
          2   -1    0    0  501    0  0.00000000000E+00 -0.00000000000E+00 -0.87388111735E+03  0.87388111735E+03  0.25500000000E-02 0. -1.
    8880023    1    1    2    0    0 -0.86298110807E+03 -0.31199896890E+03  0.97264743294E+03  0.14906149686E+04  0.65864270000E+03 0.  1.
    8880022    1    1    2    0    0  0.86298110807E+03  0.31199896890E+03 -0.26302097410E+03  0.96677372498E+03  0.15294330000E+03 0.  0.
<mgrwt>
<rscale>  0 0.10760601E+04</rscale>
<asrwt>0</asrwt>
<pdfrwt beam="1">  1        2 0.13444325E+00 0.11295530E+04</pdfrwt>
<pdfrwt beam="2">  1       -2 0.24361655E+00 0.11295530E+04</pdfrwt>
<totfact> 0.21112628E+00</totfact>
</mgrwt>
</event>
<event>
 4    5  0.6615028E-008  0.9962930E+03  0.7818608E-02  0.9386424E-01
         -2   -1    0    0    0  501 -0.00000000000E+00  0.00000000000E+00  0.42839728586E+03  0.42839728587E+03  0.25500000000E-02 0.  1.
          2   -1    0    0  501    0  0.00000000000E+00 -0.00000000000E+00 -0.27415748997E+04  0.27415748997E+04  0.25500000000E-02 0. -1.
    8880023    1    1    2    0    0  0.19217916236E+03  0.72239645298E+03 -0.21780387042E+04  0.23950891985E+04  0.65864270000E+03 0. -1.
    8880022    1    1    2    0    0 -0.19217916236E+03 -0.72239645298E+03 -0.13513890968E+03  0.77488298707E+03  0.15294330000E+03 0.  0.
<mgrwt>
<rscale>  0 0.93201427E+03</rscale>
<asrwt>0</asrwt>
<pdfrwt beam="1">  1        2 0.42178074E+00 0.99629296E+03</pdfrwt>
<pdfrwt beam="2">  1       -2 0.65907277E-01 0.99629296E+03</pdfrwt>
<totfact> 0.54031493E+00</totfact>
</mgrwt>
</event>
<event>
 4    5  0.6615028E-008  0.7028807E+03  0.7818608E-02  0.9985455E-01
         -2   -1    0    0    0  501 -0.00000000000E+00  0.00000000000E+00  0.19384259518E+03  0.19384259519E+03  0.25500000000E-02 0.  1.
          2   -1    0    0  501    0  0.00000000000E+00 -0.00000000000E+00 -0.13427924434E+04  0.13427924434E+04  0.25500000000E-02 0. -1.
    8880023    1    1    2    0    0 -0.13983311904E+03  0.20168718899E+03 -0.96523978256E+03  0.11940389723E+04  0.65864270000E+03 0. -1.
    8880022    1    1    2    0    0  0.13983311904E+03 -0.20168718899E+03 -0.18371006569E+03  0.34259606628E+03  0.15294330000E+03 0. -1.
<mgrwt>
<rscale>  0 0.56292652E+03</rscale>
<asrwt>0</asrwt>
<pdfrwt beam="1">  1        2 0.20658345E+00 0.70288067E+03</pdfrwt>
<pdfrwt beam="2">  1       -2 0.29821939E-01 0.70288067E+03</pdfrwt>
<totfact> 0.16464885E+02</totfact>
</mgrwt>
</event>
<event>
 4    5  0.6615028E-008  0.1673050E+04  0.7818608E-02  0.8796215E-01
          2   -1    0    0  501    0  0.00000000000E+00  0.00000000000E+00  0.15473696810E+04  0.15473696810E+04  0.25500000000E-02 0. -1.
         -2   -1    0    0    0  501 -0.00000000000E+00 -0.00000000000E+00 -0.22117113796E+04  0.22117113796E+04  0.25500000000E-02 0.  1.
    8880023    1    1    2    0    0  0.14309053962E+04 -0.56373239841E+03  0.58433388857E+03  0.17721570950E+04  0.65864270000E+03 0.  0.
    8880022    1    1    2    0    0 -0.14309053962E+04  0.56373239841E+03 -0.12486755872E+04  0.19869239656E+04  0.15294330000E+03 0.  0.
<mgrwt>
<rscale>  0 0.16402168E+04</rscale>
<asrwt>0</asrwt>
<pdfrwt beam="1">  1        2 0.23805687E+00 0.16730495E+04</pdfrwt>
<pdfrwt beam="2">  1       -2 0.34026329E+00 0.16730495E+04</pdfrwt>
<totfact> 0.19754069E-01</totfact>
</mgrwt>
</event>
<event>
 4    5  0.6615028E-008  0.9152206E+03  0.7818608E-02  0.9502026E-01
          2   -1    0    0  501    0  0.00000000000E+00  0.00000000000E+00  0.48901593979E+04  0.48901593979E+04  0.25500000000E-02 0. -1.
         -2   -1    0    0    0  501 -0.00000000000E+00 -0.00000000000E+00 -0.33779271340E+03  0.33779271341E+03  0.25500000000E-02 0.  1.
    8880023    1    1    2    0    0 -0.13446929334E+03  0.62107696268E+03  0.44774823628E+04  0.45700631396E+04  0.65864270000E+03 0. -1.
    8880022    1    1    2    0    0  0.13446929334E+03 -0.62107696268E+03  0.74884321667E+02  0.65788897168E+03  0.15294330000E+03 0.  0.
<mgrwt>
<rscale>  0 0.84134585E+03</rscale>
<asrwt>0</asrwt>
<pdfrwt beam="1">  1        2 0.75233218E+00 0.91522062E+03</pdfrwt>
<pdfrwt beam="2">  1       -2 0.51968112E-01 0.91522062E+03</pdfrwt>
<totfact> 0.18330060E-01</totfact>
</mgrwt>
</event>
<event>
 4    5  0.6615028E-008  0.6922766E+03  0.7818608E-02  0.1003089E+00
          2   -1    0    0  501    0  0.00000000000E+00  0.00000000000E+00  0.28517313904E+04  0.28517313904E+04  0.25500000000E-02 0. -1.
         -2   -1    0    0    0  501 -0.00000000000E+00 -0.00000000000E+00 -0.18876184073E+03  0.18876184074E+03  0.25500000000E-02 0.  1.
    8880023    1    1    2    0    0 -0.88305970452E+02  0.19400711343E+03  0.26891597612E+04  0.27768376135E+04  0.65864270000E+03 0. -1.
    8880022    1    1    2    0    0  0.88305970452E+02 -0.19400711343E+03 -0.26190211556E+02  0.26365561757E+03  0.15294330000E+03 0.  0.
<mgrwt>
<rscale>  0 0.54316362E+03</rscale>
<asrwt>0</asrwt>
<pdfrwt beam="1">  1        2 0.43872785E+00 0.69227661E+03</pdfrwt>
<pdfrwt beam="2">  1       -2 0.29040287E-01 0.69227661E+03</pdfrwt>
<totfact> 0.24918630E+01</totfact>
</mgrwt>
</event>
<event>
 4    5  0.6615028E-008  0.6975760E+03  0.7818608E-02  0.1000741E+00
         -2   -1    0    0    0  501 -0.00000000000E+00  0.00000000000E+00  0.11298576049E+03  0.11298576052E+03  0.25500000000E-02 0.  1.
          2   -1    0    0  501    0  0.00000000000E+00 -0.00000000000E+00 -0.24362579480E+04  0.24362579480E+04  0.25500000000E-02 0. -1.
    8880023    1    1    2    0    0 -0.19727625286E+03  0.11783128762E+03 -0.20299471190E+04  0.21464616569E+04  0.65864270000E+03 0. -1.
    8880022    1    1    2    0    0  0.19727625286E+03 -0.11783128762E+03 -0.29332506849E+03  0.40278205162E+03  0.15294330000E+03 0.  0.
<mgrwt>
<rscale>  0 0.55326553E+03</rscale>
<asrwt>0</asrwt>
<pdfrwt beam="1">  1        2 0.37480887E+00 0.69757604E+03</pdfrwt>
<pdfrwt beam="2">  1       -2 0.17382427E-01 0.69757604E+03</pdfrwt>
<totfact> 0.10762607E+02</totfact>
</mgrwt>
</event>
<event>
 4    5  0.6615028E-008  0.1059623E+04  0.7818608E-02  0.9307402E-01
         -2   -1    0    0    0  501 -0.00000000000E+00  0.00000000000E+00  0.50485089225E+03  0.50485089226E+03  0.25500000000E-02 0.  1.
          2   -1    0    0  501    0  0.00000000000E+00 -0.00000000000E+00 -0.23252134200E+04  0.23252134200E+04  0.25500000000E-02 0. -1.
    8880023    1    1    2    0    0  0.41876204165E+03  0.71667863200E+03 -0.16623910625E+04  0.19713812823E+04  0.65864270000E+03 0.  0.
    8880022    1    1    2    0    0 -0.41876204165E+03 -0.71667863200E+03 -0.15797146518E+03  0.85868302994E+03  0.15294330000E+03 0.  0.
<mgrwt>
<rscale>  0 0.10010425E+04</rscale>
<asrwt>0</asrwt>
<pdfrwt beam="1">  1        2 0.35772513E+00 0.10596226E+04</pdfrwt>
<pdfrwt beam="2">  1       -2 0.77669369E-01 0.10596226E+04</pdfrwt>
<totfact> 0.64793460E+00</totfact>
</mgrwt>
</event>
<event>
 4    5  0.6615028E-008  0.7452788E+03  0.7818608E-02  0.9844829E-01
          2   -1    0    0  501    0  0.00000000000E+00  0.00000000000E+00  0.18968007776E+04  0.18968007776E+04  0.25500000000E-02 0. -1.
         -2   -1    0    0    0  501 -0.00000000000E+00 -0.00000000000E+00 -0.21064876354E+03  0.21064876356E+03  0.25500000000E-02 0.  1.
    8880023    1    1    2    0    0 -0.28906640456E+02 -0.34755530436E+03  0.60099310493E+03  0.95740963119E+03  0.65864270000E+03 0.  0.
    8880022    1    1    2    0    0  0.28906640456E+02  0.34755530436E+03  0.10851589092E+04  0.11500399100E+04  0.15294330000E+03 0.  0.
<mgrwt>
<rscale>  0 0.63011278E+03</rscale>
<asrwt>0</asrwt>
<pdfrwt beam="1">  1        2 0.29181550E+00 0.74527880E+03</pdfrwt>
<pdfrwt beam="2">  1       -2 0.32407502E-01 0.74527880E+03</pdfrwt>
<totfact> 0.69423929E+01</totfact>
</mgrwt>
</event>
<event>
 4    5  0.6615028E-008  0.9078179E+03  0.7818608E-02  0.9513596E-01
          2   -1    0    0  501    0  0.00000000000E+00  0.00000000000E+00  0.60952319879E+03  0.60952319879E+03  0.25500000000E-02 0. -1.
         -2   -1    0    0    0  501 -0.00000000000E+00 -0.00000000000E+00 -0.13753675475E+04  0.13753675475E+04  0.25500000000E-02 0.  1.
    8880023    1    1    2    0    0 -0.34234523959E+03  0.52261159623E+03  0.92248081787E+02  0.91249277172E+03  0.65864270000E+03 0. -1.
    8880022    1    1    2    0    0  0.34234523959E+03 -0.52261159623E+03 -0.85809243048E+03  0.10723979746E+04  0.15294330000E+03 0.  0.
<mgrwt>
<rscale>  0 0.83288816E+03</rscale>
<asrwt>0</asrwt>
<pdfrwt beam="1">  1        2 0.93772800E-01 0.90781791E+03</pdfrwt>
<pdfrwt beam="2">  1       -2 0.21159501E+00 0.90781791E+03</pdfrwt>
<totfact> 0.54634647E+00</totfact>
</mgrwt>
</event>
<event>
 4    5  0.6615028E-008  0.6894853E+03  0.7818608E-02  0.1004398E+00
          2   -1    0    0  501    0  0.00000000000E+00  0.00000000000E+00  0.27947223551E+04  0.27947223551E+04  0.25500000000E-02 0. -1.
         -2   -1    0    0    0  501 -0.00000000000E+00 -0.00000000000E+00 -0.11883735777E+03  0.11883735780E+03  0.25500000000E-02 0.  1.
    8880023    1    1    2    0    0 -0.19264875603E+03 -0.66830214344E+02  0.25248016555E+04  0.26172530306E+04  0.65864270000E+03 0. -1.
    8880022    1    1    2    0    0  0.19264875603E+03  0.66830214344E+02  0.15108334188E+03  0.29630668227E+03  0.15294330000E+03 0.  0.
<mgrwt>
<rscale>  0 0.53763077E+03</rscale>
<asrwt>0</asrwt>
<pdfrwt beam="1">  1        2 0.42995729E+00 0.68948533E+03</pdfrwt>
<pdfrwt beam="2">  1       -2 0.18282670E-01 0.68948533E+03</pdfrwt>
<totfact> 0.61478569E+01</totfact>
</mgrwt>
</event>
<event>
 4    5  0.6615028E-008  0.7023352E+03  0.7818608E-02  0.9987648E-01
         -2   -1    0    0    0  501 -0.00000000000E+00  0.00000000000E+00  0.12845855624E+03  0.12845855626E+03  0.25500000000E-02 0.  1.
          2   -1    0    0  501    0  0.00000000000E+00 -0.00000000000E+00 -0.19129188621E+04  0.19129188621E+04  0.25500000000E-02 0. -1.
    8880023    1    1    2    0    0  0.12254899981E+03  0.21082284372E+03 -0.12183809317E+04  0.14063167601E+04  0.65864270000E+03 0.  1.
    8880022    1    1    2    0    0 -0.12254899981E+03 -0.21082284372E+03 -0.56607937418E+03  0.63506065826E+03  0.15294330000E+03 0.  1.
<mgrwt>
<rscale>  0 0.56195164E+03</rscale>
<asrwt>0</asrwt>
<pdfrwt beam="1">  1        2 0.29429519E+00 0.70233520E+03</pdfrwt>
<pdfrwt beam="2">  1       -2 0.19762856E-01 0.70233520E+03</pdfrwt>
<totfact> 0.16717709E+02</totfact>
</mgrwt>
</event>
<event>
 4    5  0.6615028E-008  0.1790059E+04  0.7818608E-02  0.8728055E-01
          2   -1    0    0  501    0  0.00000000000E+00  0.00000000000E+00  0.34120591719E+04  0.34120591719E+04  0.25500000000E-02 0. -1.
         -2   -1    0    0    0  501 -0.00000000000E+00 -0.00000000000E+00 -0.11277317261E+04  0.11277317261E+04  0.25500000000E-02 0.  1.
    8880023    1    1    2    0    0 -0.59785807073E+03 -0.15534047551E+04  0.22404262503E+04  0.28677204528E+04  0.65864270000E+03 0.  0.
    8880022    1    1    2    0    0  0.59785807073E+03  0.15534047551E+04  0.43901195492E+02  0.16720704452E+04  0.15294330000E+03 0.  0.
<mgrwt>
<rscale>  0 0.17596516E+04</rscale>
<asrwt>0</asrwt>
<pdfrwt beam="1">  1        2 0.52493218E+00 0.17900589E+04</pdfrwt>
<pdfrwt beam="2">  1       -2 0.17349719E+00 0.17900589E+04</pdfrwt>
<totfact> 0.17276237E-01</totfact>
</mgrwt>
</event>
<event>
 4    5  0.6615028E-008  0.7857816E+03  0.7818608E-02  0.9742427E-01
         -2   -1    0    0    0  501 -0.00000000000E+00  0.00000000000E+00  0.45012879296E+03  0.45012879297E+03  0.25500000000E-02 0.  1.
          2   -1    0    0  501    0  0.00000000000E+00 -0.00000000000E+00 -0.90596593630E+03  0.90596593630E+03  0.25500000000E-02 0. -1.
    8880023    1    1    2    0    0  0.35732308470E+03 -0.23656432360E+03 -0.44049401652E+03  0.90082609361E+03  0.65864270000E+03 0.  0.
    8880022    1    1    2    0    0 -0.35732308470E+03  0.23656432360E+03 -0.15343126808E+02  0.45526863566E+03  0.15294330000E+03 0.  0.
<mgrwt>
<rscale>  0 0.68545921E+03</rscale>
<asrwt>0</asrwt>
<pdfrwt beam="1">  1        2 0.13937937E+00 0.78578157E+03</pdfrwt>
<pdfrwt beam="2">  1       -2 0.69250584E-01 0.78578157E+03</pdfrwt>
<totfact> 0.55923195E+01</totfact>
</mgrwt>
</event>
<event>
 4    5  0.6615028E-008  0.8415042E+03  0.7818608E-02  0.9627350E-01
          2   -1    0    0  501    0  0.00000000000E+00  0.00000000000E+00  0.31725936408E+04  0.31725936408E+04  0.25500000000E-02 0. -1.
         -2   -1    0    0    0  501 -0.00000000000E+00 -0.00000000000E+00 -0.19998173203E+03  0.19998173204E+03  0.25500000000E-02 0.  1.
    8880023    1    1    2    0    0 -0.51387204005E+03 -0.10126557810E+03  0.25414805811E+04  0.26771725647E+04  0.65864270000E+03 0.  0.
    8880022    1    1    2    0    0  0.51387204005E+03  0.10126557810E+03  0.43113132767E+03  0.69540280813E+03  0.15294330000E+03 0.  0.
<mgrwt>
<rscale>  0 0.75512103E+03</rscale>
<asrwt>0</asrwt>
<pdfrwt beam="1">  1        2 0.48809131E+00 0.84150425E+03</pdfrwt>
<pdfrwt beam="2">  1       -2 0.30766421E-01 0.84150425E+03</pdfrwt>
<totfact> 0.13880433E+01</totfact>
</mgrwt>
</event>
<event>
 4    5  0.6615028E-008  0.1190358E+04  0.7818608E-02  0.9166553E-01
         -2   -1    0    0    0  501 -0.00000000000E+00  0.00000000000E+00  0.29836524807E+04  0.29836524807E+04  0.25500000000E-02 0.  1.
          2   -1    0    0  501    0  0.00000000000E+00 -0.00000000000E+00 -0.69679360534E+03  0.69679360535E+03  0.25500000000E-02 0. -1.
    8880023    1    1    2    0    0  0.33572549675E+03  0.93296805297E+03  0.78505114350E+01  0.11903834818E+04  0.65864270000E+03 0.  0.
    8880022    1    1    2    0    0 -0.33572549675E+03 -0.93296805297E+03  0.22790083639E+04  0.24900626042E+04  0.15294330000E+03 0.  0.
<mgrwt>
<rscale>  0 0.11405428E+04</rscale>
<asrwt>0</asrwt>
<pdfrwt beam="1">  1        2 0.10719901E+00 0.11903576E+04</pdfrwt>
<pdfrwt beam="2">  1       -2 0.45902347E+00 0.11903576E+04</pdfrwt>
<totfact> 0.12344535E-01</totfact>
</mgrwt>
</event>
<event>
 4    5  0.6615028E-008  0.1160252E+04  0.7818608E-02  0.9196763E-01
         -2   -1    0    0    0  501 -0.00000000000E+00  0.00000000000E+00  0.49190810732E+03  0.49190810733E+03  0.25500000000E-02 0.  1.
          2   -1    0    0  501    0  0.00000000000E+00 -0.00000000000E+00 -0.25158995057E+04  0.25158995057E+04  0.25500000000E-02 0. -1.
    8880023    1    1    2    0    0  0.93684020425E+03 -0.18629315058E+03 -0.65758940562E+03  0.13336449074E+04  0.65864270000E+03 0.  0.
    8880022    1    1    2    0    0 -0.93684020425E+03  0.18629315058E+03 -0.13664019928E+04  0.16741627057E+04  0.15294330000E+03 0.  0.
<mgrwt>
<rscale>  0 0.11086902E+04</rscale>
<asrwt>0</asrwt>
<pdfrwt beam="1">  1        2 0.38706146E+00 0.11602521E+04</pdfrwt>
<pdfrwt beam="2">  1       -2 0.75678172E-01 0.11602521E+04</pdfrwt>
<totfact> 0.52886637E+00</totfact>
</mgrwt>
</event>
<event>
 4    5  0.6615028E-008  0.1295134E+04  0.7818608E-02  0.9069773E-01
         -2   -1    0    0    0  501 -0.00000000000E+00  0.00000000000E+00  0.76255190938E+03  0.76255190939E+03  0.25500000000E-02 0.  1.
          2   -1    0    0  501    0  0.00000000000E+00 -0.00000000000E+00 -0.21181386292E+04  0.21181386292E+04  0.25500000000E-02 0. -1.
    8880023    1    1    2    0    0 -0.91122029764E+03 -0.64283718291E+03 -0.28258026473E+03  0.13256032162E+04  0.65864270000E+03 0.  0.
    8880022    1    1    2    0    0  0.91122029764E+03  0.64283718291E+03 -0.10730064551E+04  0.15550873224E+04  0.15294330000E+03 0.  0.
<mgrwt>
<rscale>  0 0.12504926E+04</rscale>
<asrwt>0</asrwt>
<pdfrwt beam="1">  1        2 0.32586748E+00 0.12951341E+04</pdfrwt>
<pdfrwt beam="2">  1       -2 0.11731568E+00 0.12951341E+04</pdfrwt>
<totfact> 0.31196773E+00</totfact>
</mgrwt>
</event>
<event>
 4    5  0.6615028E-008  0.9224801E+03  0.7818608E-02  0.9490867E-01
          2   -1    0    0  501    0  0.00000000000E+00  0.00000000000E+00  0.82092850075E+03  0.82092850076E+03  0.25500000000E-02 0. -1.
         -2   -1    0    0    0  501 -0.00000000000E+00 -0.00000000000E+00 -0.15357193423E+04  0.15357193423E+04  0.25500000000E-02 0.  1.
    8880023    1    1    2    0    0  0.29514453735E+03  0.57449887466E+03  0.44204487448E+03  0.10229238155E+04  0.65864270000E+03 0. -1.
    8880022    1    1    2    0    0 -0.29514453735E+03 -0.57449887466E+03 -0.11568357160E+04  0.13337240276E+04  0.15294330000E+03 0.  0.
<mgrwt>
<rscale>  0 0.84960538E+03</rscale>
<asrwt>0</asrwt>
<pdfrwt beam="1">  1        2 0.12629669E+00 0.92248006E+03</pdfrwt>
<pdfrwt beam="2">  1       -2 0.23626451E+00 0.92248006E+03</pdfrwt>
<totfact> 0.26128595E+00</totfact>
</mgrwt>
</event>
<event>
 4    5  0.6615028E-008  0.7113525E+03  0.7818608E-02  0.9953012E-01
         -2   -1    0    0    0  501 -0.00000000000E+00  0.00000000000E+00  0.64466894594E+03  0.64466894594E+03  0.25500000000E-02 0.  1.
          2   -1    0    0  501    0  0.00000000000E+00 -0.00000000000E+00 -0.52061749623E+03  0.52061749624E+03  0.25500000000E-02 0. -1.
    8880023    1    1    2    0    0 -0.37450426673E+02 -0.26610093220E+03 -0.17773757917E+03  0.73322104026E+03  0.65864270000E+03 0. -1.
    8880022    1    1    2    0    0  0.37450426673E+02  0.26610093220E+03  0.30178902887E+03  0.43206540192E+03  0.15294330000E+03 0.  0.
<mgrwt>
<rscale>  0 0.57759459E+03</rscale>
<asrwt>0</asrwt>
<pdfrwt beam="1">  1        2 0.80095000E-01 0.71135255E+03</pdfrwt>
<pdfrwt beam="2">  1       -2 0.99179838E-01 0.71135255E+03</pdfrwt>
<totfact> 0.50192360E+01</totfact>
</mgrwt>
</event>
<event>
 4    5  0.6615028E-008  0.1089429E+04  0.7818608E-02  0.9272918E-01
         -2   -1    0    0    0  501 -0.00000000000E+00  0.00000000000E+00  0.10561747130E+04  0.10561747130E+04  0.25500000000E-02 0.  1.
          2   -1    0    0  501    0  0.00000000000E+00 -0.00000000000E+00 -0.17193216055E+04  0.17193216055E+04  0.25500000000E-02 0. -1.
    8880023    1    1    2    0    0 -0.79954179882E+03 -0.33730944543E+03 -0.12941917296E+04  0.16916817636E+04  0.65864270000E+03 0.  0.
    8880022    1    1    2    0    0  0.79954179882E+03  0.33730944543E+03  0.63104483709E+03  0.10838145549E+04  0.15294330000E+03 0.  0.
<mgrwt>
<rscale>  0 0.10331476E+04</rscale>
<asrwt>0</asrwt>
<pdfrwt beam="1">  1        2 0.26451102E+00 0.10894287E+04</pdfrwt>
<pdfrwt beam="2">  1       -2 0.16248842E+00 0.10894287E+04</pdfrwt>
<totfact> 0.22720891E+00</totfact>
</mgrwt>
</event>
<event>
 4    5  0.6615028E-008  0.8181308E+03  0.7818608E-02  0.9672883E-01
          2   -1    0    0  501    0  0.00000000000E+00  0.00000000000E+00  0.12224973909E+04  0.12224973909E+04  0.25500000000E-02 0. -1.
         -2   -1    0    0    0  501 -0.00000000000E+00 -0.00000000000E+00 -0.85679969314E+03  0.85679969315E+03  0.25500000000E-02 0.  1.
    8880023    1    1    2    0    0 -0.29135894739E+03  0.38812079248E+03  0.98325465880E+03  0.12791120811E+04  0.65864270000E+03 0.  0.
    8880022    1    1    2    0    0  0.29135894739E+03 -0.38812079248E+03 -0.61755696103E+03  0.80018500293E+03  0.15294330000E+03 0.  0.
<mgrwt>
<rscale>  0 0.72654520E+03</rscale>
<asrwt>0</asrwt>
<pdfrwt beam="1">  1        2 0.18807652E+00 0.81813079E+03</pdfrwt>
<pdfrwt beam="2">  1       -2 0.13181534E+00 0.81813079E+03</pdfrwt>
<totfact> 0.77911770E+00</totfact>
</mgrwt>
</event>
<event>
 4    5  0.6615028E-008  0.7733310E+03  0.7818608E-02  0.9771742E-01
          2   -1    0    0  501    0  0.00000000000E+00  0.00000000000E+00  0.21174007685E+04  0.21174007685E+04  0.25500000000E-02 0. -1.
         -2   -1    0    0    0  501 -0.00000000000E+00 -0.00000000000E+00 -0.22039895704E+03  0.22039895705E+03  0.25500000000E-02 0.  1.
    8880023    1    1    2    0    0  0.40502841881E+02  0.40322474295E+03  0.16883062771E+04  0.18569919130E+04  0.65864270000E+03 0. -1.
    8880022    1    1    2    0    0 -0.40502841881E+02 -0.40322474295E+03  0.20869553443E+03  0.48080781258E+03  0.15294330000E+03 0.  0.
<mgrwt>
<rscale>  0 0.66901313E+03</rscale>
<asrwt>0</asrwt>
<pdfrwt beam="1">  1        2 0.32575395E+00 0.77333103E+03</pdfrwt>
<pdfrwt beam="2">  1       -2 0.33907534E-01 0.77333103E+03</pdfrwt>
<totfact> 0.48137617E+01</totfact>
</mgrwt>
</event>
<event>
 4    5  0.1332670E-007  0.1957480E+04  0.7818608E-02  0.8640088E-01
         -2   -1    0    0    0  501 -0.00000000000E+00  0.00000000000E+00  0.17365159163E+04  0.17365159163E+04  0.25500000000E-02 0.  1.
          2   -1    0    0  501    0  0.00000000000E+00 -0.00000000000E+00 -0.42396722096E+04  0.42396722096E+04  0.25500000000E-02 0. -1.
    8880023    1    1    2    0    0 -0.70661571526E+03  0.17025314190E+04 -0.33979444157E+04  0.39214481330E+04  0.65864270000E+03 0.  0.
    8880022    1    1    2    0    0  0.70661571526E+03 -0.17025314190E+04  0.89478812238E+03  0.20547399930E+04  0.15294330000E+03 0.  0.
<mgrwt>
<rscale>  0 0.19299547E+04</rscale>
<asrwt>0</asrwt>
<pdfrwt beam="1">  1        2 0.65225726E+00 0.19574803E+04</pdfrwt>
<pdfrwt beam="2">  1       -2 0.26715630E+00 0.19574803E+04</pdfrwt>
<totfact> 0.96981489E-03</totfact>
</mgrwt>
</event>
<event>
 4    5  0.6615028E-008  0.1041308E+04  0.7818608E-02  0.9329404E-01
         -2   -1    0    0    0  501 -0.00000000000E+00  0.00000000000E+00  0.77699339878E+03  0.77699339879E+03  0.25500000000E-02 0.  1.
          2   -1    0    0  501    0  0.00000000000E+00 -0.00000000000E+00 -0.13390424773E+04  0.13390424773E+04  0.25500000000E-02 0. -1.
    8880023    1    1    2    0    0  0.28488377610E+03 -0.75455533074E+03 -0.73820932014E+03  0.12764308519E+04  0.65864270000E+03 0.  0.
    8880022    1    1    2    0    0 -0.28488377610E+03  0.75455533074E+03  0.17616024157E+03  0.83960502425E+03  0.15294330000E+03 0.  0.
<mgrwt>
<rscale>  0 0.98120381E+03</rscale>
<asrwt>0</asrwt>
<pdfrwt beam="1">  1        2 0.20600653E+00 0.10413082E+04</pdfrwt>
<pdfrwt beam="2">  1       -2 0.11953745E+00 0.10413082E+04</pdfrwt>
<totfact> 0.83202501E+00</totfact>
</mgrwt>
</event>
<event>
 4    5  0.8798157E-008  0.9238214E+03  0.7818608E-02  0.9488824E-01
         -2   -1    0    0    0  501 -0.00000000000E+00  0.00000000000E+00  0.14838393207E+04  0.14838393207E+04  0.25500000000E-02 0.  1.
          2   -1    0    0  501    0  0.00000000000E+00 -0.00000000000E+00 -0.24056854592E+04  0.24056854592E+04  0.25500000000E-02 0. -1.
    8880023    1    1    2    0    0  0.58002037999E+01 -0.64776707143E+03 -0.22344013405E+04  0.24178493291E+04  0.65864270000E+03 0. -1.
    8880022    1    1    2    0    0 -0.58002037999E+01  0.64776707143E+03  0.13125552020E+04  0.14716754508E+04  0.15294330000E+03 0.  0.
<mgrwt>
<rscale>  0 0.85112796E+03</rscale>
<asrwt>0</asrwt>
<pdfrwt beam="1">  1        2 0.37010546E+00 0.92382143E+03</pdfrwt>
<pdfrwt beam="2">  1       -2 0.22828297E+00 0.92382143E+03</pdfrwt>
<totfact> 0.35328349E-01</totfact>
</mgrwt>
</event>
<event>
 4    5  0.6615028E-008  0.8741035E+03  0.7818608E-02  0.9568952E-01
          2   -1    0    0  501    0  0.00000000000E+00  0.00000000000E+00  0.45954867458E+03  0.45954867459E+03  0.25500000000E-02 0. -1.
         -2   -1    0    0    0  501 -0.00000000000E+00 -0.00000000000E+00 -0.33112858978E+04  0.33112858978E+04  0.25500000000E-02 0.  1.
    8880023    1    1    2    0    0 -0.56840152478E+03 -0.84654269481E+02 -0.16870414920E+02  0.87426623856E+03  0.65864270000E+03 0.  0.
    8880022    1    1    2    0    0  0.56840152478E+03  0.84654269481E+02 -0.28348668083E+04  0.28965683338E+04  0.15294330000E+03 0.  0.
<mgrwt>
<rscale>  0 0.79385656E+03</rscale>
<asrwt>0</asrwt>
<pdfrwt beam="1">  1        2 0.70699798E-01 0.87410345E+03</pdfrwt>
<pdfrwt beam="2">  1       -2 0.50942858E+00 0.87410345E+03</pdfrwt>
<totfact> 0.10105103E-01</totfact>
</mgrwt>
</event>
<event>
 4    5  0.6615028E-008  0.8731236E+03  0.7818608E-02  0.9570632E-01
         -2   -1    0    0    0  501 -0.00000000000E+00  0.00000000000E+00  0.43312242968E+03  0.43312242968E+03  0.25500000000E-02 0.  1.
          2   -1    0    0  501    0  0.00000000000E+00 -0.00000000000E+00 -0.13874534701E+04  0.13874534701E+04  0.25500000000E-02 0. -1.
    8880023    1    1    2    0    0  0.52805247515E+03 -0.22292431051E+03 -0.84941883151E+03  0.12181367831E+04  0.65864270000E+03 0. -1.
    8880022    1    1    2    0    0 -0.52805247515E+03  0.22292431051E+03 -0.10491220891E+03  0.60243911669E+03  0.15294330000E+03 0.  1.
<mgrwt>
<rscale>  0 0.79270806E+03</rscale>
<asrwt>0</asrwt>
<pdfrwt beam="1">  1        2 0.21345438E+00 0.87312363E+03</pdfrwt>
<pdfrwt beam="2">  1       -2 0.66634220E-01 0.87312363E+03</pdfrwt>
<totfact> 0.30707032E+01</totfact>
</mgrwt>
</event>
<event>
 4    5  0.6615028E-008  0.6659839E+03  0.7818608E-02  0.1018722E+00
          2   -1    0    0  501    0  0.00000000000E+00  0.00000000000E+00  0.10993981456E+04  0.10993981456E+04  0.25500000000E-02 0. -1.
         -2   -1    0    0    0  501 -0.00000000000E+00 -0.00000000000E+00 -0.14426428112E+04  0.14426428112E+04  0.25500000000E-02 0.  1.
    8880023    1    1    2    0    0 -0.80974667806E+01 -0.98279262434E+02  0.99179739186E+03  0.11946533619E+04  0.65864270000E+03 0. -1.
    8880022    1    1    2    0    0  0.80974667806E+01  0.98279262434E+02 -0.13350420575E+04  0.13473875948E+04  0.15294330000E+03 0.  0.
<mgrwt>
<rscale>  0 0.48150700E+03</rscale>
<asrwt>0</asrwt>
<pdfrwt beam="1">  1        2 0.16913818E+00 0.66598393E+03</pdfrwt>
<pdfrwt beam="2">  1       -2 0.22194505E+00 0.66598393E+03</pdfrwt>
<totfact> 0.21884603E+00</totfact>
</mgrwt>
</event>
<event>
 4    5  0.6615028E-008  0.1011892E+04  0.7818608E-02  0.9366162E-01
          2   -1    0    0  501    0  0.00000000000E+00  0.00000000000E+00  0.22528774073E+04  0.22528774073E+04  0.25500000000E-02 0. -1.
         -2   -1    0    0    0  501 -0.00000000000E+00 -0.00000000000E+00 -0.22984278900E+04  0.22984278900E+04  0.25500000000E-02 0.  1.
    8880023    1    1    2    0    0 -0.77490762022E+02 -0.76427155931E+03  0.20652728124E+04  0.22998430012E+04  0.65864270000E+03 0. -1.
    8880022    1    1    2    0    0  0.77490762022E+02  0.76427155931E+03 -0.21108232950E+04  0.22514622960E+04  0.15294330000E+03 0.  0.
<mgrwt>
<rscale>  0 0.94913547E+03</rscale>
<asrwt>0</asrwt>
<pdfrwt beam="1">  1        2 0.34659653E+00 0.10118923E+04</pdfrwt>
<pdfrwt beam="2">  1       -2 0.35360429E+00 0.10118923E+04</pdfrwt>
<totfact> 0.72575108E-02</totfact>
</mgrwt>
</event>
<event>
 4    5  0.6615028E-008  0.1177927E+04  0.7818608E-02  0.9178883E-01
          2   -1    0    0  501    0  0.00000000000E+00  0.00000000000E+00  0.12228307570E+04  0.12228307570E+04  0.25500000000E-02 0. -1.
         -2   -1    0    0    0  501 -0.00000000000E+00 -0.00000000000E+00 -0.12105299728E+04  0.12105299728E+04  0.25500000000E-02 0.  1.
    8880023    1    1    2    0    0 -0.50376726423E+03 -0.83661290380E+03  0.55892582212E+03  0.13038063078E+04  0.65864270000E+03 0. -1.
    8880022    1    1    2    0    0  0.50376726423E+03  0.83661290380E+03 -0.54662503794E+03  0.11295544221E+04  0.15294330000E+03 0.  0.
<mgrwt>
<rscale>  0 0.11274075E+04</rscale>
<asrwt>0</asrwt>
<pdfrwt beam="1">  1        2 0.18812781E+00 0.11779273E+04</pdfrwt>
<pdfrwt beam="2">  1       -2 0.18623538E+00 0.11779273E+04</pdfrwt>
<totfact> 0.29357678E+00</totfact>
</mgrwt>
</event>
<event>
 4    5  0.6615028E-008  0.8681470E+03  0.7818608E-02  0.9579232E-01
          2   -1    0    0  501    0  0.00000000000E+00  0.00000000000E+00  0.24159504708E+04  0.24159504708E+04  0.25500000000E-02 0. -1.
         -2   -1    0    0    0  501 -0.00000000000E+00 -0.00000000000E+00 -0.72694382780E+03  0.72694382781E+03  0.25500000000E-02 0.  1.
    8880023    1    1    2    0    0 -0.46658709577E+03 -0.31963350098E+03  0.22002410524E+04  0.23653202717E+04  0.65864270000E+03 0.  0.
    8880022    1    1    2    0    0  0.46658709577E+03  0.31963350098E+03 -0.51123440941E+03  0.77757402688E+03  0.15294330000E+03 0.  0.
<mgrwt>
<rscale>  0 0.78686094E+03</rscale>
<asrwt>0</asrwt>
<pdfrwt beam="1">  1        2 0.37168469E+00 0.86814705E+03</pdfrwt>
<pdfrwt beam="2">  1       -2 0.11183751E+00 0.86814705E+03</pdfrwt>
<totfact> 0.25214122E+00</totfact>
</mgrwt>
</event>
<event>
 4    5  0.6615028E-008  0.6810797E+03  0.7818608E-02  0.1008719E+00
          2   -1    0    0  501    0  0.00000000000E+00  0.00000000000E+00  0.14903039870E+04  0.14903039870E+04  0.25500000000E-02 0. -1.
         -2   -1    0    0    0  501 -0.00000000000E+00 -0.00000000000E+00 -0.40051008442E+03  0.40051008443E+03  0.25500000000E-02 0.  1.
    8880023    1    1    2    0    0  0.16438710501E+03  0.55102021667E+02  0.13685502082E+04  0.15286592923E+04  0.65864270000E+03 0.  0.
    8880022    1    1    2    0    0 -0.16438710501E+03 -0.55102021667E+02 -0.27875630568E+03  0.36215477914E+03  0.15294330000E+03 0.  0.
<mgrwt>
<rscale>  0 0.51986782E+03</rscale>
<asrwt>0</asrwt>
<pdfrwt beam="1">  1        2 0.22927754E+00 0.68107970E+03</pdfrwt>
<pdfrwt beam="2">  1       -2 0.61616935E-01 0.68107970E+03</pdfrwt>
<totfact> 0.32452597E+01</totfact>
</mgrwt>
</event>
<event>
 4    5  0.6615028E-008  0.7724811E+03  0.7818608E-02  0.9773805E-01
         -2   -1    0    0    0  501 -0.00000000000E+00  0.00000000000E+00  0.76446813445E+03  0.76446813445E+03  0.25500000000E-02 0.  1.
          2   -1    0    0  501    0  0.00000000000E+00 -0.00000000000E+00 -0.15182455074E+04  0.15182455074E+04  0.25500000000E-02 0. -1.
    8880023    1    1    2    0    0  0.39749996857E+03 -0.70075315447E+02 -0.13447882784E+04  0.15508650795E+04  0.65864270000E+03 0.  0.
    8880022    1    1    2    0    0 -0.39749996857E+03  0.70075315447E+02  0.59101090544E+03  0.73184856235E+03  0.15294330000E+03 0.  0.
<mgrwt>
<rscale>  0 0.66787462E+03</rscale>
<asrwt>0</asrwt>
<pdfrwt beam="1">  1        2 0.23357623E+00 0.77248106E+03</pdfrwt>
<pdfrwt beam="2">  1       -2 0.11761048E+00 0.77248106E+03</pdfrwt>
<totfact> 0.70714950E+00</totfact>
</mgrwt>
</event>
<event>
 4    5  0.6615028E-008  0.1307051E+04  0.7818608E-02  0.9059494E-01
          2   -1    0    0  501    0  0.00000000000E+00  0.00000000000E+00  0.23800997364E+04  0.23800997364E+04  0.25500000000E-02 0. -1.
         -2   -1    0    0    0  501 -0.00000000000E+00 -0.00000000000E+00 -0.72853983569E+03  0.72853983570E+03  0.25500000000E-02 0.  1.
    8880023    1    1    2    0    0 -0.17749339504E+03  0.11149302057E+04  0.14491481758E+04  0.19515157982E+04  0.65864270000E+03 0. -1.
    8880022    1    1    2    0    0  0.17749339504E+03 -0.11149302057E+04  0.20241172495E+03  0.11571237740E+04  0.15294330000E+03 0.  0.
<mgrwt>
<rscale>  0 0.12629245E+04</rscale>
<asrwt>0</asrwt>
<pdfrwt beam="1">  1        2 0.36616920E+00 0.13070514E+04</pdfrwt>
<pdfrwt beam="2">  1       -2 0.11208305E+00 0.13070514E+04</pdfrwt>
<totfact> 0.24825301E+00</totfact>
</mgrwt>
</event>
<event>
 4    5  0.6615028E-008  0.6754209E+03  0.7818608E-02  0.1012042E+00
          2   -1    0    0  501    0  0.00000000000E+00  0.00000000000E+00  0.34023923144E+04  0.34023923144E+04  0.25500000000E-02 0. -1.
         -2   -1    0    0    0  501 -0.00000000000E+00 -0.00000000000E+00 -0.24137705363E+03  0.24137705364E+03  0.25500000000E-02 0.  1.
    8880023    1    1    2    0    0 -0.12295818568E+03  0.85231704345E+02  0.33131169832E+04  0.33812627093E+04  0.65864270000E+03 0. -1.
    8880022    1    1    2    0    0  0.12295818568E+03 -0.85231704345E+02 -0.15210172247E+03  0.26250665867E+03  0.15294330000E+03 0.  0.
<mgrwt>
<rscale>  0 0.50670966E+03</rscale>
<asrwt>0</asrwt>
<pdfrwt beam="1">  1        2 0.52344497E+00 0.67542088E+03</pdfrwt>
<pdfrwt beam="2">  1       -2 0.37134932E-01 0.67542088E+03</pdfrwt>
<totfact> 0.71109070E+00</totfact>
</mgrwt>
</event>
<event>
 4    5  0.6615028E-008  0.1562575E+04  0.7818608E-02  0.8866669E-01
          2   -1    0    0  501    0  0.00000000000E+00  0.00000000000E+00  0.31116295413E+04  0.31116295413E+04  0.25500000000E-02 0. -1.
         -2   -1    0    0    0  501 -0.00000000000E+00 -0.00000000000E+00 -0.12410950070E+04  0.12410950070E+04  0.25500000000E-02 0.  1.
    8880023    1    1    2    0    0 -0.14074041986E+04  0.16444647395E+03  0.23732343845E+04  0.28414575258E+04  0.65864270000E+03 0.  0.
    8880022    1    1    2    0    0  0.14074041986E+04 -0.16444647395E+03 -0.50269985024E+03  0.15112670225E+04  0.15294330000E+03 0.  0.
<mgrwt>
<rscale>  0 0.15270393E+04</rscale>
<asrwt>0</asrwt>
<pdfrwt beam="1">  1        2 0.47871223E+00 0.15625746E+04</pdfrwt>
<pdfrwt beam="2">  1       -2 0.19093769E+00 0.15625746E+04</pdfrwt>
<totfact> 0.21175401E-01</totfact>
</mgrwt>
</event>
<event>
 4    5  0.6615028E-008  0.1545380E+04  0.7818608E-02  0.8878239E-01
         -2   -1    0    0    0  501 -0.00000000000E+00  0.00000000000E+00  0.13450922941E+04  0.13450922941E+04  0.25500000000E-02 0.  1.
          2   -1    0    0  501    0  0.00000000000E+00 -0.00000000000E+00 -0.18961848912E+04  0.18961848912E+04  0.25500000000E-02 0. -1.
    8880023    1    1    2    0    0  0.13953962260E+04  0.85199876541E+02  0.33203284718E+03  0.15806472296E+04  0.65864270000E+03 0.  0.
    8880022    1    1    2    0    0 -0.13953962260E+04 -0.85199876541E+02 -0.88312544430E+03  0.16606299557E+04  0.15294330000E+03 0.  0.
<mgrwt>
<rscale>  0 0.15093807E+04</rscale>
<asrwt>0</asrwt>
<pdfrwt beam="1">  1        2 0.29172075E+00 0.15453802E+04</pdfrwt>
<pdfrwt beam="2">  1       -2 0.20693728E+00 0.15453802E+04</pdfrwt>
<totfact> 0.85517676E-01</totfact>
</mgrwt>
</event>
<event>
 4    5  0.6615028E-008  0.7219393E+03  0.7818608E-02  0.9916078E-01
          2   -1    0    0  501    0  0.00000000000E+00  0.00000000000E+00  0.19927163586E+04  0.19927163586E+04  0.25500000000E-02 0. -1.
         -2   -1    0    0    0  501 -0.00000000000E+00 -0.00000000000E+00 -0.17744196093E+03  0.17744196095E+03  0.25500000000E-02 0.  1.
    8880023    1    1    2    0    0  0.51108990789E+02  0.29115979959E+03  0.16446773266E+04  0.17961514058E+04  0.65864270000E+03 0. -1.
    8880022    1    1    2    0    0 -0.51108990789E+02 -0.29115979959E+03  0.17059707109E+03  0.37400691373E+03  0.15294330000E+03 0.  1.
<mgrwt>
<rscale>  0 0.59488376E+03</rscale>
<asrwt>0</asrwt>
<pdfrwt beam="1">  1        2 0.30657173E+00 0.72193931E+03</pdfrwt>
<pdfrwt beam="2">  1       -2 0.27298764E-01 0.72193931E+03</pdfrwt>
<totfact> 0.84809470E+01</totfact>
</mgrwt>
</event>
<event>
 4    5  0.6615028E-008  0.2019694E+04  0.7818608E-02  0.8609854E-01
         -2   -1    0    0    0  501 -0.00000000000E+00  0.00000000000E+00  0.26305206243E+04  0.26305206243E+04  0.25500000000E-02 0.  1.
          2   -1    0    0  501    0  0.00000000000E+00 -0.00000000000E+00 -0.18331299044E+04  0.18331299044E+04  0.25500000000E-02 0. -1.
    8880023    1    1    2    0    0  0.64535299741E+03  0.17969065011E+04 -0.58359944264E+03  0.21023206180E+04  0.65864270000E+03 0.  0.
    8880022    1    1    2    0    0 -0.64535299741E+03 -0.17969065011E+04  0.13809901625E+04  0.23613299107E+04  0.15294330000E+03 0.  0.
<mgrwt>
<rscale>  0 0.19930990E+04</rscale>
<asrwt>0</asrwt>
<pdfrwt beam="1">  1        2 0.28201999E+00 0.20196940E+04</pdfrwt>
<pdfrwt beam="2">  1       -2 0.40469548E+00 0.20196940E+04</pdfrwt>
<totfact> 0.50695727E-02</totfact>
</mgrwt>
</event>
<event>
 4    5  0.6615028E-008  0.1656172E+04  0.7818608E-02  0.8806569E-01
          2   -1    0    0  501    0  0.00000000000E+00  0.00000000000E+00  0.13576773814E+04  0.13576773814E+04  0.25500000000E-02 0. -1.
         -2   -1    0    0    0  501 -0.00000000000E+00 -0.00000000000E+00 -0.19206300315E+04  0.19206300315E+04  0.25500000000E-02 0.  1.
    8880023    1    1    2    0    0 -0.94443983425E+02 -0.15166328461E+04 -0.56856645042E+03  0.17510490772E+04  0.65864270000E+03 0.  0.
    8880022    1    1    2    0    0  0.94443983425E+02  0.15166328461E+04  0.56138003306E+01  0.15272583356E+04  0.15294330000E+03 0.  0.
<mgrwt>
<rscale>  0 0.16229548E+04</rscale>
<asrwt>0</asrwt>
<pdfrwt beam="1">  1        2 0.20887344E+00 0.16561718E+04</pdfrwt>
<pdfrwt beam="2">  1       -2 0.29548154E+00 0.16561718E+04</pdfrwt>
<totfact> 0.48119569E-01</totfact>
</mgrwt>
</event>
<event>
 4    5  0.6615028E-008  0.2088165E+04  0.7818608E-02  0.8577935E-01
          2   -1    0    0  501    0  0.00000000000E+00  0.00000000000E+00  0.34525599886E+04  0.34525599886E+04  0.25500000000E-02 0. -1.
         -2   -1    0    0    0  501 -0.00000000000E+00 -0.00000000000E+00 -0.15738188411E+04  0.15738188411E+04  0.25500000000E-02 0.  1.
    8880023    1    1    2    0    0  0.55487758231E+03  0.19022971483E+04  0.21770893559E+04  0.30166457932E+04  0.65864270000E+03 0.  0.
    8880022    1    1    2    0    0 -0.55487758231E+03 -0.19022971483E+04 -0.29834820840E+03  0.20097330365E+04  0.15294330000E+03 0.  0.
<mgrwt>
<rscale>  0 0.20625215E+04</rscale>
<asrwt>0</asrwt>
<pdfrwt beam="1">  1        2 0.53116307E+00 0.20881652E+04</pdfrwt>
<pdfrwt beam="2">  1       -2 0.24212598E+00 0.20881652E+04</pdfrwt>
<totfact> 0.55530459E-02</totfact>
</mgrwt>
</event>
<event>
 4    5  0.6615028E-008  0.6995483E+03  0.7818608E-02  0.9999080E-01
          2   -1    0    0  501    0  0.00000000000E+00  0.00000000000E+00  0.25323570770E+04  0.25323570770E+04  0.25500000000E-02 0. -1.
         -2   -1    0    0    0  501 -0.00000000000E+00 -0.00000000000E+00 -0.61615164732E+03  0.61615164733E+03  0.25500000000E-02 0.  1.
    8880023    1    1    2    0    0  0.48889919463E+02 -0.23058050910E+03  0.24485726097E+04  0.25465418957E+04  0.65864270000E+03 0. -1.
    8880022    1    1    2    0    0 -0.48889919463E+02  0.23058050910E+03 -0.53236718001E+03  0.60196682862E+03  0.15294330000E+03 0.  0.
<mgrwt>
<rscale>  0 0.55690584E+03</rscale>
<asrwt>0</asrwt>
<pdfrwt beam="1">  1        2 0.38959340E+00 0.69954828E+03</pdfrwt>
<pdfrwt beam="2">  1       -2 0.94792560E-01 0.69954828E+03</pdfrwt>
<totfact> 0.33154784E+00</totfact>
</mgrwt>
</event>
<event>
 4    5  0.6615028E-008  0.8952513E+03  0.7818608E-02  0.9533698E-01
         -2   -1    0    0    0  501 -0.00000000000E+00  0.00000000000E+00  0.45271155141E+03  0.45271155142E+03  0.25500000000E-02 0.  1.
          2   -1    0    0  501    0  0.00000000000E+00 -0.00000000000E+00 -0.16886665299E+04  0.16886665299E+04  0.25500000000E-02 0. -1.
    8880023    1    1    2    0    0  0.60357530110E+03  0.57978260697E+02 -0.17852601868E+03  0.91287806876E+03  0.65864270000E+03 0.  0.
    8880022    1    1    2    0    0 -0.60357530110E+03 -0.57978260697E+02 -0.10574289598E+04  0.12285000125E+04  0.15294330000E+03 0.  0.
<mgrwt>
<rscale>  0 0.81844333E+03</rscale>
<asrwt>0</asrwt>
<pdfrwt beam="1">  1        2 0.25979485E+00 0.89525127E+03</pdfrwt>
<pdfrwt beam="2">  1       -2 0.69647932E-01 0.89525127E+03</pdfrwt>
<totfact> 0.18891824E+01</totfact>
</mgrwt>
</event>
<event>
 4    5  0.6615028E-008  0.8413888E+03  0.7818608E-02  0.9627567E-01
          2   -1    0    0  501    0  0.00000000000E+00  0.00000000000E+00  0.97060430307E+03  0.97060430308E+03  0.25500000000E-02 0. -1.
         -2   -1    0    0    0  501 -0.00000000000E+00 -0.00000000000E+00 -0.10010752722E+04  0.10010752722E+04  0.25500000000E-02 0.  1.
    8880023    1    1    2    0    0 -0.47766999531E+03  0.21437414938E+03  0.67588335887E+03  0.10792374259E+04  0.65864270000E+03 0.  0.
    8880022    1    1    2    0    0  0.47766999531E+03 -0.21437414938E+03 -0.70635432800E+03  0.89244214941E+03  0.15294330000E+03 0.  0.
<mgrwt>
<rscale>  0 0.75498172E+03</rscale>
<asrwt>0</asrwt>
<pdfrwt beam="1">  1        2 0.14932374E+00 0.84138880E+03</pdfrwt>
<pdfrwt beam="2">  1       -2 0.15401158E+00 0.84138880E+03</pdfrwt>
<totfact> 0.74043306E+00</totfact>
</mgrwt>
</event>
<event>
 4    5  0.6615028E-008  0.8443428E+03  0.7818608E-02  0.9622045E-01
          2   -1    0    0  501    0  0.00000000000E+00  0.00000000000E+00  0.18041761051E+04  0.18041761051E+04  0.25500000000E-02 0. -1.
         -2   -1    0    0    0  501 -0.00000000000E+00 -0.00000000000E+00 -0.33348992187E+03  0.33348992188E+03  0.25500000000E-02 0.  1.
    8880023    1    1    2    0    0 -0.52517772228E+03 -0.57384608396E+02  0.13207880925E+04  0.15676083774E+04  0.65864270000E+03 0. -1.
    8880022    1    1    2    0    0  0.52517772228E+03  0.57384608396E+02  0.14989809072E+03  0.57005764961E+03  0.15294330000E+03 0.  0.
<mgrwt>
<rscale>  0 0.75854112E+03</rscale>
<asrwt>0</asrwt>
<pdfrwt beam="1">  1        2 0.27756556E+00 0.84434284E+03</pdfrwt>
<pdfrwt beam="2">  1       -2 0.51306141E-01 0.84434284E+03</pdfrwt>
<totfact> 0.31342067E+01</totfact>
</mgrwt>
</event>
<event>
 4    5  0.6615028E-008  0.8946255E+03  0.7818608E-02  0.9534715E-01
          2   -1    0    0  501    0  0.00000000000E+00  0.00000000000E+00  0.20681916792E+03  0.20681916794E+03  0.25500000000E-02 0. -1.
         -2   -1    0    0    0  501 -0.00000000000E+00 -0.00000000000E+00 -0.32232747551E+04  0.32232747551E+04  0.25500000000E-02 0.  1.
    8880023    1    1    2    0    0  0.40590290462E+03  0.44920751487E+03 -0.11197911281E+04  0.14332783875E+04  0.65864270000E+03 0. -1.
    8880022    1    1    2    0    0 -0.40590290462E+03 -0.44920751487E+03 -0.18966644591E+04  0.19968155355E+04  0.15294330000E+03 0.  0.
<mgrwt>
<rscale>  0 0.81772099E+03</rscale>
<asrwt>0</asrwt>
<pdfrwt beam="1">  1        2 0.31818336E-01 0.89462549E+03</pdfrwt>
<pdfrwt beam="2">  1       -2 0.49588839E+00 0.89462549E+03</pdfrwt>
<totfact> 0.30087475E-01</totfact>
</mgrwt>
</event>
<event>
 4    5  0.6615028E-008  0.1129768E+04  0.7818608E-02  0.9228615E-01
         -2   -1    0    0    0  501 -0.00000000000E+00  0.00000000000E+00  0.64656375128E+03  0.64656375129E+03  0.25500000000E-02 0.  1.
          2   -1    0    0  501    0  0.00000000000E+00 -0.00000000000E+00 -0.24149096992E+04  0.24149096992E+04  0.25500000000E-02 0. -1.
    8880023    1    1    2    0    0  0.85694169704E+03  0.32896340670E+03 -0.18058676286E+04  0.21301488430E+04  0.65864270000E+03 0. -1.
    8880022    1    1    2    0    0 -0.85694169704E+03 -0.32896340670E+03  0.37521680622E+02  0.93132460754E+03  0.15294330000E+03 0.  0.
<mgrwt>
<rscale>  0 0.10762895E+04</rscale>
<asrwt>0</asrwt>
<pdfrwt beam="1">  1        2 0.37152456E+00 0.11297682E+04</pdfrwt>
<pdfrwt beam="2">  1       -2 0.99471348E-01 0.11297682E+04</pdfrwt>
<totfact> 0.32295429E+00</totfact>
</mgrwt>
</event>
<event>
 4    5  0.6615028E-008  0.1116141E+04  0.7818608E-02  0.9243294E-01
         -2   -1    0    0    0  501 -0.00000000000E+00  0.00000000000E+00  0.13204555599E+04  0.13204555599E+04  0.25500000000E-02 0.  1.
          2   -1    0    0  501    0  0.00000000000E+00 -0.00000000000E+00 -0.16988819378E+04  0.16988819378E+04  0.25500000000E-02 0. -1.
    8880023    1    1    2    0    0 -0.61481832372E+03 -0.65875630794E+03 -0.13054316942E+04  0.17175341508E+04  0.65864270000E+03 0.  0.
    8880022    1    1    2    0    0  0.61481832372E+03  0.65875630794E+03  0.92700531642E+03  0.13018033469E+04  0.15294330000E+03 0.  0.
<mgrwt>
<rscale>  0 0.10617522E+04</rscale>
<asrwt>0</asrwt>
<pdfrwt beam="1">  1        2 0.26136645E+00 0.11161414E+04</pdfrwt>
<pdfrwt beam="2">  1       -2 0.20314701E+00 0.11161414E+04</pdfrwt>
<totfact> 0.12208803E+00</totfact>
</mgrwt>
</event>
<event>
 4    5  0.6615028E-008  0.7714755E+03  0.7818608E-02  0.9776256E-01
         -2   -1    0    0    0  501 -0.00000000000E+00  0.00000000000E+00  0.10463133493E+04  0.10463133493E+04  0.25500000000E-02 0.  1.
          2   -1    0    0  501    0  0.00000000000E+00 -0.00000000000E+00 -0.34016910653E+04  0.34016910653E+04  0.25500000000E-02 0. -1.
    8880023    1    1    2    0    0 -0.26961686639E+03 -0.29777661295E+03 -0.33112510206E+04  0.33999349544E+04  0.65864270000E+03 0.  0.
    8880022    1    1    2    0    0  0.26961686639E+03  0.29777661295E+03  0.95587330468E+03  0.10480694602E+04  0.15294330000E+03 0.  0.
<mgrwt>
<rscale>  0 0.66652486E+03</rscale>
<asrwt>0</asrwt>
<pdfrwt beam="1">  1        2 0.52333708E+00 0.77147545E+03</pdfrwt>
<pdfrwt beam="2">  1       -2 0.16097129E+00 0.77147545E+03</pdfrwt>
<totfact> 0.25476001E-01</totfact>
</mgrwt>
</event>
<event>
 4    5  0.6615028E-008  0.9387286E+03  0.7818608E-02  0.9466520E-01
          2   -1    0    0  501    0  0.00000000000E+00  0.00000000000E+00  0.12225161862E+04  0.12225161862E+04  0.25500000000E-02 0. -1.
         -2   -1    0    0    0  501 -0.00000000000E+00 -0.00000000000E+00 -0.66438126442E+03  0.66438126443E+03  0.25500000000E-02 0.  1.
    8880023    1    1    2    0    0  0.64630814568E+03  0.17229914116E+03  0.71864777857E+03  0.11822292710E+04  0.65864270000E+03 0.  0.
    8880022    1    1    2    0    0 -0.64630814568E+03 -0.17229914116E+03 -0.16051285679E+03  0.70466817966E+03  0.15294330000E+03 0.  1.
<mgrwt>
<rscale>  0 0.86797812E+03</rscale>
<asrwt>0</asrwt>
<pdfrwt beam="1">  1        2 0.18807941E+00 0.93872862E+03</pdfrwt>
<pdfrwt beam="2">  1       -2 0.10221250E+00 0.93872862E+03</pdfrwt>
<totfact> 0.14392249E+01</totfact>
</mgrwt>
</event>
<event>
 4    5  0.6615028E-008  0.9644274E+03  0.7818608E-02  0.9429653E-01
         -2   -1    0    0    0  501 -0.00000000000E+00  0.00000000000E+00  0.47456794390E+03  0.47456794390E+03  0.25500000000E-02 0.  1.
          2   -1    0    0  501    0  0.00000000000E+00 -0.00000000000E+00 -0.16992444491E+04  0.16992444491E+04  0.25500000000E-02 0. -1.
    8880023    1    1    2    0    0 -0.10592042035E+03 -0.69648461827E+03 -0.10624261772E+04  0.14348761435E+04  0.65864270000E+03 0.  0.
    8880022    1    1    2    0    0  0.10592042035E+03  0.69648461827E+03 -0.16225032807E+03  0.73893624956E+03  0.15294330000E+03 0.  0.
<mgrwt>
<rscale>  0 0.89675004E+03</rscale>
<asrwt>0</asrwt>
<pdfrwt beam="1">  1        2 0.26142222E+00 0.96442738E+03</pdfrwt>
<pdfrwt beam="2">  1       -2 0.73010454E-01 0.96442738E+03</pdfrwt>
<totfact> 0.16683505E+01</totfact>
</mgrwt>
</event>
<event>
 4    5  0.6615028E-008  0.1239322E+04  0.7818608E-02  0.9119815E-01
         -2   -1    0    0    0  501 -0.00000000000E+00  0.00000000000E+00  0.25375587874E+04  0.25375587874E+04  0.25500000000E-02 0.  1.
          2   -1    0    0  501    0  0.00000000000E+00 -0.00000000000E+00 -0.64105309565E+03  0.64105309566E+03  0.25500000000E-02 0. -1.
    8880023    1    1    2    0    0 -0.99674963883E+03  0.32954421180E+03  0.32274178844E+03  0.12806567449E+04  0.65864270000E+03 0.  0.
    8880022    1    1    2    0    0  0.99674963883E+03 -0.32954421180E+03  0.15737639033E+04  0.18979551382E+04  0.15294330000E+03 0.  0.
<mgrwt>
<rscale>  0 0.11920827E+04</rscale>
<asrwt>0</asrwt>
<pdfrwt beam="1">  1        2 0.98623554E-01 0.12393222E+04</pdfrwt>
<pdfrwt beam="2">  1       -2 0.39039366E+00 0.12393222E+04</pdfrwt>
<totfact> 0.38664970E-01</totfact>
</mgrwt>
</event>
<event>
 4    5  0.6615028E-008  0.7375899E+03  0.7818608E-02  0.9867024E-01
         -2   -1    0    0    0  501 -0.00000000000E+00  0.00000000000E+00  0.52978973268E+03  0.52978973269E+03  0.25500000000E-02 0.  1.
          2   -1    0    0  501    0  0.00000000000E+00 -0.00000000000E+00 -0.36895837826E+04  0.36895837826E+04  0.25500000000E-02 0. -1.
    8880023    1    1    2    0    0 -0.23447152797E+03  0.23505680449E+03 -0.35841659438E+04  0.36592737419E+04  0.65864270000E+03 0. -1.
    8880022    1    1    2    0    0  0.23447152797E+03 -0.23505680449E+03  0.42437189394E+03  0.56009977339E+03  0.15294330000E+03 0.  0.
<mgrwt>
<rscale>  0 0.61886403E+03</rscale>
<asrwt>0</asrwt>
<pdfrwt beam="1">  1        2 0.56762826E+00 0.73758986E+03</pdfrwt>
<pdfrwt beam="2">  1       -2 0.81506115E-01 0.73758986E+03</pdfrwt>
<totfact> 0.86671306E-01</totfact>
</mgrwt>
</event>
<event>
 4    5  0.6615028E-008  0.7488517E+03  0.7818608E-02  0.9834874E-01
         -2   -1    0    0    0  501 -0.00000000000E+00  0.00000000000E+00  0.45258108275E+03  0.45258108276E+03  0.25500000000E-02 0.  1.
          2   -1    0    0  501    0  0.00000000000E+00 -0.00000000000E+00 -0.39730548218E+04  0.39730548218E+04  0.25500000000E-02 0. -1.
    8880023    1    1    2    0    0  0.33043579142E+03 -0.13334508663E+03 -0.38466903220E+04  0.39189035921E+04  0.65864270000E+03 0. -1.
    8880022    1    1    2    0    0 -0.33043579142E+03  0.13334508663E+03  0.32621658303E+03  0.50673231240E+03  0.15294330000E+03 0.  0.
<mgrwt>
<rscale>  0 0.63524106E+03</rscale>
<asrwt>0</asrwt>
<pdfrwt beam="1">  1        2 0.61123918E+00 0.74885174E+03</pdfrwt>
<pdfrwt beam="2">  1       -2 0.69627862E-01 0.74885174E+03</pdfrwt>
<totfact> 0.75229606E-01</totfact>
</mgrwt>
</event>
<event>
 4    5  0.6671918E-008  0.1438393E+04  0.7818608E-02  0.8954410E-01
         -2   -1    0    0    0  501 -0.00000000000E+00  0.00000000000E+00  0.20410389566E+04  0.20410389566E+04  0.25500000000E-02 0.  1.
          2   -1    0    0  501    0  0.00000000000E+00 -0.00000000000E+00 -0.24113931464E+04  0.24113931464E+04  0.25500000000E-02 0. -1.
    8880023    1    1    2    0    0 -0.12441299969E+04 -0.29547450535E+03 -0.19444409284E+04  0.24186412224E+04  0.65864270000E+03 0.  0.
    8880022    1    1    2    0    0  0.12441299969E+04  0.29547450535E+03  0.15740867386E+04  0.20337908806E+04  0.15294330000E+03 0.  0.
<mgrwt>
<rscale>  0 0.13991829E+04</rscale>
<asrwt>0</asrwt>
<pdfrwt beam="1">  1        2 0.37098356E+00 0.14383931E+04</pdfrwt>
<pdfrwt beam="2">  1       -2 0.31400600E+00 0.14383931E+04</pdfrwt>
<totfact> 0.96623709E-02</totfact>
</mgrwt>
</event>
<event>
 4    5  0.6615028E-008  0.1389922E+04  0.7818608E-02  0.8991554E-01
          2   -1    0    0  501    0  0.00000000000E+00  0.00000000000E+00  0.17168086796E+04  0.17168086796E+04  0.25500000000E-02 0. -1.
         -2   -1    0    0    0  501 -0.00000000000E+00 -0.00000000000E+00 -0.13629805345E+04  0.13629805345E+04  0.25500000000E-02 0.  1.
    8880023    1    1    2    0    0  0.11789582227E+04 -0.32883004937E+03  0.97591529764E+03  0.16983205135E+04  0.65864270000E+03 0. -1.
    8880022    1    1    2    0    0 -0.11789582227E+04  0.32883004937E+03 -0.62208715258E+03  0.13814687006E+04  0.15294330000E+03 0.  0.
<mgrwt>
<rscale>  0 0.13490418E+04</rscale>
<asrwt>0</asrwt>
<pdfrwt beam="1">  1        2 0.26412441E+00 0.13899215E+04</pdfrwt>
<pdfrwt beam="2">  1       -2 0.20968931E+00 0.13899215E+04</pdfrwt>
<totfact> 0.10491863E+00</totfact>
</mgrwt>
</event>
<event>
 4    5  0.6615028E-008  0.1366564E+04  0.7818608E-02  0.9010108E-01
         -2   -1    0    0    0  501 -0.00000000000E+00  0.00000000000E+00  0.22574601802E+04  0.22574601802E+04  0.25500000000E-02 0.  1.
          2   -1    0    0  501    0  0.00000000000E+00 -0.00000000000E+00 -0.12709831297E+04  0.12709831297E+04  0.25500000000E-02 0. -1.
    8880023    1    1    2    0    0  0.11616522136E+04  0.29026153105E+03 -0.63508156676E+03  0.15069261509E+04  0.65864270000E+03 0.  0.
    8880022    1    1    2    0    0 -0.11616522136E+04 -0.29026153105E+03  0.16215586173E+04  0.20215171590E+04  0.15294330000E+03 0.  0.
<mgrwt>
<rscale>  0 0.13248232E+04</rscale>
<asrwt>0</asrwt>
<pdfrwt beam="1">  1        2 0.19553587E+00 0.13665642E+04</pdfrwt>
<pdfrwt beam="2">  1       -2 0.34730156E+00 0.13665642E+04</pdfrwt>
<totfact> 0.26689331E-01</totfact>
</mgrwt>
</event>
<event>
 4    5  0.6615028E-008  0.1570850E+04  0.7818608E-02  0.8861161E-01
          2   -1    0    0  501    0  0.00000000000E+00  0.00000000000E+00  0.15449464223E+04  0.15449464223E+04  0.25500000000E-02 0. -1.
         -2   -1    0    0    0  501 -0.00000000000E+00 -0.00000000000E+00 -0.18077178575E+04  0.18077178575E+04  0.25500000000E-02 0.  1.
    8880023    1    1    2    0    0  0.57433419375E+03  0.13053349359E+04  0.59695777344E+03  0.16804546559E+04  0.65864270000E+03 0.  0.
    8880022    1    1    2    0    0 -0.57433419375E+03 -0.13053349359E+04 -0.85972920864E+03  0.16722096239E+04  0.15294330000E+03 0.  0.
<mgrwt>
<rscale>  0 0.15355334E+04</rscale>
<asrwt>0</asrwt>
<pdfrwt beam="1">  1        2 0.23768407E+00 0.15708499E+04</pdfrwt>
<pdfrwt beam="2">  1       -2 0.27811044E+00 0.15708499E+04</pdfrwt>
<totfact> 0.48333404E-01</totfact>
</mgrwt>
</event>
<event>
 4    5  0.6615028E-008  0.7686480E+03  0.7818608E-02  0.9783212E-01
          2   -1    0    0  501    0  0.00000000000E+00  0.00000000000E+00  0.17353182938E+04  0.17353182938E+04  0.25500000000E-02 0. -1.
         -2   -1    0    0    0  501 -0.00000000000E+00 -0.00000000000E+00 -0.59759771464E+03  0.59759771464E+03  0.25500000000E-02 0.  1.
    8880023    1    1    2    0    0  0.19451814817E+03 -0.34521330144E+03  0.15568116123E+04  0.17362264069E+04  0.65864270000E+03 0. -1.
    8880022    1    1    2    0    0 -0.19451814817E+03  0.34521330144E+03 -0.41909103319E+03  0.59668960153E+03  0.15294330000E+03 0.  0.
<mgrwt>
<rscale>  0 0.66271309E+03</rscale>
<asrwt>0</asrwt>
<pdfrwt beam="1">  1        2 0.26697205E+00 0.76864799E+03</pdfrwt>
<pdfrwt beam="2">  1       -2 0.91938110E-01 0.76864799E+03</pdfrwt>
<totfact> 0.96802788E+00</totfact>
</mgrwt>
</event>
<event>
 4    5  0.6615028E-008  0.9394185E+03  0.7818608E-02  0.9465505E-01
          2   -1    0    0  501    0  0.00000000000E+00  0.00000000000E+00  0.28158278498E+04  0.28158278498E+04  0.25500000000E-02 0. -1.
         -2   -1    0    0    0  501 -0.00000000000E+00 -0.00000000000E+00 -0.43018192111E+03  0.43018192112E+03  0.25500000000E-02 0.  1.
    8880023    1    1    2    0    0  0.20624061210E+03  0.63730823697E+03  0.23802245228E+04  0.25589013197E+04  0.65864270000E+03 0. -1.
    8880022    1    1    2    0    0 -0.20624061210E+03 -0.63730823697E+03  0.54214058701E+01  0.68710845115E+03  0.15294330000E+03 0.  0.
<mgrwt>
<rscale>  0 0.86875494E+03</rscale>
<asrwt>0</asrwt>
<pdfrwt beam="1">  1        2 0.43320430E+00 0.93941854E+03</pdfrwt>
<pdfrwt beam="2">  1       -2 0.66181832E-01 0.93941854E+03</pdfrwt>
<totfact> 0.48774648E+00</totfact>
</mgrwt>
</event>
<event>
 4    5  0.6615028E-008  0.1328800E+04  0.7818608E-02  0.9041080E-01
         -2   -1    0    0    0  501 -0.00000000000E+00  0.00000000000E+00  0.37919820362E+04  0.37919820362E+04  0.25500000000E-02 0.  1.
          2   -1    0    0  501    0  0.00000000000E+00 -0.00000000000E+00 -0.46106446324E+03  0.46106446324E+03  0.25500000000E-02 0. -1.
    8880023    1    1    2    0    0  0.11400839387E+04  0.17918541308E+03  0.10550714838E+04  0.16967276864E+04  0.65864270000E+03 0.  0.
    8880022    1    1    2    0    0 -0.11400839387E+04 -0.17918541308E+03  0.22758460891E+04  0.25563188130E+04  0.15294330000E+03 0.  0.
<mgrwt>
<rscale>  0 0.12855789E+04</rscale>
<asrwt>0</asrwt>
<pdfrwt beam="1">  1        2 0.70932996E-01 0.13287998E+04</pdfrwt>
<pdfrwt beam="2">  1       -2 0.58338184E+00 0.13287998E+04</pdfrwt>
<totfact> 0.38136788E-02</totfact>
</mgrwt>
</event>
<event>
 4    5  0.6615028E-008  0.7539864E+03  0.7818608E-02  0.9820932E-01
          2   -1    0    0  501    0  0.00000000000E+00  0.00000000000E+00  0.57041028234E+03  0.57041028235E+03  0.25500000000E-02 0. -1.
         -2   -1    0    0    0  501 -0.00000000000E+00 -0.00000000000E+00 -0.20510019822E+04  0.20510019822E+04  0.25500000000E-02 0.  1.
    8880023    1    1    2    0    0  0.16928484510E+03  0.32561926177E+03  0.28917266413E+03  0.80753718079E+03  0.65864270000E+03 0. -1.
    8880022    1    1    2    0    0 -0.16928484510E+03 -0.32561926177E+03 -0.17697643640E+04  0.18138750837E+04  0.15294330000E+03 0.  0.
<mgrwt>
<rscale>  0 0.64251191E+03</rscale>
<asrwt>0</asrwt>
<pdfrwt beam="1">  1        2 0.87755429E-01 0.75398638E+03</pdfrwt>
<pdfrwt beam="2">  1       -2 0.31553876E+00 0.75398638E+03</pdfrwt>
<totfact> 0.14057278E+00</totfact>
</mgrwt>
</event>
<event>
 4    5  0.6615028E-008  0.1532390E+04  0.7818608E-02  0.8887097E-01
         -2   -1    0    0    0  501 -0.00000000000E+00  0.00000000000E+00  0.24189795985E+04  0.24189795985E+04  0.25500000000E-02 0.  1.
          2   -1    0    0  501    0  0.00000000000E+00 -0.00000000000E+00 -0.18127095452E+04  0.18127095452E+04  0.25500000000E-02 0. -1.
    8880023    1    1    2    0    0  0.13779956145E+04 -0.12464427708E+03 -0.12034861283E+04  0.19484858677E+04  0.65864270000E+03 0.  0.
    8880022    1    1    2    0    0 -0.13779956145E+04  0.12464427708E+03  0.18097561816E+04  0.22832032759E+04  0.15294330000E+03 0.  0.
<mgrwt>
<rscale>  0 0.14960308E+04</rscale>
<asrwt>0</asrwt>
<pdfrwt beam="1">  1        2 0.27887839E+00 0.15323897E+04</pdfrwt>
<pdfrwt beam="2">  1       -2 0.37215071E+00 0.15323897E+04</pdfrwt>
<totfact> 0.89419813E-02</totfact>
</mgrwt>
</event>
<event>
 4    5  0.6615028E-008  0.1329264E+04  0.7818608E-02  0.9040692E-01
          2   -1    0    0  501    0  0.00000000000E+00  0.00000000000E+00  0.20396514962E+04  0.20396514962E+04  0.25500000000E-02 0. -1.
         -2   -1    0    0    0  501 -0.00000000000E+00 -0.00000000000E+00 -0.13709751262E+04  0.13709751262E+04  0.25500000000E-02 0.  1.
    8880023    1    1    2    0    0  0.38432977883E+03  0.10887715487E+04  0.14814386097E+04  0.19903777091E+04  0.65864270000E+03 0.  0.
    8880022    1    1    2    0    0 -0.38432977883E+03 -0.10887715487E+04 -0.81276223974E+03  0.14202489132E+04  0.15294330000E+03 0.  0.
<mgrwt>
<rscale>  0 0.12860620E+04</rscale>
<asrwt>0</asrwt>
<pdfrwt beam="1">  1        2 0.31379254E+00 0.13292641E+04</pdfrwt>
<pdfrwt beam="2">  1       -2 0.21091925E+00 0.13292641E+04</pdfrwt>
<totfact> 0.68597995E-01</totfact>
</mgrwt>
</event>
<event>
 4    5  0.6615028E-008  0.6713420E+03  0.7818608E-02  0.1014719E+00
         -2   -1    0    0    0  501 -0.00000000000E+00  0.00000000000E+00  0.27979947577E+03  0.27979947579E+03  0.25500000000E-02 0.  1.
          2   -1    0    0  501    0  0.00000000000E+00 -0.00000000000E+00 -0.16770864891E+04  0.16770864891E+04  0.25500000000E-02 0. -1.
    8880023    1    1    2    0    0  0.12939156062E+03  0.12154146875E+02 -0.15601222760E+04  0.16984350507E+04  0.65864270000E+03 0. -1.
    8880022    1    1    2    0    0 -0.12939156062E+03 -0.12154146875E+02  0.16283526266E+03  0.25845091416E+03  0.15294330000E+03 0.  0.
<mgrwt>
<rscale>  0 0.49641643E+03</rscale>
<asrwt>0</asrwt>
<pdfrwt beam="1">  1        2 0.25801330E+00 0.67134202E+03</pdfrwt>
<pdfrwt beam="2">  1       -2 0.43046074E-01 0.67134202E+03</pdfrwt>
<totfact> 0.53405897E+01</totfact>
</mgrwt>
</event>
<event>
 4    5  0.6615028E-008  0.1101831E+04  0.7818608E-02  0.9259020E-01
         -2   -1    0    0    0  501 -0.00000000000E+00  0.00000000000E+00  0.67953459918E+03  0.67953459918E+03  0.25500000000E-02 0.  1.
          2   -1    0    0  501    0  0.00000000000E+00 -0.00000000000E+00 -0.17555671929E+04  0.17555671929E+04  0.25500000000E-02 0. -1.
    8880023    1    1    2    0    0 -0.57001725809E+03 -0.67476048170E+03 -0.10739771500E+04  0.15386547719E+04  0.65864270000E+03 0.  0.
    8880022    1    1    2    0    0  0.57001725809E+03  0.67476048170E+03 -0.20554437945E+01  0.89644702022E+03  0.15294330000E+03 0.  0.
<mgrwt>
<rscale>  0 0.10464467E+04</rscale>
<asrwt>0</asrwt>
<pdfrwt beam="1">  1        2 0.27008726E+00 0.11018310E+04</pdfrwt>
<pdfrwt beam="2">  1       -2 0.10454379E+00 0.11018310E+04</pdfrwt>
<totfact> 0.66931508E+00</totfact>
</mgrwt>
</event>
<event>
 4    5  0.6615028E-008  0.1749333E+04  0.7818608E-02  0.8751094E-01
          2   -1    0    0  501    0  0.00000000000E+00  0.00000000000E+00  0.27853637668E+04  0.27853637668E+04  0.25500000000E-02 0. -1.
         -2   -1    0    0    0  501 -0.00000000000E+00 -0.00000000000E+00 -0.26837905915E+04  0.26837905915E+04  0.25500000000E-02 0.  1.
    8880023    1    1    2    0    0  0.69204270936E+03 -0.14654123710E+04 -0.20987206513E+04  0.27321777224E+04  0.65864270000E+03 0.  0.
    8880022    1    1    2    0    0 -0.69204270936E+03  0.14654123710E+04  0.22002938266E+04  0.27369766358E+04  0.15294330000E+03 0.  0.
<mgrwt>
<rscale>  0 0.17181259E+04</rscale>
<asrwt>0</asrwt>
<pdfrwt beam="1">  1        2 0.42851750E+00 0.17493332E+04</pdfrwt>
<pdfrwt beam="2">  1       -2 0.41289086E+00 0.17493332E+04</pdfrwt>
<totfact> 0.13083967E-02</totfact>
</mgrwt>
</event>
<event>
 4    5  0.6615028E-008  0.6785643E+03  0.7818608E-02  0.1010148E+00
          2   -1    0    0  501    0  0.00000000000E+00  0.00000000000E+00  0.13211210160E+04  0.13211210160E+04  0.25500000000E-02 0. -1.
         -2   -1    0    0    0  501 -0.00000000000E+00 -0.00000000000E+00 -0.24697562511E+03  0.24697562512E+03  0.25500000000E-02 0.  1.
    8880023    1    1    2    0    0 -0.58704871227E+02 -0.15229272332E+03  0.11471419816E+04  0.13328106646E+04  0.65864270000E+03 0. -1.
    8880022    1    1    2    0    0  0.58704871227E+02  0.15229272332E+03 -0.72996590690E+02  0.23528597652E+03  0.15294330000E+03 0.  0.
<mgrwt>
<rscale>  0 0.51415984E+03</rscale>
<asrwt>0</asrwt>
<pdfrwt beam="1">  1        2 0.20324939E+00 0.67856432E+03</pdfrwt>
<pdfrwt beam="2">  1       -2 0.37996250E-01 0.67856432E+03</pdfrwt>
<totfact> 0.10740608E+02</totfact>
</mgrwt>
</event>
<event>
 4    5  0.6615028E-008  0.8189939E+03  0.7818608E-02  0.9671139E-01
          2   -1    0    0  501    0  0.00000000000E+00  0.00000000000E+00  0.47931764638E+03  0.47931764639E+03  0.25500000000E-02 0. -1.
         -2   -1    0    0    0  501 -0.00000000000E+00 -0.00000000000E+00 -0.10480594659E+04  0.10480594659E+04  0.25500000000E-02 0.  1.
    8880023    1    1    2    0    0  0.46714995578E+03  0.13679057020E+03 -0.83478463970E+02  0.82323726926E+03  0.65864270000E+03 0.  0.
    8880022    1    1    2    0    0 -0.46714995578E+03 -0.13679057020E+03 -0.48526335552E+03  0.70413984301E+03  0.15294330000E+03 0.  0.
<mgrwt>
<rscale>  0 0.72761478E+03</rscale>
<asrwt>0</asrwt>
<pdfrwt beam="1">  1        2 0.73741177E-01 0.81899386E+03</pdfrwt>
<pdfrwt beam="2">  1       -2 0.16123992E+00 0.81899386E+03</pdfrwt>
<totfact> 0.16084004E+01</totfact>
</mgrwt>
</event>
<event>
 4    5  0.6615028E-008  0.9482107E+03  0.7818608E-02  0.9452693E-01
         -2   -1    0    0    0  501 -0.00000000000E+00  0.00000000000E+00  0.48179478004E+03  0.48179478004E+03  0.25500000000E-02 0.  1.
          2   -1    0    0  501    0  0.00000000000E+00 -0.00000000000E+00 -0.38342454563E+04  0.38342454563E+04  0.25500000000E-02 0. -1.
    8880023    1    1    2    0    0 -0.65392221715E+03 -0.19411086617E+03 -0.34787496740E+04  0.36056626014E+04  0.65864270000E+03 0. -1.
    8880022    1    1    2    0    0  0.65392221715E+03  0.19411086617E+03  0.12629899770E+03  0.71037763498E+03  0.15294330000E+03 0.  0.
<mgrwt>
<rscale>  0 0.87863248E+03</rscale>
<asrwt>0</asrwt>
<pdfrwt beam="1">  1        2 0.58988390E+00 0.94821068E+03</pdfrwt>
<pdfrwt beam="2">  1       -2 0.74122276E-01 0.94821068E+03</pdfrwt>
<totfact> 0.80134561E-01</totfact>
</mgrwt>
</event>
<event>
 4    5  0.6615028E-008  0.9148897E+03  0.7818608E-02  0.9502540E-01
         -2   -1    0    0    0  501 -0.00000000000E+00  0.00000000000E+00  0.11063723177E+04  0.11063723177E+04  0.25500000000E-02 0.  1.
          2   -1    0    0  501    0  0.00000000000E+00 -0.00000000000E+00 -0.11144830134E+04  0.11144830134E+04  0.25500000000E-02 0. -1.
    8880023    1    1    2    0    0  0.13744924119E+03  0.61993599655E+03 -0.78526762641E+03  0.12056817097E+04  0.65864270000E+03 0. -1.
    8880022    1    1    2    0    0 -0.13744924119E+03 -0.61993599655E+03  0.77715693070E+03  0.10151736214E+04  0.15294330000E+03 0.  0.
<mgrwt>
<rscale>  0 0.84096852E+03</rscale>
<asrwt>0</asrwt>
<pdfrwt beam="1">  1        2 0.17145893E+00 0.91488969E+03</pdfrwt>
<pdfrwt beam="2">  1       -2 0.17021112E+00 0.91488969E+03</pdfrwt>
<totfact> 0.45354029E+00</totfact>
</mgrwt>
</event>
<event>
 4    5  0.6615028E-008  0.1327218E+04  0.7818608E-02  0.9042405E-01
          2   -1    0    0  501    0  0.00000000000E+00  0.00000000000E+00  0.37376387866E+04  0.37376387866E+04  0.25500000000E-02 0. -1.
         -2   -1    0    0    0  501 -0.00000000000E+00 -0.00000000000E+00 -0.55907948317E+03  0.55907948318E+03  0.25500000000E-02 0.  1.
    8880023    1    1    2    0    0 -0.97925090384E+03 -0.60725981333E+03  0.57684299687E+03  0.14471540564E+04  0.65864270000E+03 0.  0.
    8880022    1    1    2    0    0  0.97925090384E+03  0.60725981333E+03  0.26017163066E+04  0.28495642134E+04  0.15294330000E+03 0.  0.
<mgrwt>
<rscale>  0 0.12839323E+04</rscale>
<asrwt>0</asrwt>
<pdfrwt beam="1">  1        2 0.57502136E+00 0.13272178E+04</pdfrwt>
<pdfrwt beam="2">  1       -2 0.86012227E-01 0.13272178E+04</pdfrwt>
<totfact> 0.63550102E-01</totfact>
</mgrwt>
</event>
<event>
 4    5  0.6615028E-008  0.9006871E+03  0.7818608E-02  0.9524930E-01
          2   -1    0    0  501    0  0.00000000000E+00  0.00000000000E+00  0.27951483564E+04  0.27951483564E+04  0.25500000000E-02 0. -1.
         -2   -1    0    0    0  501 -0.00000000000E+00 -0.00000000000E+00 -0.58073270467E+03  0.58073270467E+03  0.25500000000E-02 0.  1.
    8880023    1    1    2    0    0 -0.37832446615E+03 -0.48404295719E+03  0.25176461649E+04  0.26739071420E+04  0.65864270000E+03 0. -1.
    8880022    1    1    2    0    0  0.37832446615E+03  0.48404295719E+03 -0.30323051309E+03  0.70197391916E+03  0.15294330000E+03 0.  0.
<mgrwt>
<rscale>  0 0.82470558E+03</rscale>
<asrwt>0</asrwt>
<pdfrwt beam="1">  1        2 0.43002282E+00 0.90068707E+03</pdfrwt>
<pdfrwt beam="2">  1       -2 0.89343493E-01 0.90068707E+03</pdfrwt>
<totfact> 0.25809325E+00</totfact>
</mgrwt>
</event>
<event>
 4    5  0.6615028E-008  0.7325292E+03  0.7818608E-02  0.9882269E-01
          2   -1    0    0  501    0  0.00000000000E+00  0.00000000000E+00  0.46230575943E+03  0.46230575944E+03  0.25500000000E-02 0. -1.
         -2   -1    0    0    0  501 -0.00000000000E+00 -0.00000000000E+00 -0.12053552630E+04  0.12053552630E+04  0.25500000000E-02 0.  1.
    8880023    1    1    2    0    0  0.28556938380E+03 -0.14573592462E+03  0.11266925474E+03  0.74114330592E+03  0.65864270000E+03 0. -1.
    8880022    1    1    2    0    0 -0.28556938380E+03  0.14573592462E+03 -0.85571875836E+03  0.92651771656E+03  0.15294330000E+03 0.  1.
<mgrwt>
<rscale>  0 0.61128358E+03</rscale>
<asrwt>0</asrwt>
<pdfrwt beam="1">  1        2 0.71123964E-01 0.73252921E+03</pdfrwt>
<pdfrwt beam="2">  1       -2 0.18543927E+00 0.73252921E+03</pdfrwt>
<totfact> 0.11430883E+01</totfact>
</mgrwt>
</event>
<event>
 4    5  0.6615028E-008  0.1105656E+04  0.7818608E-02  0.9254785E-01
         -2   -1    0    0    0  501 -0.00000000000E+00  0.00000000000E+00  0.13830473294E+04  0.13830473294E+04  0.25500000000E-02 0.  1.
          2   -1    0    0  501    0  0.00000000000E+00 -0.00000000000E+00 -0.21521223144E+04  0.21521223144E+04  0.25500000000E-02 0. -1.
    8880023    1    1    2    0    0 -0.53485075848E+03 -0.70894223404E+03 -0.18331560545E+04  0.21407792393E+04  0.65864270000E+03 0.  0.
    8880022    1    1    2    0    0  0.53485075848E+03  0.70894223404E+03  0.10640810694E+04  0.13943904046E+04  0.15294330000E+03 0.  0.
<mgrwt>
<rscale>  0 0.10505415E+04</rscale>
<asrwt>0</asrwt>
<pdfrwt beam="1">  1        2 0.33109574E+00 0.11056557E+04</pdfrwt>
<pdfrwt beam="2">  1       -2 0.21277651E+00 0.11056557E+04</pdfrwt>
<totfact> 0.59497062E-01</totfact>
</mgrwt>
</event>
<event>
 4    5  0.6615028E-008  0.8924461E+03  0.7818608E-02  0.9538268E-01
         -2   -1    0    0    0  501 -0.00000000000E+00  0.00000000000E+00  0.35691200180E+03  0.35691200181E+03  0.25500000000E-02 0.  1.
          2   -1    0    0  501    0  0.00000000000E+00 -0.00000000000E+00 -0.22112366139E+04  0.22112366139E+04  0.25500000000E-02 0. -1.
    8880023    1    1    2    0    0  0.13222008748E+03  0.58750977669E+03 -0.17121281414E+04  0.19307622505E+04  0.65864270000E+03 0.  0.
    8880022    1    1    2    0    0 -0.13222008748E+03 -0.58750977669E+03 -0.14219647072E+03  0.63738636519E+03  0.15294330000E+03 0.  0.
<mgrwt>
<rscale>  0 0.81520299E+03</rscale>
<asrwt>0</asrwt>
<pdfrwt beam="1">  1        2 0.34019024E+00 0.89244613E+03</pdfrwt>
<pdfrwt beam="2">  1       -2 0.54909540E-01 0.89244613E+03</pdfrwt>
<totfact> 0.16187860E+01</totfact>
</mgrwt>
</event>
<event>
 4    5  0.6615028E-008  0.9027515E+03  0.7818608E-02  0.9521629E-01
         -2   -1    0    0    0  501 -0.00000000000E+00  0.00000000000E+00  0.36914925179E+03  0.36914925180E+03  0.25500000000E-02 0.  1.
          2   -1    0    0  501    0  0.00000000000E+00 -0.00000000000E+00 -0.24407204318E+04  0.24407204318E+04  0.25500000000E-02 0. -1.
    8880023    1    1    2    0    0 -0.27906029381E+03  0.55070446028E+03 -0.19683752712E+04  0.21655164430E+04  0.65864270000E+03 0.  0.
    8880022    1    1    2    0    0  0.27906029381E+03 -0.55070446028E+03 -0.10319590883E+03  0.64435324067E+03  0.15294330000E+03 0.  0.
<mgrwt>
<rscale>  0 0.82707820E+03</rscale>
<asrwt>0</asrwt>
<pdfrwt beam="1">  1        2 0.37549544E+00 0.90275149E+03</pdfrwt>
<pdfrwt beam="2">  1       -2 0.56792194E-01 0.90275149E+03</pdfrwt>
<totfact> 0.11207889E+01</totfact>
</mgrwt>
</event>
<event>
 4    5  0.6615028E-008  0.8105307E+03  0.7818608E-02  0.9688472E-01
         -2   -1    0    0    0  501 -0.00000000000E+00  0.00000000000E+00  0.10293526127E+04  0.10293526127E+04  0.25500000000E-02 0.  1.
          2   -1    0    0  501    0  0.00000000000E+00 -0.00000000000E+00 -0.51191358517E+03  0.51191358518E+03  0.25500000000E-02 0. -1.
    8880023    1    1    2    0    0  0.47213632161E+03 -0.15399689903E+02 -0.18403806610E+02  0.81073963946E+03  0.65864270000E+03 0.  0.
    8880022    1    1    2    0    0 -0.47213632161E+03  0.15399689903E+02  0.53584283413E+03  0.73052655841E+03  0.15294330000E+03 0.  0.
<mgrwt>
<rscale>  0 0.71707300E+03</rscale>
<asrwt>0</asrwt>
<pdfrwt beam="1">  1        2 0.78755936E-01 0.81053073E+03</pdfrwt>
<pdfrwt beam="2">  1       -2 0.15836194E+00 0.81053073E+03</pdfrwt>
<totfact> 0.15657833E+01</totfact>
</mgrwt>
</event>
<event>
 4    5  0.6615028E-008  0.7176896E+03  0.7818608E-02  0.9930483E-01
          2   -1    0    0  501    0  0.00000000000E+00  0.00000000000E+00  0.27355376946E+04  0.27355376946E+04  0.25500000000E-02 0. -1.
         -2   -1    0    0    0  501 -0.00000000000E+00 -0.00000000000E+00 -0.83106834681E+03  0.83106834682E+03  0.25500000000E-02 0.  1.
    8880023    1    1    2    0    0  0.14327398932E+02  0.28471534481E+03  0.26544843886E+04  0.27497937518E+04  0.65864270000E+03 0. -1.
    8880022    1    1    2    0    0 -0.14327398932E+02 -0.28471534481E+03 -0.75001504083E+03  0.81681228959E+03  0.15294330000E+03 0.  0.
<mgrwt>
<rscale>  0 0.58806446E+03</rscale>
<asrwt>0</asrwt>
<pdfrwt beam="1">  1        2 0.42085196E+00 0.71768956E+03</pdfrwt>
<pdfrwt beam="2">  1       -2 0.12785667E+00 0.71768956E+03</pdfrwt>
<totfact> 0.12215096E+00</totfact>
</mgrwt>
</event>
<event>
 4    5  0.6615028E-008  0.1095167E+04  0.7818608E-02  0.9266457E-01
          2   -1    0    0  501    0  0.00000000000E+00  0.00000000000E+00  0.12675099483E+04  0.12675099483E+04  0.25500000000E-02 0. -1.
         -2   -1    0    0    0  501 -0.00000000000E+00 -0.00000000000E+00 -0.17784376312E+04  0.17784376312E+04  0.25500000000E-02 0.  1.
    8880023    1    1    2    0    0  0.82212678119E+03  0.29947870589E+03  0.87364951017E+03  0.14009473982E+04  0.65864270000E+03 0. -1.
    8880022    1    1    2    0    0 -0.82212678119E+03 -0.29947870589E+03 -0.13845771931E+04  0.16450001812E+04  0.15294330000E+03 0.  0.
<mgrwt>
<rscale>  0 0.10393046E+04</rscale>
<asrwt>0</asrwt>
<pdfrwt beam="1">  1        2 0.19500153E+00 0.10951667E+04</pdfrwt>
<pdfrwt beam="2">  1       -2 0.27360579E+00 0.10951667E+04</pdfrwt>
<totfact> 0.78542530E-01</totfact>
</mgrwt>
</event>
<event>
 4    5  0.6615028E-008  0.1107733E+04  0.7818608E-02  0.9252495E-01
          2   -1    0    0  501    0  0.00000000000E+00  0.00000000000E+00  0.19290752580E+04  0.19290752580E+04  0.25500000000E-02 0. -1.
         -2   -1    0    0    0  501 -0.00000000000E+00 -0.00000000000E+00 -0.10155323625E+04  0.10155323625E+04  0.25500000000E-02 0.  1.
    8880023    1    1    2    0    0 -0.13610464958E+03  0.88019203862E+03  0.15019350458E+04  0.18662479976E+04  0.65864270000E+03 0. -1.
    8880022    1    1    2    0    0  0.13610464958E+03 -0.88019203862E+03 -0.58839215035E+03  0.10783596228E+04  0.15294330000E+03 0.  0.
<mgrwt>
<rscale>  0 0.10527643E+04</rscale>
<asrwt>0</asrwt>
<pdfrwt beam="1">  1        2 0.29678081E+00 0.11077331E+04</pdfrwt>
<pdfrwt beam="2">  1       -2 0.15623575E+00 0.11077331E+04</pdfrwt>
<totfact> 0.19325654E+00</totfact>
</mgrwt>
</event>
<event>
 4    5  0.6615028E-008  0.6941716E+03  0.7818608E-02  0.1002230E+00
          2   -1    0    0  501    0  0.00000000000E+00  0.00000000000E+00  0.10037497156E+04  0.10037497156E+04  0.25500000000E-02 0. -1.
         -2   -1    0    0    0  501 -0.00000000000E+00 -0.00000000000E+00 -0.29995449218E+03  0.29995449219E+03  0.25500000000E-02 0.  1.
    8880023    1    1    2    0    0  0.63688169290E+02  0.20978039153E+03  0.76130959479E+03  0.10302749638E+04  0.65864270000E+03 0. -1.
    8880022    1    1    2    0    0 -0.63688169290E+02 -0.20978039153E+03 -0.57514371351E+02  0.27342924405E+03  0.15294330000E+03 0.  0.
<mgrwt>
<rscale>  0 0.54683298E+03</rscale>
<asrwt>0</asrwt>
<pdfrwt beam="1">  1        2 0.15442304E+00 0.69417159E+03</pdfrwt>
<pdfrwt beam="2">  1       -2 0.46146844E-01 0.69417159E+03</pdfrwt>
<totfact> 0.11345108E+02</totfact>
</mgrwt>
</event>
<event>
 4    5  0.6615028E-008  0.1628688E+04  0.7818608E-02  0.8823734E-01
         -2   -1    0    0    0  501 -0.00000000000E+00  0.00000000000E+00  0.17315796639E+04  0.17315796639E+04  0.25500000000E-02 0.  1.
          2   -1    0    0  501    0  0.00000000000E+00 -0.00000000000E+00 -0.26369290185E+04  0.26369290185E+04  0.25500000000E-02 0. -1.
    8880023    1    1    2    0    0  0.98279849952E+03 -0.11193397949E+04 -0.19515127124E+04  0.25418549408E+04  0.65864270000E+03 0.  0.
    8880022    1    1    2    0    0 -0.98279849952E+03  0.11193397949E+04  0.10461633578E+04  0.18266537415E+04  0.15294330000E+03 0.  0.
<mgrwt>
<rscale>  0 0.15948244E+04</rscale>
<asrwt>0</asrwt>
<pdfrwt beam="1">  1        2 0.40568139E+00 0.16286880E+04</pdfrwt>
<pdfrwt beam="2">  1       -2 0.26639687E+00 0.16286880E+04</pdfrwt>
<totfact> 0.13630651E-01</totfact>
</mgrwt>
</event>
<event>
 4    5  0.6615028E-008  0.8274189E+03  0.7818608E-02  0.9654375E-01
         -2   -1    0    0    0  501 -0.00000000000E+00  0.00000000000E+00  0.63089238764E+03  0.63089238764E+03  0.25500000000E-02 0.  1.
          2   -1    0    0  501    0  0.00000000000E+00 -0.00000000000E+00 -0.10963312013E+04  0.10963312013E+04  0.25500000000E-02 0. -1.
    8880023    1    1    2    0    0 -0.44240300207E+03  0.23471560201E+03 -0.76250608871E+03  0.11251833502E+04  0.65864270000E+03 0. -1.
    8880022    1    1    2    0    0  0.44240300207E+03 -0.23471560201E+03  0.29706727507E+03  0.60204023869E+03  0.15294330000E+03 0.  0.
<mgrwt>
<rscale>  0 0.73799462E+03</rscale>
<asrwt>0</asrwt>
<pdfrwt beam="1">  1        2 0.16866634E+00 0.82741890E+03</pdfrwt>
<pdfrwt beam="2">  1       -2 0.97060368E-01 0.82741890E+03</pdfrwt>
<totfact> 0.19596222E+01</totfact>
</mgrwt>
</event>
<event>
 4    5  0.6615028E-008  0.9025230E+03  0.7818608E-02  0.9521993E-01
          2   -1    0    0  501    0  0.00000000000E+00  0.00000000000E+00  0.20920580206E+04  0.20920580206E+04  0.25500000000E-02 0. -1.
         -2   -1    0    0    0  501 -0.00000000000E+00 -0.00000000000E+00 -0.45229003035E+03  0.45229003036E+03  0.25500000000E-02 0.  1.
    8880023    1    1    2    0    0 -0.23500523914E+03  0.57053489773E+03  0.16803032443E+04  0.19073454672E+04  0.65864270000E+03 0.  0.
    8880022    1    1    2    0    0  0.23500523914E+03 -0.57053489773E+03 -0.40535254056E+02  0.63700258382E+03  0.15294330000E+03 0.  0.
<mgrwt>
<rscale>  0 0.82681573E+03</rscale>
<asrwt>0</asrwt>
<pdfrwt beam="1">  1        2 0.32185508E+00 0.90252298E+03</pdfrwt>
<pdfrwt beam="2">  1       -2 0.69583082E-01 0.90252298E+03</pdfrwt>
<totfact> 0.11357851E+01</totfact>
</mgrwt>
</event>
<event>
 4    5  0.6615028E-008  0.1114501E+04  0.7818608E-02  0.9245080E-01
         -2   -1    0    0    0  501 -0.00000000000E+00  0.00000000000E+00  0.48463036833E+03  0.48463036833E+03  0.25500000000E-02 0.  1.
          2   -1    0    0  501    0  0.00000000000E+00 -0.00000000000E+00 -0.23759178189E+04  0.23759178189E+04  0.25500000000E-02 0. -1.
    8880023    1    1    2    0    0 -0.63214102557E+02 -0.89683121690E+03 -0.14986704244E+04  0.18676524039E+04  0.65864270000E+03 0.  0.
    8880022    1    1    2    0    0  0.63214102557E+02  0.89683121690E+03 -0.39261702613E+03  0.99289578335E+03  0.15294330000E+03 0.  0.
<mgrwt>
<rscale>  0 0.10599998E+04</rscale>
<asrwt>0</asrwt>
<pdfrwt beam="1">  1        2 0.36552581E+00 0.11145010E+04</pdfrwt>
<pdfrwt beam="2">  1       -2 0.74558520E-01 0.11145010E+04</pdfrwt>
<totfact> 0.66052363E+00</totfact>
</mgrwt>
</event>
<event>
 4    5  0.6615028E-008  0.8906939E+03  0.7818608E-02  0.9541139E-01
         -2   -1    0    0    0  501 -0.00000000000E+00  0.00000000000E+00  0.29062003700E+03  0.29062003701E+03  0.25500000000E-02 0.  1.
          2   -1    0    0  501    0  0.00000000000E+00 -0.00000000000E+00 -0.25089256197E+04  0.25089256197E+04  0.25500000000E-02 0. -1.
    8880023    1    1    2    0    0  0.59827032575E+03  0.39975711352E+02 -0.19115627550E+04  0.21088878141E+04  0.65864270000E+03 0. -1.
    8880022    1    1    2    0    0 -0.59827032575E+03 -0.39975711352E+02 -0.30674282778E+03  0.69065784262E+03  0.15294330000E+03 0.  0.
<mgrwt>
<rscale>  0 0.81317582E+03</rscale>
<asrwt>0</asrwt>
<pdfrwt beam="1">  1        2 0.38598854E+00 0.89069391E+03</pdfrwt>
<pdfrwt beam="2">  1       -2 0.44710777E-01 0.89069391E+03</pdfrwt>
<totfact> 0.16742645E+01</totfact>
</mgrwt>
</event>
<event>
 4    5  0.6615028E-008  0.7344219E+03  0.7818608E-02  0.9876504E-01
         -2   -1    0    0    0  501 -0.00000000000E+00  0.00000000000E+00  0.86377460770E+03  0.86377460770E+03  0.25500000000E-02 0.  1.
          2   -1    0    0  501    0  0.00000000000E+00 -0.00000000000E+00 -0.28503049497E+04  0.28503049497E+04  0.25500000000E-02 0. -1.
    8880023    1    1    2    0    0  0.32376342199E+03  0.27249480020E+02 -0.27628127232E+04  0.28587601574E+04  0.65864270000E+03 0.  0.
    8880022    1    1    2    0    0 -0.32376342199E+03 -0.27249480020E+02  0.77628238124E+03  0.85531940000E+03  0.15294330000E+03 0.  1.
<mgrwt>
<rscale>  0 0.61413634E+03</rscale>
<asrwt>0</asrwt>
<pdfrwt beam="1">  1        2 0.43850845E+00 0.73442188E+03</pdfrwt>
<pdfrwt beam="2">  1       -2 0.13288840E+00 0.73442188E+03</pdfrwt>
<totfact> 0.94441026E-01</totfact>
</mgrwt>
</event>
<event>
 4    5  0.6615028E-008  0.7162830E+03  0.7818608E-02  0.9935370E-01
         -2   -1    0    0    0  501 -0.00000000000E+00  0.00000000000E+00  0.12786861037E+04  0.12786861037E+04  0.25500000000E-02 0.  1.
          2   -1    0    0  501    0  0.00000000000E+00 -0.00000000000E+00 -0.36454942871E+03  0.36454942872E+03  0.25500000000E-02 0. -1.
    8880023    1    1    2    0    0 -0.20709242406E+02 -0.28075296702E+03  0.45874135163E+02  0.71775047458E+03  0.65864270000E+03 0. -1.
    8880022    1    1    2    0    0  0.20709242406E+02  0.28075296702E+03  0.86826253978E+03  0.92548505781E+03  0.15294330000E+03 0.  0.
<mgrwt>
<rscale>  0 0.58577322E+03</rscale>
<asrwt>0</asrwt>
<pdfrwt beam="1">  1        2 0.56084527E-01 0.71628298E+03</pdfrwt>
<pdfrwt beam="2">  1       -2 0.19672094E+00 0.71628298E+03</pdfrwt>
<totfact> 0.12601257E+01</totfact>
</mgrwt>
</event>
<event>
 4    5  0.6615028E-008  0.7902189E+03  0.7818608E-02  0.9732358E-01
         -2   -1    0    0    0  501 -0.00000000000E+00  0.00000000000E+00  0.21807264682E+03  0.21807264684E+03  0.25500000000E-02 0.  1.
          2   -1    0    0  501    0  0.00000000000E+00 -0.00000000000E+00 -0.20785916767E+04  0.20785916767E+04  0.25500000000E-02 0. -1.
    8880023    1    1    2    0    0  0.10983031525E+03  0.42257906055E+03 -0.15490158211E+04  0.17389353010E+04  0.65864270000E+03 0.  0.
    8880022    1    1    2    0    0 -0.10983031525E+03 -0.42257906055E+03 -0.31150320878E+03  0.55772902260E+03  0.15294330000E+03 0.  0.
<mgrwt>
<rscale>  0 0.69122470E+03</rscale>
<asrwt>0</asrwt>
<pdfrwt beam="1">  1        2 0.31978332E+00 0.79021894E+03</pdfrwt>
<pdfrwt beam="2">  1       -2 0.33549639E-01 0.79021894E+03</pdfrwt>
<totfact> 0.51480544E+01</totfact>
</mgrwt>
</event>
<event>
 4    5  0.6615028E-008  0.1007505E+04  0.7818608E-02  0.9371803E-01
         -2   -1    0    0    0  501 -0.00000000000E+00  0.00000000000E+00  0.17532863977E+04  0.17532863977E+04  0.25500000000E-02 0.  1.
          2   -1    0    0  501    0  0.00000000000E+00 -0.00000000000E+00 -0.10938142408E+04  0.10938142408E+04  0.25500000000E-02 0. -1.
    8880023    1    1    2    0    0  0.75288691716E+03  0.12007608148E+03 -0.73729944123E+03  0.12484701229E+04  0.65864270000E+03 0.  0.
    8880022    1    1    2    0    0 -0.75288691716E+03 -0.12007608148E+03  0.13967715981E+04  0.15986305157E+04  0.15294330000E+03 0.  0.
<mgrwt>
<rscale>  0 0.94432922E+03</rscale>
<asrwt>0</asrwt>
<pdfrwt beam="1">  1        2 0.16827911E+00 0.10075054E+04</pdfrwt>
<pdfrwt beam="2">  1       -2 0.26973637E+00 0.10075054E+04</pdfrwt>
<totfact> 0.10674427E+00</totfact>
</mgrwt>
</event>
<event>
 4    5  0.6615028E-008  0.8159101E+03  0.7818608E-02  0.9677395E-01
         -2   -1    0    0    0  501 -0.00000000000E+00  0.00000000000E+00  0.10011183669E+04  0.10011183669E+04  0.25500000000E-02 0.  1.
          2   -1    0    0  501    0  0.00000000000E+00 -0.00000000000E+00 -0.88049263901E+03  0.88049263901E+03  0.25500000000E-02 0. -1.
    8880023    1    1    2    0    0 -0.38813397648E+03 -0.28504564650E+03 -0.59198998862E+03  0.10080482911E+04  0.65864270000E+03 0. -1.
    8880022    1    1    2    0    0  0.38813397648E+03  0.28504564650E+03  0.71261571648E+03  0.87356271480E+03  0.15294330000E+03 0.  0.
<mgrwt>
<rscale>  0 0.72378750E+03</rscale>
<asrwt>0</asrwt>
<pdfrwt beam="1">  1        2 0.13546041E+00 0.81591005E+03</pdfrwt>
<pdfrwt beam="2">  1       -2 0.15401821E+00 0.81591005E+03</pdfrwt>
<totfact> 0.85239719E+00</totfact>
</mgrwt>
</event>
<event>
 4    5  0.6615028E-008  0.1017245E+04  0.7818608E-02  0.9359336E-01
         -2   -1    0    0    0  501 -0.00000000000E+00  0.00000000000E+00  0.16516365383E+04  0.16516365383E+04  0.25500000000E-02 0.  1.
          2   -1    0    0  501    0  0.00000000000E+00 -0.00000000000E+00 -0.57560037539E+03  0.57560037539E+03  0.25500000000E-02 0. -1.
    8880023    1    1    2    0    0 -0.19715436267E+03  0.74973788864E+03  0.18084461658E+03  0.10331949119E+04  0.65864270000E+03 0.  0.
    8880022    1    1    2    0    0  0.19715436267E+03 -0.74973788864E+03  0.89519154630E+03  0.11940420018E+04  0.15294330000E+03 0.  0.
<mgrwt>
<rscale>  0 0.95499087E+03</rscale>
<asrwt>0</asrwt>
<pdfrwt beam="1">  1        2 0.88553904E-01 0.10172448E+04</pdfrwt>
<pdfrwt beam="2">  1       -2 0.25409793E+00 0.10172448E+04</pdfrwt>
<totfact> 0.31554152E+00</totfact>
</mgrwt>
</event>
<event>
 4    5  0.6615028E-008  0.7728216E+03  0.7818608E-02  0.9772978E-01
         -2   -1    0    0    0  501 -0.00000000000E+00  0.00000000000E+00  0.18889567060E+04  0.18889567060E+04  0.25500000000E-02 0.  1.
          2   -1    0    0  501    0  0.00000000000E+00 -0.00000000000E+00 -0.74265984618E+03  0.74265984618E+03  0.25500000000E-02 0. -1.
    8880023    1    1    2    0    0 -0.18477968093E+03 -0.35958237390E+03 -0.50598734641E+03  0.92372962229E+03  0.65864270000E+03 0. -1.
    8880022    1    1    2    0    0  0.18477968093E+03  0.35958237390E+03  0.16522842062E+04  0.17078869299E+04  0.15294330000E+03 0.  0.
<mgrwt>
<rscale>  0 0.66833102E+03</rscale>
<asrwt>0</asrwt>
<pdfrwt beam="1">  1        2 0.11425536E+00 0.77282160E+03</pdfrwt>
<pdfrwt beam="2">  1       -2 0.29060873E+00 0.77282160E+03</pdfrwt>
<totfact> 0.14290284E+00</totfact>
</mgrwt>
</event>
<event>
 4    5  0.6669546E-008  0.1029118E+04  0.7818608E-02  0.9344416E-01
         -2   -1    0    0    0  501 -0.00000000000E+00  0.00000000000E+00  0.18781722125E+04  0.18781722125E+04  0.25500000000E-02 0.  1.
          2   -1    0    0  501    0  0.00000000000E+00 -0.00000000000E+00 -0.22281199568E+04  0.22281199568E+04  0.25500000000E-02 0. -1.
    8880023    1    1    2    0    0 -0.50253222059E+03  0.61052051918E+03 -0.20116998145E+04  0.22596504789E+04  0.65864270000E+03 0.  0.
    8880022    1    1    2    0    0  0.50253222059E+03 -0.61052051918E+03  0.16617520702E+04  0.18466416904E+04  0.15294330000E+03 0.  0.
<mgrwt>
<rscale>  0 0.96794690E+03</rscale>
<asrwt>0</asrwt>
<pdfrwt beam="1">  1        2 0.34278768E+00 0.10291181E+04</pdfrwt>
<pdfrwt beam="2">  1       -2 0.28894957E+00 0.10291181E+04</pdfrwt>
<totfact> 0.18608073E-01</totfact>
</mgrwt>
</event>
<event>
 4    5  0.6615028E-008  0.9749232E+03  0.7818608E-02  0.9415127E-01
         -2   -1    0    0    0  501 -0.00000000000E+00  0.00000000000E+00  0.67981225386E+03  0.67981225386E+03  0.25500000000E-02 0.  1.
          2   -1    0    0  501    0  0.00000000000E+00 -0.00000000000E+00 -0.19090693226E+04  0.19090693226E+04  0.25500000000E-02 0. -1.
    8880023    1    1    2    0    0 -0.69825212997E+03 -0.17061362859E+03 -0.15140152906E+04  0.18007547178E+04  0.65864270000E+03 0.  0.
    8880022    1    1    2    0    0  0.69825212997E+03  0.17061362859E+03  0.28475822193E+03  0.78812685859E+03  0.15294330000E+03 0.  0.
<mgrwt>
<rscale>  0 0.90841171E+03</rscale>
<asrwt>0</asrwt>
<pdfrwt beam="1">  1        2 0.29370297E+00 0.97492320E+03</pdfrwt>
<pdfrwt beam="2">  1       -2 0.10458650E+00 0.97492320E+03</pdfrwt>
<totfact> 0.55812615E+00</totfact>
</mgrwt>
</event>
<event>
 4    5  0.6615028E-008  0.1800840E+04  0.7818608E-02  0.8722072E-01
         -2   -1    0    0    0  501 -0.00000000000E+00  0.00000000000E+00  0.31013897468E+04  0.31013897468E+04  0.25500000000E-02 0.  1.
          2   -1    0    0  501    0  0.00000000000E+00 -0.00000000000E+00 -0.13831953966E+04  0.13831953966E+04  0.25500000000E-02 0. -1.
    8880023    1    1    2    0    0  0.11791919755E+04 -0.11910999105E+04 -0.33291197930E+03  0.18313528618E+04  0.65864270000E+03 0. -1.
    8880022    1    1    2    0    0 -0.11791919755E+04  0.11910999105E+04  0.20511063295E+04  0.26532322816E+04  0.15294330000E+03 0.  0.
<mgrwt>
<rscale>  0 0.17706368E+04</rscale>
<asrwt>0</asrwt>
<pdfrwt beam="1">  1        2 0.21279929E+00 0.18008395E+04</pdfrwt>
<pdfrwt beam="2">  1       -2 0.47713689E+00 0.18008395E+04</pdfrwt>
<totfact> 0.30924973E-02</totfact>
</mgrwt>
</event>
<event>
 4    5  0.6615028E-008  0.7003539E+03  0.7818608E-02  0.9995736E-01
         -2   -1    0    0    0  501 -0.00000000000E+00  0.00000000000E+00  0.20645702639E+03  0.20645702641E+03  0.25500000000E-02 0.  1.
          2   -1    0    0  501    0  0.00000000000E+00 -0.00000000000E+00 -0.13115878599E+04  0.13115878599E+04  0.25500000000E-02 0. -1.
    8880023    1    1    2    0    0 -0.75485387676E+02  0.22580385808E+03 -0.98968234187E+03  0.12124218615E+04  0.65864270000E+03 0. -1.
    8880022    1    1    2    0    0  0.75485387676E+02 -0.22580385808E+03 -0.11544849162E+03  0.30562302483E+03  0.15294330000E+03 0.  1.
<mgrwt>
<rscale>  0 0.55837595E+03</rscale>
<asrwt>0</asrwt>
<pdfrwt beam="1">  1        2 0.20178274E+00 0.70035393E+03</pdfrwt>
<pdfrwt beam="2">  1       -2 0.31762620E-01 0.70035393E+03</pdfrwt>
<totfact> 0.15258622E+02</totfact>
</mgrwt>
</event>
<event>
 4    5  0.6615028E-008  0.8091537E+03  0.7818608E-02  0.9691342E-01
         -2   -1    0    0    0  501 -0.00000000000E+00  0.00000000000E+00  0.45096658294E+03  0.45096658295E+03  0.25500000000E-02 0.  1.
          2   -1    0    0  501    0  0.00000000000E+00 -0.00000000000E+00 -0.24352771807E+04  0.24352771807E+04  0.25500000000E-02 0. -1.
    8880023    1    1    2    0    0  0.44659755977E+03 -0.14652685684E+03 -0.22021417414E+04  0.23460941915E+04  0.65864270000E+03 0. -1.
    8880022    1    1    2    0    0 -0.44659755977E+03  0.14652685684E+03  0.21783114359E+03  0.54014957215E+03  0.15294330000E+03 0.  0.
<mgrwt>
<rscale>  0 0.71534604E+03</rscale>
<asrwt>0</asrwt>
<pdfrwt beam="1">  1        2 0.37465802E+00 0.80915370E+03</pdfrwt>
<pdfrwt beam="2">  1       -2 0.69379476E-01 0.80915370E+03</pdfrwt>
<totfact> 0.74598958E+00</totfact>
</mgrwt>
</event>
<event>
 4    5  0.6615028E-008  0.7864738E+03  0.7818608E-02  0.9740844E-01
         -2   -1    0    0    0  501 -0.00000000000E+00  0.00000000000E+00  0.26903119684E+03  0.26903119685E+03  0.25500000000E-02 0.  1.
          2   -1    0    0  501    0  0.00000000000E+00 -0.00000000000E+00 -0.24631566370E+04  0.24631566370E+04  0.25500000000E-02 0. -1.
    8880023    1    1    2    0    0 -0.24423931584E+03  0.35366375768E+03 -0.21311733585E+04  0.22716604031E+04  0.65864270000E+03 0. -1.
    8880022    1    1    2    0    0  0.24423931584E+03 -0.35366375768E+03 -0.62952081715E+02  0.46052743078E+03  0.15294330000E+03 0.  0.
<mgrwt>
<rscale>  0 0.68636180E+03</rscale>
<asrwt>0</asrwt>
<pdfrwt beam="1">  1        2 0.37894716E+00 0.78647384E+03</pdfrwt>
<pdfrwt beam="2">  1       -2 0.41389416E-01 0.78647384E+03</pdfrwt>
<totfact> 0.21008724E+01</totfact>
</mgrwt>
</event>
<event>
 4    5  0.6615028E-008  0.7031483E+03  0.7818608E-02  0.9984383E-01
          2   -1    0    0  501    0  0.00000000000E+00  0.00000000000E+00  0.10326277329E+04  0.10326277329E+04  0.25500000000E-02 0. -1.
         -2   -1    0    0    0  501 -0.00000000000E+00 -0.00000000000E+00 -0.91351972518E+03  0.91351972518E+03  0.25500000000E-02 0.  1.
    8880023    1    1    2    0    0 -0.20104096102E+03  0.14209115420E+03  0.88320909583E+03  0.11289268698E+04  0.65864270000E+03 0.  0.
    8880022    1    1    2    0    0  0.20104096102E+03 -0.14209115420E+03 -0.76410108810E+03  0.81722058831E+03  0.15294330000E+03 0.  0.
<mgrwt>
<rscale>  0 0.56340343E+03</rscale>
<asrwt>0</asrwt>
<pdfrwt beam="1">  1        2 0.15886580E+00 0.70314833E+03</pdfrwt>
<pdfrwt beam="2">  1       -2 0.14054150E+00 0.70314833E+03</pdfrwt>
<totfact> 0.87445461E+00</totfact>
</mgrwt>
</event>
<event>
 4    5  0.6615028E-008  0.1251116E+04  0.7818608E-02  0.9108967E-01
          2   -1    0    0  501    0  0.00000000000E+00  0.00000000000E+00  0.36766949460E+04  0.36766949460E+04  0.25500000000E-02 0. -1.
         -2   -1    0    0    0  501 -0.00000000000E+00 -0.00000000000E+00 -0.99225955223E+03  0.99225955223E+03  0.25500000000E-02 0.  1.
    8880023    1    1    2    0    0  0.10300476461E+04 -0.26548805870E+03  0.32299355590E+04  0.34637805913E+04  0.65864270000E+03 0. -1.
    8880022    1    1    2    0    0 -0.10300476461E+04  0.26548805870E+03 -0.54550016529E+03  0.12051739069E+04  0.15294330000E+03 0.  0.
<mgrwt>
<rscale>  0 0.12044537E+04</rscale>
<asrwt>0</asrwt>
<pdfrwt beam="1">  1        2 0.56564537E+00 0.12511164E+04</pdfrwt>
<pdfrwt beam="2">  1       -2 0.15265532E+00 0.12511164E+04</pdfrwt>
<totfact> 0.17196733E-01</totfact>
</mgrwt>
</event>
<event>
 4    5  0.6615028E-008  0.7239637E+03  0.7818608E-02  0.9909396E-01
          2   -1    0    0  501    0  0.00000000000E+00  0.00000000000E+00  0.15669509194E+04  0.15669509194E+04  0.25500000000E-02 0. -1.
         -2   -1    0    0    0  501 -0.00000000000E+00 -0.00000000000E+00 -0.67073365277E+03  0.67073365277E+03  0.25500000000E-02 0.  1.
    8880023    1    1    2    0    0 -0.23791369913E+03  0.18360358119E+03  0.14320116356E+04  0.16046123314E+04  0.65864270000E+03 0. -1.
    8880022    1    1    2    0    0  0.23791369913E+03 -0.18360358119E+03 -0.53579436896E+03  0.63307224080E+03  0.15294330000E+03 0.  0.
<mgrwt>
<rscale>  0 0.59808094E+03</rscale>
<asrwt>0</asrwt>
<pdfrwt beam="1">  1        2 0.24106937E+00 0.72396368E+03</pdfrwt>
<pdfrwt beam="2">  1       -2 0.10318979E+00 0.72396368E+03</pdfrwt>
<totfact> 0.91851696E+00</totfact>
</mgrwt>
</event>
<event>
 4    5  0.6615028E-008  0.1542835E+04  0.7818608E-02  0.8879966E-01
         -2   -1    0    0    0  501 -0.00000000000E+00  0.00000000000E+00  0.24011596243E+04  0.24011596243E+04  0.25500000000E-02 0.  1.
          2   -1    0    0  501    0  0.00000000000E+00 -0.00000000000E+00 -0.16842514147E+04  0.16842514147E+04  0.25500000000E-02 0. -1.
    8880023    1    1    2    0    0  0.12349245380E+04 -0.64922442269E+03  0.17571859846E+04  0.23383848606E+04  0.65864270000E+03 0.  1.
    8880022    1    1    2    0    0 -0.12349245380E+04  0.64922442269E+03 -0.10402777750E+04  0.17470261784E+04  0.15294330000E+03 0.  0.
<mgrwt>
<rscale>  0 0.15067661E+04</rscale>
<asrwt>0</asrwt>
<pdfrwt beam="1">  1        2 0.25911560E+00 0.15428354E+04</pdfrwt>
<pdfrwt beam="2">  1       -2 0.36940917E+00 0.15428354E+04</pdfrwt>
<totfact> 0.10970960E-01</totfact>
</mgrwt>
</event>
<event>
 4    5  0.6615028E-008  0.1474845E+04  0.7818608E-02  0.8927606E-01
          2   -1    0    0  501    0  0.00000000000E+00  0.00000000000E+00  0.36042669549E+04  0.36042669549E+04  0.25500000000E-02 0. -1.
         -2   -1    0    0    0  501 -0.00000000000E+00 -0.00000000000E+00 -0.56810509679E+03  0.56810509679E+03  0.25500000000E-02 0.  1.
    8880023    1    1    2    0    0  0.10579334712E+04 -0.78875541252E+03  0.20136255029E+04  0.24959679891E+04  0.65864270000E+03 0.  0.
    8880022    1    1    2    0    0 -0.10579334712E+04  0.78875541252E+03  0.10225363552E+04  0.16764040626E+04  0.15294330000E+03 0.  0.
<mgrwt>
<rscale>  0 0.14367964E+04</rscale>
<asrwt>0</asrwt>
<pdfrwt beam="1">  1        2 0.55450261E+00 0.14748453E+04</pdfrwt>
<pdfrwt beam="2">  1       -2 0.87400784E-01 0.14748453E+04</pdfrwt>
<totfact> 0.75103380E-01</totfact>
</mgrwt>
</event>
<event>
 4    5  0.6615028E-008  0.1034480E+04  0.7818608E-02  0.9337775E-01
          2   -1    0    0  501    0  0.00000000000E+00  0.00000000000E+00  0.29765044322E+04  0.29765044323E+04  0.25500000000E-02 0. -1.
         -2   -1    0    0    0  501 -0.00000000000E+00 -0.00000000000E+00 -0.38273795707E+03  0.38273795708E+03  0.25500000000E-02 0.  1.
    8880023    1    1    2    0    0  0.54444500920E+03  0.58302523595E+03  0.22516051662E+04  0.24778770802E+04  0.65864270000E+03 0. -1.
    8880022    1    1    2    0    0 -0.54444500920E+03 -0.58302523595E+03  0.34216130899E+03  0.88136530916E+03  0.15294330000E+03 0.  0.
<mgrwt>
<rscale>  0 0.97378350E+03</rscale>
<asrwt>0</asrwt>
<pdfrwt beam="1">  1        2 0.45792374E+00 0.10344801E+04</pdfrwt>
<pdfrwt beam="2">  1       -2 0.58882765E-01 0.10344801E+04</pdfrwt>
<totfact> 0.49376774E+00</totfact>
</mgrwt>
</event>
<event>
 4    5  0.6615028E-008  0.1084756E+04  0.7818608E-02  0.9278221E-01
         -2   -1    0    0    0  501 -0.00000000000E+00  0.00000000000E+00  0.24495051034E+04  0.24495051034E+04  0.25500000000E-02 0.  1.
          2   -1    0    0  501    0  0.00000000000E+00 -0.00000000000E+00 -0.94549104500E+03  0.94549104500E+03  0.25500000000E-02 0. -1.
    8880023    1    1    2    0    0 -0.80674730019E+03 -0.30338843278E+03 -0.51022786459E+03  0.11987612054E+04  0.65864270000E+03 0.  0.
    8880022    1    1    2    0    0  0.80674730019E+03  0.30338843278E+03  0.20142419230E+04  0.21962349430E+04  0.15294330000E+03 0.  0.
<mgrwt>
<rscale>  0 0.10281284E+04</rscale>
<asrwt>0</asrwt>
<pdfrwt beam="1">  1        2 0.14546016E+00 0.10847562E+04</pdfrwt>
<pdfrwt beam="2">  1       -2 0.37684693E+00 0.10847562E+04</pdfrwt>
<totfact> 0.28725865E-01</totfact>
</mgrwt>
</event>
<event>
 4    5  0.6615028E-008  0.1180983E+04  0.7818608E-02  0.9175834E-01
         -2   -1    0    0    0  501 -0.00000000000E+00  0.00000000000E+00  0.12308730044E+04  0.12308730044E+04  0.25500000000E-02 0.  1.
          2   -1    0    0  501    0  0.00000000000E+00 -0.00000000000E+00 -0.15969663964E+04  0.15969663964E+04  0.25500000000E-02 0. -1.
    8880023    1    1    2    0    0 -0.21926529901E+03  0.95542286742E+03 -0.10841332400E+04  0.16031422941E+04  0.65864270000E+03 0. -1.
    8880022    1    1    2    0    0  0.21926529901E+03 -0.95542286742E+03  0.71803984793E+03  0.12246971067E+04  0.15294330000E+03 0.  0.
<mgrwt>
<rscale>  0 0.11306383E+04</rscale>
<asrwt>0</asrwt>
<pdfrwt beam="1">  1        2 0.24568714E+00 0.11809828E+04</pdfrwt>
<pdfrwt beam="2">  1       -2 0.18936508E+00 0.11809828E+04</pdfrwt>
<totfact> 0.17037675E+00</totfact>
</mgrwt>
</event>
<event>
 4    5  0.6615028E-008  0.1132713E+04  0.7818608E-02  0.9225479E-01
          2   -1    0    0  501    0  0.00000000000E+00  0.00000000000E+00  0.25049731300E+04  0.25049731300E+04  0.25500000000E-02 0. -1.
         -2   -1    0    0    0  501 -0.00000000000E+00 -0.00000000000E+00 -0.10019714145E+04  0.10019714145E+04  0.25500000000E-02 0.  1.
    8880023    1    1    2    0    0 -0.90982307352E+03  0.14646039430E+03  0.21086653853E+04  0.23936391929E+04  0.65864270000E+03 0.  0.
    8880022    1    1    2    0    0  0.90982307352E+03 -0.14646039430E+03 -0.60566366974E+03  0.11133053517E+04  0.15294330000E+03 0.  0.
<mgrwt>
<rscale>  0 0.10794266E+04</rscale>
<asrwt>0</asrwt>
<pdfrwt beam="1">  1        2 0.38538048E+00 0.11327131E+04</pdfrwt>
<pdfrwt beam="2">  1       -2 0.15414945E+00 0.11327131E+04</pdfrwt>
<totfact> 0.95028718E-01</totfact>
</mgrwt>
</event>
<event>
 4    5  0.6615028E-008  0.8372263E+03  0.7818608E-02  0.9635433E-01
         -2   -1    0    0    0  501 -0.00000000000E+00  0.00000000000E+00  0.70499366277E+03  0.70499366277E+03  0.25500000000E-02 0.  1.
          2   -1    0    0  501    0  0.00000000000E+00 -0.00000000000E+00 -0.15082848032E+04  0.15082848032E+04  0.25500000000E-02 0. -1.
    8880023    1    1    2    0    0 -0.15183582949E+03 -0.49404820036E+03 -0.12559417254E+04  0.15094163001E+04  0.65864270000E+03 0. -1.
    8880022    1    1    2    0    0  0.15183582949E+03  0.49404820036E+03  0.45265058494E+03  0.70386216581E+03  0.15294330000E+03 0.  0.
<mgrwt>
<rscale>  0 0.74994761E+03</rscale>
<asrwt>0</asrwt>
<pdfrwt beam="1">  1        2 0.23204382E+00 0.83722634E+03</pdfrwt>
<pdfrwt beam="2">  1       -2 0.10846056E+00 0.83722634E+03</pdfrwt>
<totfact> 0.86507351E+00</totfact>
</mgrwt>
</event>
<event>
 4    5  0.6615028E-008  0.9477369E+03  0.7818608E-02  0.9453378E-01
          2   -1    0    0  501    0  0.00000000000E+00  0.00000000000E+00  0.12121030494E+04  0.12121030494E+04  0.25500000000E-02 0. -1.
         -2   -1    0    0    0  501 -0.00000000000E+00 -0.00000000000E+00 -0.14212406307E+04  0.14212406307E+04  0.25500000000E-02 0.  1.
    8880023    1    1    2    0    0 -0.39306809547E+03  0.55667986367E+03  0.91017317829E+03  0.13140092918E+04  0.65864270000E+03 0. -1.
    8880022    1    1    2    0    0  0.39306809547E+03 -0.55667986367E+03 -0.11193107596E+04  0.13193343882E+04  0.15294330000E+03 0.  0.
<mgrwt>
<rscale>  0 0.87810121E+03</rscale>
<asrwt>0</asrwt>
<pdfrwt beam="1">  1        2 0.18647739E+00 0.94773689E+03</pdfrwt>
<pdfrwt beam="2">  1       -2 0.21865241E+00 0.94773689E+03</pdfrwt>
<totfact> 0.18784715E+00</totfact>
</mgrwt>
</event>
<event>
 4    5  0.6615028E-008  0.7651110E+03  0.7818608E-02  0.9792051E-01
         -2   -1    0    0    0  501 -0.00000000000E+00  0.00000000000E+00  0.40308119899E+03  0.40308119900E+03  0.25500000000E-02 0.  1.
          2   -1    0    0  501    0  0.00000000000E+00 -0.00000000000E+00 -0.16584117581E+04  0.16584117581E+04  0.25500000000E-02 0. -1.
    8880023    1    1    2    0    0  0.31023122559E+03 -0.23524715231E+03 -0.14191476384E+04  0.16122576909E+04  0.65864270000E+03 0. -1.
    8880022    1    1    2    0    0 -0.31023122559E+03  0.23524715231E+03  0.16381707923E+03  0.44923526627E+03  0.15294330000E+03 0.  0.
<mgrwt>
<rscale>  0 0.65790886E+03</rscale>
<asrwt>0</asrwt>
<pdfrwt beam="1">  1        2 0.25514027E+00 0.76511100E+03</pdfrwt>
<pdfrwt beam="2">  1       -2 0.62012493E-01 0.76511100E+03</pdfrwt>
<totfact> 0.25591321E+01</totfact>
</mgrwt>
</event>
<event>
 4    5  0.6951433E-008  0.1036077E+04  0.7818608E-02  0.9335809E-01
          2   -1    0    0  501    0  0.00000000000E+00  0.00000000000E+00  0.19993686792E+04  0.19993686792E+04  0.25500000000E-02 0. -1.
         -2   -1    0    0    0  501 -0.00000000000E+00 -0.00000000000E+00 -0.14586690054E+04  0.14586690054E+04  0.25500000000E-02 0.  1.
    8880023    1    1    2    0    0 -0.15461343347E+03  0.78469103167E+03  0.17301028662E+04  0.20166089018E+04  0.65864270000E+03 0. -1.
    8880022    1    1    2    0    0  0.15461343347E+03 -0.78469103167E+03 -0.11894031924E+04  0.14414287828E+04  0.15294330000E+03 0.  0.
<mgrwt>
<rscale>  0 0.97552014E+03</rscale>
<asrwt>0</asrwt>
<pdfrwt beam="1">  1        2 0.30759518E+00 0.10360770E+04</pdfrwt>
<pdfrwt beam="2">  1       -2 0.22441062E+00 0.10360770E+04</pdfrwt>
<totfact> 0.61655275E-01</totfact>
</mgrwt>
</event>
<event>
 4    5  0.6615028E-008  0.9749562E+03  0.7818608E-02  0.9415082E-01
          2   -1    0    0  501    0  0.00000000000E+00  0.00000000000E+00  0.32672666924E+04  0.32672666924E+04  0.25500000000E-02 0. -1.
         -2   -1    0    0    0  501 -0.00000000000E+00 -0.00000000000E+00 -0.55906508183E+03  0.55906508184E+03  0.25500000000E-02 0.  1.
    8880023    1    1    2    0    0 -0.71818457635E+03 -0.30662850292E+02  0.29060517627E+04  0.30652367527E+04  0.65864270000E+03 0.  0.
    8880022    1    1    2    0    0  0.71818457635E+03  0.30662850292E+02 -0.19785015217E+03  0.76109502154E+03  0.15294330000E+03 0.  0.
<mgrwt>
<rscale>  0 0.90844825E+03</rscale>
<asrwt>0</asrwt>
<pdfrwt beam="1">  1        2 0.50265643E+00 0.97495615E+03</pdfrwt>
<pdfrwt beam="2">  1       -2 0.86010010E-01 0.97495615E+03</pdfrwt>
<totfact> 0.14176863E+00</totfact>
</mgrwt>
</event>
<event>
 4    5  0.6615028E-008  0.1345663E+04  0.7818608E-02  0.9027097E-01
         -2   -1    0    0    0  501 -0.00000000000E+00  0.00000000000E+00  0.11432100610E+04  0.11432100610E+04  0.25500000000E-02 0.  1.
          2   -1    0    0  501    0  0.00000000000E+00 -0.00000000000E+00 -0.19737450981E+04  0.19737450981E+04  0.25500000000E-02 0. -1.
    8880023    1    1    2    0    0 -0.24174515621E+03 -0.11482846500E+04  0.40582922970E+03  0.14055269218E+04  0.65864270000E+03 0.  1.
    8880022    1    1    2    0    0  0.24174515621E+03  0.11482846500E+04 -0.12363642668E+04  0.17114282372E+04  0.15294330000E+03 0.  0.
<mgrwt>
<rscale>  0 0.13031168E+04</rscale>
<asrwt>0</asrwt>
<pdfrwt beam="1">  1        2 0.30365309E+00 0.13456629E+04</pdfrwt>
<pdfrwt beam="2">  1       -2 0.17587847E+00 0.13456629E+04</pdfrwt>
<totfact> 0.12796870E+00</totfact>
</mgrwt>
</event>
<event>
 4    5  0.6615028E-008  0.7610628E+03  0.7818608E-02  0.9802364E-01
         -2   -1    0    0    0  501 -0.00000000000E+00  0.00000000000E+00  0.23252693213E+03  0.23252693215E+03  0.25500000000E-02 0.  1.
          2   -1    0    0  501    0  0.00000000000E+00 -0.00000000000E+00 -0.15470811967E+04  0.15470811967E+04  0.25500000000E-02 0. -1.
    8880023    1    1    2    0    0 -0.10950275343E+03  0.36526083520E+03 -0.10264167010E+04  0.12777901944E+04  0.65864270000E+03 0. -1.
    8880022    1    1    2    0    0  0.10950275343E+03 -0.36526083520E+03 -0.28813756365E+03  0.50181793445E+03  0.15294330000E+03 0.  0.
<mgrwt>
<rscale>  0 0.65235841E+03</rscale>
<asrwt>0</asrwt>
<pdfrwt beam="1">  1        2 0.23801249E+00 0.76106277E+03</pdfrwt>
<pdfrwt beam="2">  1       -2 0.35773375E-01 0.76106277E+03</pdfrwt>
<totfact> 0.89334819E+01</totfact>
</mgrwt>
</event>
<event>
 4    5  0.6615028E-008  0.1341720E+04  0.7818608E-02  0.9030344E-01
         -2   -1    0    0    0  501 -0.00000000000E+00  0.00000000000E+00  0.17117690813E+04  0.17117690813E+04  0.25500000000E-02 0.  1.
          2   -1    0    0  501    0  0.00000000000E+00 -0.00000000000E+00 -0.15527131360E+04  0.15527131360E+04  0.25500000000E-02 0. -1.
    8880023    1    1    2    0    0  0.11498029576E+04  0.21060938017E+03  0.11167072629E+04  0.17456369811E+04  0.65864270000E+03 0.  0.
    8880022    1    1    2    0    0 -0.11498029576E+04 -0.21060938017E+03 -0.95765131761E+03  0.15188452362E+04  0.15294330000E+03 0.  0.
<mgrwt>
<rscale>  0 0.12990185E+04</rscale>
<asrwt>0</asrwt>
<pdfrwt beam="1">  1        2 0.23887894E+00 0.13417203E+04</pdfrwt>
<pdfrwt beam="2">  1       -2 0.26334909E+00 0.13417203E+04</pdfrwt>
<totfact> 0.60319544E-01</totfact>
</mgrwt>
</event>
<event>
 4    5  0.6615028E-008  0.6671094E+03  0.7818608E-02  0.1017826E+00
          2   -1    0    0  501    0  0.00000000000E+00  0.00000000000E+00  0.25031189921E+04  0.25031189921E+04  0.25500000000E-02 0. -1.
         -2   -1    0    0    0  501 -0.00000000000E+00 -0.00000000000E+00 -0.13400591510E+03  0.13400591512E+03  0.25500000000E-02 0.  1.
    8880023    1    1    2    0    0 -0.64401241486E+02 -0.84126585597E+02  0.23582076856E+04  0.24507505987E+04  0.65864270000E+03 0. -1.
    8880022    1    1    2    0    0  0.64401241486E+02  0.84126585597E+02  0.10905391423E+02  0.18637430855E+03  0.15294330000E+03 0.  0.
<mgrwt>
<rscale>  0 0.48479501E+03</rscale>
<asrwt>0</asrwt>
<pdfrwt beam="1">  1        2 0.38509521E+00 0.66710944E+03</pdfrwt>
<pdfrwt beam="2">  1       -2 0.20616296E-01 0.66710944E+03</pdfrwt>
<totfact> 0.73692966E+01</totfact>
</mgrwt>
</event>
<event>
 4    5  0.6615028E-008  0.7576839E+03  0.7818608E-02  0.9811141E-01
         -2   -1    0    0    0  501 -0.00000000000E+00  0.00000000000E+00  0.21652236379E+03  0.21652236381E+03  0.25500000000E-02 0.  1.
          2   -1    0    0  501    0  0.00000000000E+00 -0.00000000000E+00 -0.16597255046E+04  0.16597255046E+04  0.25500000000E-02 0. -1.
    8880023    1    1    2    0    0 -0.14291972419E+03  0.34619157100E+03 -0.11477610690E+04  0.13752964514E+04  0.65864270000E+03 0.  1.
    8880022    1    1    2    0    0  0.14291972419E+03 -0.34619157100E+03 -0.29544207175E+03  0.50095141698E+03  0.15294330000E+03 0.  0.
<mgrwt>
<rscale>  0 0.64768068E+03</rscale>
<asrwt>0</asrwt>
<pdfrwt beam="1">  1        2 0.25534238E+00 0.75768388E+03</pdfrwt>
<pdfrwt beam="2">  1       -2 0.33311134E-01 0.75768388E+03</pdfrwt>
<totfact> 0.88697505E+01</totfact>
</mgrwt>
</event>
<event>
 4    5  0.6615028E-008  0.8070499E+03  0.7818608E-02  0.9695755E-01
          2   -1    0    0  501    0  0.00000000000E+00  0.00000000000E+00  0.30547449368E+04  0.30547449368E+04  0.25500000000E-02 0. -1.
         -2   -1    0    0    0  501 -0.00000000000E+00 -0.00000000000E+00 -0.16822856454E+03  0.16822856456E+03  0.25500000000E-02 0.  1.
    8880023    1    1    2    0    0  0.37357162409E+03 -0.27921966232E+03  0.23992626287E+04  0.25313614412E+04  0.65864270000E+03 0. -1.
    8880022    1    1    2    0    0 -0.37357162409E+03  0.27921966232E+03  0.48725374354E+03  0.69161206016E+03  0.15294330000E+03 0.  0.
<mgrwt>
<rscale>  0 0.71270103E+03</rscale>
<asrwt>0</asrwt>
<pdfrwt beam="1">  1        2 0.46996083E+00 0.80704993E+03</pdfrwt>
<pdfrwt beam="2">  1       -2 0.25881314E-01 0.80704993E+03</pdfrwt>
<totfact> 0.22744489E+01</totfact>
</mgrwt>
</event>
<event>
 4    5  0.6615028E-008  0.9868174E+03  0.7818608E-02  0.9399011E-01
         -2   -1    0    0    0  501 -0.00000000000E+00  0.00000000000E+00  0.58064196297E+03  0.58064196298E+03  0.25500000000E-02 0.  1.
          2   -1    0    0  501    0  0.00000000000E+00 -0.00000000000E+00 -0.13920680774E+04  0.13920680774E+04  0.25500000000E-02 0. -1.
    8880023    1    1    2    0    0  0.73480404628E+03  0.78362233147E+01 -0.70911533886E+03  0.12151761859E+04  0.65864270000E+03 0.  0.
    8880022    1    1    2    0    0 -0.73480404628E+03 -0.78362233147E+01 -0.10231077559E+03  0.75753385445E+03  0.15294330000E+03 0.  0.
<mgrwt>
<rscale>  0 0.92157089E+03</rscale>
<asrwt>0</asrwt>
<pdfrwt beam="1">  1        2 0.21416432E+00 0.98681741E+03</pdfrwt>
<pdfrwt beam="2">  1       -2 0.89329533E-01 0.98681741E+03</pdfrwt>
<totfact> 0.15674269E+01</totfact>
</mgrwt>
</event>
<event>
 4    5  0.6615028E-008  0.8671202E+03  0.7818608E-02  0.9581021E-01
          2   -1    0    0  501    0  0.00000000000E+00  0.00000000000E+00  0.35426660982E+04  0.35426660982E+04  0.25500000000E-02 0. -1.
         -2   -1    0    0    0  501 -0.00000000000E+00 -0.00000000000E+00 -0.10326516852E+04  0.10326516852E+04  0.25500000000E-02 0.  1.
    8880023    1    1    2    0    0 -0.33467061946E+03  0.45396337747E+03  0.34009982573E+04  0.35097986444E+04  0.65864270000E+03 0. -1.
    8880022    1    1    2    0    0  0.33467061946E+03 -0.45396337747E+03 -0.89098384434E+03  0.10655191390E+04  0.15294330000E+03 0.  0.
<mgrwt>
<rscale>  0 0.78565149E+03</rscale>
<asrwt>0</asrwt>
<pdfrwt beam="1">  1        2 0.54502555E+00 0.86712016E+03</pdfrwt>
<pdfrwt beam="2">  1       -2 0.15886949E+00 0.86712016E+03</pdfrwt>
<totfact> 0.20683959E-01</totfact>
</mgrwt>
</event>
<event>
 4    5  0.6615028E-008  0.1332138E+04  0.7818608E-02  0.9038292E-01
          2   -1    0    0  501    0  0.00000000000E+00  0.00000000000E+00  0.24831421506E+04  0.24831421506E+04  0.25500000000E-02 0. -1.
         -2   -1    0    0    0  501 -0.00000000000E+00 -0.00000000000E+00 -0.12841270039E+04  0.12841270039E+04  0.25500000000E-02 0.  1.
    8880023    1    1    2    0    0  0.10889413210E+04  0.39368489166E+03  0.19624795704E+04  0.23719016137E+04  0.65864270000E+03 0. -1.
    8880022    1    1    2    0    0 -0.10889413210E+04 -0.39368489166E+03 -0.76346442370E+03  0.13953675408E+04  0.15294330000E+03 0.  0.
<mgrwt>
<rscale>  0 0.12890523E+04</rscale>
<asrwt>0</asrwt>
<pdfrwt beam="1">  1        2 0.38202187E+00 0.13321378E+04</pdfrwt>
<pdfrwt beam="2">  1       -2 0.19755800E+00 0.13321378E+04</pdfrwt>
<totfact> 0.47106913E-01</totfact>
</mgrwt>
</event>
<event>
 4    5  0.6615028E-008  0.7382910E+03  0.7818608E-02  0.9864954E-01
          2   -1    0    0  501    0  0.00000000000E+00  0.00000000000E+00  0.29868515546E+04  0.29868515546E+04  0.25500000000E-02 0. -1.
         -2   -1    0    0    0  501 -0.00000000000E+00 -0.00000000000E+00 -0.37954968770E+03  0.37954968771E+03  0.25500000000E-02 0.  1.
    8880023    1    1    2    0    0 -0.23978957197E+03 -0.23187138147E+03  0.28383296165E+04  0.29327783064E+04  0.65864270000E+03 0. -1.
    8880022    1    1    2    0    0  0.23978957197E+03  0.23187138147E+03 -0.23102774966E+03  0.43362293585E+03  0.15294330000E+03 0.  0.
<mgrwt>
<rscale>  0 0.61990266E+03</rscale>
<asrwt>0</asrwt>
<pdfrwt beam="1">  1        2 0.45951562E+00 0.73829099E+03</pdfrwt>
<pdfrwt beam="2">  1       -2 0.58392260E-01 0.73829099E+03</pdfrwt>
<totfact> 0.51973609E+00</totfact>
</mgrwt>
</event>
<event>
 4    5  0.6615028E-008  0.8266379E+03  0.7818608E-02  0.9655910E-01
          2   -1    0    0  501    0  0.00000000000E+00  0.00000000000E+00  0.27456654325E+04  0.27456654325E+04  0.25500000000E-02 0. -1.
         -2   -1    0    0    0  501 -0.00000000000E+00 -0.00000000000E+00 -0.86948918669E+03  0.86948918669E+03  0.25500000000E-02 0.  1.
    8880023    1    1    2    0    0 -0.49757863070E+03  0.43994349057E+02  0.25967406324E+04  0.27251407514E+04  0.65864270000E+03 0. -1.
    8880022    1    1    2    0    0  0.49757863070E+03 -0.43994349057E+02 -0.72056438666E+03  0.89001386777E+03  0.15294330000E+03 0.  0.
<mgrwt>
<rscale>  0 0.73703692E+03</rscale>
<asrwt>0</asrwt>
<pdfrwt beam="1">  1        2 0.42241006E+00 0.82663789E+03</pdfrwt>
<pdfrwt beam="2">  1       -2 0.13376757E+00 0.82663789E+03</pdfrwt>
<totfact> 0.10503238E+00</totfact>
</mgrwt>
</event>
<event>
 4    5  0.6615028E-008  0.8078050E+03  0.7818608E-02  0.9694167E-01
         -2   -1    0    0    0  501 -0.00000000000E+00  0.00000000000E+00  0.70539559307E+03  0.70539559307E+03  0.25500000000E-02 0.  1.
          2   -1    0    0  501    0  0.00000000000E+00 -0.00000000000E+00 -0.20800934602E+04  0.20800934602E+04  0.25500000000E-02 0. -1.
    8880023    1    1    2    0    0  0.46113772384E+03 -0.78043292142E+02 -0.19006799892E+04  0.20652199359E+04  0.65864270000E+03 0. -1.
    8880022    1    1    2    0    0 -0.46113772384E+03  0.78043292142E+02  0.52598212206E+03  0.72026911744E+03  0.15294330000E+03 0.  0.
<mgrwt>
<rscale>  0 0.71365133E+03</rscale>
<asrwt>0</asrwt>
<pdfrwt beam="1">  1        2 0.32001438E+00 0.80780503E+03</pdfrwt>
<pdfrwt beam="2">  1       -2 0.10852240E+00 0.80780503E+03</pdfrwt>
<totfact> 0.42090798E+00</totfact>
</mgrwt>
</event>
<event>
 4    5  0.6615028E-008  0.6819693E+03  0.7818608E-02  0.1008231E+00
         -2   -1    0    0    0  501 -0.00000000000E+00  0.00000000000E+00  0.10967909870E+04  0.10967909870E+04  0.25500000000E-02 0.  1.
          2   -1    0    0  501    0  0.00000000000E+00 -0.00000000000E+00 -0.60001491452E+03  0.60001491453E+03  0.25500000000E-02 0. -1.
    8880023    1    1    2    0    0 -0.15875519262E+03 -0.77901889820E+02 -0.38597394678E+03  0.78361853569E+03  0.65864270000E+03 0. -1.
    8880022    1    1    2    0    0  0.15875519262E+03  0.77901889820E+02  0.88275001923E+03  0.91318736581E+03  0.15294330000E+03 0.  0.
<mgrwt>
<rscale>  0 0.52183820E+03</rscale>
<asrwt>0</asrwt>
<pdfrwt beam="1">  1        2 0.92309988E-01 0.68196930E+03</pdfrwt>
<pdfrwt beam="2">  1       -2 0.16873707E+00 0.68196930E+03</pdfrwt>
<totfact> 0.11048000E+01</totfact>
</mgrwt>
</event>
<event>
 4    5  0.6615028E-008  0.1107775E+04  0.7818608E-02  0.9252449E-01
          2   -1    0    0  501    0  0.00000000000E+00  0.00000000000E+00  0.12116315970E+04  0.12116315970E+04  0.25500000000E-02 0. -1.
         -2   -1    0    0    0  501 -0.00000000000E+00 -0.00000000000E+00 -0.11438316178E+04  0.11438316178E+04  0.25500000000E-02 0.  1.
    8880023    1    1    2    0    0  0.38828699156E+03  0.80161605671E+03  0.64620553183E+03  0.12824768559E+04  0.65864270000E+03 0. -1.
    8880022    1    1    2    0    0 -0.38828699156E+03 -0.80161605671E+03 -0.57840555266E+03  0.10729863590E+04  0.15294330000E+03 0.  0.
<mgrwt>
<rscale>  0 0.10528090E+04</rscale>
<asrwt>0</asrwt>
<pdfrwt beam="1">  1        2 0.18640486E+00 0.11077749E+04</pdfrwt>
<pdfrwt beam="2">  1       -2 0.17597409E+00 0.11077749E+04</pdfrwt>
<totfact> 0.35335921E+00</totfact>
</mgrwt>
</event>
<event>
 4    5  0.6615028E-008  0.6896403E+03  0.7818608E-02  0.1004324E+00
          2   -1    0    0  501    0  0.00000000000E+00  0.00000000000E+00  0.91875289774E+03  0.91875289774E+03  0.25500000000E-02 0. -1.
         -2   -1    0    0    0  501 -0.00000000000E+00 -0.00000000000E+00 -0.54315595977E+03  0.54315595977E+03  0.25500000000E-02 0.  1.
    8880023    1    1    2    0    0  0.82354332405E+02 -0.18711311893E+03  0.74349722587E+03  0.10140965864E+04  0.65864270000E+03 0. -1.
    8880022    1    1    2    0    0 -0.82354332405E+02  0.18711311893E+03 -0.36790028790E+03  0.44781227115E+03  0.15294330000E+03 0.  0.
<mgrwt>
<rscale>  0 0.53794220E+03</rscale>
<asrwt>0</asrwt>
<pdfrwt beam="1">  1        2 0.14134660E+00 0.68964031E+03</pdfrwt>
<pdfrwt beam="2">  1       -2 0.83562455E-01 0.68964031E+03</pdfrwt>
<totfact> 0.36417575E+01</totfact>
</mgrwt>
</event>
<event>
 4    5  0.6615028E-008  0.7516205E+03  0.7818608E-02  0.9827305E-01
         -2   -1    0    0    0  501 -0.00000000000E+00  0.00000000000E+00  0.23720385977E+03  0.23720385978E+03  0.25500000000E-02 0.  1.
          2   -1    0    0  501    0  0.00000000000E+00 -0.00000000000E+00 -0.16327641856E+04  0.16327641856E+04  0.25500000000E-02 0. -1.
    8880023    1    1    2    0    0 -0.22374248438E+03  0.28471472599E+03 -0.12341984817E+04  0.14450533807E+04  0.65864270000E+03 0. -1.
    8880022    1    1    2    0    0  0.22374248438E+03 -0.28471472599E+03 -0.16136184411E+03  0.42491466469E+03  0.15294330000E+03 0. -1.
<mgrwt>
<rscale>  0 0.63917567E+03</rscale>
<asrwt>0</asrwt>
<pdfrwt beam="1">  1        2 0.25119448E+00 0.75162050E+03</pdfrwt>
<pdfrwt beam="2">  1       -2 0.36492903E-01 0.75162050E+03</pdfrwt>
<totfact> 0.77191050E+01</totfact>
</mgrwt>
</event>
<event>
 4    5  0.6615028E-008  0.8110821E+03  0.7818608E-02  0.9687327E-01
         -2   -1    0    0    0  501 -0.00000000000E+00  0.00000000000E+00  0.75213279421E+03  0.75213279421E+03  0.25500000000E-02 0.  1.
          2   -1    0    0  501    0  0.00000000000E+00 -0.00000000000E+00 -0.14683117588E+04  0.14683117588E+04  0.25500000000E-02 0. -1.
    8880023    1    1    2    0    0 -0.28738436830E+03  0.37610391093E+03 -0.12504466214E+04  0.14904599579E+04  0.65864270000E+03 0. -1.
    8880022    1    1    2    0    0  0.28738436830E+03 -0.37610391093E+03  0.53426765680E+03  0.72998459509E+03  0.15294330000E+03 0.  0.
<mgrwt>
<rscale>  0 0.71776350E+03</rscale>
<asrwt>0</asrwt>
<pdfrwt beam="1">  1        2 0.22589412E+00 0.81108208E+03</pdfrwt>
<pdfrwt beam="2">  1       -2 0.11571274E+00 0.81108208E+03</pdfrwt>
<totfact> 0.78066898E+00</totfact>
</mgrwt>
</event>
<event>
 4    5  0.6615028E-008  0.7328889E+03  0.7818608E-02  0.9881167E-01
         -2   -1    0    0    0  501 -0.00000000000E+00  0.00000000000E+00  0.67412538443E+03  0.67412538444E+03  0.25500000000E-02 0.  1.
          2   -1    0    0  501    0  0.00000000000E+00 -0.00000000000E+00 -0.21281294743E+04  0.21281294743E+04  0.25500000000E-02 0. -1.
    8880023    1    1    2    0    0  0.28715268096E+03 -0.14442750877E+03 -0.20114749733E+04  0.21408310867E+04  0.65864270000E+03 0.  0.
    8880022    1    1    2    0    0 -0.28715268096E+03  0.14442750877E+03  0.55747088335E+03  0.66142377208E+03  0.15294330000E+03 0.  0.
<mgrwt>
<rscale>  0 0.61182745E+03</rscale>
<asrwt>0</asrwt>
<pdfrwt beam="1">  1        2 0.32740453E+00 0.73288892E+03</pdfrwt>
<pdfrwt beam="2">  1       -2 0.10371160E+00 0.73288892E+03</pdfrwt>
<totfact> 0.44731469E+00</totfact>
</mgrwt>
</event>
<event>
 4    5  0.6615028E-008  0.7939530E+03  0.7818608E-02  0.9724027E-01
         -2   -1    0    0    0  501 -0.00000000000E+00  0.00000000000E+00  0.76134411008E+03  0.76134411009E+03  0.25500000000E-02 0.  1.
          2   -1    0    0  501    0  0.00000000000E+00 -0.00000000000E+00 -0.86457691026E+03  0.86457691026E+03  0.25500000000E-02 0. -1.
    8880023    1    1    2    0    0  0.39573122022E+03 -0.19986985356E+03 -0.55975254390E+03  0.97143413245E+03  0.65864270000E+03 0. -1.
    8880022    1    1    2    0    0 -0.39573122022E+03  0.19986985356E+03  0.45651974372E+03  0.65448688791E+03  0.15294330000E+03 0.  0.
<mgrwt>
<rscale>  0 0.69604099E+03</rscale>
<asrwt>0</asrwt>
<pdfrwt beam="1">  1        2 0.13301183E+00 0.79395300E+03</pdfrwt>
<pdfrwt beam="2">  1       -2 0.11712986E+00 0.79395300E+03</pdfrwt>
<totfact> 0.17669047E+01</totfact>
</mgrwt>
</event>
<event>
 4    5  0.6615028E-008  0.7617399E+03  0.7818608E-02  0.9800624E-01
         -2   -1    0    0    0  501 -0.00000000000E+00  0.00000000000E+00  0.65881339542E+03  0.65881339543E+03  0.25500000000E-02 0.  1.
          2   -1    0    0  501    0  0.00000000000E+00 -0.00000000000E+00 -0.16399302185E+04  0.16399302185E+04  0.25500000000E-02 0. -1.
    8880023    1    1    2    0    0  0.11742970288E+03  0.36420841955E+03 -0.14722376893E+04  0.16576282840E+04  0.65864270000E+03 0.  0.
    8880022    1    1    2    0    0 -0.11742970288E+03 -0.36420841955E+03  0.49112086621E+03  0.64111532990E+03  0.15294330000E+03 0.  0.
<mgrwt>
<rscale>  0 0.65329085E+03</rscale>
<asrwt>0</asrwt>
<pdfrwt beam="1">  1        2 0.25229696E+00 0.76173993E+03</pdfrwt>
<pdfrwt beam="2">  1       -2 0.10135591E+00 0.76173993E+03</pdfrwt>
<totfact> 0.86925049E+00</totfact>
</mgrwt>
</event>
<event>
 4    5  0.6615028E-008  0.1130405E+04  0.7818608E-02  0.9227936E-01
         -2   -1    0    0    0  501 -0.00000000000E+00  0.00000000000E+00  0.13232613962E+04  0.13232613962E+04  0.25500000000E-02 0.  1.
          2   -1    0    0  501    0  0.00000000000E+00 -0.00000000000E+00 -0.96313687277E+03  0.96313687278E+03  0.25500000000E-02 0. -1.
    8880023    1    1    2    0    0  0.88136074307E+03  0.25924706176E+03 -0.26964109025E+03  0.11621197538E+04  0.65864270000E+03 0.  0.
    8880022    1    1    2    0    0 -0.88136074307E+03 -0.25924706176E+03  0.62976561371E+03  0.11242785152E+04  0.15294330000E+03 0.  0.
<mgrwt>
<rscale>  0 0.10769682E+04</rscale>
<asrwt>0</asrwt>
<pdfrwt beam="1">  1        2 0.14817490E+00 0.11304052E+04</pdfrwt>
<pdfrwt beam="2">  1       -2 0.20357867E+00 0.11304052E+04</pdfrwt>
<totfact> 0.32846741E+00</totfact>
</mgrwt>
</event>
<event>
 4    5  0.6615028E-008  0.6845430E+03  0.7818608E-02  0.1006862E+00
         -2   -1    0    0    0  501 -0.00000000000E+00  0.00000000000E+00  0.80030901812E+03  0.80030901812E+03  0.25500000000E-02 0.  1.
          2   -1    0    0  501    0  0.00000000000E+00 -0.00000000000E+00 -0.14992353855E+04  0.14992353855E+04  0.25500000000E-02 0. -1.
    8880023    1    1    2    0    0 -0.95070283243E+02  0.16046985476E+03 -0.13998593993E+04  0.15582700271E+04  0.65864270000E+03 0. -1.
    8880022    1    1    2    0    0  0.95070283243E+02 -0.16046985476E+03  0.70093303196E+03  0.74127437657E+03  0.15294330000E+03 0.  0.
<mgrwt>
<rscale>  0 0.52740934E+03</rscale>
<asrwt>0</asrwt>
<pdfrwt beam="1">  1        2 0.23065160E+00 0.68454301E+03</pdfrwt>
<pdfrwt beam="2">  1       -2 0.12312446E+00 0.68454301E+03</pdfrwt>
<totfact> 0.65520763E+00</totfact>
</mgrwt>
</event>
<event>
 4    5  0.6615028E-008  0.1226313E+04  0.7818608E-02  0.9131959E-01
         -2   -1    0    0    0  501 -0.00000000000E+00  0.00000000000E+00  0.99450303815E+03  0.99450303815E+03  0.25500000000E-02 0.  1.
          2   -1    0    0  501    0  0.00000000000E+00 -0.00000000000E+00 -0.17912514196E+04  0.17912514196E+04  0.25500000000E-02 0. -1.
    8880023    1    1    2    0    0  0.44118783177E+03 -0.93562136802E+03 -0.11508504882E+04  0.16817553626E+04  0.65864270000E+03 0.  0.
    8880022    1    1    2    0    0 -0.44118783177E+03  0.93562136802E+03  0.35410210671E+03  0.11039990952E+04  0.15294330000E+03 0.  0.
<mgrwt>
<rscale>  0 0.11784190E+04</rscale>
<asrwt>0</asrwt>
<pdfrwt beam="1">  1        2 0.27557714E+00 0.12263133E+04</pdfrwt>
<pdfrwt beam="2">  1       -2 0.15300047E+00 0.12263133E+04</pdfrwt>
<totfact> 0.24044154E+00</totfact>
</mgrwt>
</event>
<event>
 4    5  0.6615028E-008  0.7787816E+03  0.7818608E-02  0.9758707E-01
         -2   -1    0    0    0  501 -0.00000000000E+00  0.00000000000E+00  0.60562508339E+03  0.60562508340E+03  0.25500000000E-02 0.  1.
          2   -1    0    0  501    0  0.00000000000E+00 -0.00000000000E+00 -0.98649897324E+03  0.98649897324E+03  0.25500000000E-02 0. -1.
    8880023    1    1    2    0    0  0.17399970980E+03 -0.37737867664E+03 -0.69933007156E+03  0.10466916068E+04  0.65864270000E+03 0.  0.
    8880022    1    1    2    0    0 -0.17399970980E+03  0.37737867664E+03  0.31845618172E+03  0.54543244979E+03  0.15294330000E+03 0.  0.
<mgrwt>
<rscale>  0 0.67626441E+03</rscale>
<asrwt>0</asrwt>
<pdfrwt beam="1">  1        2 0.15176907E+00 0.77878159E+03</pdfrwt>
<pdfrwt beam="2">  1       -2 0.93173090E-01 0.77878159E+03</pdfrwt>
<totfact> 0.25395546E+01</totfact>
</mgrwt>
</event>
<event>
 4    5  0.6615028E-008  0.1848374E+04  0.7818608E-02  0.8696240E-01
          2   -1    0    0  501    0  0.00000000000E+00  0.00000000000E+00  0.31484679682E+04  0.31484679682E+04  0.25500000000E-02 0. -1.
         -2   -1    0    0    0  501 -0.00000000000E+00 -0.00000000000E+00 -0.18650823733E+04  0.18650823733E+04  0.25500000000E-02 0.  1.
    8880023    1    1    2    0    0 -0.72823082784E+02  0.17255061441E+04  0.23409164749E+04  0.29826791318E+04  0.65864270000E+03 0.  0.
    8880022    1    1    2    0    0  0.72823082784E+02 -0.17255061441E+04 -0.10575308801E+04  0.20308712096E+04  0.15294330000E+03 0.  0.
<mgrwt>
<rscale>  0 0.18190395E+04</rscale>
<asrwt>0</asrwt>
<pdfrwt beam="1">  1        2 0.48437968E+00 0.18483736E+04</pdfrwt>
<pdfrwt beam="2">  1       -2 0.28693575E+00 0.18483736E+04</pdfrwt>
<totfact> 0.48170149E-02</totfact>
</mgrwt>
</event>
<event>
 4    5  0.6615028E-008  0.7189103E+03  0.7818608E-02  0.9926290E-01
          2   -1    0    0  501    0  0.00000000000E+00  0.00000000000E+00  0.88292570604E+03  0.88292570604E+03  0.25500000000E-02 0. -1.
         -2   -1    0    0    0  501 -0.00000000000E+00 -0.00000000000E+00 -0.80996387367E+03  0.80996387367E+03  0.25500000000E-02 0.  1.
    8880023    1    1    2    0    0 -0.35982802968E+02  0.28587947944E+03  0.68902848956E+03  0.99578727877E+03  0.65864270000E+03 0. -1.
    8880022    1    1    2    0    0  0.35982802968E+02 -0.28587947944E+03 -0.61606665718E+03  0.69710230094E+03  0.15294330000E+03 0.  0.
<mgrwt>
<rscale>  0 0.59003887E+03</rscale>
<asrwt>0</asrwt>
<pdfrwt beam="1">  1        2 0.13583472E+00 0.71891032E+03</pdfrwt>
<pdfrwt beam="2">  1       -2 0.12460983E+00 0.71891032E+03</pdfrwt>
<totfact> 0.14833186E+01</totfact>
</mgrwt>
</event>
<event>
 4    5  0.6615028E-008  0.7958755E+03  0.7818608E-02  0.9719786E-01
          2   -1    0    0  501    0  0.00000000000E+00  0.00000000000E+00  0.14729513791E+04  0.14729513791E+04  0.25500000000E-02 0. -1.
         -2   -1    0    0    0  501 -0.00000000000E+00 -0.00000000000E+00 -0.38407260180E+03  0.38407260180E+03  0.25500000000E-02 0.  1.
    8880023    1    1    2    0    0 -0.13520122809E+02  0.44657013044E+03  0.11309569042E+04  0.13829249439E+04  0.65864270000E+03 0.  0.
    8880022    1    1    2    0    0  0.13520122809E+02 -0.44657013044E+03 -0.42078126850E+02  0.47409903702E+03  0.15294330000E+03 0.  0.
<mgrwt>
<rscale>  0 0.69850869E+03</rscale>
<asrwt>0</asrwt>
<pdfrwt beam="1">  1        2 0.22660791E+00 0.79587554E+03</pdfrwt>
<pdfrwt beam="2">  1       -2 0.59088091E-01 0.79587554E+03</pdfrwt>
<totfact> 0.35788750E+01</totfact>
</mgrwt>
</event>
<event>
 4    5  0.6615028E-008  0.1538060E+04  0.7818608E-02  0.8883218E-01
          2   -1    0    0  501    0  0.00000000000E+00  0.00000000000E+00  0.35828424415E+04  0.35828424415E+04  0.25500000000E-02 0. -1.
         -2   -1    0    0    0  501 -0.00000000000E+00 -0.00000000000E+00 -0.16107449908E+04  0.16107449908E+04  0.25500000000E-02 0.  1.
    8880023    1    1    2    0    0  0.11055178858E+03  0.13854948247E+04  0.30581037896E+04  0.34231018976E+04  0.65864270000E+03 0. -1.
    8880022    1    1    2    0    0 -0.11055178858E+03 -0.13854948247E+04 -0.10860063390E+04  0.17704855347E+04  0.15294330000E+03 0.  0.
<mgrwt>
<rscale>  0 0.15018587E+04</rscale>
<asrwt>0</asrwt>
<pdfrwt beam="1">  1        2 0.55120652E+00 0.15380598E+04</pdfrwt>
<pdfrwt beam="2">  1       -2 0.24780692E+00 0.15380598E+04</pdfrwt>
<totfact> 0.44344217E-02</totfact>
</mgrwt>
</event>
<event>
 4    5  0.6615028E-008  0.6681309E+03  0.7818608E-02  0.1017040E+00
         -2   -1    0    0    0  501 -0.00000000000E+00  0.00000000000E+00  0.20449031923E+04  0.20449031923E+04  0.25500000000E-02 0.  1.
          2   -1    0    0  501    0  0.00000000000E+00 -0.00000000000E+00 -0.41015003980E+03  0.41015003981E+03  0.25500000000E-02 0. -1.
    8880023    1    1    2    0    0 -0.11215305866E+03 -0.32191566237E+01 -0.12955659115E+03  0.68057607077E+03  0.65864270000E+03 0. -1.
    8880022    1    1    2    0    0  0.11215305866E+03  0.32191566237E+01  0.17643097436E+04  0.17744771613E+04  0.15294330000E+03 0.  0.
<mgrwt>
<rscale>  0 0.48770173E+03</rscale>
<asrwt>0</asrwt>
<pdfrwt beam="1">  1        2 0.63100007E-01 0.66813088E+03</pdfrwt>
<pdfrwt beam="2">  1       -2 0.31460049E+00 0.66813088E+03</pdfrwt>
<totfact> 0.21156833E+00</totfact>
</mgrwt>
</event>
<event>
 4    5  0.6615028E-008  0.8015698E+03  0.7818608E-02  0.9707412E-01
          2   -1    0    0  501    0  0.00000000000E+00  0.00000000000E+00  0.18742584524E+04  0.18742584524E+04  0.25500000000E-02 0. -1.
         -2   -1    0    0    0  501 -0.00000000000E+00 -0.00000000000E+00 -0.10721651663E+04  0.10721651663E+04  0.25500000000E-02 0.  1.
    8880023    1    1    2    0    0 -0.14895847197E+03 -0.43187423489E+03  0.17267844256E+04  0.19037590814E+04  0.65864270000E+03 0. -1.
    8880022    1    1    2    0    0  0.14895847197E+03  0.43187423489E+03 -0.92469113942E+03  0.10426645374E+04  0.15294330000E+03 0.  0.
<mgrwt>
<rscale>  0 0.70577195E+03</rscale>
<asrwt>0</asrwt>
<pdfrwt beam="1">  1        2 0.28834745E+00 0.80156983E+03</pdfrwt>
<pdfrwt beam="2">  1       -2 0.16494849E+00 0.80156983E+03</pdfrwt>
<totfact> 0.18669005E+00</totfact>
</mgrwt>
</event>
<event>
 4    5  0.6615028E-008  0.7727273E+03  0.7818608E-02  0.9773207E-01
         -2   -1    0    0    0  501 -0.00000000000E+00  0.00000000000E+00  0.79753050443E+03  0.79753050444E+03  0.25500000000E-02 0.  1.
          2   -1    0    0  501    0  0.00000000000E+00 -0.00000000000E+00 -0.86123922498E+03  0.86123922499E+03  0.25500000000E-02 0. -1.
    8880023    1    1    2    0    0  0.29299150422E+03 -0.27830419780E+03 -0.59406412072E+03  0.97468950638E+03  0.65864270000E+03 0.  0.
    8880022    1    1    2    0    0 -0.29299150422E+03  0.27830419780E+03  0.53035540017E+03  0.68408022304E+03  0.15294330000E+03 0.  0.
<mgrwt>
<rscale>  0 0.66820466E+03</rscale>
<asrwt>0</asrwt>
<pdfrwt beam="1">  1        2 0.13249834E+00 0.77272728E+03</pdfrwt>
<pdfrwt beam="2">  1       -2 0.12269700E+00 0.77272728E+03</pdfrwt>
<totfact> 0.15863610E+01</totfact>
</mgrwt>
</event>
<event>
 4    5  0.6615028E-008  0.1089646E+04  0.7818608E-02  0.9272673E-01
         -2   -1    0    0    0  501 -0.00000000000E+00  0.00000000000E+00  0.16581937354E+04  0.16581937354E+04  0.25500000000E-02 0.  1.
          2   -1    0    0  501    0  0.00000000000E+00 -0.00000000000E+00 -0.17154091624E+04  0.17154091624E+04  0.25500000000E-02 0. -1.
    8880023    1    1    2    0    0  0.73249372576E+03 -0.46580083868E+03 -0.13958754557E+04  0.17708178827E+04  0.65864270000E+03 0. -1.
    8880022    1    1    2    0    0 -0.73249372576E+03  0.46580083868E+03  0.13386600287E+04  0.16027850152E+04  0.15294330000E+03 0.  0.
<mgrwt>
<rscale>  0 0.10333805E+04</rscale>
<asrwt>0</asrwt>
<pdfrwt beam="1">  1        2 0.26390910E+00 0.10896457E+04</pdfrwt>
<pdfrwt beam="2">  1       -2 0.25510673E+00 0.10896457E+04</pdfrwt>
<totfact> 0.56738573E-01</totfact>
</mgrwt>
</event>
<event>
 4    5  0.6615028E-008  0.7506964E+03  0.7818608E-02  0.9829818E-01
         -2   -1    0    0    0  501 -0.00000000000E+00  0.00000000000E+00  0.23988078185E+04  0.23988078185E+04  0.25500000000E-02 0.  1.
          2   -1    0    0  501    0  0.00000000000E+00 -0.00000000000E+00 -0.85729575534E+03  0.85729575535E+03  0.25500000000E-02 0. -1.
    8880023    1    1    2    0    0  0.13707108582E+03 -0.33308611375E+03 -0.67244342053E+03  0.10078319313E+04  0.65864270000E+03 0. -1.
    8880022    1    1    2    0    0 -0.13707108582E+03  0.33308611375E+03  0.22139554837E+04  0.22482716425E+04  0.15294330000E+03 0.  0.
<mgrwt>
<rscale>  0 0.63786611E+03</rscale>
<asrwt>0</asrwt>
<pdfrwt beam="1">  1        2 0.13189166E+00 0.75069638E+03</pdfrwt>
<pdfrwt beam="2">  1       -2 0.36904735E+00 0.75069638E+03</pdfrwt>
<totfact> 0.39201075E-01</totfact>
</mgrwt>
</event>
<event>
 4    5  0.6615028E-008  0.9918174E+03  0.7818608E-02  0.9392342E-01
         -2   -1    0    0    0  501 -0.00000000000E+00  0.00000000000E+00  0.63676054655E+03  0.63676054655E+03  0.25500000000E-02 0.  1.
          2   -1    0    0  501    0  0.00000000000E+00 -0.00000000000E+00 -0.17861434327E+04  0.17861434327E+04  0.25500000000E-02 0. -1.
    8880023    1    1    2    0    0  0.68967774580E+03 -0.27246324399E+03 -0.13157418366E+04  0.16476888053E+04  0.65864270000E+03 0.  0.
    8880022    1    1    2    0    0 -0.68967774580E+03  0.27246324399E+03  0.16635895049E+03  0.77521517387E+03  0.15294330000E+03 0.  0.
<mgrwt>
<rscale>  0 0.92708587E+03</rscale>
<asrwt>0</asrwt>
<pdfrwt beam="1">  1        2 0.27479130E+00 0.99181743E+03</pdfrwt>
<pdfrwt beam="2">  1       -2 0.97963162E-01 0.99181743E+03</pdfrwt>
<totfact> 0.76089986E+00</totfact>
</mgrwt>
</event>
<event>
 4    5  0.8937769E-008  0.1045956E+04  0.7818608E-02  0.9323759E-01
         -2   -1    0    0    0  501 -0.00000000000E+00  0.00000000000E+00  0.16300840996E+04  0.16300840996E+04  0.25500000000E-02 0.  1.
          2   -1    0    0  501    0  0.00000000000E+00 -0.00000000000E+00 -0.29498587925E+04  0.29498587925E+04  0.25500000000E-02 0. -1.
    8880023    1    1    2    0    0 -0.81206899584E+03 -0.27519603395E+02 -0.27420718182E+04  0.29347881431E+04  0.65864270000E+03 0.  0.
    8880022    1    1    2    0    0  0.81206899584E+03  0.27519603395E+02  0.14222971253E+04  0.16451547490E+04  0.15294330000E+03 0.  0.
<mgrwt>
<rscale>  0 0.98624693E+03</rscale>
<asrwt>0</asrwt>
<pdfrwt beam="1">  1        2 0.45382443E+00 0.10459558E+04</pdfrwt>
<pdfrwt beam="2">  1       -2 0.25078217E+00 0.10459558E+04</pdfrwt>
<totfact> 0.12032254E-01</totfact>
</mgrwt>
</event>
<event>
 4    5  0.6615028E-008  0.6824247E+03  0.7818608E-02  0.1007984E+00
         -2   -1    0    0    0  501 -0.00000000000E+00  0.00000000000E+00  0.47688119388E+03  0.47688119389E+03  0.25500000000E-02 0.  1.
          2   -1    0    0  501    0  0.00000000000E+00 -0.00000000000E+00 -0.17500391299E+04  0.17500391299E+04  0.25500000000E-02 0. -1.
    8880023    1    1    2    0    0  0.15524331949E+03  0.88276980246E+02 -0.16484126169E+04  0.17840873508E+04  0.65864270000E+03 0. -1.
    8880022    1    1    2    0    0 -0.15524331949E+03 -0.88276980246E+02  0.37525468084E+03  0.44283297302E+03  0.15294330000E+03 0.  0.
<mgrwt>
<rscale>  0 0.52283777E+03</rscale>
<asrwt>0</asrwt>
<pdfrwt beam="1">  1        2 0.26923679E+00 0.68242474E+03</pdfrwt>
<pdfrwt beam="2">  1       -2 0.73366338E-01 0.68242474E+03</pdfrwt>
<totfact> 0.16023905E+01</totfact>
</mgrwt>
</event>
<event>
 4    5  0.6615028E-008  0.1105198E+04  0.7818608E-02  0.9255291E-01
         -2   -1    0    0    0  501 -0.00000000000E+00  0.00000000000E+00  0.12409948250E+04  0.12409948250E+04  0.25500000000E-02 0.  1.
          2   -1    0    0  501    0  0.00000000000E+00 -0.00000000000E+00 -0.13606308252E+04  0.13606308252E+04  0.25500000000E-02 0. -1.
    8880023    1    1    2    0    0  0.73503373296E+03  0.49737044185E+03 -0.88804707644E+03  0.14177763439E+04  0.65864270000E+03 0.  0.
    8880022    1    1    2    0    0 -0.73503373296E+03 -0.49737044185E+03  0.76841107628E+03  0.11838493064E+04  0.15294330000E+03 0.  0.
<mgrwt>
<rscale>  0 0.10500513E+04</rscale>
<asrwt>0</asrwt>
<pdfrwt beam="1">  1        2 0.20932782E+00 0.11051978E+04</pdfrwt>
<pdfrwt beam="2">  1       -2 0.19092228E+00 0.11051978E+04</pdfrwt>
<totfact> 0.22835217E+00</totfact>
</mgrwt>
</event>
<event>
 4    5  0.6615028E-008  0.8698123E+03  0.7818608E-02  0.9576342E-01
          2   -1    0    0  501    0  0.00000000000E+00  0.00000000000E+00  0.73055896138E+03  0.73055896139E+03  0.25500000000E-02 0. -1.
         -2   -1    0    0    0  501 -0.00000000000E+00 -0.00000000000E+00 -0.13240048791E+04  0.13240048791E+04  0.25500000000E-02 0.  1.
    8880023    1    1    2    0    0  0.53932933253E+03  0.17856952311E+03  0.35417323305E+03  0.93915498656E+03  0.65864270000E+03 0. -1.
    8880022    1    1    2    0    0 -0.53932933253E+03 -0.17856952311E+03 -0.94761915079E+03  0.11154088540E+04  0.15294330000E+03 0.  0.
<mgrwt>
<rscale>  0 0.78882008E+03</rscale>
<asrwt>0</asrwt>
<pdfrwt beam="1">  1        2 0.11239369E+00 0.86981228E+03</pdfrwt>
<pdfrwt beam="2">  1       -2 0.20369306E+00 0.86981228E+03</pdfrwt>
<totfact> 0.49151020E+00</totfact>
</mgrwt>
</event>
<event>
 4    5  0.6615028E-008  0.8006134E+03  0.7818608E-02  0.9709471E-01
         -2   -1    0    0    0  501 -0.00000000000E+00  0.00000000000E+00  0.21289223234E+04  0.21289223234E+04  0.25500000000E-02 0.  1.
          2   -1    0    0  501    0  0.00000000000E+00 -0.00000000000E+00 -0.51082638742E+03  0.51082638742E+03  0.25500000000E-02 0. -1.
    8880023    1    1    2    0    0 -0.41790746880E+03  0.18034667566E+03 -0.14394815343E+03  0.81345119893E+03  0.65864270000E+03 0. -1.
    8880022    1    1    2    0    0  0.41790746880E+03 -0.18034667566E+03  0.17620440895E+04  0.18262975119E+04  0.15294330000E+03 0.  0.
<mgrwt>
<rscale>  0 0.70455660E+03</rscale>
<asrwt>0</asrwt>
<pdfrwt beam="1">  1        2 0.78588675E-01 0.80061338E+03</pdfrwt>
<pdfrwt beam="2">  1       -2 0.32752651E+00 0.80061338E+03</pdfrwt>
<totfact> 0.13433238E+00</totfact>
</mgrwt>
</event>
<event>
 4    5  0.6615028E-008  0.7566301E+03  0.7818608E-02  0.9813911E-01
         -2   -1    0    0    0  501 -0.00000000000E+00  0.00000000000E+00  0.50785690896E+03  0.50785690896E+03  0.25500000000E-02 0.  1.
          2   -1    0    0  501    0  0.00000000000E+00 -0.00000000000E+00 -0.20364578918E+04  0.20364578918E+04  0.25500000000E-02 0. -1.
    8880023    1    1    2    0    0 -0.83814201986E+01 -0.37230183584E+03 -0.18694876231E+04  0.20167977302E+04  0.65864270000E+03 0. -1.
    8880022    1    1    2    0    0  0.83814201986E+01  0.37230183584E+03  0.34088664031E+03  0.52751707056E+03  0.15294330000E+03 0.  0.
<mgrwt>
<rscale>  0 0.64621306E+03</rscale>
<asrwt>0</asrwt>
<pdfrwt beam="1">  1        2 0.31330121E+00 0.75663010E+03</pdfrwt>
<pdfrwt beam="2">  1       -2 0.78131833E-01 0.75663010E+03</pdfrwt>
<totfact> 0.96217077E+00</totfact>
</mgrwt>
</event>
<event>
 4    5  0.6615028E-008  0.1104789E+04  0.7818608E-02  0.9255743E-01
          2   -1    0    0  501    0  0.00000000000E+00  0.00000000000E+00  0.15742315693E+04  0.15742315693E+04  0.25500000000E-02 0. -1.
         -2   -1    0    0    0  501 -0.00000000000E+00 -0.00000000000E+00 -0.69905987581E+03  0.69905987581E+03  0.25500000000E-02 0.  1.
    8880023    1    1    2    0    0 -0.54688523842E+02  0.88530071519E+03  0.81181670965E+03  0.13709867860E+04  0.65864270000E+03 0. -1.
    8880022    1    1    2    0    0  0.54688523842E+02 -0.88530071519E+03  0.63354983858E+02  0.90230465917E+03  0.15294330000E+03 0.  0.
<mgrwt>
<rscale>  0 0.10496136E+04</rscale>
<asrwt>0</asrwt>
<pdfrwt beam="1">  1        2 0.24218947E+00 0.11047888E+04</pdfrwt>
<pdfrwt beam="2">  1       -2 0.10754767E+00 0.11047888E+04</pdfrwt>
<totfact> 0.78799248E+00</totfact>
</mgrwt>
</event>
<event>
 4    5  0.6615028E-008  0.6641084E+03  0.7818608E-02  0.1020293E+00
          2   -1    0    0  501    0  0.00000000000E+00  0.00000000000E+00  0.16172175030E+04  0.16172175030E+04  0.25500000000E-02 0. -1.
         -2   -1    0    0    0  501 -0.00000000000E+00 -0.00000000000E+00 -0.18467146205E+03  0.18467146207E+03  0.25500000000E-02 0.  1.
    8880023    1    1    2    0    0 -0.66626205431E+02  0.52827373067E+02  0.14786395636E+04  0.16209302724E+04  0.65864270000E+03 0.  0.
    8880022    1    1    2    0    0  0.66626205431E+02 -0.52827373067E+02 -0.46093522701E+02  0.18095869265E+03  0.15294330000E+03 0.  1.
<mgrwt>
<rscale>  0 0.47580876E+03</rscale>
<asrwt>0</asrwt>
<pdfrwt beam="1">  1        2 0.24880269E+00 0.66410842E+03</pdfrwt>
<pdfrwt beam="2">  1       -2 0.28410995E-01 0.66410842E+03</pdfrwt>
<totfact> 0.12703470E+02</totfact>
</mgrwt>
</event>
<event>
 4    5  0.6615028E-008  0.8858655E+03  0.7818608E-02  0.9549114E-01
         -2   -1    0    0    0  501 -0.00000000000E+00  0.00000000000E+00  0.44717057042E+03  0.44717057043E+03  0.25500000000E-02 0.  1.
          2   -1    0    0  501    0  0.00000000000E+00 -0.00000000000E+00 -0.13763123254E+04  0.13763123254E+04  0.25500000000E-02 0. -1.
    8880023    1    1    2    0    0  0.41403155030E+03 -0.42370430584E+03 -0.80958764861E+03  0.12000790934E+04  0.65864270000E+03 0.  0.
    8880022    1    1    2    0    0 -0.41403155030E+03  0.42370430584E+03 -0.11955410633E+03  0.62340380235E+03  0.15294330000E+03 0.  0.
<mgrwt>
<rscale>  0 0.80757709E+03</rscale>
<asrwt>0</asrwt>
<pdfrwt beam="1">  1        2 0.21174036E+00 0.88586549E+03</pdfrwt>
<pdfrwt beam="2">  1       -2 0.68795473E-01 0.88586549E+03</pdfrwt>
<totfact> 0.29037815E+01</totfact>
</mgrwt>
</event>
<event>
 4    5  0.6615028E-008  0.6843125E+03  0.7818608E-02  0.1006982E+00
          2   -1    0    0  501    0  0.00000000000E+00  0.00000000000E+00  0.85558407171E+03  0.85558407171E+03  0.25500000000E-02 0. -1.
         -2   -1    0    0    0  501 -0.00000000000E+00 -0.00000000000E+00 -0.60813286664E+03  0.60813286665E+03  0.25500000000E-02 0.  1.
    8880023    1    1    2    0    0 -0.54038237186E+02 -0.17763230089E+03  0.68256925325E+03  0.96653212939E+03  0.65864270000E+03 0. -1.
    8880022    1    1    2    0    0  0.54038237186E+02  0.17763230089E+03 -0.43511804819E+03  0.49718480897E+03  0.15294330000E+03 0.  0.
<mgrwt>
<rscale>  0 0.52691779E+03</rscale>
<asrwt>0</asrwt>
<pdfrwt beam="1">  1        2 0.13162832E+00 0.68431248E+03</pdfrwt>
<pdfrwt beam="2">  1       -2 0.93558903E-01 0.68431248E+03</pdfrwt>
<totfact> 0.31019082E+01</totfact>
</mgrwt>
</event>
<event>
 4    5  0.6615028E-008  0.1230544E+04  0.7818608E-02  0.9127989E-01
          2   -1    0    0  501    0  0.00000000000E+00  0.00000000000E+00  0.28934669772E+04  0.28934669772E+04  0.25500000000E-02 0. -1.
         -2   -1    0    0    0  501 -0.00000000000E+00 -0.00000000000E+00 -0.78868587715E+03  0.78868587715E+03  0.25500000000E-02 0.  1.
    8880023    1    1    2    0    0  0.71914230156E+03 -0.75050802141E+03  0.23047322157E+04  0.26126669770E+04  0.65864270000E+03 0.  0.
    8880022    1    1    2    0    0 -0.71914230156E+03  0.75050802141E+03 -0.19995111573E+03  0.10694858773E+04  0.15294330000E+03 0.  0.
<mgrwt>
<rscale>  0 0.11828647E+04</rscale>
<asrwt>0</asrwt>
<pdfrwt beam="1">  1        2 0.44514877E+00 0.12305438E+04</pdfrwt>
<pdfrwt beam="2">  1       -2 0.12133629E+00 0.12305438E+04</pdfrwt>
<totfact> 0.10286027E+00</totfact>
</mgrwt>
</event>
<event>
 4    5  0.6615028E-008  0.9836888E+03  0.7818608E-02  0.9403216E-01
         -2   -1    0    0    0  501 -0.00000000000E+00  0.00000000000E+00  0.64839477762E+03  0.64839477762E+03  0.25500000000E-02 0.  1.
          2   -1    0    0  501    0  0.00000000000E+00 -0.00000000000E+00 -0.14347580926E+04  0.14347580926E+04  0.25500000000E-02 0. -1.
    8880023    1    1    2    0    0 -0.19309072931E+03  0.70466267865E+03 -0.89365288134E+03  0.13290068469E+04  0.65864270000E+03 0. -1.
    8880022    1    1    2    0    0  0.19309072931E+03 -0.70466267865E+03  0.10728956638E+03  0.75414602333E+03  0.15294330000E+03 0.  0.
<mgrwt>
<rscale>  0 0.91811514E+03</rscale>
<asrwt>0</asrwt>
<pdfrwt beam="1">  1        2 0.22073201E+00 0.98368884E+03</pdfrwt>
<pdfrwt beam="2">  1       -2 0.99753043E-01 0.98368884E+03</pdfrwt>
<totfact> 0.11447511E+01</totfact>
</mgrwt>
</event>
<event>
 4    5  0.6615028E-008  0.6867112E+03  0.7818608E-02  0.1005757E+00
          2   -1    0    0  501    0  0.00000000000E+00  0.00000000000E+00  0.84183445606E+03  0.84183445606E+03  0.25500000000E-02 0. -1.
         -2   -1    0    0    0  501 -0.00000000000E+00 -0.00000000000E+00 -0.30394599946E+03  0.30394599947E+03  0.25500000000E-02 0.  1.
    8880023    1    1    2    0    0 -0.11015085966E+03  0.16008996629E+03  0.17850055306E+03  0.70953129804E+03  0.65864270000E+03 0.  1.
    8880022    1    1    2    0    0  0.11015085966E+03 -0.16008996629E+03  0.35938790354E+03  0.43624915750E+03  0.15294330000E+03 0. -1.
<mgrwt>
<rscale>  0 0.53196540E+03</rscale>
<asrwt>0</asrwt>
<pdfrwt beam="1">  1        2 0.12951299E+00 0.68671116E+03</pdfrwt>
<pdfrwt beam="2">  1       -2 0.46760923E-01 0.68671116E+03</pdfrwt>
<totfact> 0.14156409E+02</totfact>
</mgrwt>
</event>
<event>
 4    5  0.6615028E-008  0.7829730E+03  0.7818608E-02  0.9748899E-01
         -2   -1    0    0    0  501 -0.00000000000E+00  0.00000000000E+00  0.25947202469E+04  0.25947202469E+04  0.25500000000E-02 0.  1.
          2   -1    0    0  501    0  0.00000000000E+00 -0.00000000000E+00 -0.90958156702E+03  0.90958156702E+03  0.25500000000E-02 0. -1.
    8880023    1    1    2    0    0  0.31121552264E+03 -0.28702159450E+03 -0.71620626023E+03  0.10611305814E+04  0.65864270000E+03 0. -1.
    8880022    1    1    2    0    0 -0.31121552264E+03  0.28702159450E+03  0.24013449401E+04  0.24431712325E+04  0.15294330000E+03 0.  0.
<mgrwt>
<rscale>  0 0.68178518E+03</rscale>
<asrwt>0</asrwt>
<pdfrwt beam="1">  1        2 0.13993562E+00 0.78297299E+03</pdfrwt>
<pdfrwt beam="2">  1       -2 0.39918773E+00 0.78297299E+03</pdfrwt>
<totfact> 0.23003491E-01</totfact>
</mgrwt>
</event>
<event>
 4    5  0.6615028E-008  0.7038383E+03  0.7818608E-02  0.9981636E-01
          2   -1    0    0  501    0  0.00000000000E+00  0.00000000000E+00  0.76468378832E+03  0.76468378833E+03  0.25500000000E-02 0. -1.
         -2   -1    0    0    0  501 -0.00000000000E+00 -0.00000000000E+00 -0.76105287841E+03  0.76105287841E+03  0.25500000000E-02 0.  1.
    8880023    1    1    2    0    0  0.24798208910E+03  0.91094446442E+01  0.55880192406E+03  0.89869232504E+03  0.65864270000E+03 0. -1.
    8880022    1    1    2    0    0 -0.24798208910E+03 -0.91094446442E+01 -0.55517101414E+03  0.62704434170E+03  0.15294330000E+03 0.  0.
<mgrwt>
<rscale>  0 0.56462838E+03</rscale>
<asrwt>0</asrwt>
<pdfrwt beam="1">  1        2 0.11764366E+00 0.70383827E+03</pdfrwt>
<pdfrwt beam="2">  1       -2 0.11708506E+00 0.70383827E+03</pdfrwt>
<totfact> 0.21020611E+01</totfact>
</mgrwt>
</event>
<event>
 4    5  0.6615028E-008  0.9256079E+03  0.7818608E-02  0.9486113E-01
         -2   -1    0    0    0  501 -0.00000000000E+00  0.00000000000E+00  0.59116150204E+03  0.59116150204E+03  0.25500000000E-02 0.  1.
          2   -1    0    0  501    0  0.00000000000E+00 -0.00000000000E+00 -0.12445290040E+04  0.12445290040E+04  0.25500000000E-02 0. -1.
    8880023    1    1    2    0    0 -0.56578557334E+03  0.32066556149E+03 -0.70806025969E+03  0.11653751563E+04  0.65864270000E+03 0.  0.
    8880022    1    1    2    0    0  0.56578557334E+03 -0.32066556149E+03  0.54692757732E+02  0.67031534973E+03  0.15294330000E+03 0.  0.
<mgrwt>
<rscale>  0 0.85315405E+03</rscale>
<asrwt>0</asrwt>
<pdfrwt beam="1">  1        2 0.19146600E+00 0.92560787E+03</pdfrwt>
<pdfrwt beam="2">  1       -2 0.90947924E-01 0.92560787E+03</pdfrwt>
<totfact> 0.18410642E+01</totfact>
</mgrwt>
</event>
<event>
 4    5  0.6615028E-008  0.1194850E+04  0.7818608E-02  0.9162144E-01
          2   -1    0    0  501    0  0.00000000000E+00  0.00000000000E+00  0.14826595481E+04  0.14826595481E+04  0.25500000000E-02 0. -1.
         -2   -1    0    0    0  501 -0.00000000000E+00 -0.00000000000E+00 -0.15111174652E+04  0.15111174652E+04  0.25500000000E-02 0.  1.
    8880023    1    1    2    0    0  0.42485333700E+03  0.90186293822E+03  0.99645812405E+03  0.15558265059E+04  0.65864270000E+03 0.  0.
    8880022    1    1    2    0    0 -0.42485333700E+03 -0.90186293822E+03 -0.10249160411E+04  0.14379505074E+04  0.15294330000E+03 0.  0.
<mgrwt>
<rscale>  0 0.11452849E+04</rscale>
<asrwt>0</asrwt>
<pdfrwt beam="1">  1        2 0.22810147E+00 0.11948503E+04</pdfrwt>
<pdfrwt beam="2">  1       -2 0.23247961E+00 0.11948503E+04</pdfrwt>
<totfact> 0.10405151E+00</totfact>
</mgrwt>
</event>
<event>
 4    5  0.6615028E-008  0.1513615E+04  0.7818608E-02  0.8900081E-01
         -2   -1    0    0    0  501 -0.00000000000E+00  0.00000000000E+00  0.14905470798E+04  0.14905470798E+04  0.25500000000E-02 0.  1.
          2   -1    0    0  501    0  0.00000000000E+00 -0.00000000000E+00 -0.16749139013E+04  0.16749139013E+04  0.25500000000E-02 0. -1.
    8880023    1    1    2    0    0 -0.12533050074E+04  0.53520846303E+03 -0.74121992329E+03  0.16853601162E+04  0.65864270000E+03 0.  0.
    8880022    1    1    2    0    0  0.12533050074E+04 -0.53520846303E+03  0.55685310174E+03  0.14801008649E+04  0.15294330000E+03 0.  0.
<mgrwt>
<rscale>  0 0.14767232E+04</rscale>
<asrwt>0</asrwt>
<pdfrwt beam="1">  1        2 0.25767906E+00 0.15136155E+04</pdfrwt>
<pdfrwt beam="2">  1       -2 0.22931494E+00 0.15136155E+04</pdfrwt>
<totfact> 0.82045441E-01</totfact>
</mgrwt>
</event>
<event>
 4    5  0.6615028E-008  0.7134775E+03  0.7818608E-02  0.9945307E-01
         -2   -1    0    0    0  501 -0.00000000000E+00  0.00000000000E+00  0.10818387066E+03  0.10818387069E+03  0.25500000000E-02 0.  1.
          2   -1    0    0  501    0  0.00000000000E+00 -0.00000000000E+00 -0.27181674613E+04  0.27181674613E+04  0.25500000000E-02 0. -1.
    8880023    1    1    2    0    0 -0.26709848414E+03  0.62436637491E+02 -0.21807171489E+04  0.22944666970E+04  0.65864270000E+03 0.  0.
    8880022    1    1    2    0    0  0.26709848414E+03 -0.62436637491E+02 -0.42926644181E+03  0.53188463506E+03  0.15294330000E+03 0.  0.
<mgrwt>
<rscale>  0 0.58114862E+03</rscale>
<asrwt>0</asrwt>
<pdfrwt beam="1">  1        2 0.41817956E+00 0.71347750E+03</pdfrwt>
<pdfrwt beam="2">  1       -2 0.16643674E-01 0.71347750E+03</pdfrwt>
<totfact> 0.79833593E+01</totfact>
</mgrwt>
</event>
<event>
 4    5  0.7062625E-008  0.8822392E+03  0.7818608E-02  0.9555167E-01
         -2   -1    0    0    0  501 -0.00000000000E+00  0.00000000000E+00  0.10213367555E+04  0.10213367555E+04  0.25500000000E-02 0.  1.
          2   -1    0    0  501    0  0.00000000000E+00 -0.00000000000E+00 -0.16419580054E+04  0.16419580054E+04  0.25500000000E-02 0. -1.
    8880023    1    1    2    0    0  0.20966652529E+03 -0.54824784497E+03 -0.14127525525E+04  0.16655977102E+04  0.65864270000E+03 0. -1.
    8880022    1    1    2    0    0 -0.20966652529E+03  0.54824784497E+03  0.79213130265E+03  0.99769705071E+03  0.15294330000E+03 0.  0.
<mgrwt>
<rscale>  0 0.80335966E+03</rscale>
<asrwt>0</asrwt>
<pdfrwt beam="1">  1        2 0.25260892E+00 0.88223917E+03</pdfrwt>
<pdfrwt beam="2">  1       -2 0.15712873E+00 0.88223917E+03</pdfrwt>
<totfact> 0.28215172E+00</totfact>
</mgrwt>
</event>
<event>
 4    5  0.6615028E-008  0.9064031E+03  0.7818608E-02  0.9515830E-01
          2   -1    0    0  501    0  0.00000000000E+00  0.00000000000E+00  0.19015325064E+04  0.19015325064E+04  0.25500000000E-02 0. -1.
         -2   -1    0    0    0  501 -0.00000000000E+00 -0.00000000000E+00 -0.57703869382E+03  0.57703869383E+03  0.25500000000E-02 0.  1.
    8880023    1    1    2    0    0  0.51977392532E+03  0.34291604444E+03  0.15527535707E+04  0.17979461072E+04  0.65864270000E+03 0. -1.
    8880022    1    1    2    0    0 -0.51977392532E+03 -0.34291604444E+03 -0.22825975813E+03  0.68062509297E+03  0.15294330000E+03 0.  0.
<mgrwt>
<rscale>  0 0.83126751E+03</rscale>
<asrwt>0</asrwt>
<pdfrwt beam="1">  1        2 0.29254346E+00 0.90640309E+03</pdfrwt>
<pdfrwt beam="2">  1       -2 0.88775183E-01 0.90640309E+03</pdfrwt>
<totfact> 0.83596114E+00</totfact>
</mgrwt>
</event>
<event>
 4    5  0.6615028E-008  0.9116365E+03  0.7818608E-02  0.9507604E-01
         -2   -1    0    0    0  501 -0.00000000000E+00  0.00000000000E+00  0.59302665072E+03  0.59302665073E+03  0.25500000000E-02 0.  1.
          2   -1    0    0  501    0  0.00000000000E+00 -0.00000000000E+00 -0.17125898691E+04  0.17125898691E+04  0.25500000000E-02 0. -1.
    8880023    1    1    2    0    0  0.62845495083E+03  0.48117207409E+02 -0.13399049149E+04  0.16206252738E+04  0.65864270000E+03 0. -1.
    8880022    1    1    2    0    0 -0.62845495083E+03 -0.48117207409E+02  0.22034169653E+03  0.68499124602E+03  0.15294330000E+03 0.  0.
<mgrwt>
<rscale>  0 0.83725550E+03</rscale>
<asrwt>0</asrwt>
<pdfrwt beam="1">  1        2 0.26347536E+00 0.91163649E+03</pdfrwt>
<pdfrwt beam="2">  1       -2 0.91234870E-01 0.91163649E+03</pdfrwt>
<totfact> 0.99581001E+00</totfact>
</mgrwt>
</event>
<event>
 4    5  0.6615028E-008  0.1158656E+04  0.7818608E-02  0.9198398E-01
          2   -1    0    0  501    0  0.00000000000E+00  0.00000000000E+00  0.22813794438E+04  0.22813794438E+04  0.25500000000E-02 0. -1.
         -2   -1    0    0    0  501 -0.00000000000E+00 -0.00000000000E+00 -0.60359733255E+03  0.60359733255E+03  0.25500000000E-02 0.  1.
    8880023    1    1    2    0    0 -0.28339092302E+03 -0.91014430883E+03  0.28997066144E+03  0.11943894963E+04  0.65864270000E+03 0.  0.
    8880022    1    1    2    0    0  0.28339092302E+03  0.91014430883E+03  0.13878114498E+04  0.16905872800E+04  0.15294330000E+03 0.  0.
<mgrwt>
<rscale>  0 0.11069974E+04</rscale>
<asrwt>0</asrwt>
<pdfrwt beam="1">  1        2 0.35098146E+00 0.11586558E+04</pdfrwt>
<pdfrwt beam="2">  1       -2 0.92861127E-01 0.11586558E+04</pdfrwt>
<totfact> 0.45039587E+00</totfact>
</mgrwt>
</event>
<event>
 4    5  0.6615028E-008  0.8577332E+03  0.7818608E-02  0.9597609E-01
          2   -1    0    0  501    0  0.00000000000E+00  0.00000000000E+00  0.53205689651E+03  0.53205689652E+03  0.25500000000E-02 0. -1.
         -2   -1    0    0    0  501 -0.00000000000E+00 -0.00000000000E+00 -0.18353949799E+04  0.18353949799E+04  0.25500000000E-02 0.  1.
    8880023    1    1    2    0    0 -0.15841748110E+03  0.52611772288E+03  0.89476077756E+02  0.86238746014E+03  0.65864270000E+03 0. -1.
    8880022    1    1    2    0    0  0.15841748110E+03 -0.52611772288E+03 -0.13928141611E+04  0.15050644163E+04  0.15294330000E+03 0.  0.
<mgrwt>
<rscale>  0 0.77454666E+03</rscale>
<asrwt>0</asrwt>
<pdfrwt beam="1">  1        2 0.81854908E-01 0.85773315E+03</pdfrwt>
<pdfrwt beam="2">  1       -2 0.28236846E+00 0.85773315E+03</pdfrwt>
<totfact> 0.23825387E+00</totfact>
</mgrwt>
</event>
<event>
 4    5  0.6615028E-008  0.6745702E+03  0.7818608E-02  0.1012579E+00
          2   -1    0    0  501    0  0.00000000000E+00  0.00000000000E+00  0.12681713005E+04  0.12681713005E+04  0.25500000000E-02 0. -1.
         -2   -1    0    0    0  501 -0.00000000000E+00 -0.00000000000E+00 -0.18284162481E+03  0.18284162483E+03  0.25500000000E-02 0.  1.
    8880023    1    1    2    0    0  0.75454820773E+02  0.12466462959E+03  0.10323795634E+04  0.12332284740E+04  0.65864270000E+03 0. -1.
    8880022    1    1    2    0    0 -0.75454820773E+02 -0.12466462959E+03  0.52950112294E+02  0.21778445136E+03  0.15294330000E+03 0.  0.
<mgrwt>
<rscale>  0 0.50462559E+03</rscale>
<asrwt>0</asrwt>
<pdfrwt beam="1">  1        2 0.19510328E+00 0.67457016E+03</pdfrwt>
<pdfrwt beam="2">  1       -2 0.28129480E-01 0.67457016E+03</pdfrwt>
<totfact> 0.20283702E+02</totfact>
</mgrwt>
</event>
<event>
 4    5  0.6615028E-008  0.7242946E+03  0.7818608E-02  0.9908314E-01
         -2   -1    0    0    0  501 -0.00000000000E+00  0.00000000000E+00  0.75306601797E+03  0.75306601797E+03  0.25500000000E-02 0.  1.
          2   -1    0    0  501    0  0.00000000000E+00 -0.00000000000E+00 -0.26668384182E+04  0.26668384182E+04  0.25500000000E-02 0. -1.
    8880023    1    1    2    0    0  0.75229678019E+01  0.30122399474E+03 -0.25763011765E+04  0.26761783289E+04  0.65864270000E+03 0. -1.
    8880022    1    1    2    0    0 -0.75229678019E+01 -0.30122399474E+03  0.66252877631E+03  0.74372610718E+03  0.15294330000E+03 0.  0.
<mgrwt>
<rscale>  0 0.59860063E+03</rscale>
<asrwt>0</asrwt>
<pdfrwt beam="1">  1        2 0.41028283E+00 0.72429462E+03</pdfrwt>
<pdfrwt beam="2">  1       -2 0.11585631E+00 0.72429462E+03</pdfrwt>
<totfact> 0.17086104E+00</totfact>
</mgrwt>
</event>
<event>
 4    5  0.6615028E-008  0.8626217E+03  0.7818608E-02  0.9588917E-01
         -2   -1    0    0    0  501 -0.00000000000E+00  0.00000000000E+00  0.47312517987E+03  0.47312517988E+03  0.25500000000E-02 0.  1.
          2   -1    0    0  501    0  0.00000000000E+00 -0.00000000000E+00 -0.29724161071E+04  0.29724161071E+04  0.25500000000E-02 0. -1.
    8880023    1    1    2    0    0  0.11236121205E+03  0.54560151115E+03 -0.26996478545E+04  0.28341162283E+04  0.65864270000E+03 0. -1.
    8880022    1    1    2    0    0 -0.11236121205E+03 -0.54560151115E+03  0.20035692735E+03  0.61142505861E+03  0.15294330000E+03 0.  0.
<mgrwt>
<rscale>  0 0.78034104E+03</rscale>
<asrwt>0</asrwt>
<pdfrwt beam="1">  1        2 0.45729477E+00 0.86262173E+03</pdfrwt>
<pdfrwt beam="2">  1       -2 0.72788491E-01 0.86262173E+03</pdfrwt>
<totfact> 0.32262752E+00</totfact>
</mgrwt>
</event>
<event>
 4    5  0.6615028E-008  0.9979101E+03  0.7818608E-02  0.9384297E-01
         -2   -1    0    0    0  501 -0.00000000000E+00  0.00000000000E+00  0.12364872737E+04  0.12364872737E+04  0.25500000000E-02 0.  1.
          2   -1    0    0  501    0  0.00000000000E+00 -0.00000000000E+00 -0.75952015616E+03  0.75952015617E+03  0.25500000000E-02 0. -1.
    8880023    1    1    2    0    0  0.46752057726E+03  0.58603658893E+03 -0.14704960801E+03  0.10086863572E+04  0.65864270000E+03 0. -1.
    8880022    1    1    2    0    0 -0.46752057726E+03 -0.58603658893E+03  0.62401672553E+03  0.98732107264E+03  0.15294330000E+03 0. -1.
<mgrwt>
<rscale>  0 0.93379322E+03</rscale>
<asrwt>0</asrwt>
<pdfrwt beam="1">  1        2 0.11684926E+00 0.99791011E+03</pdfrwt>
<pdfrwt beam="2">  1       -2 0.19022881E+00 0.99791011E+03</pdfrwt>
<totfact> 0.56566001E+00</totfact>
</mgrwt>
</event>
<event>
 4    5  0.6615028E-008  0.1034052E+04  0.7818608E-02  0.9338303E-01
         -2   -1    0    0    0  501 -0.00000000000E+00  0.00000000000E+00  0.61073052902E+03  0.61073052902E+03  0.25500000000E-02 0.  1.
          2   -1    0    0  501    0  0.00000000000E+00 -0.00000000000E+00 -0.37494393958E+04  0.37494393958E+04  0.25500000000E-02 0. -1.
    8880023    1    1    2    0    0  0.26501371203E+03  0.75181174553E+03 -0.33627330498E+04  0.35181297501E+04  0.65864270000E+03 0. -1.
    8880022    1    1    2    0    0 -0.26501371203E+03 -0.75181174553E+03  0.22402418298E+03  0.84204017473E+03  0.15294330000E+03 0.  0.
<mgrwt>
<rscale>  0 0.97331777E+03</rscale>
<asrwt>0</asrwt>
<pdfrwt beam="1">  1        2 0.57683681E+00 0.10340519E+04</pdfrwt>
<pdfrwt beam="2">  1       -2 0.93958546E-01 0.10340519E+04</pdfrwt>
<totfact> 0.53115086E-01</totfact>
</mgrwt>
</event>
<event>
 4    5  0.6615028E-008  0.9375515E+03  0.7818608E-02  0.9468256E-01
         -2   -1    0    0    0  501 -0.00000000000E+00  0.00000000000E+00  0.10474765420E+04  0.10474765420E+04  0.25500000000E-02 0.  1.
          2   -1    0    0  501    0  0.00000000000E+00 -0.00000000000E+00 -0.14842633143E+04  0.14842633143E+04  0.25500000000E-02 0. -1.
    8880023    1    1    2    0    0  0.59208531442E+03 -0.30761600807E+03 -0.11893321682E+04  0.15144351556E+04  0.65864270000E+03 0.  0.
    8880022    1    1    2    0    0 -0.59208531442E+03  0.30761600807E+03  0.75254539590E+03  0.10173047006E+04  0.15294330000E+03 0.  0.
<mgrwt>
<rscale>  0 0.86665215E+03</rscale>
<asrwt>0</asrwt>
<pdfrwt beam="1">  1        2 0.22834820E+00 0.93755151E+03</pdfrwt>
<pdfrwt beam="2">  1       -2 0.16115024E+00 0.93755151E+03</pdfrwt>
<totfact> 0.32008988E+00</totfact>
</mgrwt>
</event>
<event>
 4    5  0.6615028E-008  0.7504621E+03  0.7818608E-02  0.9830457E-01
         -2   -1    0    0    0  501 -0.00000000000E+00  0.00000000000E+00  0.39387286562E+03  0.39387286563E+03  0.25500000000E-02 0.  1.
          2   -1    0    0  501    0  0.00000000000E+00 -0.00000000000E+00 -0.18738384753E+04  0.18738384753E+04  0.25500000000E-02 0. -1.
    8880023    1    1    2    0    0 -0.13840450400E+03 -0.33200514362E+03 -0.16716481391E+04  0.18323757609E+04  0.65864270000E+03 0.  0.
    8880022    1    1    2    0    0  0.13840450400E+03  0.33200514362E+03  0.19168252939E+03  0.43533557999E+03  0.15294330000E+03 0.  0.
<mgrwt>
<rscale>  0 0.63753361E+03</rscale>
<asrwt>0</asrwt>
<pdfrwt beam="1">  1        2 0.28828284E+00 0.75046214E+03</pdfrwt>
<pdfrwt beam="2">  1       -2 0.60595827E-01 0.75046214E+03</pdfrwt>
<totfact> 0.20534768E+01</totfact>
</mgrwt>
</event>
<event>
 4    5  0.6615028E-008  0.6941386E+03  0.7818608E-02  0.1002244E+00
         -2   -1    0    0    0  501 -0.00000000000E+00  0.00000000000E+00  0.40430906465E+03  0.40430906466E+03  0.25500000000E-02 0.  1.
          2   -1    0    0  501    0  0.00000000000E+00 -0.00000000000E+00 -0.30851128800E+04  0.30851128800E+04  0.25500000000E-02 0. -1.
    8880023    1    1    2    0    0 -0.14092654540E+03  0.16780314989E+03 -0.29964787937E+04  0.30758272961E+04  0.65864270000E+03 0. -1.
    8880022    1    1    2    0    0  0.14092654540E+03 -0.16780314989E+03  0.31567497835E+03  0.41359464852E+03  0.15294330000E+03 0.  0.
<mgrwt>
<rscale>  0 0.54676966E+03</rscale>
<asrwt>0</asrwt>
<pdfrwt beam="1">  1        2 0.47463274E+00 0.69413860E+03</pdfrwt>
<pdfrwt beam="2">  1       -2 0.62201396E-01 0.69413860E+03</pdfrwt>
<totfact> 0.39932424E+00</totfact>
</mgrwt>
</event>
<event>
 4    5  0.6615028E-008  0.7712746E+03  0.7818608E-02  0.9776747E-01
         -2   -1    0    0    0  501 -0.00000000000E+00  0.00000000000E+00  0.17939782018E+04  0.17939782018E+04  0.25500000000E-02 0.  1.
          2   -1    0    0  501    0  0.00000000000E+00 -0.00000000000E+00 -0.68363920963E+03  0.68363920964E+03  0.25500000000E-02 0. -1.
    8880023    1    1    2    0    0  0.10668272294E+03  0.38687609108E+03 -0.42688307964E+03  0.88152917318E+03  0.65864270000E+03 0. -1.
    8880022    1    1    2    0    0 -0.10668272294E+03 -0.38687609108E+03  0.15372220718E+04  0.15960882383E+04  0.15294330000E+03 0.  0.
<mgrwt>
<rscale>  0 0.66625491E+03</rscale>
<asrwt>0</asrwt>
<pdfrwt beam="1">  1        2 0.10517526E+00 0.77127461E+03</pdfrwt>
<pdfrwt beam="2">  1       -2 0.27599665E+00 0.77127461E+03</pdfrwt>
<totfact> 0.19435032E+00</totfact>
</mgrwt>
</event>
<event>
 4    5  0.6615028E-008  0.6926155E+03  0.7818608E-02  0.1002933E+00
          2   -1    0    0  501    0  0.00000000000E+00  0.00000000000E+00  0.55087230585E+03  0.55087230585E+03  0.25500000000E-02 0. -1.
         -2   -1    0    0    0  501 -0.00000000000E+00 -0.00000000000E+00 -0.81484302969E+03  0.81484302969E+03  0.25500000000E-02 0.  1.
    8880023    1    1    2    0    0  0.44215700354E+02  0.20964478077E+03  0.29116433861E+03  0.75132738576E+03  0.65864270000E+03 0.  0.
    8880022    1    1    2    0    0 -0.44215700354E+02 -0.20964478077E+03 -0.55513506244E+03  0.61438794978E+03  0.15294330000E+03 0.  1.
<mgrwt>
<rscale>  0 0.54382469E+03</rscale>
<asrwt>0</asrwt>
<pdfrwt beam="1">  1        2 0.84749585E-01 0.69261546E+03</pdfrwt>
<pdfrwt beam="2">  1       -2 0.12536047E+00 0.69261546E+03</pdfrwt>
<totfact> 0.26619899E+01</totfact>
</mgrwt>
</event>
<event>
 4    5  0.6615028E-008  0.1290829E+04  0.7818608E-02  0.9073520E-01
         -2   -1    0    0    0  501 -0.00000000000E+00  0.00000000000E+00  0.99630699963E+03  0.99630699963E+03  0.25500000000E-02 0.  1.
          2   -1    0    0  501    0  0.00000000000E+00 -0.00000000000E+00 -0.30405090385E+04  0.30405090385E+04  0.25500000000E-02 0. -1.
    8880023    1    1    2    0    0 -0.58837730036E+03 -0.94140378363E+03 -0.25105974314E+04  0.28230017003E+04  0.65864270000E+03 0.  0.
    8880022    1    1    2    0    0  0.58837730036E+03  0.94140378363E+03  0.46639539252E+03  0.12138143378E+04  0.15294330000E+03 0.  0.
<mgrwt>
<rscale>  0 0.12459983E+04</rscale>
<asrwt>0</asrwt>
<pdfrwt beam="1">  1        2 0.46777062E+00 0.12908289E+04</pdfrwt>
<pdfrwt beam="2">  1       -2 0.15327800E+00 0.12908289E+04</pdfrwt>
<totfact> 0.45175322E-01</totfact>
</mgrwt>
</event>
<event>
 4    5  0.6615028E-008  0.7583601E+03  0.7818608E-02  0.9809372E-01
         -2   -1    0    0    0  501 -0.00000000000E+00  0.00000000000E+00  0.26281783290E+03  0.26281783291E+03  0.25500000000E-02 0.  1.
          2   -1    0    0  501    0  0.00000000000E+00 -0.00000000000E+00 -0.26224148739E+04  0.26224148739E+04  0.25500000000E-02 0. -1.
    8880023    1    1    2    0    0 -0.33355839351E+03 -0.17331659162E+03 -0.23605849783E+04  0.24794095041E+04  0.65864270000E+03 0. -1.
    8880022    1    1    2    0    0  0.33355839351E+03  0.17331659162E+03  0.98793734444E+00  0.40582320270E+03  0.15294330000E+03 0.  0.
<mgrwt>
<rscale>  0 0.64862025E+03</rscale>
<asrwt>0</asrwt>
<pdfrwt beam="1">  1        2 0.40344842E+00 0.75836011E+03</pdfrwt>
<pdfrwt beam="2">  1       -2 0.40433515E-01 0.75836011E+03</pdfrwt>
<totfact> 0.17916111E+01</totfact>
</mgrwt>
</event>
<event>
 4    5  0.6615028E-008  0.7407477E+03  0.7818608E-02  0.9857774E-01
          2   -1    0    0  501    0  0.00000000000E+00  0.00000000000E+00  0.16456276255E+04  0.16456276255E+04  0.25500000000E-02 0. -1.
         -2   -1    0    0    0  501 -0.00000000000E+00 -0.00000000000E+00 -0.45585603900E+03  0.45585603901E+03  0.25500000000E-02 0.  1.
    8880023    1    1    2    0    0  0.83723500520E+00  0.33896357731E+03  0.14631256509E+04  0.16399524031E+04  0.65864270000E+03 0. -1.
    8880022    1    1    2    0    0 -0.83723500520E+00 -0.33896357731E+03 -0.27335406444E+03  0.46153126142E+03  0.15294330000E+03 0.  0.
<mgrwt>
<rscale>  0 0.62352098E+03</rscale>
<asrwt>0</asrwt>
<pdfrwt beam="1">  1        2 0.25317348E+00 0.74074774E+03</pdfrwt>
<pdfrwt beam="2">  1       -2 0.70131698E-01 0.74074774E+03</pdfrwt>
<totfact> 0.20010780E+01</totfact>
</mgrwt>
</event>
<event>
 4    5  0.6615028E-008  0.1245358E+04  0.7818608E-02  0.9114245E-01
         -2   -1    0    0    0  501 -0.00000000000E+00  0.00000000000E+00  0.10608537146E+04  0.10608537146E+04  0.25500000000E-02 0.  1.
          2   -1    0    0  501    0  0.00000000000E+00 -0.00000000000E+00 -0.15985126509E+04  0.15985126509E+04  0.25500000000E-02 0. -1.
    8880023    1    1    2    0    0 -0.10460848886E+04  0.15103512523E+03 -0.89458189707E+03  0.15333597686E+04  0.65864270000E+03 0.  0.
    8880022    1    1    2    0    0  0.10460848886E+04 -0.15103512523E+03  0.35692296071E+03  0.11260065969E+04  0.15294330000E+03 0.  0.
<mgrwt>
<rscale>  0 0.11984152E+04</rscale>
<asrwt>0</asrwt>
<pdfrwt beam="1">  1        2 0.24592502E+00 0.12453575E+04</pdfrwt>
<pdfrwt beam="2">  1       -2 0.16320826E+00 0.12453575E+04</pdfrwt>
<totfact> 0.25768892E+00</totfact>
</mgrwt>
</event>
<event>
 4    5  0.6615028E-008  0.8707992E+03  0.7818608E-02  0.9574635E-01
          2   -1    0    0  501    0  0.00000000000E+00  0.00000000000E+00  0.25705863817E+04  0.25705863817E+04  0.25500000000E-02 0. -1.
         -2   -1    0    0    0  501 -0.00000000000E+00 -0.00000000000E+00 -0.45129443583E+03  0.45129443584E+03  0.25500000000E-02 0.  1.
    8880023    1    1    2    0    0  0.53122573070E+03 -0.20562172248E+03  0.22544528198E+04  0.24167848048E+04  0.65864270000E+03 0.  0.
    8880022    1    1    2    0    0 -0.53122573070E+03  0.20562172248E+03 -0.13516087398E+03  0.60509601270E+03  0.15294330000E+03 0.  0.
<mgrwt>
<rscale>  0 0.78997995E+03</rscale>
<asrwt>0</asrwt>
<pdfrwt beam="1">  1        2 0.39547482E+00 0.87079922E+03</pdfrwt>
<pdfrwt beam="2">  1       -2 0.69429915E-01 0.87079922E+03</pdfrwt>
<totfact> 0.61782654E+00</totfact>
</mgrwt>
</event>
<event>
 4    5  0.6615028E-008  0.1009455E+04  0.7818608E-02  0.9369290E-01
          2   -1    0    0  501    0  0.00000000000E+00  0.00000000000E+00  0.12906264064E+04  0.12906264064E+04  0.25500000000E-02 0. -1.
         -2   -1    0    0    0  501 -0.00000000000E+00 -0.00000000000E+00 -0.10693921515E+04  0.10693921515E+04  0.25500000000E-02 0.  1.
    8880023    1    1    2    0    0 -0.64373558885E+03 -0.41327274525E+03  0.87983445412E+03  0.13390701039E+04  0.65864270000E+03 0.  0.
    8880022    1    1    2    0    0  0.64373558885E+03  0.41327274525E+03 -0.65860019924E+03  0.10209484540E+04  0.15294330000E+03 0.  0.
<mgrwt>
<rscale>  0 0.94646635E+03</rscale>
<asrwt>0</asrwt>
<pdfrwt beam="1">  1        2 0.19855791E+00 0.10094553E+04</pdfrwt>
<pdfrwt beam="2">  1       -2 0.16452187E+00 0.10094553E+04</pdfrwt>
<totfact> 0.38696913E+00</totfact>
</mgrwt>
</event>
<event>
 4    5  0.6615028E-008  0.6950916E+03  0.7818608E-02  0.1001821E+00
          2   -1    0    0  501    0  0.00000000000E+00  0.00000000000E+00  0.31919641039E+03  0.31919641040E+03  0.25500000000E-02 0. -1.
         -2   -1    0    0    0  501 -0.00000000000E+00 -0.00000000000E+00 -0.19850862749E+04  0.19850862749E+04  0.25500000000E-02 0.  1.
    8880023    1    1    2    0    0 -0.22154920710E+03 -0.16065787465E+02 -0.84671263447E+02  0.70022966933E+03  0.65864270000E+03 0.  0.
    8880022    1    1    2    0    0  0.22154920710E+03  0.16065787465E+02 -0.15812186010E+04  0.16040530159E+04  0.15294330000E+03 0.  0.
<mgrwt>
<rscale>  0 0.54859088E+03</rscale>
<asrwt>0</asrwt>
<pdfrwt beam="1">  1        2 0.49107141E-01 0.69509162E+03</pdfrwt>
<pdfrwt beam="2">  1       -2 0.30539788E+00 0.69509162E+03</pdfrwt>
<totfact> 0.31668913E+00</totfact>
</mgrwt>
</event>
<event>
 4    5  0.6615028E-008  0.7131137E+03  0.7818608E-02  0.9946615E-01
         -2   -1    0    0    0  501 -0.00000000000E+00  0.00000000000E+00  0.59973946420E+03  0.59973946421E+03  0.25500000000E-02 0.  1.
          2   -1    0    0  501    0  0.00000000000E+00 -0.00000000000E+00 -0.95981209265E+03  0.95981209265E+03  0.25500000000E-02 0. -1.
    8880023    1    1    2    0    0 -0.26870435160E+03 -0.50188381579E+02 -0.76617346220E+03  0.10466866210E+04  0.65864270000E+03 0. -1.
    8880022    1    1    2    0    0  0.26870435160E+03  0.50188381579E+02  0.40610083375E+03  0.51286493583E+03  0.15294330000E+03 0.  0.
<mgrwt>
<rscale>  0 0.58054334E+03</rscale>
<asrwt>0</asrwt>
<pdfrwt beam="1">  1        2 0.14766340E+00 0.71311367E+03</pdfrwt>
<pdfrwt beam="2">  1       -2 0.92267610E-01 0.71311367E+03</pdfrwt>
<totfact> 0.27206767E+01</totfact>
</mgrwt>
</event>
<event>
 4    5  0.6615028E-008  0.1366519E+04  0.7818608E-02  0.9010145E-01
         -2   -1    0    0    0  501 -0.00000000000E+00  0.00000000000E+00  0.82895684996E+03  0.82895684996E+03  0.25500000000E-02 0.  1.
          2   -1    0    0  501    0  0.00000000000E+00 -0.00000000000E+00 -0.25846616451E+04  0.25846616451E+04  0.25500000000E-02 0. -1.
    8880023    1    1    2    0    0  0.11484407528E+04  0.33859835441E+03 -0.17322196796E+04  0.22063454473E+04  0.65864270000E+03 0.  0.
    8880022    1    1    2    0    0 -0.11484407528E+04 -0.33859835441E+03 -0.23485115553E+02  0.12072730478E+04  0.15294330000E+03 0.  0.
<mgrwt>
<rscale>  0 0.13247767E+04</rscale>
<asrwt>0</asrwt>
<pdfrwt beam="1">  1        2 0.39764025E+00 0.13665194E+04</pdfrwt>
<pdfrwt beam="2">  1       -2 0.12753182E+00 0.13665194E+04</pdfrwt>
<totfact> 0.13626031E+00</totfact>
</mgrwt>
</event>
<event>
 4    5  0.6615028E-008  0.6744562E+03  0.7818608E-02  0.1012651E+00
         -2   -1    0    0    0  501 -0.00000000000E+00  0.00000000000E+00  0.20722098291E+03  0.20722098293E+03  0.25500000000E-02 0.  1.
          2   -1    0    0  501    0  0.00000000000E+00 -0.00000000000E+00 -0.31918675113E+04  0.31918675113E+04  0.25500000000E-02 0. -1.
    8880023    1    1    2    0    0  0.14183104494E+03  0.31063897125E+02 -0.30904216799E+04  0.31631625594E+04  0.65864270000E+03 0.  0.
    8880022    1    1    2    0    0 -0.14183104494E+03 -0.31063897125E+02  0.10577515157E+03  0.23592593482E+03  0.15294330000E+03 0.  1.
<mgrwt>
<rscale>  0 0.50434414E+03</rscale>
<asrwt>0</asrwt>
<pdfrwt beam="1">  1        2 0.49105651E+00 0.67445624E+03</pdfrwt>
<pdfrwt beam="2">  1       -2 0.31880153E-01 0.67445624E+03</pdfrwt>
<totfact> 0.13006149E+01</totfact>
</mgrwt>
</event>
<event>
 4    5  0.6615028E-008  0.8022354E+03  0.7818608E-02  0.9705983E-01
          2   -1    0    0  501    0  0.00000000000E+00  0.00000000000E+00  0.14876457073E+04  0.14876457073E+04  0.25500000000E-02 0. -1.
         -2   -1    0    0    0  501 -0.00000000000E+00 -0.00000000000E+00 -0.36133288832E+03  0.36133288833E+03  0.25500000000E-02 0.  1.
    8880023    1    1    2    0    0 -0.45327143842E+03 -0.65699246348E+02  0.11051736494E+04  0.13656465097E+04  0.65864270000E+03 0.  0.
    8880022    1    1    2    0    0  0.45327143842E+03  0.65699246348E+02  0.21139169656E+02  0.48333208601E+03  0.15294330000E+03 0.  0.
<mgrwt>
<rscale>  0 0.70661657E+03</rscale>
<asrwt>0</asrwt>
<pdfrwt beam="1">  1        2 0.22886857E+00 0.80223537E+03</pdfrwt>
<pdfrwt beam="2">  1       -2 0.55589676E-01 0.80223537E+03</pdfrwt>
<totfact> 0.39879596E+01</totfact>
</mgrwt>
</event>
<event>
 4    5  0.6615028E-008  0.1703510E+04  0.7818608E-02  0.8777877E-01
          2   -1    0    0  501    0  0.00000000000E+00  0.00000000000E+00  0.28824949655E+04  0.28824949655E+04  0.25500000000E-02 0. -1.
         -2   -1    0    0    0  501 -0.00000000000E+00 -0.00000000000E+00 -0.11673267621E+04  0.11673267621E+04  0.25500000000E-02 0.  1.
    8880023    1    1    2    0    0  0.14258966891E+04 -0.65951111354E+03 -0.20649558511E+02  0.17036351978E+04  0.65864270000E+03 0.  0.
    8880022    1    1    2    0    0 -0.14258966891E+04  0.65951111354E+03  0.17358177619E+04  0.23461865297E+04  0.15294330000E+03 0.  0.
<mgrwt>
<rscale>  0 0.16713475E+04</rscale>
<asrwt>0</asrwt>
<pdfrwt beam="1">  1        2 0.44346077E+00 0.17035100E+04</pdfrwt>
<pdfrwt beam="2">  1       -2 0.17958873E+00 0.17035100E+04</pdfrwt>
<totfact> 0.34683324E-01</totfact>
</mgrwt>
</event>
<event>
 4    5  0.6615028E-008  0.7621545E+03  0.7818608E-02  0.9799561E-01
         -2   -1    0    0    0  501 -0.00000000000E+00  0.00000000000E+00  0.59296946545E+03  0.59296946546E+03  0.25500000000E-02 0.  1.
          2   -1    0    0  501    0  0.00000000000E+00 -0.00000000000E+00 -0.79756118711E+03  0.79756118712E+03  0.25500000000E-02 0. -1.
    8880023    1    1    2    0    0  0.16126268330E+03  0.34794197055E+03 -0.47400985650E+03  0.89753262794E+03  0.65864270000E+03 0.  0.
    8880022    1    1    2    0    0 -0.16126268330E+03 -0.34794197055E+03  0.26941813484E+03  0.49299802463E+03  0.15294330000E+03 0.  0.
<mgrwt>
<rscale>  0 0.65386090E+03</rscale>
<asrwt>0</asrwt>
<pdfrwt beam="1">  1        2 0.12270172E+00 0.76215449E+03</pdfrwt>
<pdfrwt beam="2">  1       -2 0.91226071E-01 0.76215449E+03</pdfrwt>
<totfact> 0.35883387E+01</totfact>
</mgrwt>
</event>
<event>
 4    5  0.6615028E-008  0.8030029E+03  0.7818608E-02  0.9704340E-01
          2   -1    0    0  501    0  0.00000000000E+00  0.00000000000E+00  0.29905486884E+04  0.29905486884E+04  0.25500000000E-02 0. -1.
         -2   -1    0    0    0  501 -0.00000000000E+00 -0.00000000000E+00 -0.17869258858E+03  0.17869258859E+03  0.25500000000E-02 0.  1.
    8880023    1    1    2    0    0 -0.14281364277E+03 -0.43658650207E+03  0.24093217963E+04  0.25396151745E+04  0.65864270000E+03 0.  0.
    8880022    1    1    2    0    0  0.14281364277E+03  0.43658650207E+03  0.40253430349E+03  0.62962610243E+03  0.15294330000E+03 0.  0.
<mgrwt>
<rscale>  0 0.70758958E+03</rscale>
<asrwt>0</asrwt>
<pdfrwt beam="1">  1        2 0.46008437E+00 0.80300294E+03</pdfrwt>
<pdfrwt beam="2">  1       -2 0.27491170E-01 0.80300294E+03</pdfrwt>
<totfact> 0.22328827E+01</totfact>
</mgrwt>
</event>
<event>
 4    5  0.6615028E-008  0.1053260E+04  0.7818608E-02  0.9314972E-01
          2   -1    0    0  501    0  0.00000000000E+00  0.00000000000E+00  0.24640160129E+04  0.24640160129E+04  0.25500000000E-02 0. -1.
         -2   -1    0    0    0  501 -0.00000000000E+00 -0.00000000000E+00 -0.43942253170E+03  0.43942253171E+03  0.25500000000E-02 0.  1.
    8880023    1    1    2    0    0  0.82181056997E+03  0.13207782406E+02  0.17136600593E+04  0.20114641591E+04  0.65864270000E+03 0.  0.
    8880022    1    1    2    0    0 -0.82181056997E+03 -0.13207782406E+02  0.31093342187E+03  0.89197438544E+03  0.15294330000E+03 0.  0.
<mgrwt>
<rscale>  0 0.99416089E+03</rscale>
<asrwt>0</asrwt>
<pdfrwt beam="1">  1        2 0.37907939E+00 0.10532603E+04</pdfrwt>
<pdfrwt beam="2">  1       -2 0.67603466E-01 0.10532603E+04</pdfrwt>
<totfact> 0.73533244E+00</totfact>
</mgrwt>
</event>
<event>
 4    5  0.6615028E-008  0.2192387E+04  0.7818608E-02  0.8531840E-01
          2   -1    0    0  501    0  0.00000000000E+00  0.00000000000E+00  0.20670858107E+04  0.20670858107E+04  0.25500000000E-02 0. -1.
         -2   -1    0    0    0  501 -0.00000000000E+00 -0.00000000000E+00 -0.29289461072E+04  0.29289461072E+04  0.25500000000E-02 0.  1.
    8880023    1    1    2    0    0  0.18178745233E+04  0.10334809305E+04  0.78626308930E+03  0.23291136657E+04  0.65864270000E+03 0.  0.
    8880022    1    1    2    0    0 -0.18178745233E+04 -0.10334809305E+04 -0.16481233858E+04  0.26669182522E+04  0.15294330000E+03 0.  0.
<mgrwt>
<rscale>  0 0.21680629E+04</rscale>
<asrwt>0</asrwt>
<pdfrwt beam="1">  1        2 0.31801320E+00 0.21923870E+04</pdfrwt>
<pdfrwt beam="2">  1       -2 0.45060710E+00 0.21923870E+04</pdfrwt>
<totfact> 0.18232028E-02</totfact>
</mgrwt>
</event>
<event>
 4    5  0.6615028E-008  0.1604966E+04  0.7818608E-02  0.8838865E-01
          2   -1    0    0  501    0  0.00000000000E+00  0.00000000000E+00  0.81951041619E+03  0.81951041619E+03  0.25500000000E-02 0. -1.
         -2   -1    0    0    0  501 -0.00000000000E+00 -0.00000000000E+00 -0.32500509060E+04  0.32500509060E+04  0.25500000000E-02 0.  1.
    8880023    1    1    2    0    0 -0.14149137176E+04  0.37433378031E+03 -0.58295949277E+03  0.17075592475E+04  0.65864270000E+03 0. -1.
    8880022    1    1    2    0    0  0.14149137176E+04 -0.37433378031E+03 -0.18475809970E+04  0.23620020747E+04  0.15294330000E+03 0.  0.
<mgrwt>
<rscale>  0 0.15705225E+04</rscale>
<asrwt>0</asrwt>
<pdfrwt beam="1">  1        2 0.12607853E+00 0.16049663E+04</pdfrwt>
<pdfrwt beam="2">  1       -2 0.50000782E+00 0.16049663E+04</pdfrwt>
<totfact> 0.51391148E-02</totfact>
</mgrwt>
</event>
<event>
 4    5  0.6615028E-008  0.1373014E+04  0.7818608E-02  0.9004941E-01
         -2   -1    0    0    0  501 -0.00000000000E+00  0.00000000000E+00  0.66489699055E+03  0.66489699055E+03  0.25500000000E-02 0.  1.
          2   -1    0    0  501    0  0.00000000000E+00 -0.00000000000E+00 -0.47183797524E+04  0.47183797524E+04  0.25500000000E-02 0. -1.
    8880023    1    1    2    0    0 -0.80044131891E+03 -0.90036111376E+03 -0.39296239829E+04  0.41625846891E+04  0.65864270000E+03 0. -1.
    8880022    1    1    2    0    0  0.80044131891E+03  0.90036111376E+03 -0.12385877888E+03  0.12206920538E+04  0.15294330000E+03 0.  0.
<mgrwt>
<rscale>  0 0.13315145E+04</rscale>
<asrwt>0</asrwt>
<pdfrwt beam="1">  1        2 0.72590456E+00 0.13730137E+04</pdfrwt>
<pdfrwt beam="2">  1       -2 0.10229185E+00 0.13730137E+04</pdfrwt>
<totfact> 0.57726305E-02</totfact>
</mgrwt>
</event>
<event>
 4    5  0.8044662E-008  0.1660656E+04  0.7818608E-02  0.8803804E-01
         -2   -1    0    0    0  501 -0.00000000000E+00  0.00000000000E+00  0.20046816590E+04  0.20046816590E+04  0.25500000000E-02 0.  1.
          2   -1    0    0  501    0  0.00000000000E+00 -0.00000000000E+00 -0.54253795288E+04  0.54253795288E+04  0.25500000000E-02 0. -1.
    8880023    1    1    2    0    0 -0.15242766724E+04  0.23419555130E+02 -0.49766477576E+04  0.52464083866E+04  0.65864270000E+03 0.  0.
    8880022    1    1    2    0    0  0.15242766724E+04 -0.23419555130E+02  0.15559498878E+04  0.21836528011E+04  0.15294330000E+03 0.  0.
<mgrwt>
<rscale>  0 0.16275420E+04</rscale>
<asrwt>0</asrwt>
<pdfrwt beam="1">  1        2 0.83467377E+00 0.16606559E+04</pdfrwt>
<pdfrwt beam="2">  1       -2 0.30841256E+00 0.16606559E+04</pdfrwt>
<totfact> 0.22111663E-04</totfact>
</mgrwt>
</event>
<event>
 4    5  0.6615028E-008  0.9901921E+03  0.7818608E-02  0.9394503E-01
          2   -1    0    0  501    0  0.00000000000E+00  0.00000000000E+00  0.32203246232E+04  0.32203246232E+04  0.25500000000E-02 0. -1.
         -2   -1    0    0    0  501 -0.00000000000E+00 -0.00000000000E+00 -0.70598276655E+03  0.70598276655E+03  0.25500000000E-02 0.  1.
    8880023    1    1    2    0    0  0.68612657328E+02  0.73618100319E+03  0.29100287081E+04  0.30738814965E+04  0.65864270000E+03 0.  0.
    8880022    1    1    2    0    0 -0.68612657328E+02 -0.73618100319E+03 -0.39568685140E+03  0.85242589331E+03  0.15294330000E+03 0.  0.
<mgrwt>
<rscale>  0 0.92529419E+03</rscale>
<asrwt>0</asrwt>
<pdfrwt beam="1">  1        2 0.49543455E+00 0.99019209E+03</pdfrwt>
<pdfrwt beam="2">  1       -2 0.10861273E+00 0.99019209E+03</pdfrwt>
<totfact> 0.87455627E-01</totfact>
</mgrwt>
</event>
<event>
 4    5  0.6615028E-008  0.1612968E+04  0.7818608E-02  0.8833727E-01
          2   -1    0    0  501    0  0.00000000000E+00  0.00000000000E+00  0.20753614119E+04  0.20753614119E+04  0.25500000000E-02 0. -1.
         -2   -1    0    0    0  501 -0.00000000000E+00 -0.00000000000E+00 -0.13152891077E+04  0.13152891077E+04  0.25500000000E-02 0.  1.
    8880023    1    1    2    0    0 -0.12383979056E+04  0.79638310977E+03  0.99008652025E+03  0.18926005796E+04  0.65864270000E+03 0.  0.
    8880022    1    1    2    0    0  0.12383979056E+04 -0.79638310977E+03 -0.23001421602E+03  0.14980499400E+04  0.15294330000E+03 0.  0.
<mgrwt>
<rscale>  0 0.15787222E+04</rscale>
<asrwt>0</asrwt>
<pdfrwt beam="1">  1        2 0.31928637E+00 0.16129680E+04</pdfrwt>
<pdfrwt beam="2">  1       -2 0.20235217E+00 0.16129680E+04</pdfrwt>
<totfact> 0.72311537E-01</totfact>
</mgrwt>
</event>
<event>
 4    5  0.6615028E-008  0.8563860E+03  0.7818608E-02  0.9600025E-01
         -2   -1    0    0    0  501 -0.00000000000E+00  0.00000000000E+00  0.43996362322E+03  0.43996362323E+03  0.25500000000E-02 0.  1.
          2   -1    0    0  501    0  0.00000000000E+00 -0.00000000000E+00 -0.15721583462E+04  0.15721583462E+04  0.25500000000E-02 0. -1.
    8880023    1    1    2    0    0 -0.51388397665E+03 -0.18844089745E+03 -0.13867166361E+03  0.86754063296E+03  0.65864270000E+03 0.  1.
    8880022    1    1    2    0    0  0.51388397665E+03  0.18844089745E+03 -0.99352305937E+03  0.11445813365E+04  0.15294330000E+03 0.  0.
<mgrwt>
<rscale>  0 0.77294543E+03</rscale>
<asrwt>0</asrwt>
<pdfrwt beam="1">  1        2 0.24187051E+00 0.85638596E+03</pdfrwt>
<pdfrwt beam="2">  1       -2 0.67686712E-01 0.85638596E+03</pdfrwt>
<totfact> 0.23415239E+01</totfact>
</mgrwt>
</event>
<event>
 4    5  0.6615028E-008  0.7973603E+03  0.7818608E-02  0.9716533E-01
          2   -1    0    0  501    0  0.00000000000E+00  0.00000000000E+00  0.14114129764E+04  0.14114129764E+04  0.25500000000E-02 0. -1.
         -2   -1    0    0    0  501 -0.00000000000E+00 -0.00000000000E+00 -0.11622735637E+04  0.11622735637E+04  0.25500000000E-02 0.  1.
    8880023    1    1    2    0    0  0.99491320990E+01 -0.44930421822E+03  0.12404210289E+04  0.14745941139E+04  0.65864270000E+03 0.  0.
    8880022    1    1    2    0    0 -0.99491320990E+01  0.44930421822E+03 -0.99128161618E+03  0.10990924262E+04  0.15294330000E+03 0.  0.
<mgrwt>
<rscale>  0 0.70040905E+03</rscale>
<asrwt>0</asrwt>
<pdfrwt beam="1">  1        2 0.21714046E+00 0.79736032E+03</pdfrwt>
<pdfrwt beam="2">  1       -2 0.17881132E+00 0.79736032E+03</pdfrwt>
<totfact> 0.26869729E+00</totfact>
</mgrwt>
</event>
<event>
 4    5  0.6615028E-008  0.9457124E+03  0.7818608E-02  0.9456310E-01
          2   -1    0    0  501    0  0.00000000000E+00  0.00000000000E+00  0.87401303267E+03  0.87401303268E+03  0.25500000000E-02 0. -1.
         -2   -1    0    0    0  501 -0.00000000000E+00 -0.00000000000E+00 -0.98428644728E+03  0.98428644728E+03  0.25500000000E-02 0.  1.
    8880023    1    1    2    0    0  0.37056910500E+03  0.56854222667E+03  0.36724175652E+03  0.10145138930E+04  0.65864270000E+03 0. -1.
    8880022    1    1    2    0    0 -0.37056910500E+03 -0.56854222667E+03 -0.47751517113E+03  0.84378558696E+03  0.15294330000E+03 0.  0.
<mgrwt>
<rscale>  0 0.87582987E+03</rscale>
<asrwt>0</asrwt>
<pdfrwt beam="1">  1        2 0.13446354E+00 0.94571239E+03</pdfrwt>
<pdfrwt beam="2">  1       -2 0.15142868E+00 0.94571239E+03</pdfrwt>
<totfact> 0.88926165E+00</totfact>
</mgrwt>
</event>
<event>
 4    5  0.6615028E-008  0.9380903E+03  0.7818608E-02  0.9467461E-01
         -2   -1    0    0    0  501 -0.00000000000E+00  0.00000000000E+00  0.64867008018E+03  0.64867008018E+03  0.25500000000E-02 0.  1.
          2   -1    0    0  501    0  0.00000000000E+00 -0.00000000000E+00 -0.14600198825E+04  0.14600198825E+04  0.25500000000E-02 0. -1.
    8880023    1    1    2    0    0 -0.42111371072E+03 -0.51852325721E+03 -0.10263631656E+04  0.13904800177E+04  0.65864270000E+03 0.  0.
    8880022    1    1    2    0    0  0.42111371072E+03  0.51852325721E+03  0.21501336332E+03  0.71820994496E+03  0.15294330000E+03 0.  0.
<mgrwt>
<rscale>  0 0.86725912E+03</rscale>
<asrwt>0</asrwt>
<pdfrwt beam="1">  1        2 0.22461844E+00 0.93809026E+03</pdfrwt>
<pdfrwt beam="2">  1       -2 0.99795397E-01 0.93809026E+03</pdfrwt>
<totfact> 0.11117153E+01</totfact>
</mgrwt>
</event>
<event>
 4    5  0.6615028E-008  0.8257440E+03  0.7818608E-02  0.9657671E-01
         -2   -1    0    0    0  501 -0.00000000000E+00  0.00000000000E+00  0.20541970258E+04  0.20541970258E+04  0.25500000000E-02 0.  1.
          2   -1    0    0  501    0  0.00000000000E+00 -0.00000000000E+00 -0.10774466826E+04  0.10774466826E+04  0.25500000000E-02 0. -1.
    8880023    1    1    2    0    0 -0.33156988490E+03 -0.37162387090E+03 -0.87789015665E+03  0.12052154261E+04  0.65864270000E+03 0. -1.
    8880022    1    1    2    0    0  0.33156988490E+03  0.37162387090E+03  0.18546404999E+04  0.19264282823E+04  0.15294330000E+03 0.  0.
<mgrwt>
<rscale>  0 0.73593964E+03</rscale>
<asrwt>0</asrwt>
<pdfrwt beam="1">  1        2 0.16576103E+00 0.82574397E+03</pdfrwt>
<pdfrwt beam="2">  1       -2 0.31603031E+00 0.82574397E+03</pdfrwt>
<totfact> 0.59061516E-01</totfact>
</mgrwt>
</event>
<event>
 4    5  0.6615028E-008  0.8985063E+03  0.7818608E-02  0.9528434E-01
          2   -1    0    0  501    0  0.00000000000E+00  0.00000000000E+00  0.16156737551E+04  0.16156737551E+04  0.25500000000E-02 0. -1.
         -2   -1    0    0    0  501 -0.00000000000E+00 -0.00000000000E+00 -0.38643319053E+03  0.38643319054E+03  0.25500000000E-02 0.  1.
    8880023    1    1    2    0    0 -0.38219933049E+02 -0.60995293066E+03  0.96616398332E+03  0.13193886425E+04  0.65864270000E+03 0. -1.
    8880022    1    1    2    0    0  0.38219933049E+02  0.60995293066E+03  0.26307658127E+03  0.68271830321E+03  0.15294330000E+03 0.  0.
<mgrwt>
<rscale>  0 0.82219587E+03</rscale>
<asrwt>0</asrwt>
<pdfrwt beam="1">  1        2 0.24856519E+00 0.89850629E+03</pdfrwt>
<pdfrwt beam="2">  1       -2 0.59451261E-01 0.89850629E+03</pdfrwt>
<totfact> 0.29119974E+01</totfact>
</mgrwt>
</event>
<event>
 4    5  0.6615028E-008  0.1133871E+04  0.7818608E-02  0.9224250E-01
          2   -1    0    0  501    0  0.00000000000E+00  0.00000000000E+00  0.16181988885E+04  0.16181988885E+04  0.25500000000E-02 0. -1.
         -2   -1    0    0    0  501 -0.00000000000E+00 -0.00000000000E+00 -0.18877145341E+04  0.18877145341E+04  0.25500000000E-02 0.  1.
    8880023    1    1    2    0    0  0.48727533100E+03  0.78384703426E+03  0.12711932327E+04  0.17034071335E+04  0.65864270000E+03 0.  0.
    8880022    1    1    2    0    0 -0.48727533100E+03 -0.78384703426E+03 -0.15407088783E+04  0.18025062890E+04  0.15294330000E+03 0.  0.
<mgrwt>
<rscale>  0 0.10806597E+04</rscale>
<asrwt>0</asrwt>
<pdfrwt beam="1">  1        2 0.24895367E+00 0.11338711E+04</pdfrwt>
<pdfrwt beam="2">  1       -2 0.29041762E+00 0.11338711E+04</pdfrwt>
<totfact> 0.38990293E-01</totfact>
</mgrwt>
</event>
<event>
 4    5  0.6615028E-008  0.1155940E+04  0.7818608E-02  0.9201189E-01
         -2   -1    0    0    0  501 -0.00000000000E+00  0.00000000000E+00  0.55085605205E+03  0.55085605206E+03  0.25500000000E-02 0.  1.
          2   -1    0    0  501    0  0.00000000000E+00 -0.00000000000E+00 -0.33444241988E+04  0.33444241988E+04  0.25500000000E-02 0. -1.
    8880023    1    1    2    0    0 -0.80095947829E+03 -0.51073534205E+03 -0.26896303581E+04  0.29275088975E+04  0.65864270000E+03 0. -1.
    8880022    1    1    2    0    0  0.80095947829E+03  0.51073534205E+03 -0.10393778865E+03  0.96777135337E+03  0.15294330000E+03 0.  0.
<mgrwt>
<rscale>  0 0.11041162E+04</rscale>
<asrwt>0</asrwt>
<pdfrwt beam="1">  1        2 0.51452678E+00 0.11559398E+04</pdfrwt>
<pdfrwt beam="2">  1       -2 0.84747087E-01 0.11559398E+04</pdfrwt>
<totfact> 0.12686093E+00</totfact>
</mgrwt>
</event>
<event>
 4    5  0.6615028E-008  0.9545491E+03  0.7818608E-02  0.9443599E-01
          2   -1    0    0  501    0  0.00000000000E+00  0.00000000000E+00  0.23963574748E+04  0.23963574748E+04  0.25500000000E-02 0. -1.
         -2   -1    0    0    0  501 -0.00000000000E+00 -0.00000000000E+00 -0.79182577025E+03  0.79182577025E+03  0.25500000000E-02 0.  1.
    8880023    1    1    2    0    0 -0.69090001019E+03 -0.33151729284E+01  0.21118005011E+04  0.23175127567E+04  0.65864270000E+03 0. -1.
    8880022    1    1    2    0    0  0.69090001019E+03  0.33151729284E+01 -0.50726879654E+03  0.87067048843E+03  0.15294330000E+03 0.  0.
<mgrwt>
<rscale>  0 0.88572895E+03</rscale>
<asrwt>0</asrwt>
<pdfrwt beam="1">  1        2 0.36867038E+00 0.95454912E+03</pdfrwt>
<pdfrwt beam="2">  1       -2 0.12181935E+00 0.95454912E+03</pdfrwt>
<totfact> 0.20672766E+00</totfact>
</mgrwt>
</event>
<event>
 4    5  0.6615028E-008  0.1069394E+04  0.7818608E-02  0.9295923E-01
          2   -1    0    0  501    0  0.00000000000E+00  0.00000000000E+00  0.94146617818E+03  0.94146617819E+03  0.25500000000E-02 0. -1.
         -2   -1    0    0    0  501 -0.00000000000E+00 -0.00000000000E+00 -0.14104189102E+04  0.14104189102E+04  0.25500000000E-02 0.  1.
    8880023    1    1    2    0    0  0.71338649820E+03  0.44818771035E+03  0.39071763722E+03  0.11385354618E+04  0.65864270000E+03 0.  0.
    8880022    1    1    2    0    0 -0.71338649820E+03 -0.44818771035E+03 -0.85967036925E+03  0.12133496266E+04  0.15294330000E+03 0.  0.
<mgrwt>
<rscale>  0 0.10115907E+04</rscale>
<asrwt>0</asrwt>
<pdfrwt beam="1">  1        2 0.14484095E+00 0.10693936E+04</pdfrwt>
<pdfrwt beam="2">  1       -2 0.21698752E+00 0.10693936E+04</pdfrwt>
<totfact> 0.28012771E+00</totfact>
</mgrwt>
</event>
<event>
 4    5  0.6615028E-008  0.8358188E+03  0.7818608E-02  0.9638115E-01
         -2   -1    0    0    0  501 -0.00000000000E+00  0.00000000000E+00  0.13666701886E+04  0.13666701886E+04  0.25500000000E-02 0.  1.
          2   -1    0    0  501    0  0.00000000000E+00 -0.00000000000E+00 -0.42667637860E+03  0.42667637861E+03  0.25500000000E-02 0. -1.
    8880023    1    1    2    0    0  0.16384967623E+03  0.48778706099E+03  0.16716924301E+03  0.85237239241E+03  0.65864270000E+03 0.  0.
    8880022    1    1    2    0    0 -0.16384967623E+03 -0.48778706099E+03  0.77282456695E+03  0.94097417476E+03  0.15294330000E+03 0.  0.
<mgrwt>
<rscale>  0 0.74824027E+03</rscale>
<asrwt>0</asrwt>
<pdfrwt beam="1">  1        2 0.65642520E-01 0.83581884E+03</pdfrwt>
<pdfrwt beam="2">  1       -2 0.21025695E+00 0.83581884E+03</pdfrwt>
<totfact> 0.85280437E+00</totfact>
</mgrwt>
</event>
<event>
 4    5  0.6615028E-008  0.6954152E+03  0.7818608E-02  0.1001678E+00
          2   -1    0    0  501    0  0.00000000000E+00  0.00000000000E+00  0.11666881875E+04  0.11666881875E+04  0.25500000000E-02 0. -1.
         -2   -1    0    0    0  501 -0.00000000000E+00 -0.00000000000E+00 -0.48826794167E+03  0.48826794167E+03  0.25500000000E-02 0.  1.
    8880023    1    1    2    0    0 -0.14734336582E+03 -0.16757684494E+03  0.10104786011E+04  0.12266496142E+04  0.65864270000E+03 0. -1.
    8880022    1    1    2    0    0  0.14734336582E+03  0.16757684494E+03 -0.33205835530E+03  0.42830651496E+03  0.15294330000E+03 0.  0.
<mgrwt>
<rscale>  0 0.54920557E+03</rscale>
<asrwt>0</asrwt>
<pdfrwt beam="1">  1        2 0.17949049E+00 0.69541518E+03</pdfrwt>
<pdfrwt beam="2">  1       -2 0.75118145E-01 0.69541518E+03</pdfrwt>
<totfact> 0.32320005E+01</totfact>
</mgrwt>
</event>
<event>
 4    5  0.6615028E-008  0.7071238E+03  0.7818608E-02  0.9968840E-01
         -2   -1    0    0    0  501 -0.00000000000E+00  0.00000000000E+00  0.21640691354E+04  0.21640691354E+04  0.25500000000E-02 0.  1.
          2   -1    0    0  501    0  0.00000000000E+00 -0.00000000000E+00 -0.14184215415E+04  0.14184215415E+04  0.25500000000E-02 0. -1.
    8880023    1    1    2    0    0  0.25722263738E+03  0.71003883862E+01 -0.13188208477E+04  0.14964332712E+04  0.65864270000E+03 0. -1.
    8880022    1    1    2    0    0 -0.25722263738E+03 -0.71003883862E+01  0.20644684415E+04  0.20860574057E+04  0.15294330000E+03 0.  0.
<mgrwt>
<rscale>  0 0.57037892E+03</rscale>
<asrwt>0</asrwt>
<pdfrwt beam="1">  1        2 0.21821870E+00 0.70712383E+03</pdfrwt>
<pdfrwt beam="2">  1       -2 0.33293371E+00 0.70712383E+03</pdfrwt>
<totfact> 0.30156172E-01</totfact>
</mgrwt>
</event>
<event>
 4    5  0.6615028E-008  0.6676615E+03  0.7818608E-02  0.1017398E+00
          2   -1    0    0  501    0  0.00000000000E+00  0.00000000000E+00  0.10408314084E+04  0.10408314084E+04  0.25500000000E-02 0. -1.
         -2   -1    0    0    0  501 -0.00000000000E+00 -0.00000000000E+00 -0.64417225637E+03  0.64417225638E+03  0.25500000000E-02 0.  1.
    8880023    1    1    2    0    0  0.89039690824E+02  0.63511153330E+02  0.91552596980E+03  0.11331194733E+04  0.65864270000E+03 0. -1.
    8880022    1    1    2    0    0 -0.89039690824E+02 -0.63511153330E+02 -0.51886681780E+03  0.55188419145E+03  0.15294330000E+03 0.  0.
<mgrwt>
<rscale>  0 0.48637489E+03</rscale>
<asrwt>0</asrwt>
<pdfrwt beam="1">  1        2 0.16012791E+00 0.66766155E+03</pdfrwt>
<pdfrwt beam="2">  1       -2 0.99103424E-01 0.66766155E+03</pdfrwt>
<totfact> 0.20545908E+01</totfact>
</mgrwt>
</event>
<event>
 4    5  0.6615028E-008  0.8413740E+03  0.7818608E-02  0.9627595E-01
          2   -1    0    0  501    0  0.00000000000E+00  0.00000000000E+00  0.28114251083E+04  0.28114251083E+04  0.25500000000E-02 0. -1.
         -2   -1    0    0    0  501 -0.00000000000E+00 -0.00000000000E+00 -0.19957870871E+03  0.19957870873E+03  0.25500000000E-02 0.  1.
    8880023    1    1    2    0    0  0.26773524474E+03  0.44990873591E+03  0.98643394879E+03  0.12965192530E+04  0.65864270000E+03 0.  0.
    8880022    1    1    2    0    0 -0.26773524474E+03 -0.44990873591E+03  0.16254124508E+04  0.17144845640E+04  0.15294330000E+03 0.  0.
<mgrwt>
<rscale>  0 0.75496388E+03</rscale>
<asrwt>0</asrwt>
<pdfrwt beam="1">  1        2 0.43252694E+00 0.84137402E+03</pdfrwt>
<pdfrwt beam="2">  1       -2 0.30704417E-01 0.84137402E+03</pdfrwt>
<totfact> 0.23206450E+01</totfact>
</mgrwt>
</event>
<event>
 4    5  0.6615028E-008  0.7142182E+03  0.7818608E-02  0.9942658E-01
          2   -1    0    0  501    0  0.00000000000E+00  0.00000000000E+00  0.15915960986E+04  0.15915960986E+04  0.25500000000E-02 0. -1.
         -2   -1    0    0    0  501 -0.00000000000E+00 -0.00000000000E+00 -0.40152226673E+03  0.40152226674E+03  0.25500000000E-02 0.  1.
    8880023    1    1    2    0    0 -0.15219099677E+03  0.23051107248E+03  0.14287501454E+04  0.15973210818E+04  0.65864270000E+03 0. -1.
    8880022    1    1    2    0    0  0.15219099677E+03 -0.23051107248E+03 -0.23867631352E+03  0.39579728357E+03  0.15294330000E+03 0.  0.
<mgrwt>
<rscale>  0 0.58237692E+03</rscale>
<asrwt>0</asrwt>
<pdfrwt beam="1">  1        2 0.24486094E+00 0.71421822E+03</pdfrwt>
<pdfrwt beam="2">  1       -2 0.61772656E-01 0.71421822E+03</pdfrwt>
<totfact> 0.28255334E+01</totfact>
</mgrwt>
</event>
<event>
 4    5  0.6615028E-008  0.1203666E+04  0.7818608E-02  0.9153567E-01
         -2   -1    0    0    0  501 -0.00000000000E+00  0.00000000000E+00  0.92871132674E+03  0.92871132674E+03  0.25500000000E-02 0.  1.
          2   -1    0    0  501    0  0.00000000000E+00 -0.00000000000E+00 -0.28314282805E+04  0.28314282805E+04  0.25500000000E-02 0. -1.
    8880023    1    1    2    0    0  0.26846647277E+03 -0.97104501370E+03 -0.23553744869E+04  0.26451090423E+04  0.65864270000E+03 0. -1.
    8880022    1    1    2    0    0 -0.26846647277E+03  0.97104501370E+03  0.45265753311E+03  0.11150305650E+04  0.15294330000E+03 0.  0.
<mgrwt>
<rscale>  0 0.11545823E+04</rscale>
<asrwt>0</asrwt>
<pdfrwt beam="1">  1        2 0.43560435E+00 0.12036664E+04</pdfrwt>
<pdfrwt beam="2">  1       -2 0.14287867E+00 0.12036664E+04</pdfrwt>
<totfact> 0.74038595E-01</totfact>
</mgrwt>
</event>
<event>
 4    5  0.6615028E-008  0.7490081E+03  0.7818608E-02  0.9834443E-01
          2   -1    0    0  501    0  0.00000000000E+00  0.00000000000E+00  0.98573701797E+03  0.98573701798E+03  0.25500000000E-02 0. -1.
         -2   -1    0    0    0  501 -0.00000000000E+00 -0.00000000000E+00 -0.43322976775E+03  0.43322976776E+03  0.25500000000E-02 0.  1.
    8880023    1    1    2    0    0  0.23642802507E+03  0.26702953815E+03  0.67883619290E+03  0.10108569475E+04  0.65864270000E+03 0.  1.
    8880022    1    1    2    0    0 -0.23642802507E+03 -0.26702953815E+03 -0.12632894267E+03  0.40810983822E+03  0.15294330000E+03 0.  0.
<mgrwt>
<rscale>  0 0.63546420E+03</rscale>
<asrwt>0</asrwt>
<pdfrwt beam="1">  1        2 0.15165185E+00 0.74900814E+03</pdfrwt>
<pdfrwt beam="2">  1       -2 0.66650734E-01 0.74900814E+03</pdfrwt>
<totfact> 0.54022133E+01</totfact>
</mgrwt>
</event>
<event>
 4    5  0.6615028E-008  0.1114494E+04  0.7818608E-02  0.9245088E-01
          2   -1    0    0  501    0  0.00000000000E+00  0.00000000000E+00  0.36957248485E+04  0.36957248485E+04  0.25500000000E-02 0. -1.
         -2   -1    0    0    0  501 -0.00000000000E+00 -0.00000000000E+00 -0.35756113730E+03  0.35756113731E+03  0.25500000000E-02 0.  1.
    8880023    1    1    2    0    0 -0.78088941032E+03 -0.44553227526E+03  0.27522094045E+04  0.29693019537E+04  0.65864270000E+03 0.  0.
    8880022    1    1    2    0    0  0.78088941032E+03  0.44553227526E+03  0.58595430671E+03  0.10839840322E+04  0.15294330000E+03 0.  0.
<mgrwt>
<rscale>  0 0.10599926E+04</rscale>
<asrwt>0</asrwt>
<pdfrwt beam="1">  1        2 0.56857309E+00 0.11144943E+04</pdfrwt>
<pdfrwt beam="2">  1       -2 0.55009402E-01 0.11144943E+04</pdfrwt>
<totfact> 0.18722538E+00</totfact>
</mgrwt>
</event>
<event>
 4    5  0.6615028E-008  0.1427466E+04  0.7818608E-02  0.8962630E-01
         -2   -1    0    0    0  501 -0.00000000000E+00  0.00000000000E+00  0.90667309396E+03  0.90667309397E+03  0.25500000000E-02 0.  1.
          2   -1    0    0  501    0  0.00000000000E+00 -0.00000000000E+00 -0.30524730906E+04  0.30524730906E+04  0.25500000000E-02 0. -1.
    8880023    1    1    2    0    0 -0.54810154630E+03  0.11416801232E+04 -0.22657082079E+04  0.26778895979E+04  0.65864270000E+03 0.  0.
    8880022    1    1    2    0    0  0.54810154630E+03 -0.11416801232E+04  0.11990821126E+03  0.12812565867E+04  0.15294330000E+03 0.  0.
<mgrwt>
<rscale>  0 0.13878924E+04</rscale>
<asrwt>0</asrwt>
<pdfrwt beam="1">  1        2 0.46961124E+00 0.14274659E+04</pdfrwt>
<pdfrwt beam="2">  1       -2 0.13948817E+00 0.14274659E+04</pdfrwt>
<totfact> 0.56037886E-01</totfact>
</mgrwt>
</event>
<event>
 4    5  0.6615028E-008  0.8572643E+03  0.7818608E-02  0.9598448E-01
          2   -1    0    0  501    0  0.00000000000E+00  0.00000000000E+00  0.89800030695E+03  0.89800030695E+03  0.25500000000E-02 0. -1.
         -2   -1    0    0    0  501 -0.00000000000E+00 -0.00000000000E+00 -0.90662760785E+03  0.90662760785E+03  0.25500000000E-02 0.  1.
    8880023    1    1    2    0    0  0.54084132798E+03 -0.92642341007E+02  0.54048360569E+03  0.10134222613E+04  0.65864270000E+03 0.  0.
    8880022    1    1    2    0    0 -0.54084132798E+03  0.92642341007E+02 -0.54911090659E+03  0.79120565351E+03  0.15294330000E+03 0.  0.
<mgrwt>
<rscale>  0 0.77398967E+03</rscale>
<asrwt>0</asrwt>
<pdfrwt beam="1">  1        2 0.13815389E+00 0.85726434E+03</pdfrwt>
<pdfrwt beam="2">  1       -2 0.13948117E+00 0.85726434E+03</pdfrwt>
<totfact> 0.10719437E+01</totfact>
</mgrwt>
</event>
<event>
 4    5  0.6615028E-008  0.8923894E+03  0.7818608E-02  0.9538361E-01
         -2   -1    0    0    0  501 -0.00000000000E+00  0.00000000000E+00  0.66289253405E+03  0.66289253406E+03  0.25500000000E-02 0.  1.
          2   -1    0    0  501    0  0.00000000000E+00 -0.00000000000E+00 -0.28370065258E+04  0.28370065258E+04  0.25500000000E-02 0. -1.
    8880023    1    1    2    0    0  0.40827008081E+03  0.44256539153E+03 -0.25985502113E+04  0.27475119638E+04  0.65864270000E+03 0.  0.
    8880022    1    1    2    0    0 -0.40827008081E+03 -0.44256539153E+03  0.42443621958E+03  0.75238709597E+03  0.15294330000E+03 0.  0.
<mgrwt>
<rscale>  0 0.81513736E+03</rscale>
<asrwt>0</asrwt>
<pdfrwt beam="1">  1        2 0.43646254E+00 0.89238937E+03</pdfrwt>
<pdfrwt beam="2">  1       -2 0.10198347E+00 0.89238937E+03</pdfrwt>
<totfact> 0.17887218E+00</totfact>
</mgrwt>
</event>
<event>
 4    5  0.6615028E-008  0.6870109E+03  0.7818608E-02  0.1005607E+00
          2   -1    0    0  501    0  0.00000000000E+00  0.00000000000E+00  0.13076580783E+04  0.13076580783E+04  0.25500000000E-02 0. -1.
         -2   -1    0    0    0  501 -0.00000000000E+00 -0.00000000000E+00 -0.19540193657E+03  0.19540193658E+03  0.25500000000E-02 0.  1.
    8880023    1    1    2    0    0  0.72464999422E+02  0.18144600189E+03  0.10367201249E+04  0.12436931500E+04  0.65864270000E+03 0. -1.
    8880022    1    1    2    0    0 -0.72464999422E+02 -0.18144600189E+03  0.75536016826E+02  0.25936686488E+03  0.15294330000E+03 0.  0.
<mgrwt>
<rscale>  0 0.53258619E+03</rscale>
<asrwt>0</asrwt>
<pdfrwt beam="1">  1        2 0.20117815E+00 0.68701094E+03</pdfrwt>
<pdfrwt beam="2">  1       -2 0.30061838E-01 0.68701094E+03</pdfrwt>
<totfact> 0.17012085E+02</totfact>
</mgrwt>
</event>
<event>
 4    5  0.6615028E-008  0.6964477E+03  0.7818608E-02  0.1001227E+00
          2   -1    0    0  501    0  0.00000000000E+00  0.00000000000E+00  0.40692663535E+04  0.40692663535E+04  0.25500000000E-02 0. -1.
         -2   -1    0    0    0  501 -0.00000000000E+00 -0.00000000000E+00 -0.21047339219E+03  0.21047339220E+03  0.25500000000E-02 0.  1.
    8880023    1    1    2    0    0 -0.22073371694E+03  0.50058847189E+02  0.39349876116E+04  0.39961440128E+04  0.65864270000E+03 0. -1.
    8880022    1    1    2    0    0  0.22073371694E+03 -0.50058847189E+02 -0.76194650218E+02  0.28359573289E+03  0.15294330000E+03 0.  0.
<mgrwt>
<rscale>  0 0.55115528E+03</rscale>
<asrwt>0</asrwt>
<pdfrwt beam="1">  1        2 0.62604093E+00 0.69644775E+03</pdfrwt>
<pdfrwt beam="2">  1       -2 0.32380524E-01 0.69644775E+03</pdfrwt>
<totfact> 0.29992481E+00</totfact>
</mgrwt>
</event>
<event>
 4    5  0.6615028E-008  0.7273269E+03  0.7818608E-02  0.9898531E-01
          2   -1    0    0  501    0  0.00000000000E+00  0.00000000000E+00  0.71288538302E+03  0.71288538303E+03  0.25500000000E-02 0. -1.
         -2   -1    0    0    0  501 -0.00000000000E+00 -0.00000000000E+00 -0.79504688568E+03  0.79504688569E+03  0.25500000000E-02 0.  1.
    8880023    1    1    2    0    0  0.27332466968E+03  0.14313595717E+03  0.46366940017E+03  0.86255074993E+03  0.65864270000E+03 0. -1.
    8880022    1    1    2    0    0 -0.27332466968E+03 -0.14313595717E+03 -0.54583090283E+03  0.64538151878E+03  0.15294330000E+03 0.  0.
<mgrwt>
<rscale>  0 0.60332511E+03</rscale>
<asrwt>0</asrwt>
<pdfrwt beam="1">  1        2 0.10967467E+00 0.72732694E+03</pdfrwt>
<pdfrwt beam="2">  1       -2 0.12231491E+00 0.72732694E+03</pdfrwt>
<totfact> 0.20595225E+01</totfact>
</mgrwt>
</event>
<event>
 4    5  0.6615028E-008  0.6743562E+03  0.7818608E-02  0.1012715E+00
          2   -1    0    0  501    0  0.00000000000E+00  0.00000000000E+00  0.19458695860E+04  0.19458695860E+04  0.25500000000E-02 0. -1.
         -2   -1    0    0    0  501 -0.00000000000E+00 -0.00000000000E+00 -0.16423672841E+03  0.16423672843E+03  0.25500000000E-02 0.  1.
    8880023    1    1    2    0    0 -0.14210241010E+03 -0.27439936779E+02  0.17757209859E+04  0.18994581520E+04  0.65864270000E+03 0. -1.
    8880022    1    1    2    0    0  0.14210241010E+03  0.27439936779E+02  0.59118716535E+01  0.21064816241E+03  0.15294330000E+03 0.  0.
<mgrwt>
<rscale>  0 0.50409646E+03</rscale>
<asrwt>0</asrwt>
<pdfrwt beam="1">  1        2 0.29936458E+00 0.67435618E+03</pdfrwt>
<pdfrwt beam="2">  1       -2 0.25267186E-01 0.67435618E+03</pdfrwt>
<totfact> 0.10405569E+02</totfact>
</mgrwt>
</event>
<event>
 4    5  0.6615028E-008  0.7172149E+03  0.7818608E-02  0.9932125E-01
          2   -1    0    0  501    0  0.00000000000E+00  0.00000000000E+00  0.45085985485E+04  0.45085985485E+04  0.25500000000E-02 0. -1.
         -2   -1    0    0    0  501 -0.00000000000E+00 -0.00000000000E+00 -0.88916128538E+02  0.88916128575E+02  0.25500000000E-02 0.  1.
    8880023    1    1    2    0    0 -0.19581572258E+03  0.20553136816E+03  0.15284839636E+04  0.16883898761E+04  0.65864270000E+03 0.  0.
    8880022    1    1    2    0    0  0.19581572258E+03 -0.20553136816E+03  0.28911984563E+04  0.29091248009E+04  0.15294330000E+03 0.  0.
<mgrwt>
<rscale>  0 0.58729317E+03</rscale>
<asrwt>0</asrwt>
<pdfrwt beam="1">  1        2 0.69363062E+00 0.71721485E+03</pdfrwt>
<pdfrwt beam="2">  1       -2 0.13679403E-01 0.71721485E+03</pdfrwt>
<totfact> 0.56339790E+00</totfact>
</mgrwt>
</event>
<event>
 4    5  0.6615028E-008  0.1996933E+04  0.7818608E-02  0.8620774E-01
         -2   -1    0    0    0  501 -0.00000000000E+00  0.00000000000E+00  0.18077184483E+04  0.18077184483E+04  0.25500000000E-02 0.  1.
          2   -1    0    0  501    0  0.00000000000E+00 -0.00000000000E+00 -0.23392612489E+04  0.23392612489E+04  0.25500000000E-02 0. -1.
    8880023    1    1    2    0    0 -0.93852078927E+03 -0.16349650095E+04 -0.94762881518E+03  0.22103715596E+04  0.65864270000E+03 0. -1.
    8880022    1    1    2    0    0  0.93852078927E+03  0.16349650095E+04  0.41608601456E+03  0.19366081376E+04  0.15294330000E+03 0.  0.
<mgrwt>
<rscale>  0 0.19700054E+04</rscale>
<asrwt>0</asrwt>
<pdfrwt beam="1">  1        2 0.35988634E+00 0.19969332E+04</pdfrwt>
<pdfrwt beam="2">  1       -2 0.27811053E+00 0.19969332E+04</pdfrwt>
<totfact> 0.16561413E-01</totfact>
</mgrwt>
</event>
<event>
 4    5  0.6615028E-008  0.9490681E+03  0.7818608E-02  0.9451456E-01
          2   -1    0    0  501    0  0.00000000000E+00  0.00000000000E+00  0.12194107670E+04  0.12194107670E+04  0.25500000000E-02 0. -1.
         -2   -1    0    0    0  501 -0.00000000000E+00 -0.00000000000E+00 -0.10490312954E+04  0.10490312954E+04  0.25500000000E-02 0.  1.
    8880023    1    1    2    0    0  0.54696402997E+03 -0.40957338636E+03  0.86355836193E+03  0.12831458450E+04  0.65864270000E+03 0. -1.
    8880022    1    1    2    0    0 -0.54696402997E+03  0.40957338636E+03 -0.69317889034E+03  0.98529621735E+03  0.15294330000E+03 0.  0.
<mgrwt>
<rscale>  0 0.87959358E+03</rscale>
<asrwt>0</asrwt>
<pdfrwt beam="1">  1        2 0.18760166E+00 0.94906808E+03</pdfrwt>
<pdfrwt beam="2">  1       -2 0.16138943E+00 0.94906808E+03</pdfrwt>
<totfact> 0.45228767E+00</totfact>
</mgrwt>
</event>
<event>
 4    5  0.6615028E-008  0.1271622E+04  0.7818608E-02  0.9090462E-01
          2   -1    0    0  501    0  0.00000000000E+00  0.00000000000E+00  0.33451319625E+04  0.33451319625E+04  0.25500000000E-02 0. -1.
         -2   -1    0    0    0  501 -0.00000000000E+00 -0.00000000000E+00 -0.75226821887E+03  0.75226821888E+03  0.25500000000E-02 0.  1.
    8880023    1    1    2    0    0 -0.49043061385E+03  0.97092236949E+03  0.27092121728E+04  0.29928002336E+04  0.65864270000E+03 0. -1.
    8880022    1    1    2    0    0  0.49043061385E+03 -0.97092236949E+03 -0.11634842922E+03  0.11045999478E+04  0.15294330000E+03 0.  0.
<mgrwt>
<rscale>  0 0.12259257E+04</rscale>
<asrwt>0</asrwt>
<pdfrwt beam="1">  1        2 0.51463568E+00 0.12716221E+04</pdfrwt>
<pdfrwt beam="2">  1       -2 0.11573357E+00 0.12716221E+04</pdfrwt>
<totfact> 0.59391696E-01</totfact>
</mgrwt>
</event>
<event>
 4    5  0.6615028E-008  0.8139154E+03  0.7818608E-02  0.9681478E-01
          2   -1    0    0  501    0  0.00000000000E+00  0.00000000000E+00  0.45280559727E+03  0.45280559728E+03  0.25500000000E-02 0. -1.
         -2   -1    0    0    0  501 -0.00000000000E+00 -0.00000000000E+00 -0.10353018087E+04  0.10353018087E+04  0.25500000000E-02 0.  1.
    8880023    1    1    2    0    0 -0.47788785664E+03  0.16470089729E+02 -0.15461789246E+03  0.82847146379E+03  0.65864270000E+03 0.  0.
    8880022    1    1    2    0    0  0.47788785664E+03 -0.16470089729E+02 -0.42787831899E+03  0.65963594221E+03  0.15294330000E+03 0. -1.
<mgrwt>
<rscale>  0 0.72130355E+03</rscale>
<asrwt>0</asrwt>
<pdfrwt beam="1">  1        2 0.69662399E-01 0.81391540E+03</pdfrwt>
<pdfrwt beam="2">  1       -2 0.15927720E+00 0.81391540E+03</pdfrwt>
<totfact> 0.17761003E+01</totfact>
</mgrwt>
</event>
<event>
 4    5  0.6615028E-008  0.8346243E+03  0.7818608E-02  0.9640401E-01
         -2   -1    0    0    0  501 -0.00000000000E+00  0.00000000000E+00  0.10485238745E+04  0.10485238745E+04  0.25500000000E-02 0.  1.
          2   -1    0    0  501    0  0.00000000000E+00 -0.00000000000E+00 -0.14547127766E+04  0.14547127766E+04  0.25500000000E-02 0. -1.
    8880023    1    1    2    0    0  0.38971952683E+03 -0.33302583511E+03 -0.12506617639E+04  0.15035799182E+04  0.65864270000E+03 0.  0.
    8880022    1    1    2    0    0 -0.38971952683E+03  0.33302583511E+03  0.84447286173E+03  0.99965673291E+03  0.15294330000E+03 0.  0.
<mgrwt>
<rscale>  0 0.74678919E+03</rscale>
<asrwt>0</asrwt>
<pdfrwt beam="1">  1        2 0.22380197E+00 0.83462430E+03</pdfrwt>
<pdfrwt beam="2">  1       -2 0.16131136E+00 0.83462430E+03</pdfrwt>
<totfact> 0.33628269E+00</totfact>
</mgrwt>
</event>
<event>
 4    5  0.6615028E-008  0.1506754E+04  0.7818608E-02  0.8904881E-01
          2   -1    0    0  501    0  0.00000000000E+00  0.00000000000E+00  0.32486440840E+04  0.32486440840E+04  0.25500000000E-02 0. -1.
         -2   -1    0    0    0  501 -0.00000000000E+00 -0.00000000000E+00 -0.81309302155E+03  0.81309302155E+03  0.25500000000E-02 0.  1.
    8880023    1    1    2    0    0 -0.48309682058E+02 -0.13543132363E+04  0.22169989980E+04  0.26805583245E+04  0.65864270000E+03 0.  0.
    8880022    1    1    2    0    0  0.48309682058E+02  0.13543132363E+04  0.21855206447E+03  0.13811787811E+04  0.15294330000E+03 0.  0.
<mgrwt>
<rscale>  0 0.14696629E+04</rscale>
<asrwt>0</asrwt>
<pdfrwt beam="1">  1        2 0.49979139E+00 0.15067543E+04</pdfrwt>
<pdfrwt beam="2">  1       -2 0.12509124E+00 0.15067543E+04</pdfrwt>
<totfact> 0.54972290E-01</totfact>
</mgrwt>
</event>
<event>
 4    5  0.6615028E-008  0.7629093E+03  0.7818608E-02  0.9797633E-01
         -2   -1    0    0    0  501 -0.00000000000E+00  0.00000000000E+00  0.95526895783E+03  0.95526895783E+03  0.25500000000E-02 0.  1.
          2   -1    0    0  501    0  0.00000000000E+00 -0.00000000000E+00 -0.14023900570E+04  0.14023900570E+04  0.25500000000E-02 0. -1.
    8880023    1    1    2    0    0  0.13160678884E+03 -0.36180111147E+03 -0.12441326758E+04  0.14594165657E+04  0.65864270000E+03 0.  0.
    8880022    1    1    2    0    0 -0.13160678884E+03  0.36180111147E+03  0.79701157660E+03  0.89824244911E+03  0.15294330000E+03 0.  0.
<mgrwt>
<rscale>  0 0.65489723E+03</rscale>
<asrwt>0</asrwt>
<pdfrwt beam="1">  1        2 0.21575232E+00 0.76290930E+03</pdfrwt>
<pdfrwt beam="2">  1       -2 0.14696445E+00 0.76290930E+03</pdfrwt>
<totfact> 0.46652997E+00</totfact>
</mgrwt>
</event>
<event>
 4    5  0.6615028E-008  0.6693217E+03  0.7818608E-02  0.1016154E+00
          2   -1    0    0  501    0  0.00000000000E+00  0.00000000000E+00  0.28151724462E+04  0.28151724462E+04  0.25500000000E-02 0. -1.
         -2   -1    0    0    0  501 -0.00000000000E+00 -0.00000000000E+00 -0.38404852603E+03  0.38404852604E+03  0.25500000000E-02 0.  1.
    8880023    1    1    2    0    0 -0.11581116072E+03  0.27731999855E+02  0.27476831379E+04  0.28280300779E+04  0.65864270000E+03 0. -1.
    8880022    1    1    2    0    0  0.11581116072E+03 -0.27731999855E+02 -0.31655921770E+03  0.37119089441E+03  0.15294330000E+03 0.  0.
<mgrwt>
<rscale>  0 0.49100460E+03</rscale>
<asrwt>0</asrwt>
<pdfrwt beam="1">  1        2 0.43310343E+00 0.66932167E+03</pdfrwt>
<pdfrwt beam="2">  1       -2 0.59084392E-01 0.66932167E+03</pdfrwt>
<totfact> 0.65178267E+00</totfact>
</mgrwt>
</event>
<event>
 4    5  0.6615028E-008  0.1565066E+04  0.7818608E-02  0.8865006E-01
         -2   -1    0    0    0  501 -0.00000000000E+00  0.00000000000E+00  0.99960926986E+03  0.99960926987E+03  0.25500000000E-02 0.  1.
          2   -1    0    0  501    0  0.00000000000E+00 -0.00000000000E+00 -0.36930472595E+04  0.36930472595E+04  0.25500000000E-02 0. -1.
    8880023    1    1    2    0    0  0.14195230842E+04  0.23993817133E+02 -0.28547688361E+04  0.32556315522E+04  0.65864270000E+03 0.  0.
    8880022    1    1    2    0    0 -0.14195230842E+04 -0.23993817133E+02  0.16133084652E+03  0.14370249771E+04  0.15294330000E+03 0.  0.
<mgrwt>
<rscale>  0 0.15295969E+04</rscale>
<asrwt>0</asrwt>
<pdfrwt beam="1">  1        2 0.56816111E+00 0.15650660E+04</pdfrwt>
<pdfrwt beam="2">  1       -2 0.15378604E+00 0.15650660E+04</pdfrwt>
<totfact> 0.15687480E-01</totfact>
</mgrwt>
</event>
<event>
 4    5  0.6615028E-008  0.8791521E+03  0.7818608E-02  0.9560364E-01
         -2   -1    0    0    0  501 -0.00000000000E+00  0.00000000000E+00  0.40428341800E+03  0.40428341801E+03  0.25500000000E-02 0.  1.
          2   -1    0    0  501    0  0.00000000000E+00 -0.00000000000E+00 -0.19773289192E+04  0.19773289192E+04  0.25500000000E-02 0. -1.
    8880023    1    1    2    0    0 -0.57783247231E+03 -0.72165826870E+02 -0.15465387994E+04  0.17789577671E+04  0.65864270000E+03 0.  0.
    8880022    1    1    2    0    0  0.57783247231E+03  0.72165826870E+02 -0.26506701752E+02  0.60265457012E+03  0.15294330000E+03 0.  0.
<mgrwt>
<rscale>  0 0.79976063E+03</rscale>
<asrwt>0</asrwt>
<pdfrwt beam="1">  1        2 0.30420444E+00 0.87915214E+03</pdfrwt>
<pdfrwt beam="2">  1       -2 0.62197450E-01 0.87915214E+03</pdfrwt>
<totfact> 0.16779971E+01</totfact>
</mgrwt>
</event>
<event>
 4    5  0.6615028E-008  0.1059709E+04  0.7818608E-02  0.9307300E-01
         -2   -1    0    0    0  501 -0.00000000000E+00  0.00000000000E+00  0.84204532055E+03  0.84204532055E+03  0.25500000000E-02 0.  1.
          2   -1    0    0  501    0  0.00000000000E+00 -0.00000000000E+00 -0.13426565987E+04  0.13426565987E+04  0.25500000000E-02 0. -1.
    8880023    1    1    2    0    0 -0.59590595568E+03  0.57798626455E+03 -0.75719700726E+03  0.13024321649E+04  0.65864270000E+03 0. -1.
    8880022    1    1    2    0    0  0.59590595568E+03 -0.57798626455E+03  0.25658572914E+03  0.88226975435E+03  0.15294330000E+03 0. -1.
<mgrwt>
<rscale>  0 0.10011353E+04</rscale>
<asrwt>0</asrwt>
<pdfrwt beam="1">  1        2 0.20656255E+00 0.10597086E+04</pdfrwt>
<pdfrwt beam="2">  1       -2 0.12954543E+00 0.10597086E+04</pdfrwt>
<totfact> 0.67506076E+00</totfact>
</mgrwt>
</event>
<event>
 4    5  0.6615028E-008  0.1443200E+04  0.7818608E-02  0.8950822E-01
          2   -1    0    0  501    0  0.00000000000E+00  0.00000000000E+00  0.18016445476E+04  0.18016445476E+04  0.25500000000E-02 0. -1.
         -2   -1    0    0    0  501 -0.00000000000E+00 -0.00000000000E+00 -0.24713622234E+04  0.24713622234E+04  0.25500000000E-02 0.  1.
    8880023    1    1    2    0    0 -0.10453470631E+04  0.74583284210E+03  0.12828991441E+04  0.19309732083E+04  0.65864270000E+03 0.  0.
    8880022    1    1    2    0    0  0.10453470631E+04 -0.74583284210E+03 -0.19526168199E+04  0.23420335628E+04  0.15294330000E+03 0.  0.
<mgrwt>
<rscale>  0 0.14041477E+04</rscale>
<asrwt>0</asrwt>
<pdfrwt beam="1">  1        2 0.27717608E+00 0.14432004E+04</pdfrwt>
<pdfrwt beam="2">  1       -2 0.38020957E+00 0.14432004E+04</pdfrwt>
<totfact> 0.81451260E-02</totfact>
</mgrwt>
</event>
<event>
 4    5  0.6615028E-008  0.8439643E+03  0.7818608E-02  0.9622750E-01
         -2   -1    0    0    0  501 -0.00000000000E+00  0.00000000000E+00  0.57919024700E+03  0.57919024700E+03  0.25500000000E-02 0.  1.
          2   -1    0    0  501    0  0.00000000000E+00 -0.00000000000E+00 -0.20747906586E+04  0.20747906586E+04  0.25500000000E-02 0. -1.
    8880023    1    1    2    0    0 -0.44096653704E+03  0.28985162421E+03 -0.18268903017E+04  0.20124124407E+04  0.65864270000E+03 0. -1.
    8880022    1    1    2    0    0  0.44096653704E+03 -0.28985162421E+03  0.33128989010E+03  0.64156846489E+03  0.15294330000E+03 0.  0.
<mgrwt>
<rscale>  0 0.75808554E+03</rscale>
<asrwt>0</asrwt>
<pdfrwt beam="1">  1        2 0.31919856E+00 0.84396425E+03</pdfrwt>
<pdfrwt beam="2">  1       -2 0.89106193E-01 0.84396425E+03</pdfrwt>
<totfact> 0.67146668E+00</totfact>
</mgrwt>
</event>
<event>
 4    5  0.6615028E-008  0.8422808E+03  0.7818608E-02  0.9625895E-01
          2   -1    0    0  501    0  0.00000000000E+00  0.00000000000E+00  0.17949715870E+04  0.17949715870E+04  0.25500000000E-02 0. -1.
         -2   -1    0    0    0  501 -0.00000000000E+00 -0.00000000000E+00 -0.48256704962E+03  0.48256704962E+03  0.25500000000E-02 0.  1.
    8880023    1    1    2    0    0 -0.52281706083E+03  0.47843272132E+02  0.14823326458E+04  0.17049184546E+04  0.65864270000E+03 0.  0.
    8880022    1    1    2    0    0  0.52281706083E+03 -0.47843272132E+02 -0.16992810844E+03  0.57262018200E+03  0.15294330000E+03 0.  0.
<mgrwt>
<rscale>  0 0.75605759E+03</rscale>
<asrwt>0</asrwt>
<pdfrwt beam="1">  1        2 0.27614948E+00 0.84228075E+03</pdfrwt>
<pdfrwt beam="2">  1       -2 0.74241084E-01 0.84228075E+03</pdfrwt>
<totfact> 0.14438044E+01</totfact>
</mgrwt>
</event>
<event>
 4    5  0.6615028E-008  0.9895547E+03  0.7818608E-02  0.9395353E-01
         -2   -1    0    0    0  501 -0.00000000000E+00  0.00000000000E+00  0.81758957883E+03  0.81758957883E+03  0.25500000000E-02 0.  1.
          2   -1    0    0  501    0  0.00000000000E+00 -0.00000000000E+00 -0.14431702952E+04  0.14431702952E+04  0.25500000000E-02 0. -1.
    8880023    1    1    2    0    0 -0.18026357982E+03 -0.71617968895E+03 -0.10102377998E+04  0.14141424693E+04  0.65864270000E+03 0. -1.
    8880022    1    1    2    0    0  0.18026357982E+03  0.71617968895E+03  0.38465708346E+03  0.84661740471E+03  0.15294330000E+03 0.  0.
<mgrwt>
<rscale>  0 0.92459129E+03</rscale>
<asrwt>0</asrwt>
<pdfrwt beam="1">  1        2 0.22202620E+00 0.98955470E+03</pdfrwt>
<pdfrwt beam="2">  1       -2 0.12578301E+00 0.98955470E+03</pdfrwt>
<totfact> 0.64174012E+00</totfact>
</mgrwt>
</event>
<event>
 4    5  0.6615028E-008  0.1178697E+04  0.7818608E-02  0.9178114E-01
          2   -1    0    0  501    0  0.00000000000E+00  0.00000000000E+00  0.74406958464E+03  0.74406958465E+03  0.25500000000E-02 0. -1.
         -2   -1    0    0    0  501 -0.00000000000E+00 -0.00000000000E+00 -0.21021297457E+04  0.21021297457E+04  0.25500000000E-02 0.  1.
    8880023    1    1    2    0    0  0.18782757378E+03 -0.95928985587E+03 -0.15936037818E+02  0.11788046440E+04  0.65864270000E+03 0.  0.
    8880022    1    1    2    0    0 -0.18782757378E+03  0.95928985587E+03 -0.13421241233E+04  0.16673946864E+04  0.15294330000E+03 0.  0.
<mgrwt>
<rscale>  0 0.11282214E+04</rscale>
<asrwt>0</asrwt>
<pdfrwt beam="1">  1        2 0.11447224E+00 0.11786969E+04</pdfrwt>
<pdfrwt beam="2">  1       -2 0.32340457E+00 0.11786969E+04</pdfrwt>
<totfact> 0.85220112E-01</totfact>
</mgrwt>
</event>
<event>
 4    5  0.6615028E-008  0.8812499E+03  0.7818608E-02  0.9556828E-01
          2   -1    0    0  501    0  0.00000000000E+00  0.00000000000E+00  0.22409111289E+04  0.22409111289E+04  0.25500000000E-02 0. -1.
         -2   -1    0    0    0  501 -0.00000000000E+00 -0.00000000000E+00 -0.46080248331E+03  0.46080248332E+03  0.25500000000E-02 0.  1.
    8880023    1    1    2    0    0  0.11973048908E+03  0.57311055161E+03  0.18912265826E+04  0.20864657407E+04  0.65864270000E+03 0.  0.
    8880022    1    1    2    0    0 -0.11973048908E+03 -0.57311055161E+03 -0.11111793701E+03  0.61524787145E+03  0.15294330000E+03 0.  0.
<mgrwt>
<rscale>  0 0.80220715E+03</rscale>
<asrwt>0</asrwt>
<pdfrwt beam="1">  1        2 0.34475555E+00 0.88124985E+03</pdfrwt>
<pdfrwt beam="2">  1       -2 0.70892691E-01 0.88124985E+03</pdfrwt>
<totfact> 0.90451700E+00</totfact>
</mgrwt>
</event>
<event>
 4    5  0.6615028E-008  0.8395844E+03  0.7818608E-02  0.9630964E-01
          2   -1    0    0  501    0  0.00000000000E+00  0.00000000000E+00  0.28634905169E+04  0.28634905169E+04  0.25500000000E-02 0. -1.
         -2   -1    0    0    0  501 -0.00000000000E+00 -0.00000000000E+00 -0.22560057598E+03  0.22560057599E+03  0.25500000000E-02 0.  1.
    8880023    1    1    2    0    0 -0.24633634238E+03 -0.45870488064E+03  0.23033491381E+04  0.24515952397E+04  0.65864270000E+03 0. -1.
    8880022    1    1    2    0    0  0.24633634238E+03  0.45870488064E+03  0.33454080289E+03  0.63749585325E+03  0.15294330000E+03 0.  0.
<mgrwt>
<rscale>  0 0.75280219E+03</rscale>
<asrwt>0</asrwt>
<pdfrwt beam="1">  1        2 0.44053699E+00 0.83958440E+03</pdfrwt>
<pdfrwt beam="2">  1       -2 0.34707782E-01 0.83958440E+03</pdfrwt>
<totfact> 0.17151197E+01</totfact>
</mgrwt>
</event>
<event>
 4    5  0.6615028E-008  0.9925322E+03  0.7818608E-02  0.9391394E-01
         -2   -1    0    0    0  501 -0.00000000000E+00  0.00000000000E+00  0.67460956743E+03  0.67460956744E+03  0.25500000000E-02 0.  1.
          2   -1    0    0  501    0  0.00000000000E+00 -0.00000000000E+00 -0.17342411558E+04  0.17342411558E+04  0.25500000000E-02 0. -1.
    8880023    1    1    2    0    0  0.19178360296E+03 -0.71730674252E+03 -0.12796742591E+04  0.16194710028E+04  0.65864270000E+03 0.  0.
    8880022    1    1    2    0    0 -0.19178360296E+03  0.71730674252E+03  0.22004267066E+03  0.78937972051E+03  0.15294330000E+03 0.  0.
<mgrwt>
<rscale>  0 0.92787344E+03</rscale>
<asrwt>0</asrwt>
<pdfrwt beam="1">  1        2 0.26680633E+00 0.99253218E+03</pdfrwt>
<pdfrwt beam="2">  1       -2 0.10378609E+00 0.99253218E+03</pdfrwt>
<totfact> 0.70803855E+00</totfact>
</mgrwt>
</event>
<event>
 4    5  0.6615028E-008  0.8734124E+03  0.7818608E-02  0.9570137E-01
          2   -1    0    0  501    0  0.00000000000E+00  0.00000000000E+00  0.23860673441E+04  0.23860673441E+04  0.25500000000E-02 0. -1.
         -2   -1    0    0    0  501 -0.00000000000E+00 -0.00000000000E+00 -0.35095795457E+03  0.35095795457E+03  0.25500000000E-02 0.  1.
    8880023    1    1    2    0    0  0.53217061204E+03 -0.21408767870E+03  0.19508152842E+04  0.21374118868E+04  0.65864270000E+03 0.  0.
    8880022    1    1    2    0    0 -0.53217061204E+03  0.21408767870E+03  0.84294105329E+02  0.59961341187E+03  0.15294330000E+03 0.  0.
<mgrwt>
<rscale>  0 0.79304669E+03</rscale>
<asrwt>0</asrwt>
<pdfrwt beam="1">  1        2 0.36708730E+00 0.87341245E+03</pdfrwt>
<pdfrwt beam="2">  1       -2 0.53993528E-01 0.87341245E+03</pdfrwt>
<totfact> 0.13420906E+01</totfact>
</mgrwt>
</event>
<event>
 4    5  0.6615028E-008  0.1071822E+04  0.7818608E-02  0.9293097E-01
         -2   -1    0    0    0  501 -0.00000000000E+00  0.00000000000E+00  0.53901979828E+03  0.53901979829E+03  0.25500000000E-02 0.  1.
          2   -1    0    0  501    0  0.00000000000E+00 -0.00000000000E+00 -0.35226040770E+04  0.35226040770E+04  0.25500000000E-02 0. -1.
    8880023    1    1    2    0    0  0.27400027466E+03  0.79994716171E+03 -0.30169486488E+04  0.32016840831E+04  0.65864270000E+03 0.  0.
    8880022    1    1    2    0    0 -0.27400027466E+03 -0.79994716171E+03  0.33364370075E+02  0.85993979222E+03  0.15294330000E+03 0.  0.
<mgrwt>
<rscale>  0 0.10142083E+04</rscale>
<asrwt>0</asrwt>
<pdfrwt beam="1">  1        2 0.54193908E+00 0.10718217E+04</pdfrwt>
<pdfrwt beam="2">  1       -2 0.82926125E-01 0.10718217E+04</pdfrwt>
<totfact> 0.10221354E+00</totfact>
</mgrwt>
</event>
<event>
 4    5  0.6615028E-008  0.7599257E+03  0.7818608E-02  0.9805300E-01
          2   -1    0    0  501    0  0.00000000000E+00  0.00000000000E+00  0.10721401808E+04  0.10721401808E+04  0.25500000000E-02 0. -1.
         -2   -1    0    0    0  501 -0.00000000000E+00 -0.00000000000E+00 -0.77589197213E+03  0.77589197213E+03  0.25500000000E-02 0.  1.
    8880023    1    1    2    0    0 -0.35518663589E+03 -0.13236065156E+03  0.86259691427E+03  0.11495914627E+04  0.65864270000E+03 0. -1.
    8880022    1    1    2    0    0  0.35518663589E+03  0.13236065156E+03 -0.56634870560E+03  0.69844069021E+03  0.15294330000E+03 0.  1.
<mgrwt>
<rscale>  0 0.65078898E+03</rscale>
<asrwt>0</asrwt>
<pdfrwt beam="1">  1        2 0.16494464E+00 0.75992572E+03</pdfrwt>
<pdfrwt beam="2">  1       -2 0.11936800E+00 0.75992572E+03</pdfrwt>
<totfact> 0.12401698E+01</totfact>
</mgrwt>
</event>
<event>
 4    5  0.6615028E-008  0.1127443E+04  0.7818608E-02  0.9231100E-01
         -2   -1    0    0    0  501 -0.00000000000E+00  0.00000000000E+00  0.90398026936E+03  0.90398026936E+03  0.25500000000E-02 0.  1.
          2   -1    0    0  501    0  0.00000000000E+00 -0.00000000000E+00 -0.14450404973E+04  0.14450404973E+04  0.25500000000E-02 0. -1.
    8880023    1    1    2    0    0 -0.89975237257E+03 -0.16662238625E+03 -0.80397820007E+03  0.13847413130E+04  0.65864270000E+03 0.  0.
    8880022    1    1    2    0    0  0.89975237257E+03  0.16662238625E+03  0.26291797216E+03  0.96427945361E+03  0.15294330000E+03 0.  0.
<mgrwt>
<rscale>  0 0.10738113E+04</rscale>
<asrwt>0</asrwt>
<pdfrwt beam="1">  1        2 0.22231392E+00 0.11274429E+04</pdfrwt>
<pdfrwt beam="2">  1       -2 0.13907389E+00 0.11274429E+04</pdfrwt>
<totfact> 0.48824986E+00</totfact>
</mgrwt>
</event>
<event>
 4    5  0.6615028E-008  0.1504193E+04  0.7818608E-02  0.8906681E-01
         -2   -1    0    0    0  501 -0.00000000000E+00  0.00000000000E+00  0.88896535869E+03  0.88896535870E+03  0.25500000000E-02 0.  1.
          2   -1    0    0  501    0  0.00000000000E+00 -0.00000000000E+00 -0.32381550273E+04  0.32381550273E+04  0.25500000000E-02 0. -1.
    8880023    1    1    2    0    0 -0.22539971305E+03  0.13334098662E+04 -0.23211012617E+04  0.27658828926E+04  0.65864270000E+03 0.  0.
    8880022    1    1    2    0    0  0.22539971305E+03 -0.13334098662E+04 -0.28088406933E+02  0.13612374935E+04  0.15294330000E+03 0.  0.
<mgrwt>
<rscale>  0 0.14670269E+04</rscale>
<asrwt>0</asrwt>
<pdfrwt beam="1">  1        2 0.49817769E+00 0.15041932E+04</pdfrwt>
<pdfrwt beam="2">  1       -2 0.13676390E+00 0.15041932E+04</pdfrwt>
<totfact> 0.44450100E-01</totfact>
</mgrwt>
</event>
<event>
 4    5  0.6615028E-008  0.7163786E+03  0.7818608E-02  0.9935035E-01
         -2   -1    0    0    0  501 -0.00000000000E+00  0.00000000000E+00  0.47977788695E+03  0.47977788695E+03  0.25500000000E-02 0.  1.
          2   -1    0    0  501    0  0.00000000000E+00 -0.00000000000E+00 -0.89063694632E+03  0.89063694632E+03  0.25500000000E-02 0. -1.
    8880023    1    1    2    0    0  0.21001212870E+03 -0.18783776331E+03 -0.65246719590E+03  0.96897459591E+03  0.65864270000E+03 0. -1.
    8880022    1    1    2    0    0 -0.21001212870E+03  0.18783776331E+03  0.24160813653E+03  0.40144023737E+03  0.15294330000E+03 0.  0.
<mgrwt>
<rscale>  0 0.58592957E+03</rscale>
<asrwt>0</asrwt>
<pdfrwt beam="1">  1        2 0.13702107E+00 0.71637862E+03</pdfrwt>
<pdfrwt beam="2">  1       -2 0.73811983E-01 0.71637862E+03</pdfrwt>
<totfact> 0.50075022E+01</totfact>
</mgrwt>
</event>
<event>
 4    5  0.6615028E-008  0.1004971E+04  0.7818608E-02  0.9375083E-01
         -2   -1    0    0    0  501 -0.00000000000E+00  0.00000000000E+00  0.21204204500E+03  0.21204204501E+03  0.25500000000E-02 0.  1.
          2   -1    0    0  501    0  0.00000000000E+00 -0.00000000000E+00 -0.47385884408E+04  0.47385884408E+04  0.25500000000E-02 0. -1.
    8880023    1    1    2    0    0 -0.75513794987E+03 -0.76956328277E+02 -0.36273706636E+04  0.37640116548E+04  0.65864270000E+03 0. -1.
    8880022    1    1    2    0    0  0.75513794987E+03  0.76956328277E+02 -0.89917573219E+03  0.11866188310E+04  0.15294330000E+03 0.  0.
<mgrwt>
<rscale>  0 0.94154900E+03</rscale>
<asrwt>0</asrwt>
<pdfrwt beam="1">  1        2 0.72901353E+00 0.10049705E+04</pdfrwt>
<pdfrwt beam="2">  1       -2 0.32621857E-01 0.10049705E+04</pdfrwt>
<totfact> 0.66360964E-01</totfact>
</mgrwt>
</event>
<event>
 4    5  0.6615028E-008  0.8306023E+03  0.7818608E-02  0.9648162E-01
          2   -1    0    0  501    0  0.00000000000E+00  0.00000000000E+00  0.16173916106E+04  0.16173916106E+04  0.25500000000E-02 0. -1.
         -2   -1    0    0    0  501 -0.00000000000E+00 -0.00000000000E+00 -0.19057335386E+04  0.19057335386E+04  0.25500000000E-02 0.  1.
    8880023    1    1    2    0    0 -0.50031854893E+03  0.75969339771E+02  0.14692331376E+04  0.16877636712E+04  0.65864270000E+03 0.  0.
    8880022    1    1    2    0    0  0.50031854893E+03 -0.75969339771E+02 -0.17575750655E+04  0.18353614780E+04  0.15294330000E+03 0.  1.
<mgrwt>
<rscale>  0 0.74188914E+03</rscale>
<asrwt>0</asrwt>
<pdfrwt beam="1">  1        2 0.24882948E+00 0.83060231E+03</pdfrwt>
<pdfrwt beam="2">  1       -2 0.29318978E+00 0.83060231E+03</pdfrwt>
<totfact> 0.39569427E-01</totfact>
</mgrwt>
</event>
<event>
 4    5  0.6615028E-008  0.1166972E+04  0.7818608E-02  0.9189916E-01
          2   -1    0    0  501    0  0.00000000000E+00  0.00000000000E+00  0.30718308942E+04  0.30718308942E+04  0.25500000000E-02 0. -1.
         -2   -1    0    0    0  501 -0.00000000000E+00 -0.00000000000E+00 -0.55024014347E+03  0.55024014348E+03  0.25500000000E-02 0.  1.
    8880023    1    1    2    0    0  0.75601952706E+03 -0.59703304948E+03  0.23608406431E+04  0.26335133825E+04  0.65864270000E+03 0.  0.
    8880022    1    1    2    0    0 -0.75601952706E+03  0.59703304948E+03  0.16075010762E+03  0.98855765516E+03  0.15294330000E+03 0.  0.
<mgrwt>
<rscale>  0 0.11158122E+04</rscale>
<asrwt>0</asrwt>
<pdfrwt beam="1">  1        2 0.47258938E+00 0.11669722E+04</pdfrwt>
<pdfrwt beam="2">  1       -2 0.84652328E-01 0.11669722E+04</pdfrwt>
<totfact> 0.19044442E+00</totfact>
</mgrwt>
</event>
<event>
 4    5  0.6615028E-008  0.1441370E+04  0.7818608E-02  0.8952186E-01
          2   -1    0    0  501    0  0.00000000000E+00  0.00000000000E+00  0.17346241866E+04  0.17346241866E+04  0.25500000000E-02 0. -1.
         -2   -1    0    0    0  501 -0.00000000000E+00 -0.00000000000E+00 -0.11862785577E+04  0.11862785577E+04  0.25500000000E-02 0.  1.
    8880023    1    1    2    0    0 -0.74757711229E+03  0.10415694416E+04  0.73223573386E+03  0.16166996680E+04  0.65864270000E+03 0.  0.
    8880022    1    1    2    0    0  0.74757711229E+03 -0.10415694416E+04 -0.18389010500E+03  0.13042030763E+04  0.15294330000E+03 0.  0.
<mgrwt>
<rscale>  0 0.14022579E+04</rscale>
<asrwt>0</asrwt>
<pdfrwt beam="1">  1        2 0.26686526E+00 0.14413704E+04</pdfrwt>
<pdfrwt beam="2">  1       -2 0.18250439E+00 0.14413704E+04</pdfrwt>
<totfact> 0.15481674E+00</totfact>
</mgrwt>
</event>
<event>
 4    5  0.6615028E-008  0.8643760E+03  0.7818608E-02  0.9585826E-01
          2   -1    0    0  501    0  0.00000000000E+00  0.00000000000E+00  0.85243038589E+03  0.85243038589E+03  0.25500000000E-02 0. -1.
         -2   -1    0    0    0  501 -0.00000000000E+00 -0.00000000000E+00 -0.13164912399E+04  0.13164912399E+04  0.25500000000E-02 0.  1.
    8880023    1    1    2    0    0 -0.29997391899E+03 -0.47260063274E+03  0.53285327559E+03  0.10154203709E+04  0.65864270000E+03 0.  0.
    8880022    1    1    2    0    0  0.29997391899E+03  0.47260063274E+03 -0.99691412957E+03  0.11535012548E+04  0.15294330000E+03 0.  0.
<mgrwt>
<rscale>  0 0.78241440E+03</rscale>
<asrwt>0</asrwt>
<pdfrwt beam="1">  1        2 0.13114314E+00 0.86437603E+03</pdfrwt>
<pdfrwt beam="2">  1       -2 0.20253711E+00 0.86437603E+03</pdfrwt>
<totfact> 0.40785313E+00</totfact>
</mgrwt>
</event>
<event>
 4    5  0.6615028E-008  0.8595877E+03  0.7818608E-02  0.9594297E-01
          2   -1    0    0  501    0  0.00000000000E+00  0.00000000000E+00  0.26466432295E+04  0.26466432295E+04  0.25500000000E-02 0. -1.
         -2   -1    0    0    0  501 -0.00000000000E+00 -0.00000000000E+00 -0.49126084977E+03  0.49126084977E+03  0.25500000000E-02 0.  1.
    8880023    1    1    2    0    0 -0.54872808001E+03  0.63073562514E+02  0.23737444300E+04  0.25245897895E+04  0.65864270000E+03 0.  0.
    8880022    1    1    2    0    0  0.54872808001E+03 -0.63073562514E+02 -0.21836205023E+03  0.61331428980E+03  0.15294330000E+03 0.  0.
<mgrwt>
<rscale>  0 0.77674775E+03</rscale>
<asrwt>0</asrwt>
<pdfrwt beam="1">  1        2 0.40717586E+00 0.85958768E+03</pdfrwt>
<pdfrwt beam="2">  1       -2 0.75578596E-01 0.85958768E+03</pdfrwt>
<totfact> 0.46398235E+00</totfact>
</mgrwt>
</event>
<event>
 4    5  0.6615028E-008  0.8143126E+03  0.7818608E-02  0.9680663E-01
         -2   -1    0    0    0  501 -0.00000000000E+00  0.00000000000E+00  0.13444715786E+04  0.13444715786E+04  0.25500000000E-02 0.  1.
          2   -1    0    0  501    0  0.00000000000E+00 -0.00000000000E+00 -0.38147911610E+03  0.38147911610E+03  0.25500000000E-02 0. -1.
    8880023    1    1    2    0    0  0.46508253776E+02  0.47658348924E+03  0.24667940750E+03  0.85085590803E+03  0.65864270000E+03 0. -1.
    8880022    1    1    2    0    0 -0.46508253776E+02 -0.47658348924E+03  0.71631305503E+03  0.87509478670E+03  0.15294330000E+03 0.  0.
<mgrwt>
<rscale>  0 0.72179875E+03</rscale>
<asrwt>0</asrwt>
<pdfrwt beam="1">  1        2 0.58689094E-01 0.81431262E+03</pdfrwt>
<pdfrwt beam="2">  1       -2 0.20684178E+00 0.81431262E+03</pdfrwt>
<totfact> 0.10199265E+01</totfact>
</mgrwt>
</event>
<event>
 4    5  0.6615028E-008  0.7154849E+03  0.7818608E-02  0.9938170E-01
         -2   -1    0    0    0  501 -0.00000000000E+00  0.00000000000E+00  0.24054835791E+04  0.24054835791E+04  0.25500000000E-02 0.  1.
          2   -1    0    0  501    0  0.00000000000E+00 -0.00000000000E+00 -0.21033048996E+03  0.21033048997E+03  0.25500000000E-02 0. -1.
    8880023    1    1    2    0    0  0.26657534869E+03  0.83940979866E+02  0.45761996768E+03  0.84931427970E+03  0.65864270000E+03 0. -1.
    8880022    1    1    2    0    0 -0.26657534869E+03 -0.83940979866E+02  0.17375331214E+04  0.17664997893E+04  0.15294330000E+03 0.  0.
<mgrwt>
<rscale>  0 0.58446528E+03</rscale>
<asrwt>0</asrwt>
<pdfrwt beam="1">  1        2 0.32358537E-01 0.71548495E+03</pdfrwt>
<pdfrwt beam="2">  1       -2 0.37007439E+00 0.71548495E+03</pdfrwt>
<totfact> 0.20107893E+00</totfact>
</mgrwt>
</event>
<event>
 4    5  0.6615028E-008  0.8072185E+03  0.7818608E-02  0.9695400E-01
          2   -1    0    0  501    0  0.00000000000E+00  0.00000000000E+00  0.99975964214E+03  0.99975964214E+03  0.25500000000E-02 0. -1.
         -2   -1    0    0    0  501 -0.00000000000E+00 -0.00000000000E+00 -0.71130742541E+03  0.71130742542E+03  0.25500000000E-02 0.  1.
    8880023    1    1    2    0    0  0.29115201749E+03  0.36472179123E+03 -0.37136466555E+03  0.88854566758E+03  0.65864270000E+03 0.  0.
    8880022    1    1    2    0    0 -0.29115201749E+03 -0.36472179123E+03  0.65981688227E+03  0.82252139999E+03  0.15294330000E+03 0.  0.
<mgrwt>
<rscale>  0 0.71291326E+03</rscale>
<asrwt>0</asrwt>
<pdfrwt beam="1">  1        2 0.15380918E+00 0.80721849E+03</pdfrwt>
<pdfrwt beam="2">  1       -2 0.10943191E+00 0.80721849E+03</pdfrwt>
<totfact> 0.16942975E+01</totfact>
</mgrwt>
</event>
<event>
 4    5  0.6615028E-008  0.1236143E+04  0.7818608E-02  0.9122765E-01
         -2   -1    0    0    0  501 -0.00000000000E+00  0.00000000000E+00  0.11051151191E+04  0.11051151191E+04  0.25500000000E-02 0.  1.
          2   -1    0    0  501    0  0.00000000000E+00 -0.00000000000E+00 -0.18318091667E+04  0.18318091667E+04  0.25500000000E-02 0. -1.
    8880023    1    1    2    0    0  0.51281387000E+03  0.91173564213E+03 -0.12494090451E+04  0.17575759200E+04  0.65864270000E+03 0.  0.
    8880022    1    1    2    0    0 -0.51281387000E+03 -0.91173564213E+03  0.52271499748E+03  0.11793483658E+04  0.15294330000E+03 0.  0.
<mgrwt>
<rscale>  0 0.11887456E+04</rscale>
<asrwt>0</asrwt>
<pdfrwt beam="1">  1        2 0.28181679E+00 0.12361433E+04</pdfrwt>
<pdfrwt beam="2">  1       -2 0.17001771E+00 0.12361433E+04</pdfrwt>
<totfact> 0.17077360E+00</totfact>
</mgrwt>
</event>
<event>
 4    5  0.6615028E-008  0.7407788E+03  0.7818608E-02  0.9857684E-01
          2   -1    0    0  501    0  0.00000000000E+00  0.00000000000E+00  0.59673961670E+03  0.59673961671E+03  0.25500000000E-02 0. -1.
         -2   -1    0    0    0  501 -0.00000000000E+00 -0.00000000000E+00 -0.72234590836E+03  0.72234590836E+03  0.25500000000E-02 0.  1.
    8880023    1    1    2    0    0  0.31731838220E+03 -0.11938174760E+03 -0.41384164955E+03  0.84853878786E+03  0.65864270000E+03 0.  0.
    8880022    1    1    2    0    0 -0.31731838220E+03  0.11938174760E+03  0.28823535790E+03  0.47054673721E+03  0.15294330000E+03 0.  0.
<mgrwt>
<rscale>  0 0.62356646E+03</rscale>
<asrwt>0</asrwt>
<pdfrwt beam="1">  1        2 0.91806095E-01 0.74077875E+03</pdfrwt>
<pdfrwt beam="2">  1       -2 0.11113014E+00 0.74077875E+03</pdfrwt>
<totfact> 0.32428119E+01</totfact>
</mgrwt>
</event>
<event>
 4    5  0.6615028E-008  0.1843264E+04  0.7818608E-02  0.8698974E-01
          2   -1    0    0  501    0  0.00000000000E+00  0.00000000000E+00  0.32177423246E+04  0.32177423246E+04  0.25500000000E-02 0. -1.
         -2   -1    0    0    0  501 -0.00000000000E+00 -0.00000000000E+00 -0.18003997279E+04  0.18003997279E+04  0.25500000000E-02 0.  1.
    8880023    1    1    2    0    0 -0.13110584062E+04 -0.11157677990E+04  0.24029624858E+04  0.30285063711E+04  0.65864270000E+03 0.  0.
    8880022    1    1    2    0    0  0.13110584062E+04  0.11157677990E+04 -0.98561988915E+03  0.19896356814E+04  0.15294330000E+03 0.  1.
<mgrwt>
<rscale>  0 0.18138391E+04</rscale>
<asrwt>0</asrwt>
<pdfrwt beam="1">  1        2 0.49503728E+00 0.18432640E+04</pdfrwt>
<pdfrwt beam="2">  1       -2 0.27698457E+00 0.18432640E+04</pdfrwt>
<totfact> 0.50000155E-02</totfact>
</mgrwt>
</event>
<event>
 4    5  0.6615028E-008  0.7373966E+03  0.7818608E-02  0.9867597E-01
          2   -1    0    0  501    0  0.00000000000E+00  0.00000000000E+00  0.92673338066E+03  0.92673338066E+03  0.25500000000E-02 0. -1.
         -2   -1    0    0    0  501 -0.00000000000E+00 -0.00000000000E+00 -0.24054677527E+04  0.24054677528E+04  0.25500000000E-02 0.  1.
    8880023    1    1    2    0    0  0.29401612067E+03 -0.15329073238E+03  0.76289865176E+03  0.10610221897E+04  0.65864270000E+03 0.  0.
    8880022    1    1    2    0    0 -0.29401612067E+03  0.15329073238E+03 -0.22416330239E+04  0.22711789437E+04  0.15294330000E+03 0.  0.
<mgrwt>
<rscale>  0 0.61857724E+03</rscale>
<asrwt>0</asrwt>
<pdfrwt beam="1">  1        2 0.14257437E+00 0.73739659E+03</pdfrwt>
<pdfrwt beam="2">  1       -2 0.37007196E+00 0.73739659E+03</pdfrwt>
<totfact> 0.34763033E-01</totfact>
</mgrwt>
</event>
<event>
 4    5  0.6615028E-008  0.1877044E+04  0.7818608E-02  0.8681075E-01
          2   -1    0    0  501    0  0.00000000000E+00  0.00000000000E+00  0.17893185285E+04  0.17893185285E+04  0.25500000000E-02 0. -1.
         -2   -1    0    0    0  501 -0.00000000000E+00 -0.00000000000E+00 -0.20024263519E+04  0.20024263519E+04  0.25500000000E-02 0.  1.
    8880023    1    1    2    0    0  0.17187642925E+04  0.36787426643E+03  0.40874060905E+03  0.19210313013E+04  0.65864270000E+03 0.  0.
    8880022    1    1    2    0    0 -0.17187642925E+04 -0.36787426643E+03 -0.62184843240E+03  0.18707135791E+04  0.15294330000E+03 0.  0.
<mgrwt>
<rscale>  0 0.18482084E+04</rscale>
<asrwt>0</asrwt>
<pdfrwt beam="1">  1        2 0.27527977E+00 0.18770435E+04</pdfrwt>
<pdfrwt beam="2">  1       -2 0.30806559E+00 0.18770435E+04</pdfrwt>
<totfact> 0.22405959E-01</totfact>
</mgrwt>
</event>
<event>
 4    5  0.6615028E-008  0.1021841E+04  0.7818608E-02  0.9353525E-01
          2   -1    0    0  501    0  0.00000000000E+00  0.00000000000E+00  0.18314438278E+04  0.18314438278E+04  0.25500000000E-02 0. -1.
         -2   -1    0    0    0  501 -0.00000000000E+00 -0.00000000000E+00 -0.52161158622E+03  0.52161158622E+03  0.25500000000E-02 0.  1.
    8880023    1    1    2    0    0 -0.53281065430E+03 -0.57136824701E+03  0.11548634395E+04  0.15420339287E+04  0.65864270000E+03 0. -1.
    8880022    1    1    2    0    0  0.53281065430E+03  0.57136824701E+03  0.15496880205E+03  0.81102148532E+03  0.15294330000E+03 0.  0.
<mgrwt>
<rscale>  0 0.96001150E+03</rscale>
<asrwt>0</asrwt>
<pdfrwt beam="1">  1        2 0.28176059E+00 0.10218410E+04</pdfrwt>
<pdfrwt beam="2">  1       -2 0.80247937E-01 0.10218410E+04</pdfrwt>
<totfact> 0.11352746E+01</totfact>
</mgrwt>
</event>
<event>
 4    5  0.6615028E-008  0.7262511E+03  0.7818608E-02  0.9901975E-01
         -2   -1    0    0    0  501 -0.00000000000E+00  0.00000000000E+00  0.30842026562E+04  0.30842026562E+04  0.25500000000E-02 0.  1.
          2   -1    0    0  501    0  0.00000000000E+00 -0.00000000000E+00 -0.11774502349E+04  0.11774502349E+04  0.25500000000E-02 0. -1.
    8880023    1    1    2    0    0  0.39469388206E+02  0.30343472802E+03 -0.10546718411E+04  0.12805363585E+04  0.65864270000E+03 0.  0.
    8880022    1    1    2    0    0 -0.39469388206E+02 -0.30343472802E+03  0.29614242624E+04  0.29811165327E+04  0.15294330000E+03 0.  0.
<mgrwt>
<rscale>  0 0.60165648E+03</rscale>
<asrwt>0</asrwt>
<pdfrwt beam="1">  1        2 0.18114619E+00 0.72625111E+03</pdfrwt>
<pdfrwt beam="2">  1       -2 0.47449271E+00 0.72625111E+03</pdfrwt>
<totfact> 0.50512477E-02</totfact>
</mgrwt>
</event>
<event>
 4    5  0.6615028E-008  0.7460177E+03  0.7818608E-02  0.9842752E-01
          2   -1    0    0  501    0  0.00000000000E+00  0.00000000000E+00  0.11860360182E+04  0.11860360182E+04  0.25500000000E-02 0. -1.
         -2   -1    0    0    0  501 -0.00000000000E+00 -0.00000000000E+00 -0.37721202080E+03  0.37721202081E+03  0.25500000000E-02 0.  1.
    8880023    1    1    2    0    0  0.12461316427E+03  0.32741993878E+03  0.90126664893E+03  0.11699675362E+04  0.65864270000E+03 0.  0.
    8880022    1    1    2    0    0 -0.12461316427E+03 -0.32741993878E+03 -0.92442651566E+02  0.39328050278E+03  0.15294330000E+03 0.  0.
<mgrwt>
<rscale>  0 0.63117825E+03</rscale>
<asrwt>0</asrwt>
<pdfrwt beam="1">  1        2 0.18246708E+00 0.74601774E+03</pdfrwt>
<pdfrwt beam="2">  1       -2 0.58032618E-01 0.74601774E+03</pdfrwt>
<totfact> 0.54604372E+01</totfact>
</mgrwt>
</event>
<event>
 4    5  0.6615028E-008  0.9426548E+03  0.7818608E-02  0.9460762E-01
         -2   -1    0    0    0  501 -0.00000000000E+00  0.00000000000E+00  0.98747187117E+03  0.98747187118E+03  0.25500000000E-02 0.  1.
          2   -1    0    0  501    0  0.00000000000E+00 -0.00000000000E+00 -0.89414653783E+03  0.89414653784E+03  0.25500000000E-02 0. -1.
    8880023    1    1    2    0    0 -0.28793479626E+03  0.60982078862E+03  0.51252056917E+03  0.10729750143E+04  0.65864270000E+03 0.  0.
    8880022    1    1    2    0    0  0.28793479626E+03 -0.60982078862E+03 -0.41919523583E+03  0.80864339476E+03  0.15294330000E+03 0.  0.
<mgrwt>
<rscale>  0 0.87239542E+03</rscale>
<asrwt>0</asrwt>
<pdfrwt beam="1">  1        2 0.13756101E+00 0.94265479E+03</pdfrwt>
<pdfrwt beam="2">  1       -2 0.15191875E+00 0.94265479E+03</pdfrwt>
<totfact> 0.85434929E+00</totfact>
</mgrwt>
</event>
<event>
 4    5  0.6615028E-008  0.8512058E+03  0.7818608E-02  0.9609402E-01
         -2   -1    0    0    0  501 -0.00000000000E+00  0.00000000000E+00  0.14287651026E+04  0.14287651026E+04  0.25500000000E-02 0.  1.
          2   -1    0    0  501    0  0.00000000000E+00 -0.00000000000E+00 -0.10986037658E+04  0.10986037658E+04  0.25500000000E-02 0. -1.
    8880023    1    1    2    0    0 -0.35093070015E+03 -0.40937602317E+03 -0.86112555176E+03  0.12108214182E+04  0.65864270000E+03 0. -1.
    8880022    1    1    2    0    0  0.35093070015E+03  0.40937602317E+03  0.11912868885E+04  0.13165474501E+04  0.15294330000E+03 0.  0.
<mgrwt>
<rscale>  0 0.76676993E+03</rscale>
<asrwt>0</asrwt>
<pdfrwt beam="1">  1        2 0.16901596E+00 0.85120579E+03</pdfrwt>
<pdfrwt beam="2">  1       -2 0.21981001E+00 0.85120579E+03</pdfrwt>
<totfact> 0.21920485E+00</totfact>
</mgrwt>
</event>
<event>
 4    5  0.6615028E-008  0.7056020E+03  0.7818608E-02  0.9974710E-01
          2   -1    0    0  501    0  0.00000000000E+00  0.00000000000E+00  0.36045963105E+04  0.36045963105E+04  0.25500000000E-02 0. -1.
         -2   -1    0    0    0  501 -0.00000000000E+00 -0.00000000000E+00 -0.27080474387E+03  0.27080474388E+03  0.25500000000E-02 0.  1.
    8880023    1    1    2    0    0 -0.24290835101E+03 -0.71130481752E+02  0.34762570399E+04  0.35471449401E+04  0.65864270000E+03 0. -1.
    8880022    1    1    2    0    0  0.24290835101E+03  0.71130481752E+02 -0.14246547331E+03  0.32825611423E+03  0.15294330000E+03 0.  0.
<mgrwt>
<rscale>  0 0.56773198E+03</rscale>
<asrwt>0</asrwt>
<pdfrwt beam="1">  1        2 0.55455321E+00 0.70560203E+03</pdfrwt>
<pdfrwt beam="2">  1       -2 0.41662274E-01 0.70560203E+03</pdfrwt>
<totfact> 0.41126856E+00</totfact>
</mgrwt>
</event>
<event>
 4    5  0.6615028E-008  0.1163929E+04  0.7818608E-02  0.9193009E-01
          2   -1    0    0  501    0  0.00000000000E+00  0.00000000000E+00  0.10451145213E+04  0.10451145213E+04  0.25500000000E-02 0. -1.
         -2   -1    0    0    0  501 -0.00000000000E+00 -0.00000000000E+00 -0.23121971412E+04  0.23121971412E+04  0.25500000000E-02 0.  1.
    8880023    1    1    2    0    0  0.29177215089E+03  0.91421524441E+03  0.55714328537E+03  0.12904027851E+04  0.65864270000E+03 0.  0.
    8880022    1    1    2    0    0 -0.29177215089E+03 -0.91421524441E+03 -0.18242259053E+04  0.20669088774E+04  0.15294330000E+03 0.  0.
<mgrwt>
<rscale>  0 0.11125879E+04</rscale>
<asrwt>0</asrwt>
<pdfrwt beam="1">  1        2 0.16078685E+00 0.11639290E+04</pdfrwt>
<pdfrwt beam="2">  1       -2 0.35572264E+00 0.11639290E+04</pdfrwt>
<totfact> 0.33331112E-01</totfact>
</mgrwt>
</event>
<event>
 4    5  0.6615028E-008  0.6880352E+03  0.7818608E-02  0.1005101E+00
          2   -1    0    0  501    0  0.00000000000E+00  0.00000000000E+00  0.11713072178E+04  0.11713072178E+04  0.25500000000E-02 0. -1.
         -2   -1    0    0    0  501 -0.00000000000E+00 -0.00000000000E+00 -0.38217514338E+03  0.38217514339E+03  0.25500000000E-02 0.  1.
    8880023    1    1    2    0    0 -0.58767734709E+02  0.19007517905E+03  0.10080454611E+04  0.12204704331E+04  0.65864270000E+03 0. -1.
    8880022    1    1    2    0    0  0.58767734709E+02 -0.19007517905E+03 -0.21891338667E+03  0.33301192803E+03  0.15294330000E+03 0.  0.
<mgrwt>
<rscale>  0 0.53469120E+03</rscale>
<asrwt>0</asrwt>
<pdfrwt beam="1">  1        2 0.18020111E+00 0.68803519E+03</pdfrwt>
<pdfrwt beam="2">  1       -2 0.58796176E-01 0.68803519E+03</pdfrwt>
<totfact> 0.54512436E+01</totfact>
</mgrwt>
</event>
<event>
 4    5  0.6615028E-008  0.7541184E+03  0.7818608E-02  0.9820579E-01
          2   -1    0    0  501    0  0.00000000000E+00  0.00000000000E+00  0.66952648086E+03  0.66952648086E+03  0.25500000000E-02 0. -1.
         -2   -1    0    0    0  501 -0.00000000000E+00 -0.00000000000E+00 -0.88075357549E+03  0.88075357549E+03  0.25500000000E-02 0.  1.
    8880023    1    1    2    0    0 -0.23811923965E+03 -0.27961328083E+03  0.37468011817E+03  0.84206873610E+03  0.65864270000E+03 0.  0.
    8880022    1    1    2    0    0  0.23811923965E+03  0.27961328083E+03 -0.58590721280E+03  0.70821132025E+03  0.15294330000E+03 0.  0.
<mgrwt>
<rscale>  0 0.64269740E+03</rscale>
<asrwt>0</asrwt>
<pdfrwt beam="1">  1        2 0.10300407E+00 0.75411840E+03</pdfrwt>
<pdfrwt beam="2">  1       -2 0.13550055E+00 0.75411840E+03</pdfrwt>
<totfact> 0.17167475E+01</totfact>
</mgrwt>
</event>
<event>
 4    5  0.6615028E-008  0.1369840E+04  0.7818608E-02  0.9007479E-01
          2   -1    0    0  501    0  0.00000000000E+00  0.00000000000E+00  0.14567860193E+04  0.14567860193E+04  0.25500000000E-02 0. -1.
         -2   -1    0    0    0  501 -0.00000000000E+00 -0.00000000000E+00 -0.20143856187E+04  0.20143856187E+04  0.25500000000E-02 0.  1.
    8880023    1    1    2    0    0  0.76903883147E+03 -0.92262188852E+03  0.85181167348E+03  0.16130856167E+04  0.65864270000E+03 0.  0.
    8880022    1    1    2    0    0 -0.76903883147E+03  0.92262188852E+03 -0.14094112729E+04  0.18580860213E+04  0.15294330000E+03 0.  0.
<mgrwt>
<rscale>  0 0.13282223E+04</rscale>
<asrwt>0</asrwt>
<pdfrwt beam="1">  1        2 0.22412092E+00 0.13698402E+04</pdfrwt>
<pdfrwt beam="2">  1       -2 0.30990548E+00 0.13698402E+04</pdfrwt>
<totfact> 0.35464686E-01</totfact>
</mgrwt>
</event>
<event>
 4    5  0.6615028E-008  0.2001030E+04  0.7818608E-02  0.8618797E-01
         -2   -1    0    0    0  501 -0.00000000000E+00  0.00000000000E+00  0.33849614030E+04  0.33849614030E+04  0.25500000000E-02 0.  1.
          2   -1    0    0  501    0  0.00000000000E+00 -0.00000000000E+00 -0.11964405796E+04  0.11964405796E+04  0.25500000000E-02 0. -1.
    8880023    1    1    2    0    0 -0.15575113739E+04 -0.10697986615E+04  0.16951945767E+04  0.26225570947E+04  0.65864270000E+03 0.  0.
    8880022    1    1    2    0    0  0.15575113739E+04  0.10697986615E+04  0.49332624667E+03  0.19588448879E+04  0.15294330000E+03 0.  0.
<mgrwt>
<rscale>  0 0.19741628E+04</rscale>
<asrwt>0</asrwt>
<pdfrwt beam="1">  1        2 0.18406779E+00 0.20010300E+04</pdfrwt>
<pdfrwt beam="2">  1       -2 0.52076328E+00 0.20010300E+04</pdfrwt>
<totfact> 0.20868385E-02</totfact>
</mgrwt>
</event>
<event>
 4    5  0.6615028E-008  0.7233222E+03  0.7818608E-02  0.9911501E-01
          2   -1    0    0  501    0  0.00000000000E+00  0.00000000000E+00  0.15702535915E+04  0.15702535915E+04  0.25500000000E-02 0. -1.
         -2   -1    0    0    0  501 -0.00000000000E+00 -0.00000000000E+00 -0.50240766421E+03  0.50240766422E+03  0.25500000000E-02 0.  1.
    8880023    1    1    2    0    0 -0.21953141753E+03  0.20295507543E+03  0.14153111326E+04  0.15894340547E+04  0.65864270000E+03 0.  0.
    8880022    1    1    2    0    0  0.21953141753E+03 -0.20295507543E+03 -0.34746520529E+03  0.48322720105E+03  0.15294330000E+03 0.  0.
<mgrwt>
<rscale>  0 0.59707124E+03</rscale>
<asrwt>0</asrwt>
<pdfrwt beam="1">  1        2 0.24157747E+00 0.72332220E+03</pdfrwt>
<pdfrwt beam="2">  1       -2 0.77293487E-01 0.72332220E+03</pdfrwt>
<totfact> 0.17804759E+01</totfact>
</mgrwt>
</event>
<event>
 4    5  0.6615028E-008  0.7988143E+03  0.7818608E-02  0.9713366E-01
         -2   -1    0    0    0  501 -0.00000000000E+00  0.00000000000E+00  0.70024460901E+03  0.70024460902E+03  0.25500000000E-02 0.  1.
          2   -1    0    0  501    0  0.00000000000E+00 -0.00000000000E+00 -0.75113839519E+03  0.75113839519E+03  0.25500000000E-02 0. -1.
    8880023    1    1    2    0    0 -0.11205239485E+03 -0.43787927889E+03 -0.36692288673E+03  0.87905438577E+03  0.65864270000E+03 0. -1.
    8880022    1    1    2    0    0  0.11205239485E+03  0.43787927889E+03  0.31602910055E+03  0.57232861844E+03  0.15294330000E+03 0.  0.
<mgrwt>
<rscale>  0 0.70226547E+03</rscale>
<asrwt>0</asrwt>
<pdfrwt beam="1">  1        2 0.11555975E+00 0.79881425E+03</pdfrwt>
<pdfrwt beam="2">  1       -2 0.10772994E+00 0.79881425E+03</pdfrwt>
<totfact> 0.26110742E+01</totfact>
</mgrwt>
</event>
<event>
 4    5  0.6615028E-008  0.8829065E+03  0.7818608E-02  0.9554049E-01
          2   -1    0    0  501    0  0.00000000000E+00  0.00000000000E+00  0.67604504921E+03  0.67604504921E+03  0.25500000000E-02 0. -1.
         -2   -1    0    0    0  501 -0.00000000000E+00 -0.00000000000E+00 -0.93209446941E+03  0.93209446941E+03  0.25500000000E-02 0.  1.
    8880023    1    1    2    0    0  0.14766912312E+03  0.56912874249E+03 -0.42166523261E+03  0.97843010486E+03  0.65864270000E+03 0.  0.
    8880022    1    1    2    0    0 -0.14766912312E+03 -0.56912874249E+03  0.16561581241E+03  0.62970941376E+03  0.15294330000E+03 0.  0.
<mgrwt>
<rscale>  0 0.80413660E+03</rscale>
<asrwt>0</asrwt>
<pdfrwt beam="1">  1        2 0.10400693E+00 0.88290651E+03</pdfrwt>
<pdfrwt beam="2">  1       -2 0.14339915E+00 0.88290651E+03</pdfrwt>
<totfact> 0.14476144E+01</totfact>
</mgrwt>
</event>
<event>
 4    5  0.6615028E-008  0.1386713E+04  0.7818608E-02  0.8994076E-01
         -2   -1    0    0    0  501 -0.00000000000E+00  0.00000000000E+00  0.10512716343E+04  0.10512716343E+04  0.25500000000E-02 0.  1.
          2   -1    0    0  501    0  0.00000000000E+00 -0.00000000000E+00 -0.18832280820E+04  0.18832280820E+04  0.25500000000E-02 0. -1.
    8880023    1    1    2    0    0  0.87011617802E+03 -0.85560567249E+03  0.10163263891E+03  0.13904325333E+04  0.65864270000E+03 0.  1.
    8880022    1    1    2    0    0 -0.87011617802E+03  0.85560567249E+03 -0.93358908664E+03  0.15440671830E+04  0.15294330000E+03 0.  0.
<mgrwt>
<rscale>  0 0.13457174E+04</rscale>
<asrwt>0</asrwt>
<pdfrwt beam="1">  1        2 0.28972740E+00 0.13867132E+04</pdfrwt>
<pdfrwt beam="2">  1       -2 0.16173410E+00 0.13867132E+04</pdfrwt>
<totfact> 0.18089943E+00</totfact>
</mgrwt>
</event>
<event>
 4    5  0.6615028E-008  0.1721184E+04  0.7818608E-02  0.8767435E-01
         -2   -1    0    0    0  501 -0.00000000000E+00  0.00000000000E+00  0.14644408502E+04  0.14644408502E+04  0.25500000000E-02 0.  1.
          2   -1    0    0  501    0  0.00000000000E+00 -0.00000000000E+00 -0.32579136449E+04  0.32579136449E+04  0.25500000000E-02 0. -1.
    8880023    1    1    2    0    0 -0.73740500012E+02  0.15884662965E+04 -0.24508657983E+04  0.29948649726E+04  0.65864270000E+03 0.  0.
    8880022    1    1    2    0    0  0.73740500012E+02 -0.15884662965E+04  0.65739300355E+03  0.17274895225E+04  0.15294330000E+03 0.  0.
<mgrwt>
<rscale>  0 0.16893967E+04</rscale>
<asrwt>0</asrwt>
<pdfrwt beam="1">  1        2 0.50121748E+00 0.17211836E+04</pdfrwt>
<pdfrwt beam="2">  1       -2 0.22529859E+00 0.17211836E+04</pdfrwt>
<totfact> 0.99765882E-02</totfact>
</mgrwt>
</event>
<event>
 4    5  0.6615028E-008  0.8903022E+03  0.7818608E-02  0.9541783E-01
          2   -1    0    0  501    0  0.00000000000E+00  0.00000000000E+00  0.18361410061E+04  0.18361410061E+04  0.25500000000E-02 0. -1.
         -2   -1    0    0    0  501 -0.00000000000E+00 -0.00000000000E+00 -0.45776777134E+03  0.45776777135E+03  0.25500000000E-02 0.  1.
    8880023    1    1    2    0    0  0.31285632391E+03 -0.51083134568E+03  0.14180843549E+04  0.16743957678E+04  0.65864270000E+03 0.  0.
    8880022    1    1    2    0    0 -0.31285632391E+03  0.51083134568E+03 -0.39711120127E+02  0.61951300972E+03  0.15294330000E+03 0.  0.
<mgrwt>
<rscale>  0 0.81272228E+03</rscale>
<asrwt>0</asrwt>
<pdfrwt beam="1">  1        2 0.28248323E+00 0.89030217E+03</pdfrwt>
<pdfrwt beam="2">  1       -2 0.70425810E-01 0.89030217E+03</pdfrwt>
<totfact> 0.15309276E+01</totfact>
</mgrwt>
</event>
<event>
 4    5  0.6615028E-008  0.6767757E+03  0.7818608E-02  0.1011210E+00
         -2   -1    0    0    0  501 -0.00000000000E+00  0.00000000000E+00  0.81383731137E+03  0.81383731137E+03  0.25500000000E-02 0.  1.
          2   -1    0    0  501    0  0.00000000000E+00 -0.00000000000E+00 -0.79516436245E+03  0.79516436245E+03  0.25500000000E-02 0. -1.
    8880023    1    1    2    0    0  0.11200193318E+03  0.10803132718E+03 -0.62999659736E+03  0.92461944584E+03  0.65864270000E+03 0. -1.
    8880022    1    1    2    0    0 -0.11200193318E+03 -0.10803132718E+03  0.64866954628E+03  0.68438222798E+03  0.15294330000E+03 0.  0.
<mgrwt>
<rscale>  0 0.50996723E+03</rscale>
<asrwt>0</asrwt>
<pdfrwt beam="1">  1        2 0.12233298E+00 0.67677574E+03</pdfrwt>
<pdfrwt beam="2">  1       -2 0.12520574E+00 0.67677574E+03</pdfrwt>
<totfact> 0.16958591E+01</totfact>
</mgrwt>
</event>
<event>
 4    5  0.6615028E-008  0.9533553E+03  0.7818608E-02  0.9445303E-01
          2   -1    0    0  501    0  0.00000000000E+00  0.00000000000E+00  0.11429248760E+04  0.11429248760E+04  0.25500000000E-02 0. -1.
         -2   -1    0    0    0  501 -0.00000000000E+00 -0.00000000000E+00 -0.76922787705E+03  0.76922787705E+03  0.25500000000E-02 0.  1.
    8880023    1    1    2    0    0  0.38067752890E+03  0.57459608606E+03  0.65014300648E+03  0.11539376839E+04  0.65864270000E+03 0.  0.
    8880022    1    1    2    0    0 -0.38067752890E+03 -0.57459608606E+03 -0.27644600749E+03  0.75821506922E+03  0.15294330000E+03 0.  0.
<mgrwt>
<rscale>  0 0.88439383E+03</rscale>
<asrwt>0</asrwt>
<pdfrwt beam="1">  1        2 0.17583460E+00 0.95335526E+03</pdfrwt>
<pdfrwt beam="2">  1       -2 0.11834275E+00 0.95335526E+03</pdfrwt>
<totfact> 0.11236549E+01</totfact>
</mgrwt>
</event>
<event>
 4    5  0.6615028E-008  0.6847622E+03  0.7818608E-02  0.1006749E+00
          2   -1    0    0  501    0  0.00000000000E+00  0.00000000000E+00  0.29852163379E+04  0.29852163379E+04  0.25500000000E-02 0. -1.
         -2   -1    0    0    0  501 -0.00000000000E+00 -0.00000000000E+00 -0.13522083723E+04  0.13522083723E+04  0.25500000000E-02 0.  1.
    8880023    1    1    2    0    0 -0.27562005624E+02 -0.18528197861E+03  0.29346641418E+04  0.30134951314E+04  0.65864270000E+03 0.  0.
    8880022    1    1    2    0    0  0.27562005624E+02  0.18528197861E+03 -0.13016561761E+04  0.13239295788E+04  0.15294330000E+03 0.  1.
<mgrwt>
<rscale>  0 0.52787541E+03</rscale>
<asrwt>0</asrwt>
<pdfrwt beam="1">  1        2 0.45926405E+00 0.68476221E+03</pdfrwt>
<pdfrwt beam="2">  1       -2 0.20803206E+00 0.68476221E+03</pdfrwt>
<totfact> 0.22992276E-01</totfact>
</mgrwt>
</event>
<event>
 4    5  0.6615028E-008  0.1272402E+04  0.7818608E-02  0.9089767E-01
         -2   -1    0    0    0  501 -0.00000000000E+00  0.00000000000E+00  0.10241277448E+04  0.10241277448E+04  0.25500000000E-02 0.  1.
          2   -1    0    0  501    0  0.00000000000E+00 -0.00000000000E+00 -0.18684097790E+04  0.18684097790E+04  0.25500000000E-02 0. -1.
    8880023    1    1    2    0    0 -0.10584649328E+04 -0.25465231474E+03 -0.11879082575E+04  0.17407274485E+04  0.65864270000E+03 0.  0.
    8880022    1    1    2    0    0  0.10584649328E+04  0.25465231474E+03  0.34362622328E+03  0.11518100754E+04  0.15294330000E+03 0.  0.
<mgrwt>
<rscale>  0 0.12267412E+04</rscale>
<asrwt>0</asrwt>
<pdfrwt beam="1">  1        2 0.28744766E+00 0.12724017E+04</pdfrwt>
<pdfrwt beam="2">  1       -2 0.15755811E+00 0.12724017E+04</pdfrwt>
<totfact> 0.20030620E+00</totfact>
</mgrwt>
</event>
<event>
 4    5  0.6615028E-008  0.9280010E+03  0.7818608E-02  0.9482498E-01
         -2   -1    0    0    0  501 -0.00000000000E+00  0.00000000000E+00  0.76455762456E+03  0.76455762456E+03  0.25500000000E-02 0.  1.
          2   -1    0    0  501    0  0.00000000000E+00 -0.00000000000E+00 -0.18088491552E+04  0.18088491552E+04  0.25500000000E-02 0. -1.
    8880023    1    1    2    0    0  0.62137489703E+03 -0.20314747519E+03 -0.14986606726E+04  0.17627165618E+04  0.65864270000E+03 0. -1.
    8880022    1    1    2    0    0 -0.62137489703E+03  0.20314747519E+03  0.45436914196E+03  0.81069021797E+03  0.15294330000E+03 0.  0.
<mgrwt>
<rscale>  0 0.85586524E+03</rscale>
<asrwt>0</asrwt>
<pdfrwt beam="1">  1        2 0.27828448E+00 0.92800101E+03</pdfrwt>
<pdfrwt beam="2">  1       -2 0.11762425E+00 0.92800101E+03</pdfrwt>
<totfact> 0.47877213E+00</totfact>
</mgrwt>
</event>
<event>
 4    5  0.6615028E-008  0.8369217E+03  0.7818608E-02  0.9636012E-01
         -2   -1    0    0    0  501 -0.00000000000E+00  0.00000000000E+00  0.43708436057E+03  0.43708436057E+03  0.25500000000E-02 0.  1.
          2   -1    0    0  501    0  0.00000000000E+00 -0.00000000000E+00 -0.14661825666E+04  0.14661825666E+04  0.25500000000E-02 0. -1.
    8880023    1    1    2    0    0  0.48971918270E+02 -0.51403261224E+03 -0.10754639470E+04  0.13627401376E+04  0.65864270000E+03 0.  0.
    8880022    1    1    2    0    0 -0.48971918270E+02  0.51403261224E+03  0.46365740966E+02  0.54052678951E+03  0.15294330000E+03 0.  0.
<mgrwt>
<rscale>  0 0.74957832E+03</rscale>
<asrwt>0</asrwt>
<pdfrwt beam="1">  1        2 0.22556655E+00 0.83692173E+03</pdfrwt>
<pdfrwt beam="2">  1       -2 0.67243748E-01 0.83692173E+03</pdfrwt>
<totfact> 0.27271797E+01</totfact>
</mgrwt>
</event>
<event>
 4    5  0.6615028E-008  0.9543766E+03  0.7818608E-02  0.9443845E-01
         -2   -1    0    0    0  501 -0.00000000000E+00  0.00000000000E+00  0.55421071352E+03  0.55421071353E+03  0.25500000000E-02 0.  1.
          2   -1    0    0  501    0  0.00000000000E+00 -0.00000000000E+00 -0.17742593797E+04  0.17742593797E+04  0.25500000000E-02 0. -1.
    8880023    1    1    2    0    0  0.37483257244E+03 -0.58010770375E+03 -0.13041823316E+04  0.16160835887E+04  0.65864270000E+03 0.  0.
    8880022    1    1    2    0    0 -0.37483257244E+03  0.58010770375E+03  0.84133665332E+02  0.71238650462E+03  0.15294330000E+03 0.  0.
<mgrwt>
<rscale>  0 0.88553601E+03</rscale>
<asrwt>0</asrwt>
<pdfrwt beam="1">  1        2 0.27296298E+00 0.95437656E+03</pdfrwt>
<pdfrwt beam="2">  1       -2 0.85263187E-01 0.95437656E+03</pdfrwt>
<totfact> 0.10712068E+01</totfact>
</mgrwt>
</event>
<event>
 4    5  0.6615028E-008  0.1385440E+04  0.7818608E-02  0.8995079E-01
          2   -1    0    0  501    0  0.00000000000E+00  0.00000000000E+00  0.27917843528E+04  0.27917843528E+04  0.25500000000E-02 0. -1.
         -2   -1    0    0    0  501 -0.00000000000E+00 -0.00000000000E+00 -0.85314406280E+03  0.85314406280E+03  0.25500000000E-02 0.  1.
    8880023    1    1    2    0    0  0.20012870591E+03  0.12023239518E+04  0.19790981258E+04  0.24158381531E+04  0.65864270000E+03 0.  0.
    8880022    1    1    2    0    0 -0.20012870591E+03 -0.12023239518E+04 -0.40457835796E+02  0.12290902625E+04  0.15294330000E+03 0.  0.
<mgrwt>
<rscale>  0 0.13443982E+04</rscale>
<asrwt>0</asrwt>
<pdfrwt beam="1">  1        2 0.42950528E+00 0.13854402E+04</pdfrwt>
<pdfrwt beam="2">  1       -2 0.13125293E+00 0.13854402E+04</pdfrwt>
<totfact> 0.95294278E-01</totfact>
</mgrwt>
</event>
<event>
 4    5  0.6615028E-008  0.8895024E+03  0.7818608E-02  0.9543098E-01
         -2   -1    0    0    0  501 -0.00000000000E+00  0.00000000000E+00  0.10414687153E+04  0.10414687154E+04  0.25500000000E-02 0.  1.
          2   -1    0    0  501    0  0.00000000000E+00 -0.00000000000E+00 -0.11368803756E+04  0.11368803756E+04  0.25500000000E-02 0. -1.
    8880023    1    1    2    0    0  0.62763953503E+02  0.59452920555E+03 -0.83163355095E+03  0.12177146051E+04  0.65864270000E+03 0. -1.
    8880022    1    1    2    0    0 -0.62763953503E+02 -0.59452920555E+03  0.73622189069E+03  0.96063448588E+03  0.15294330000E+03 0.  0.
<mgrwt>
<rscale>  0 0.81179594E+03</rscale>
<asrwt>0</asrwt>
<pdfrwt beam="1">  1        2 0.17490467E+00 0.88950239E+03</pdfrwt>
<pdfrwt beam="2">  1       -2 0.16022596E+00 0.88950239E+03</pdfrwt>
<totfact> 0.52055614E+00</totfact>
</mgrwt>
</event>
<event>
 4    5  0.6615028E-008  0.7326069E+03  0.7818608E-02  0.9882031E-01
          2   -1    0    0  501    0  0.00000000000E+00  0.00000000000E+00  0.76650416156E+03  0.76650416156E+03  0.25500000000E-02 0. -1.
         -2   -1    0    0    0  501 -0.00000000000E+00 -0.00000000000E+00 -0.15001429831E+04  0.15001429831E+04  0.25500000000E-02 0.  1.
    8880023    1    1    2    0    0 -0.30557645957E+03  0.97599740341E+02  0.56188159963E+03  0.92326801105E+03  0.65864270000E+03 0. -1.
    8880022    1    1    2    0    0  0.30557645957E+03 -0.97599740341E+02 -0.12955204212E+04  0.13433791336E+04  0.15294330000E+03 0.  0.
<mgrwt>
<rscale>  0 0.61140114E+03</rscale>
<asrwt>0</asrwt>
<pdfrwt beam="1">  1        2 0.11792372E+00 0.73260691E+03</pdfrwt>
<pdfrwt beam="2">  1       -2 0.23079123E+00 0.73260691E+03</pdfrwt>
<totfact> 0.31729913E+00</totfact>
</mgrwt>
</event>
<event>
 4    5  0.6615028E-008  0.1528026E+04  0.7818608E-02  0.8890095E-01
          2   -1    0    0  501    0  0.00000000000E+00  0.00000000000E+00  0.25189210666E+04  0.25189210666E+04  0.25500000000E-02 0. -1.
         -2   -1    0    0    0  501 -0.00000000000E+00 -0.00000000000E+00 -0.11337502302E+04  0.11337502302E+04  0.25500000000E-02 0.  1.
    8880023    1    1    2    0    0  0.25438388559E+03 -0.13551169204E+04  0.16407506759E+04  0.22420807336E+04  0.65864270000E+03 0.  0.
    8880022    1    1    2    0    0 -0.25438388559E+03  0.13551169204E+04 -0.25557983954E+03  0.14105905631E+04  0.15294330000E+03 0.  0.
<mgrwt>
<rscale>  0 0.14915445E+04</rscale>
<asrwt>0</asrwt>
<pdfrwt beam="1">  1        2 0.38752632E+00 0.15280259E+04</pdfrwt>
<pdfrwt beam="2">  1       -2 0.17442311E+00 0.15280259E+04</pdfrwt>
<totfact> 0.63215158E-01</totfact>
</mgrwt>
</event>
<event>
 4    5  0.6615028E-008  0.6747039E+03  0.7818608E-02  0.1012494E+00
         -2   -1    0    0    0  501 -0.00000000000E+00  0.00000000000E+00  0.31425301127E+03  0.31425301128E+03  0.25500000000E-02 0.  1.
          2   -1    0    0  501    0  0.00000000000E+00 -0.00000000000E+00 -0.16066373549E+04  0.16066373549E+04  0.25500000000E-02 0. -1.
    8880023    1    1    2    0    0  0.14505794427E+03 -0.19321886516E+02 -0.14872744297E+04  0.16331596915E+04  0.65864270000E+03 0. -1.
    8880022    1    1    2    0    0 -0.14505794427E+03  0.19321886516E+02  0.19489008605E+03  0.28773067468E+03  0.15294330000E+03 0.  0.
<mgrwt>
<rscale>  0 0.50495526E+03</rscale>
<asrwt>0</asrwt>
<pdfrwt beam="1">  1        2 0.24717497E+00 0.67470390E+03</pdfrwt>
<pdfrwt beam="2">  1       -2 0.48346618E-01 0.67470390E+03</pdfrwt>
<totfact> 0.46270413E+01</totfact>
</mgrwt>
</event>
<event>
 4    5  0.6615028E-008  0.6592966E+03  0.7818608E-02  0.1024889E+00
         -2   -1    0    0    0  501 -0.00000000000E+00  0.00000000000E+00  0.79299785692E+03  0.79299785693E+03  0.25500000000E-02 0.  1.
          2   -1    0    0  501    0  0.00000000000E+00 -0.00000000000E+00 -0.10274089206E+04  0.10274089206E+04  0.25500000000E-02 0. -1.
    8880023    1    1    2    0    0  0.29237628163E+02 -0.26292356342E+01 -0.91188785516E+03  0.11252606002E+04  0.65864270000E+03 0. -1.
    8880022    1    1    2    0    0 -0.29237628163E+02  0.26292356342E+01  0.67747679149E+03  0.69514617729E+03  0.15294330000E+03 0.  0.
<mgrwt>
<rscale>  0 0.45962876E+03</rscale>
<asrwt>0</asrwt>
<pdfrwt beam="1">  1        2 0.15806291E+00 0.65929656E+03</pdfrwt>
<pdfrwt beam="2">  1       -2 0.12199967E+00 0.65929656E+03</pdfrwt>
<totfact> 0.12682412E+01</totfact>
</mgrwt>
</event>
<event>
 4    5  0.6615028E-008  0.7114764E+03  0.7818608E-02  0.9952559E-01
          2   -1    0    0  501    0  0.00000000000E+00  0.00000000000E+00  0.11112871384E+04  0.11112871384E+04  0.25500000000E-02 0. -1.
         -2   -1    0    0    0  501 -0.00000000000E+00 -0.00000000000E+00 -0.11010273304E+04  0.11010273304E+04  0.25500000000E-02 0.  1.
    8880023    1    1    2    0    0  0.26586375033E+03 -0.41290559862E+02  0.97054316695E+03  0.12033921594E+04  0.65864270000E+03 0. -1.
    8880022    1    1    2    0    0 -0.26586375033E+03  0.41290559862E+02 -0.96028335888E+03  0.10089223094E+04  0.15294330000E+03 0.  0.
<mgrwt>
<rscale>  0 0.57780298E+03</rscale>
<asrwt>0</asrwt>
<pdfrwt beam="1">  1        2 0.17096725E+00 0.71147639E+03</pdfrwt>
<pdfrwt beam="2">  1       -2 0.16938882E+00 0.71147639E+03</pdfrwt>
<totfact> 0.47420815E+00</totfact>
</mgrwt>
</event>
<event>
 4    5  0.6615028E-008  0.1301519E+04  0.7818608E-02  0.9064249E-01
          2   -1    0    0  501    0  0.00000000000E+00  0.00000000000E+00  0.18129536212E+04  0.18129536212E+04  0.25500000000E-02 0. -1.
         -2   -1    0    0    0  501 -0.00000000000E+00 -0.00000000000E+00 -0.11483635246E+04  0.11483635246E+04  0.25500000000E-02 0.  1.
    8880023    1    1    2    0    0  0.42324756637E+03 -0.10397127245E+04  0.11423805952E+04  0.17317576859E+04  0.65864270000E+03 0.  0.
    8880022    1    1    2    0    0 -0.42324756637E+03  0.10397127245E+04 -0.47779049861E+03  0.12295594600E+04  0.15294330000E+03 0.  0.
<mgrwt>
<rscale>  0 0.12571547E+04</rscale>
<asrwt>0</asrwt>
<pdfrwt beam="1">  1        2 0.27891594E+00 0.13015188E+04</pdfrwt>
<pdfrwt beam="2">  1       -2 0.17667131E+00 0.13015188E+04</pdfrwt>
<totfact> 0.15586963E+00</totfact>
</mgrwt>
</event>
<event>
 4    5  0.6615028E-008  0.8433087E+03  0.7818608E-02  0.9623973E-01
         -2   -1    0    0    0  501 -0.00000000000E+00  0.00000000000E+00  0.17291508633E+04  0.17291508633E+04  0.25500000000E-02 0.  1.
          2   -1    0    0  501    0  0.00000000000E+00 -0.00000000000E+00 -0.82165557222E+03  0.82165557223E+03  0.25500000000E-02 0. -1.
    8880023    1    1    2    0    0  0.17910406864E+03  0.49525864440E+03 -0.54103257332E+03  0.10019410381E+04  0.65864270000E+03 0. -1.
    8880022    1    1    2    0    0 -0.17910406864E+03 -0.49525864440E+03  0.14485278644E+04  0.15488653974E+04  0.15294330000E+03 0.  0.
<mgrwt>
<rscale>  0 0.75729630E+03</rscale>
<asrwt>0</asrwt>
<pdfrwt beam="1">  1        2 0.12640855E+00 0.84330872E+03</pdfrwt>
<pdfrwt beam="2">  1       -2 0.26602321E+00 0.84330872E+03</pdfrwt>
<totfact> 0.17387917E+00</totfact>
</mgrwt>
</event>
<event>
 4    5  0.6615028E-008  0.9803045E+03  0.7818608E-02  0.9407791E-01
         -2   -1    0    0    0  501 -0.00000000000E+00  0.00000000000E+00  0.80373631436E+03  0.80373631436E+03  0.25500000000E-02 0.  1.
          2   -1    0    0  501    0  0.00000000000E+00 -0.00000000000E+00 -0.16133451558E+04  0.16133451558E+04  0.25500000000E-02 0. -1.
    8880023    1    1    2    0    0 -0.68298949095E+03 -0.24639798461E+03 -0.12232309768E+04  0.15675748277E+04  0.65864270000E+03 0.  0.
    8880022    1    1    2    0    0  0.68298949095E+03  0.24639798461E+03  0.41362213542E+03  0.84950664241E+03  0.15294330000E+03 0.  0.
<mgrwt>
<rscale>  0 0.91437241E+03</rscale>
<asrwt>0</asrwt>
<pdfrwt beam="1">  1        2 0.24820695E+00 0.98030445E+03</pdfrwt>
<pdfrwt beam="2">  1       -2 0.12365174E+00 0.98030445E+03</pdfrwt>
<totfact> 0.53840904E+00</totfact>
</mgrwt>
</event>
<event>
 4    5  0.6615028E-008  0.6851615E+03  0.7818608E-02  0.1006543E+00
         -2   -1    0    0    0  501 -0.00000000000E+00  0.00000000000E+00  0.28915330166E+03  0.28915330167E+03  0.25500000000E-02 0.  1.
          2   -1    0    0  501    0  0.00000000000E+00 -0.00000000000E+00 -0.25190964482E+04  0.25190964483E+04  0.25500000000E-02 0. -1.
    8880023    1    1    2    0    0 -0.15903182770E+03 -0.10171014391E+03 -0.24102199096E+04  0.25057147273E+04  0.65864270000E+03 0. -1.
    8880022    1    1    2    0    0  0.15903182770E+03  0.10171014391E+03  0.18027676305E+03  0.30253502261E+03  0.15294330000E+03 0.  0.
<mgrwt>
<rscale>  0 0.52872120E+03</rscale>
<asrwt>0</asrwt>
<pdfrwt beam="1">  1        2 0.38755329E+00 0.68516150E+03</pdfrwt>
<pdfrwt beam="2">  1       -2 0.44485125E-01 0.68516150E+03</pdfrwt>
<totfact> 0.17208726E+01</totfact>
</mgrwt>
</event>
<event>
 4    5  0.6615028E-008  0.6753194E+03  0.7818608E-02  0.1012106E+00
          2   -1    0    0  501    0  0.00000000000E+00  0.00000000000E+00  0.96463920122E+03  0.96463920122E+03  0.25500000000E-02 0. -1.
         -2   -1    0    0    0  501 -0.00000000000E+00 -0.00000000000E+00 -0.25539719955E+03  0.25539719957E+03  0.25500000000E-02 0.  1.
    8880023    1    1    2    0    0  0.23271806757E+01  0.14913291446E+03  0.74267759844E+03  0.10038058893E+04  0.65864270000E+03 0. -1.
    8880022    1    1    2    0    0 -0.23271806757E+01 -0.14913291446E+03 -0.33435596776E+02  0.21623051147E+03  0.15294330000E+03 0.  0.
<mgrwt>
<rscale>  0 0.50646258E+03</rscale>
<asrwt>0</asrwt>
<pdfrwt beam="1">  1        2 0.14840603E+00 0.67531937E+03</pdfrwt>
<pdfrwt beam="2">  1       -2 0.39291877E-01 0.67531937E+03</pdfrwt>
<totfact> 0.16523465E+02</totfact>
</mgrwt>
</event>
<event>
 4    5  0.6615028E-008  0.1109327E+04  0.7818608E-02  0.9250742E-01
         -2   -1    0    0    0  501 -0.00000000000E+00  0.00000000000E+00  0.16956527275E+04  0.16956527275E+04  0.25500000000E-02 0.  1.
          2   -1    0    0  501    0  0.00000000000E+00 -0.00000000000E+00 -0.10794329736E+04  0.10794329736E+04  0.25500000000E-02 0. -1.
    8880023    1    1    2    0    0  0.39669721322E+03  0.79964201657E+03 -0.59806045554E+03  0.12602708234E+04  0.65864270000E+03 0. -1.
    8880022    1    1    2    0    0 -0.39669721322E+03 -0.79964201657E+03  0.12142802094E+04  0.15148148777E+04  0.15294330000E+03 0.  0.
<mgrwt>
<rscale>  0 0.10544690E+04</rscale>
<asrwt>0</asrwt>
<pdfrwt beam="1">  1        2 0.16606661E+00 0.11093269E+04</pdfrwt>
<pdfrwt beam="2">  1       -2 0.26086965E+00 0.11093269E+04</pdfrwt>
<totfact> 0.12172813E+00</totfact>
</mgrwt>
</event>
<event>
 4    5  0.6615028E-008  0.7256308E+03  0.7818608E-02  0.9903974E-01
         -2   -1    0    0    0  501 -0.00000000000E+00  0.00000000000E+00  0.30181844619E+03  0.30181844620E+03  0.25500000000E-02 0.  1.
          2   -1    0    0  501    0  0.00000000000E+00 -0.00000000000E+00 -0.12032269623E+04  0.12032269623E+04  0.25500000000E-02 0. -1.
    8880023    1    1    2    0    0  0.26538803155E+03 -0.14932879031E+03 -0.91034784196E+03  0.11641620568E+04  0.65864270000E+03 0.  0.
    8880022    1    1    2    0    0 -0.26538803155E+03  0.14932879031E+03  0.89393258326E+01  0.34088335170E+03  0.15294330000E+03 0.  0.
<mgrwt>
<rscale>  0 0.60069068E+03</rscale>
<asrwt>0</asrwt>
<pdfrwt beam="1">  1        2 0.18511184E+00 0.72563083E+03</pdfrwt>
<pdfrwt beam="2">  1       -2 0.46433608E-01 0.72563083E+03</pdfrwt>
<totfact> 0.84415854E+01</totfact>
</mgrwt>
</event>
<event>
 4    5  0.6615028E-008  0.1061249E+04  0.7818608E-02  0.9305479E-01
         -2   -1    0    0    0  501 -0.00000000000E+00  0.00000000000E+00  0.73743306776E+03  0.73743306777E+03  0.25500000000E-02 0.  1.
          2   -1    0    0  501    0  0.00000000000E+00 -0.00000000000E+00 -0.19809131753E+04  0.19809131753E+04  0.25500000000E-02 0. -1.
    8880023    1    1    2    0    0 -0.15086335370E+03 -0.81833948620E+03  0.16627197850E+03  0.10741954400E+04  0.65864270000E+03 0.  0.
    8880022    1    1    2    0    0  0.15086335370E+03  0.81833948620E+03 -0.14097520860E+04  0.16441508031E+04  0.15294330000E+03 0.  0.
<mgrwt>
<rscale>  0 0.10027999E+04</rscale>
<asrwt>0</asrwt>
<pdfrwt beam="1">  1        2 0.30475587E+00 0.10612490E+04</pdfrwt>
<pdfrwt beam="2">  1       -2 0.11345124E+00 0.10612490E+04</pdfrwt>
<totfact> 0.41390901E+00</totfact>
</mgrwt>
</event>
<event>
 4    5  0.6615028E-008  0.9204363E+03  0.7818608E-02  0.9493990E-01
         -2   -1    0    0    0  501 -0.00000000000E+00  0.00000000000E+00  0.10503510083E+04  0.10503510083E+04  0.25500000000E-02 0.  1.
          2   -1    0    0  501    0  0.00000000000E+00 -0.00000000000E+00 -0.81939220876E+03  0.81939220877E+03  0.25500000000E-02 0. -1.
    8880023    1    1    2    0    0 -0.63460500897E+03  0.10329168523E+03 -0.35496993446E+03  0.98651231634E+03  0.65864270000E+03 0.  0.
    8880022    1    1    2    0    0  0.63460500897E+03 -0.10329168523E+03  0.58592873395E+03  0.88323090069E+03  0.15294330000E+03 0.  0.
<mgrwt>
<rscale>  0 0.84728335E+03</rscale>
<asrwt>0</asrwt>
<pdfrwt beam="1">  1        2 0.12606034E+00 0.92043625E+03</pdfrwt>
<pdfrwt beam="2">  1       -2 0.16159246E+00 0.92043625E+03</pdfrwt>
<totfact> 0.81704685E+00</totfact>
</mgrwt>
</event>
<event>
 4    5  0.6615028E-008  0.1820776E+04  0.7818608E-02  0.8711130E-01
          2   -1    0    0  501    0  0.00000000000E+00  0.00000000000E+00  0.23940420276E+04  0.23940420276E+04  0.25500000000E-02 0. -1.
         -2   -1    0    0    0  501 -0.00000000000E+00 -0.00000000000E+00 -0.15094567223E+04  0.15094567223E+04  0.25500000000E-02 0.  1.
    8880023    1    1    2    0    0  0.87392420074E+03 -0.14552224928E+04  0.11856196787E+04  0.21727678755E+04  0.65864270000E+03 0.  0.
    8880022    1    1    2    0    0 -0.87392420074E+03  0.14552224928E+04 -0.30103437340E+03  0.17307308743E+04  0.15294330000E+03 0.  0.
<mgrwt>
<rscale>  0 0.17909444E+04</rscale>
<asrwt>0</asrwt>
<pdfrwt beam="1">  1        2 0.36831416E+00 0.18207763E+04</pdfrwt>
<pdfrwt beam="2">  1       -2 0.23222411E+00 0.18207763E+04</pdfrwt>
<totfact> 0.30091167E-01</totfact>
</mgrwt>
</event>
<event>
 4    5  0.6615028E-008  0.6831771E+03  0.7818608E-02  0.1007581E+00
         -2   -1    0    0    0  501 -0.00000000000E+00  0.00000000000E+00  0.13511898140E+04  0.13511898140E+04  0.25500000000E-02 0.  1.
          2   -1    0    0  501    0  0.00000000000E+00 -0.00000000000E+00 -0.52881879056E+03  0.52881879056E+03  0.25500000000E-02 0. -1.
    8880023    1    1    2    0    0  0.13037305640E+03  0.12618874126E+03 -0.29031226507E+03  0.74230192629E+03  0.65864270000E+03 0. -1.
    8880022    1    1    2    0    0 -0.13037305640E+03 -0.12618874126E+03  0.11126832885E+04  0.11377066782E+04  0.15294330000E+03 0.  0.
<mgrwt>
<rscale>  0 0.52447581E+03</rscale>
<asrwt>0</asrwt>
<pdfrwt beam="1">  1        2 0.81356738E-01 0.68317709E+03</pdfrwt>
<pdfrwt beam="2">  1       -2 0.20787535E+00 0.68317709E+03</pdfrwt>
<totfact> 0.70146613E+00</totfact>
</mgrwt>
</event>
<event>
 4    5  0.6615028E-008  0.1814212E+04  0.7818608E-02  0.8714715E-01
         -2   -1    0    0    0  501 -0.00000000000E+00  0.00000000000E+00  0.16650319066E+04  0.16650319066E+04  0.25500000000E-02 0.  1.
          2   -1    0    0  501    0  0.00000000000E+00 -0.00000000000E+00 -0.20656445050E+04  0.20656445050E+04  0.25500000000E-02 0. -1.
    8880023    1    1    2    0    0 -0.16038757641E+04  0.53398339437E+03 -0.80663550152E+03  0.19854537946E+04  0.65864270000E+03 0.  0.
    8880022    1    1    2    0    0  0.16038757641E+04 -0.53398339437E+03  0.40602290308E+03  0.17452226170E+04  0.15294330000E+03 0.  0.
<mgrwt>
<rscale>  0 0.17842593E+04</rscale>
<asrwt>0</asrwt>
<pdfrwt beam="1">  1        2 0.31779146E+00 0.18142122E+04</pdfrwt>
<pdfrwt beam="2">  1       -2 0.25615875E+00 0.18142122E+04</pdfrwt>
<totfact> 0.32839762E-01</totfact>
</mgrwt>
</event>
<event>
 4    5  0.6615028E-008  0.6911919E+03  0.7818608E-02  0.1003591E+00
          2   -1    0    0  501    0  0.00000000000E+00  0.00000000000E+00  0.68150001496E+03  0.68150001496E+03  0.25500000000E-02 0. -1.
         -2   -1    0    0    0  501 -0.00000000000E+00 -0.00000000000E+00 -0.59538762683E+03  0.59538762683E+03  0.25500000000E-02 0.  1.
    8880023    1    1    2    0    0  0.16414795506E+03  0.13035127754E+03  0.45380991243E+03  0.82685527730E+03  0.65864270000E+03 0. -1.
    8880022    1    1    2    0    0 -0.16414795506E+03 -0.13035127754E+03 -0.36769752430E+03  0.45003236450E+03  0.15294330000E+03 0.  0.
<mgrwt>
<rscale>  0 0.54103226E+03</rscale>
<asrwt>0</asrwt>
<pdfrwt beam="1">  1        2 0.10484616E+00 0.69119188E+03</pdfrwt>
<pdfrwt beam="2">  1       -2 0.91598096E-01 0.69119188E+03</pdfrwt>
<totfact> 0.43764717E+01</totfact>
</mgrwt>
</event>
<event>
 4    5  0.6615028E-008  0.9797870E+03  0.7818608E-02  0.9408494E-01
         -2   -1    0    0    0  501 -0.00000000000E+00  0.00000000000E+00  0.64050502763E+03  0.64050502763E+03  0.25500000000E-02 0.  1.
          2   -1    0    0  501    0  0.00000000000E+00 -0.00000000000E+00 -0.18695764926E+04  0.18695764926E+04  0.25500000000E-02 0. -1.
    8880023    1    1    2    0    0  0.93297850618E+02 -0.71935234838E+03 -0.14378285899E+04  0.17399234323E+04  0.65864270000E+03 0.  0.
    8880022    1    1    2    0    0 -0.93297850618E+02  0.71935234838E+03  0.20875712500E+03  0.77015808787E+03  0.15294330000E+03 0.  1.
<mgrwt>
<rscale>  0 0.91379972E+03</rscale>
<asrwt>0</asrwt>
<pdfrwt beam="1">  1        2 0.28762715E+00 0.97978696E+03</pdfrwt>
<pdfrwt beam="2">  1       -2 0.98539236E-01 0.97978696E+03</pdfrwt>
<totfact> 0.67610163E+00</totfact>
</mgrwt>
</event>
<event>
 4    5  0.6615028E-008  0.1067916E+04  0.7818608E-02  0.9297648E-01
          2   -1    0    0  501    0  0.00000000000E+00  0.00000000000E+00  0.21608028812E+04  0.21608028812E+04  0.25500000000E-02 0. -1.
         -2   -1    0    0    0  501 -0.00000000000E+00 -0.00000000000E+00 -0.60737504686E+03  0.60737504687E+03  0.25500000000E-02 0.  1.
    8880023    1    1    2    0    0  0.72553553430E+03  0.42453836595E+03  0.15872853093E+04  0.19130916066E+04  0.65864270000E+03 0. -1.
    8880022    1    1    2    0    0 -0.72553553430E+03 -0.42453836595E+03 -0.33857474912E+02  0.85508632156E+03  0.15294330000E+03 0.  1.
<mgrwt>
<rscale>  0 0.10099972E+04</rscale>
<asrwt>0</asrwt>
<pdfrwt beam="1">  1        2 0.33243121E+00 0.10679161E+04</pdfrwt>
<pdfrwt beam="2">  1       -2 0.93442315E-01 0.10679161E+04</pdfrwt>
<totfact> 0.52369277E+00</totfact>
</mgrwt>
</event>
<event>
 4    5  0.6615028E-008  0.7632875E+03  0.7818608E-02  0.9796670E-01
          2   -1    0    0  501    0  0.00000000000E+00  0.00000000000E+00  0.13736436671E+04  0.13736436671E+04  0.25500000000E-02 0. -1.
         -2   -1    0    0    0  501 -0.00000000000E+00 -0.00000000000E+00 -0.41233338746E+03  0.41233338747E+03  0.25500000000E-02 0.  1.
    8880023    1    1    2    0    0  0.33899331745E+03 -0.18406830540E+03  0.11083386701E+04  0.13457423321E+04  0.65864270000E+03 0. -1.
    8880022    1    1    2    0    0 -0.33899331745E+03  0.18406830540E+03 -0.14702839045E+03  0.44023472256E+03  0.15294330000E+03 0.  0.
<mgrwt>
<rscale>  0 0.65541575E+03</rscale>
<asrwt>0</asrwt>
<pdfrwt beam="1">  1        2 0.21132979E+00 0.76328751E+03</pdfrwt>
<pdfrwt beam="2">  1       -2 0.63435906E-01 0.76328751E+03</pdfrwt>
<totfact> 0.35139476E+01</totfact>
</mgrwt>
</event>
<event>
 4    5  0.6615028E-008  0.9746962E+03  0.7818608E-02  0.9415438E-01
          2   -1    0    0  501    0  0.00000000000E+00  0.00000000000E+00  0.10781425480E+04  0.10781425480E+04  0.25500000000E-02 0. -1.
         -2   -1    0    0    0  501 -0.00000000000E+00 -0.00000000000E+00 -0.11166418920E+04  0.11166418920E+04  0.25500000000E-02 0.  1.
    8880023    1    1    2    0    0 -0.53706580802E+03 -0.47726603442E+03  0.66318891822E+03  0.11789199707E+04  0.65864270000E+03 0.  0.
    8880022    1    1    2    0    0  0.53706580802E+03  0.47726603442E+03 -0.70168826218E+03  0.10158644693E+04  0.15294330000E+03 0.  0.
<mgrwt>
<rscale>  0 0.90816004E+03</rscale>
<asrwt>0</asrwt>
<pdfrwt beam="1">  1        2 0.16586808E+00 0.97469624E+03</pdfrwt>
<pdfrwt beam="2">  1       -2 0.17179106E+00 0.97469624E+03</pdfrwt>
<totfact> 0.46236063E+00</totfact>
</mgrwt>
</event>
<event>
 4    5  0.6615028E-008  0.7795838E+03  0.7818608E-02  0.9756815E-01
         -2   -1    0    0    0  501 -0.00000000000E+00  0.00000000000E+00  0.13532173132E+04  0.13532173132E+04  0.25500000000E-02 0.  1.
          2   -1    0    0  501    0  0.00000000000E+00 -0.00000000000E+00 -0.36102494599E+03  0.36102494599E+03  0.25500000000E-02 0. -1.
    8880023    1    1    2    0    0 -0.51263459371E+00  0.41706174598E+03  0.19812534374E+03  0.80436597445E+03  0.65864270000E+03 0.  0.
    8880022    1    1    2    0    0  0.51263459371E+00 -0.41706174598E+03  0.79406702344E+03  0.90987628472E+03  0.15294330000E+03 0.  0.
<mgrwt>
<rscale>  0 0.67732472E+03</rscale>
<asrwt>0</asrwt>
<pdfrwt beam="1">  1        2 0.55542299E-01 0.77958384E+03</pdfrwt>
<pdfrwt beam="2">  1       -2 0.20818728E+00 0.77958384E+03</pdfrwt>
<totfact> 0.10672430E+01</totfact>
</mgrwt>
</event>
<event>
 4    5  0.6615028E-008  0.8570101E+03  0.7818608E-02  0.9598904E-01
          2   -1    0    0  501    0  0.00000000000E+00  0.00000000000E+00  0.93498393897E+03  0.93498393898E+03  0.25500000000E-02 0. -1.
         -2   -1    0    0    0  501 -0.00000000000E+00 -0.00000000000E+00 -0.74425824114E+03  0.74425824114E+03  0.25500000000E-02 0.  1.
    8880023    1    1    2    0    0  0.51351534071E+03  0.19224470019E+03  0.53851192503E+03  0.10121567712E+04  0.65864270000E+03 0. -1.
    8880022    1    1    2    0    0 -0.51351534071E+03 -0.19224470019E+03 -0.34778622720E+03  0.66708540888E+03  0.15294330000E+03 0.  0.
<mgrwt>
<rscale>  0 0.77368745E+03</rscale>
<asrwt>0</asrwt>
<pdfrwt beam="1">  1        2 0.14384368E+00 0.85701006E+03</pdfrwt>
<pdfrwt beam="2">  1       -2 0.11450127E+00 0.85701006E+03</pdfrwt>
<totfact> 0.16642149E+01</totfact>
</mgrwt>
</event>
<event>
 4    5  0.6615028E-008  0.7009183E+03  0.7818608E-02  0.9993413E-01
          2   -1    0    0  501    0  0.00000000000E+00  0.00000000000E+00  0.13985088516E+04  0.13985088516E+04  0.25500000000E-02 0. -1.
         -2   -1    0    0    0  501 -0.00000000000E+00 -0.00000000000E+00 -0.94461103696E+03  0.94461103696E+03  0.25500000000E-02 0.  1.
    8880023    1    1    2    0    0  0.23189754929E+01 -0.23973084108E+03  0.12855377507E+04  0.14642041417E+04  0.65864270000E+03 0. -1.
    8880022    1    1    2    0    0 -0.23189754929E+01  0.23973084108E+03 -0.83163993606E+03  0.87891574686E+03  0.15294330000E+03 0.  0.
<mgrwt>
<rscale>  0 0.55940014E+03</rscale>
<asrwt>0</asrwt>
<pdfrwt beam="1">  1        2 0.21515521E+00 0.70091830E+03</pdfrwt>
<pdfrwt beam="2">  1       -2 0.14532478E+00 0.70091830E+03</pdfrwt>
<totfact> 0.48748752E+00</totfact>
</mgrwt>
</event>
<event>
 4    5  0.6615028E-008  0.7183729E+03  0.7818608E-02  0.9928130E-01
         -2   -1    0    0    0  501 -0.00000000000E+00  0.00000000000E+00  0.53095862662E+03  0.53095862663E+03  0.25500000000E-02 0.  1.
          2   -1    0    0  501    0  0.00000000000E+00 -0.00000000000E+00 -0.18682438537E+04  0.18682438537E+04  0.25500000000E-02 0. -1.
    8880023    1    1    2    0    0 -0.12154328189E+03  0.25976270457E+03 -0.17395464220E+04  0.18820418148E+04  0.65864270000E+03 0. -1.
    8880022    1    1    2    0    0  0.12154328189E+03 -0.25976270457E+03  0.40226119491E+03  0.51716066556E+03  0.15294330000E+03 0.  0.
<mgrwt>
<rscale>  0 0.58917128E+03</rscale>
<asrwt>0</asrwt>
<pdfrwt beam="1">  1        2 0.28742213E+00 0.71837291E+03</pdfrwt>
<pdfrwt beam="2">  1       -2 0.81685943E-01 0.71837291E+03</pdfrwt>
<totfact> 0.10815364E+01</totfact>
</mgrwt>
</event>
<event>
 4    5  0.6615028E-008  0.9174406E+03  0.7818608E-02  0.9498595E-01
          2   -1    0    0  501    0  0.00000000000E+00  0.00000000000E+00  0.51339477504E+03  0.51339477505E+03  0.25500000000E-02 0. -1.
         -2   -1    0    0    0  501 -0.00000000000E+00 -0.00000000000E+00 -0.19515433350E+04  0.19515433350E+04  0.25500000000E-02 0.  1.
    8880023    1    1    2    0    0  0.52235541145E+03  0.36746681408E+03 -0.37768088804E+02  0.91821765944E+03  0.65864270000E+03 0.  0.
    8880022    1    1    2    0    0 -0.52235541145E+03 -0.36746681408E+03 -0.14003804712E+04  0.15467204506E+04  0.15294330000E+03 0.  0.
<mgrwt>
<rscale>  0 0.84387518E+03</rscale>
<asrwt>0</asrwt>
<pdfrwt beam="1">  1        2 0.78983812E-01 0.91744059E+03</pdfrwt>
<pdfrwt beam="2">  1       -2 0.30023743E+00 0.91744059E+03</pdfrwt>
<totfact> 0.19239400E+00</totfact>
</mgrwt>
</event>
<event>
 4    5  0.6615028E-008  0.7120051E+03  0.7818608E-02  0.9950629E-01
          2   -1    0    0  501    0  0.00000000000E+00  0.00000000000E+00  0.14369246810E+04  0.14369246810E+04  0.25500000000E-02 0. -1.
         -2   -1    0    0    0  501 -0.00000000000E+00 -0.00000000000E+00 -0.20812813545E+03  0.20812813547E+03  0.25500000000E-02 0.  1.
    8880023    1    1    2    0    0 -0.56475488067E+02 -0.26448354542E+03  0.55393682509E+03  0.90210711061E+03  0.65864270000E+03 0.  0.
    8880022    1    1    2    0    0  0.56475488067E+02  0.26448354542E+03  0.67485972045E+03  0.74294570586E+03  0.15294330000E+03 0.  0.
<mgrwt>
<rscale>  0 0.57869085E+03</rscale>
<asrwt>0</asrwt>
<pdfrwt beam="1">  1        2 0.22106533E+00 0.71200508E+03</pdfrwt>
<pdfrwt beam="2">  1       -2 0.32019713E-01 0.71200508E+03</pdfrwt>
<totfact> 0.12748759E+02</totfact>
</mgrwt>
</event>
<event>
 4    5  0.6615028E-008  0.1554879E+04  0.7818608E-02  0.8871825E-01
         -2   -1    0    0    0  501 -0.00000000000E+00  0.00000000000E+00  0.12059741706E+04  0.12059741706E+04  0.25500000000E-02 0.  1.
          2   -1    0    0  501    0  0.00000000000E+00 -0.00000000000E+00 -0.22930722294E+04  0.22930722294E+04  0.25500000000E-02 0. -1.
    8880023    1    1    2    0    0 -0.73225244472E+02 -0.14065833933E+04 -0.13487227818E+04  0.20583250781E+04  0.65864270000E+03 0.  0.
    8880022    1    1    2    0    0  0.73225244472E+02  0.14065833933E+04  0.26162472300E+03  0.14407213219E+04  0.15294330000E+03 0.  0.
<mgrwt>
<rscale>  0 0.15191376E+04</rscale>
<asrwt>0</asrwt>
<pdfrwt beam="1">  1        2 0.35278034E+00 0.15548791E+04</pdfrwt>
<pdfrwt beam="2">  1       -2 0.18553449E+00 0.15548791E+04</pdfrwt>
<totfact> 0.71080765E-01</totfact>
</mgrwt>
</event>
<event>
 4    5  0.6615028E-008  0.6735642E+03  0.7818608E-02  0.1013227E+00
          2   -1    0    0  501    0  0.00000000000E+00  0.00000000000E+00  0.59930017669E+03  0.59930017669E+03  0.25500000000E-02 0. -1.
         -2   -1    0    0    0  501 -0.00000000000E+00 -0.00000000000E+00 -0.35711786890E+03  0.35711786891E+03  0.25500000000E-02 0.  1.
    8880023    1    1    2    0    0  0.53382174040E+02 -0.13049460975E+03  0.30460631714E+03  0.73923860450E+03  0.65864270000E+03 0. -1.
    8880022    1    1    2    0    0 -0.53382174040E+02  0.13049460975E+03 -0.62424009355E+02  0.21717944110E+03  0.15294330000E+03 0.  0.
<mgrwt>
<rscale>  0 0.50212031E+03</rscale>
<asrwt>0</asrwt>
<pdfrwt beam="1">  1        2 0.92200027E-01 0.67356418E+03</pdfrwt>
<pdfrwt beam="2">  1       -2 0.54941211E-01 0.67356418E+03</pdfrwt>
<totfact> 0.15696981E+02</totfact>
</mgrwt>
</event>
<event>
 4    5  0.6615028E-008  0.1290849E+04  0.7818608E-02  0.9073503E-01
         -2   -1    0    0    0  501 -0.00000000000E+00  0.00000000000E+00  0.15802221439E+04  0.15802221439E+04  0.25500000000E-02 0.  1.
          2   -1    0    0  501    0  0.00000000000E+00 -0.00000000000E+00 -0.15177999638E+04  0.15177999638E+04  0.25500000000E-02 0. -1.
    8880023    1    1    2    0    0 -0.92120820566E+01 -0.11101336974E+04 -0.93809801754E+03  0.15957192063E+04  0.65864270000E+03 0.  1.
    8880022    1    1    2    0    0  0.92120820566E+01  0.11101336974E+04  0.10005201977E+04  0.15023029014E+04  0.15294330000E+03 0.  0.
<mgrwt>
<rscale>  0 0.12460196E+04</rscale>
<asrwt>0</asrwt>
<pdfrwt beam="1">  1        2 0.23350769E+00 0.12908493E+04</pdfrwt>
<pdfrwt beam="2">  1       -2 0.24311110E+00 0.12908493E+04</pdfrwt>
<totfact> 0.84467402E-01</totfact>
</mgrwt>
</event>
<event>
 4    5  0.6615028E-008  0.8553012E+03  0.7818608E-02  0.9601977E-01
         -2   -1    0    0    0  501 -0.00000000000E+00  0.00000000000E+00  0.91269103370E+03  0.91269103371E+03  0.25500000000E-02 0.  1.
          2   -1    0    0  501    0  0.00000000000E+00 -0.00000000000E+00 -0.11217829298E+04  0.11217829298E+04  0.25500000000E-02 0. -1.
    8880023    1    1    2    0    0 -0.46004060732E+03  0.29341523279E+03 -0.83141252109E+03  0.11928062901E+04  0.65864270000E+03 0. -1.
    8880022    1    1    2    0    0  0.46004060732E+03 -0.29341523279E+03  0.62232062497E+03  0.84166767343E+03  0.15294330000E+03 0.  0.
<mgrwt>
<rscale>  0 0.77165463E+03</rscale>
<asrwt>0</asrwt>
<pdfrwt beam="1">  1        2 0.17258199E+00 0.85530115E+03</pdfrwt>
<pdfrwt beam="2">  1       -2 0.14041401E+00 0.85530115E+03</pdfrwt>
<totfact> 0.75783239E+00</totfact>
</mgrwt>
</event>
<event>
 4    5  0.6615028E-008  0.8803483E+03  0.7818608E-02  0.9558345E-01
         -2   -1    0    0    0  501 -0.00000000000E+00  0.00000000000E+00  0.53694827268E+03  0.53694827269E+03  0.25500000000E-02 0.  1.
          2   -1    0    0  501    0  0.00000000000E+00 -0.00000000000E+00 -0.15302282707E+04  0.15302282707E+04  0.25500000000E-02 0. -1.
    8880023    1    1    2    0    0 -0.58186915198E+03  0.51296049506E+02 -0.11452681178E+04  0.14445249263E+04  0.65864270000E+03 0. -1.
    8880022    1    1    2    0    0  0.58186915198E+03 -0.51296049506E+02  0.15198811978E+03  0.62265161711E+03  0.15294330000E+03 0.  0.
<mgrwt>
<rscale>  0 0.80115620E+03</rscale>
<asrwt>0</asrwt>
<pdfrwt beam="1">  1        2 0.23541973E+00 0.88034834E+03</pdfrwt>
<pdfrwt beam="2">  1       -2 0.82607427E-01 0.88034834E+03</pdfrwt>
<totfact> 0.15836282E+01</totfact>
</mgrwt>
</event>
<event>
 4    5  0.6615028E-008  0.1369709E+04  0.7818608E-02  0.9007585E-01
          2   -1    0    0  501    0  0.00000000000E+00  0.00000000000E+00  0.23916778783E+04  0.23916778783E+04  0.25500000000E-02 0. -1.
         -2   -1    0    0    0  501 -0.00000000000E+00 -0.00000000000E+00 -0.12387409683E+04  0.12387409683E+04  0.25500000000E-02 0.  1.
    8880023    1    1    2    0    0  0.55711616207E+03  0.10639140345E+04  0.17966932473E+04  0.22592495041E+04  0.65864270000E+03 0.  0.
    8880022    1    1    2    0    0 -0.55711616207E+03 -0.10639140345E+04 -0.64375633726E+03  0.13711693424E+04  0.15294330000E+03 0.  0.
<mgrwt>
<rscale>  0 0.13280859E+04</rscale>
<asrwt>0</asrwt>
<pdfrwt beam="1">  1        2 0.36795044E+00 0.13697086E+04</pdfrwt>
<pdfrwt beam="2">  1       -2 0.19057554E+00 0.13697086E+04</pdfrwt>
<totfact> 0.58908762E-01</totfact>
</mgrwt>
</event>
<event>
 4    5  0.6615028E-008  0.6749175E+03  0.7818608E-02  0.1012358E+00
         -2   -1    0    0    0  501 -0.00000000000E+00  0.00000000000E+00  0.25168791324E+03  0.25168791326E+03  0.25500000000E-02 0.  1.
          2   -1    0    0  501    0  0.00000000000E+00 -0.00000000000E+00 -0.12292618544E+04  0.12292618544E+04  0.25500000000E-02 0. -1.
    8880023    1    1    2    0    0 -0.13407831216E+03 -0.61044379055E+02 -0.10571071778E+04  0.12541886627E+04  0.65864270000E+03 0.  0.
    8880022    1    1    2    0    0  0.13407831216E+03  0.61044379055E+02  0.79533236595E+02  0.22676110501E+03  0.15294330000E+03 0.  1.
<mgrwt>
<rscale>  0 0.50548019E+03</rscale>
<asrwt>0</asrwt>
<pdfrwt beam="1">  1        2 0.18911720E+00 0.67491749E+03</pdfrwt>
<pdfrwt beam="2">  1       -2 0.38721218E-01 0.67491749E+03</pdfrwt>
<totfact> 0.11706319E+02</totfact>
</mgrwt>
</event>
<event>
 4    5  0.6615028E-008  0.9524002E+03  0.7818608E-02  0.9446669E-01
         -2   -1    0    0    0  501 -0.00000000000E+00  0.00000000000E+00  0.49786379279E+03  0.49786379280E+03  0.25500000000E-02 0.  1.
          2   -1    0    0  501    0  0.00000000000E+00 -0.00000000000E+00 -0.35830591191E+04  0.35830591191E+04  0.25500000000E-02 0. -1.
    8880023    1    1    2    0    0 -0.68637372245E+03  0.46336249234E+02 -0.32247972910E+04  0.33624966482E+04  0.65864270000E+03 0. -1.
    8880022    1    1    2    0    0  0.68637372245E+03 -0.46336249234E+02  0.13960196466E+03  0.71842626373E+03  0.15294330000E+03 0.  0.
<mgrwt>
<rscale>  0 0.88332526E+03</rscale>
<asrwt>0</asrwt>
<pdfrwt beam="1">  1        2 0.55123985E+00 0.95240020E+03</pdfrwt>
<pdfrwt beam="2">  1       -2 0.76594432E-01 0.95240020E+03</pdfrwt>
<totfact> 0.11328145E+00</totfact>
</mgrwt>
</event>
<event>
 4    5  0.6615028E-008  0.1068375E+04  0.7818608E-02  0.9297111E-01
          2   -1    0    0  501    0  0.00000000000E+00  0.00000000000E+00  0.20166113863E+04  0.20166113863E+04  0.25500000000E-02 0. -1.
         -2   -1    0    0    0  501 -0.00000000000E+00 -0.00000000000E+00 -0.74283060695E+03  0.74283060696E+03  0.25500000000E-02 0.  1.
    8880023    1    1    2    0    0  0.83632559844E+03  0.90416566605E+02  0.15307108925E+04  0.18666820042E+04  0.65864270000E+03 0. -1.
    8880022    1    1    2    0    0 -0.83632559844E+03 -0.90416566605E+02 -0.25693011310E+03  0.89275998911E+03  0.15294330000E+03 0.  0.
<mgrwt>
<rscale>  0 0.10104925E+04</rscale>
<asrwt>0</asrwt>
<pdfrwt beam="1">  1        2 0.31024790E+00 0.10683753E+04</pdfrwt>
<pdfrwt beam="2">  1       -2 0.11428164E+00 0.10683753E+04</pdfrwt>
<totfact> 0.38822483E+00</totfact>
</mgrwt>
</event>
<event>
 4    5  0.6615028E-008  0.6835359E+03  0.7818608E-02  0.1007390E+00
          2   -1    0    0  501    0  0.00000000000E+00  0.00000000000E+00  0.27896072653E+04  0.27896072653E+04  0.25500000000E-02 0. -1.
         -2   -1    0    0    0  501 -0.00000000000E+00 -0.00000000000E+00 -0.21254120784E+03  0.21254120786E+03  0.25500000000E-02 0.  1.
    8880023    1    1    2    0    0  0.16520532696E+03  0.78220082368E+02  0.26625949397E+04  0.27489331022E+04  0.65864270000E+03 0. -1.
    8880022    1    1    2    0    0 -0.16520532696E+03 -0.78220082368E+02 -0.85528882271E+02  0.25321537090E+03  0.15294330000E+03 0.  0.
<mgrwt>
<rscale>  0 0.52525146E+03</rscale>
<asrwt>0</asrwt>
<pdfrwt beam="1">  1        2 0.42917033E+00 0.68353594E+03</pdfrwt>
<pdfrwt beam="2">  1       -2 0.32698649E-01 0.68353594E+03</pdfrwt>
<totfact> 0.21777025E+01</totfact>
</mgrwt>
</event>
<event>
 4    5  0.6615028E-008  0.9667443E+03  0.7818608E-02  0.9426421E-01
          2   -1    0    0  501    0  0.00000000000E+00  0.00000000000E+00  0.15051456032E+04  0.15051456032E+04  0.25500000000E-02 0. -1.
         -2   -1    0    0    0  501 -0.00000000000E+00 -0.00000000000E+00 -0.63503234584E+03  0.63503234584E+03  0.25500000000E-02 0.  1.
    8880023    1    1    2    0    0  0.50745465415E+03  0.49322818503E+03  0.10151116606E+04  0.14018010409E+04  0.65864270000E+03 0. -1.
    8880022    1    1    2    0    0 -0.50745465415E+03 -0.49322818503E+03 -0.14499840325E+03  0.73837690815E+03  0.15294330000E+03 0.  0.
<mgrwt>
<rscale>  0 0.89932846E+03</rscale>
<asrwt>0</asrwt>
<pdfrwt beam="1">  1        2 0.23156086E+00 0.96674427E+03</pdfrwt>
<pdfrwt beam="2">  1       -2 0.97697285E-01 0.96674427E+03</pdfrwt>
<totfact> 0.10993977E+01</totfact>
</mgrwt>
</event>
<event>
 4    5  0.6615028E-008  0.9100072E+03  0.7818608E-02  0.9510154E-01
         -2   -1    0    0    0  501 -0.00000000000E+00  0.00000000000E+00  0.47370153782E+03  0.47370153782E+03  0.25500000000E-02 0.  1.
          2   -1    0    0  501    0  0.00000000000E+00 -0.00000000000E+00 -0.18498225255E+04  0.18498225255E+04  0.25500000000E-02 0. -1.
    8880023    1    1    2    0    0 -0.34768944446E+03  0.52289100244E+03 -0.14079637109E+04  0.16764471265E+04  0.65864270000E+03 0.  0.
    8880022    1    1    2    0    0  0.34768944446E+03 -0.52289100244E+03  0.31842723233E+02  0.64707693689E+03  0.15294330000E+03 0.  0.
<mgrwt>
<rscale>  0 0.83539330E+03</rscale>
<asrwt>0</asrwt>
<pdfrwt beam="1">  1        2 0.28458808E+00 0.91000723E+03</pdfrwt>
<pdfrwt beam="2">  1       -2 0.72877161E-01 0.91000723E+03</pdfrwt>
<totfact> 0.13924689E+01</totfact>
</mgrwt>
</event>
<event>
 4    5  0.6615028E-008  0.6807365E+03  0.7818608E-02  0.1008910E+00
          2   -1    0    0  501    0  0.00000000000E+00  0.00000000000E+00  0.19363425227E+04  0.19363425227E+04  0.25500000000E-02 0. -1.
         -2   -1    0    0    0  501 -0.00000000000E+00 -0.00000000000E+00 -0.70850395334E+03  0.70850395335E+03  0.25500000000E-02 0.  1.
    8880023    1    1    2    0    0  0.46378406675E+02 -0.16565348255E+03  0.18554345427E+04  0.19763703047E+04  0.65864270000E+03 0. -1.
    8880022    1    1    2    0    0 -0.46378406675E+02  0.16565348255E+03 -0.62759597333E+03  0.66847617134E+03  0.15294330000E+03 0.  0.
<mgrwt>
<rscale>  0 0.51910124E+03</rscale>
<asrwt>0</asrwt>
<pdfrwt beam="1">  1        2 0.29789885E+00 0.68073654E+03</pdfrwt>
<pdfrwt beam="2">  1       -2 0.10900061E+00 0.68073654E+03</pdfrwt>
<totfact> 0.50975529E+00</totfact>
</mgrwt>
</event>
<event>
 4    5  0.6615028E-008  0.1175313E+04  0.7818608E-02  0.9181501E-01
          2   -1    0    0  501    0  0.00000000000E+00  0.00000000000E+00  0.18184501306E+04  0.18184501306E+04  0.25500000000E-02 0. -1.
         -2   -1    0    0    0  501 -0.00000000000E+00 -0.00000000000E+00 -0.91584426803E+03  0.91584426803E+03  0.25500000000E-02 0.  1.
    8880023    1    1    2    0    0 -0.37071876484E+03 -0.90006619819E+03  0.12248916142E+04  0.16975633233E+04  0.65864270000E+03 0. -1.
    8880022    1    1    2    0    0  0.37071876484E+03  0.90006619819E+03 -0.32228575169E+03  0.10367310753E+04  0.15294330000E+03 0.  1.
<mgrwt>
<rscale>  0 0.11246426E+04</rscale>
<asrwt>0</asrwt>
<pdfrwt beam="1">  1        2 0.27976155E+00 0.11753135E+04</pdfrwt>
<pdfrwt beam="2">  1       -2 0.14089912E+00 0.11753135E+04</pdfrwt>
<totfact> 0.29047967E+00</totfact>
</mgrwt>
</event>
<event>
 4    5  0.6615028E-008  0.1107379E+04  0.7818608E-02  0.9252885E-01
          2   -1    0    0  501    0  0.00000000000E+00  0.00000000000E+00  0.21786504081E+04  0.21786504081E+04  0.25500000000E-02 0. -1.
         -2   -1    0    0    0  501 -0.00000000000E+00 -0.00000000000E+00 -0.82956495465E+03  0.82956495466E+03  0.25500000000E-02 0.  1.
    8880023    1    1    2    0    0 -0.14270711899E+03 -0.87869963979E+03  0.17085726025E+04  0.20360522889E+04  0.65864270000E+03 0.  0.
    8880022    1    1    2    0    0  0.14270711899E+03  0.87869963979E+03 -0.35948714909E+03  0.97216307384E+03  0.15294330000E+03 0.  0.
<mgrwt>
<rscale>  0 0.10523856E+04</rscale>
<asrwt>0</asrwt>
<pdfrwt beam="1">  1        2 0.33517698E+00 0.11073792E+04</pdfrwt>
<pdfrwt beam="2">  1       -2 0.12762538E+00 0.11073792E+04</pdfrwt>
<totfact> 0.23850603E+00</totfact>
</mgrwt>
</event>
<event>
 4    5  0.6615028E-008  0.6795151E+03  0.7818608E-02  0.1009599E+00
         -2   -1    0    0    0  501 -0.00000000000E+00  0.00000000000E+00  0.42883950313E+03  0.42883950313E+03  0.25500000000E-02 0.  1.
          2   -1    0    0  501    0  0.00000000000E+00 -0.00000000000E+00 -0.26064880101E+04  0.26064880101E+04  0.25500000000E-02 0. -1.
    8880023    1    1    2    0    0  0.37662958724E+02  0.16282543813E+03 -0.25282102665E+04  0.26179358242E+04  0.65864270000E+03 0. -1.
    8880022    1    1    2    0    0 -0.37662958724E+02 -0.16282543813E+03  0.35056175956E+03  0.41739168900E+03  0.15294330000E+03 0.  0.
<mgrwt>
<rscale>  0 0.51634216E+03</rscale>
<asrwt>0</asrwt>
<pdfrwt beam="1">  1        2 0.40099815E+00 0.67951514E+03</pdfrwt>
<pdfrwt beam="2">  1       -2 0.65975310E-01 0.67951514E+03</pdfrwt>
<totfact> 0.68021620E+00</totfact>
</mgrwt>
</event>
<event>
 4    5  0.6615028E-008  0.6995172E+03  0.7818608E-02  0.9999210E-01
          2   -1    0    0  501    0  0.00000000000E+00  0.00000000000E+00  0.58862399216E+03  0.58862399217E+03  0.25500000000E-02 0. -1.
         -2   -1    0    0    0  501 -0.00000000000E+00 -0.00000000000E+00 -0.49775663859E+03  0.49775663860E+03  0.25500000000E-02 0.  1.
    8880023    1    1    2    0    0  0.23549102993E+03  0.76199529519E+01  0.27376842964E+03  0.75118136838E+03  0.65864270000E+03 0. -1.
    8880022    1    1    2    0    0 -0.23549102993E+03 -0.76199529519E+01 -0.18290107608E+03  0.33519926239E+03  0.15294330000E+03 0.  0.
<mgrwt>
<rscale>  0 0.55684890E+03</rscale>
<asrwt>0</asrwt>
<pdfrwt beam="1">  1        2 0.90557537E-01 0.69951719E+03</pdfrwt>
<pdfrwt beam="2">  1       -2 0.76577944E-01 0.69951719E+03</pdfrwt>
<totfact> 0.78544075E+01</totfact>
</mgrwt>
</event>
<event>
 4    5  0.6615028E-008  0.6607653E+03  0.7818608E-02  0.1023386E+00
          2   -1    0    0  501    0  0.00000000000E+00  0.00000000000E+00  0.92643135748E+03  0.92643135749E+03  0.25500000000E-02 0. -1.
         -2   -1    0    0    0  501 -0.00000000000E+00 -0.00000000000E+00 -0.32828419043E+03  0.32828419044E+03  0.25500000000E-02 0.  1.
    8880023    1    1    2    0    0 -0.16454589518E+02  0.50296763135E+02  0.77268763788E+03  0.10166891904E+04  0.65864270000E+03 0. -1.
    8880022    1    1    2    0    0  0.16454589518E+02 -0.50296763135E+02 -0.17454047083E+03  0.23802635751E+03  0.15294330000E+03 0.  0.
<mgrwt>
<rscale>  0 0.46484358E+03</rscale>
<asrwt>0</asrwt>
<pdfrwt beam="1">  1        2 0.14252790E+00 0.66076526E+03</pdfrwt>
<pdfrwt beam="2">  1       -2 0.50505260E-01 0.66076526E+03</pdfrwt>
<totfact> 0.10638090E+02</totfact>
</mgrwt>
</event>
<event>
 4    5  0.7352999E-008  0.1504694E+04  0.7818608E-02  0.8906328E-01
         -2   -1    0    0    0  501 -0.00000000000E+00  0.00000000000E+00  0.15664049271E+04  0.15664049271E+04  0.25500000000E-02 0.  1.
          2   -1    0    0  501    0  0.00000000000E+00 -0.00000000000E+00 -0.26640220304E+04  0.26640220304E+04  0.25500000000E-02 0. -1.
    8880023    1    1    2    0    0  0.43373818267E+03  0.12814703260E+04 -0.20687328593E+04  0.25580775706E+04  0.65864270000E+03 0. -1.
    8880022    1    1    2    0    0 -0.43373818267E+03 -0.12814703260E+04  0.97111575601E+03  0.16723493870E+04  0.15294330000E+03 0.  0.
<mgrwt>
<rscale>  0 0.14675428E+04</rscale>
<asrwt>0</asrwt>
<pdfrwt beam="1">  1        2 0.40984954E+00 0.15046944E+04</pdfrwt>
<pdfrwt beam="2">  1       -2 0.24098537E+00 0.15046944E+04</pdfrwt>
<totfact> 0.19113697E-01</totfact>
</mgrwt>
</event>
<event>
 4    5  0.6615028E-008  0.8189180E+03  0.7818608E-02  0.9671292E-01
          2   -1    0    0  501    0  0.00000000000E+00  0.00000000000E+00  0.92218103842E+03  0.92218103842E+03  0.25500000000E-02 0. -1.
         -2   -1    0    0    0  501 -0.00000000000E+00 -0.00000000000E+00 -0.91425804711E+03  0.91425804711E+03  0.25500000000E-02 0.  1.
    8880023    1    1    2    0    0  0.45651474294E+03 -0.16855515798E+03  0.62909386615E+03  0.10326596005E+04  0.65864270000E+03 0.  0.
    8880022    1    1    2    0    0 -0.45651474294E+03  0.16855515798E+03 -0.62117087484E+03  0.80377948504E+03  0.15294330000E+03 0.  0.
<mgrwt>
<rscale>  0 0.72752086E+03</rscale>
<asrwt>0</asrwt>
<pdfrwt beam="1">  1        2 0.14187401E+00 0.81891804E+03</pdfrwt>
<pdfrwt beam="2">  1       -2 0.14065508E+00 0.81891804E+03</pdfrwt>
<totfact> 0.10143834E+01</totfact>
</mgrwt>
</event>
<event>
 4    5  0.6615028E-008  0.2242623E+04  0.7818608E-02  0.8510608E-01
         -2   -1    0    0    0  501 -0.00000000000E+00  0.00000000000E+00  0.15152714691E+04  0.15152714691E+04  0.25500000000E-02 0.  1.
          2   -1    0    0  501    0  0.00000000000E+00 -0.00000000000E+00 -0.34217025407E+04  0.34217025407E+04  0.25500000000E-02 0. -1.
    8880023    1    1    2    0    0  0.19417956759E+04  0.90828211079E+03 -0.16249584139E+04  0.27694488428E+04  0.65864270000E+03 0.  0.
    8880022    1    1    2    0    0 -0.19417956759E+04 -0.90828211079E+03 -0.28147265769E+03  0.21675251670E+04  0.15294330000E+03 0.  0.
<mgrwt>
<rscale>  0 0.22188858E+04</rscale>
<asrwt>0</asrwt>
<pdfrwt beam="1">  1        2 0.52641577E+00 0.22426228E+04</pdfrwt>
<pdfrwt beam="2">  1       -2 0.23311869E+00 0.22426228E+04</pdfrwt>
<totfact> 0.65429529E-02</totfact>
</mgrwt>
</event>
<event>
 4    5  0.6615028E-008  0.8483608E+03  0.7818608E-02  0.9614612E-01
          2   -1    0    0  501    0  0.00000000000E+00  0.00000000000E+00  0.10399492760E+04  0.10399492760E+04  0.25500000000E-02 0. -1.
         -2   -1    0    0    0  501 -0.00000000000E+00 -0.00000000000E+00 -0.11223989783E+04  0.11223989783E+04  0.25500000000E-02 0.  1.
    8880023    1    1    2    0    0  0.52328202951E+03 -0.10991724345E+03  0.76922382611E+03  0.11451730803E+04  0.65864270000E+03 0. -1.
    8880022    1    1    2    0    0 -0.52328202951E+03  0.10991724345E+03 -0.85167352836E+03  0.10171751741E+04  0.15294330000E+03 0.  0.
<mgrwt>
<rscale>  0 0.76336547E+03</rscale>
<asrwt>0</asrwt>
<pdfrwt beam="1">  1        2 0.15999220E+00 0.84836082E+03</pdfrwt>
<pdfrwt beam="2">  1       -2 0.17267677E+00 0.84836082E+03</pdfrwt>
<totfact> 0.48853003E+00</totfact>
</mgrwt>
</event>
<event>
 4    5  0.6615028E-008  0.9171802E+03  0.7818608E-02  0.9498996E-01
         -2   -1    0    0    0  501 -0.00000000000E+00  0.00000000000E+00  0.81209153646E+03  0.81209153646E+03  0.25500000000E-02 0.  1.
          2   -1    0    0  501    0  0.00000000000E+00 -0.00000000000E+00 -0.31746826291E+04  0.31746826291E+04  0.25500000000E-02 0. -1.
    8880023    1    1    2    0    0  0.38282787033E+03 -0.51073691995E+03 -0.29602510122E+04  0.30990814190E+04  0.65864270000E+03 0. -1.
    8880022    1    1    2    0    0 -0.38282787033E+03  0.51073691995E+03  0.59765991964E+03  0.88769274654E+03  0.15294330000E+03 0.  0.
<mgrwt>
<rscale>  0 0.84357870E+03</rscale>
<asrwt>0</asrwt>
<pdfrwt beam="1">  1        2 0.48841271E+00 0.91718024E+03</pdfrwt>
<pdfrwt beam="2">  1       -2 0.12493716E+00 0.91718024E+03</pdfrwt>
<totfact> 0.67112734E-01</totfact>
</mgrwt>
</event>
<event>
 4    5  0.6615028E-008  0.6948951E+03  0.7818608E-02  0.1001908E+00
         -2   -1    0    0    0  501 -0.00000000000E+00  0.00000000000E+00  0.44793757925E+03  0.44793757925E+03  0.25500000000E-02 0.  1.
          2   -1    0    0  501    0  0.00000000000E+00 -0.00000000000E+00 -0.16877616117E+04  0.16877616117E+04  0.25500000000E-02 0. -1.
    8880023    1    1    2    0    0 -0.14845123278E+03 -0.16441171786E+03 -0.15657259169E+04  0.17130022868E+04  0.65864270000E+03 0. -1.
    8880022    1    1    2    0    0  0.14845123278E+03  0.16441171786E+03  0.32590188444E+03  0.42269690415E+03  0.15294330000E+03 0.  0.
<mgrwt>
<rscale>  0 0.54821662E+03</rscale>
<asrwt>0</asrwt>
<pdfrwt beam="1">  1        2 0.25965563E+00 0.69489509E+03</pdfrwt>
<pdfrwt beam="2">  1       -2 0.68913475E-01 0.69489509E+03</pdfrwt>
<totfact> 0.19835322E+01</totfact>
</mgrwt>
</event>
<event>
 4    5  0.6615028E-008  0.8576812E+03  0.7818608E-02  0.9597702E-01
          2   -1    0    0  501    0  0.00000000000E+00  0.00000000000E+00  0.17880279581E+04  0.17880279582E+04  0.25500000000E-02 0. -1.
         -2   -1    0    0    0  501 -0.00000000000E+00 -0.00000000000E+00 -0.73151864233E+03  0.73151864233E+03  0.25500000000E-02 0.  1.
    8880023    1    1    2    0    0  0.53494640902E+03 -0.12505646315E+03  0.15460267810E+04  0.17679976791E+04  0.65864270000E+03 0. -1.
    8880022    1    1    2    0    0 -0.53494640902E+03  0.12505646315E+03 -0.48951746517E+03  0.75154892138E+03  0.15294330000E+03 0.  0.
<mgrwt>
<rscale>  0 0.77448491E+03</rscale>
<asrwt>0</asrwt>
<pdfrwt beam="1">  1        2 0.27508122E+00 0.85768117E+03</pdfrwt>
<pdfrwt beam="2">  1       -2 0.11254133E+00 0.85768117E+03</pdfrwt>
<totfact> 0.55275974E+00</totfact>
</mgrwt>
</event>
<event>
 4    5  0.6615028E-008  0.8247746E+03  0.7818608E-02  0.9659586E-01
          2   -1    0    0  501    0  0.00000000000E+00  0.00000000000E+00  0.20562823507E+04  0.20562823507E+04  0.25500000000E-02 0. -1.
         -2   -1    0    0    0  501 -0.00000000000E+00 -0.00000000000E+00 -0.54973096270E+03  0.54973096270E+03  0.25500000000E-02 0.  1.
    8880023    1    1    2    0    0  0.40146519775E+03 -0.29200780063E+03  0.18208061426E+04  0.19988967147E+04  0.65864270000E+03 0. -1.
    8880022    1    1    2    0    0 -0.40146519775E+03  0.29200780063E+03 -0.31425475462E+03  0.60711659873E+03  0.15294330000E+03 0.  0.
<mgrwt>
<rscale>  0 0.73474836E+03</rscale>
<asrwt>0</asrwt>
<pdfrwt beam="1">  1        2 0.31635113E+00 0.82477456E+03</pdfrwt>
<pdfrwt beam="2">  1       -2 0.84573995E-01 0.82477456E+03</pdfrwt>
<totfact> 0.77685731E+00</totfact>
</mgrwt>
</event>
<event>
 4    5  0.6615028E-008  0.1647398E+04  0.7818608E-02  0.8812007E-01
          2   -1    0    0  501    0  0.00000000000E+00  0.00000000000E+00  0.10249030979E+04  0.10249030979E+04  0.25500000000E-02 0. -1.
         -2   -1    0    0    0  501 -0.00000000000E+00 -0.00000000000E+00 -0.28807636092E+04  0.28807636092E+04  0.25500000000E-02 0.  1.
    8880023    1    1    2    0    0  0.64845137156E+03 -0.13636787082E+04 -0.20002918788E+03  0.16594971175E+04  0.65864270000E+03 0. -1.
    8880022    1    1    2    0    0 -0.64845137156E+03  0.13636787082E+04 -0.16558313235E+04  0.22461695896E+04  0.15294330000E+03 0.  0.
<mgrwt>
<rscale>  0 0.16139771E+04</rscale>
<asrwt>0</asrwt>
<pdfrwt beam="1">  1        2 0.15767740E+00 0.16473976E+04</pdfrwt>
<pdfrwt beam="2">  1       -2 0.44319440E+00 0.16473976E+04</pdfrwt>
<totfact> 0.87183519E-02</totfact>
</mgrwt>
</event>
<event>
 4    5  0.6615028E-008  0.7377294E+03  0.7818608E-02  0.9866611E-01
          2   -1    0    0  501    0  0.00000000000E+00  0.00000000000E+00  0.56961075241E+03  0.56961075241E+03  0.25500000000E-02 0. -1.
         -2   -1    0    0    0  501 -0.00000000000E+00 -0.00000000000E+00 -0.16939179643E+04  0.16939179643E+04  0.25500000000E-02 0.  1.
    8880023    1    1    2    0    0 -0.61027528027E+01  0.33226068645E+03  0.29746817505E+03  0.79544448504E+03  0.65864270000E+03 0. -1.
    8880022    1    1    2    0    0  0.61027528027E+01 -0.33226068645E+03 -0.14217753869E+04  0.14680842316E+04  0.15294330000E+03 0.  0.
<mgrwt>
<rscale>  0 0.61907090E+03</rscale>
<asrwt>0</asrwt>
<pdfrwt beam="1">  1        2 0.87632424E-01 0.73772936E+03</pdfrwt>
<pdfrwt beam="2">  1       -2 0.26060276E+00 0.73772936E+03</pdfrwt>
<totfact> 0.30203254E+00</totfact>
</mgrwt>
</event>
<event>
 4    5  0.6615028E-008  0.1102912E+04  0.7818608E-02  0.9257821E-01
          2   -1    0    0  501    0  0.00000000000E+00  0.00000000000E+00  0.12145781001E+04  0.12145781001E+04  0.25500000000E-02 0. -1.
         -2   -1    0    0    0  501 -0.00000000000E+00 -0.00000000000E+00 -0.97630510805E+03  0.97630510805E+03  0.25500000000E-02 0.  1.
    8880023    1    1    2    0    0  0.80990667848E+03  0.35588755072E+03  0.56033644280E+03  0.12370900986E+04  0.65864270000E+03 0. -1.
    8880022    1    1    2    0    0 -0.80990667848E+03 -0.35588755072E+03 -0.32206345073E+03  0.95379310960E+03  0.15294330000E+03 0.  0.
<mgrwt>
<rscale>  0 0.10476044E+04</rscale>
<asrwt>0</asrwt>
<pdfrwt beam="1">  1        2 0.18685817E+00 0.11029120E+04</pdfrwt>
<pdfrwt beam="2">  1       -2 0.15020079E+00 0.11029120E+04</pdfrwt>
<totfact> 0.54397054E+00</totfact>
</mgrwt>
</event>
<event>
 4    5  0.6615028E-008  0.8566240E+03  0.7818608E-02  0.9599597E-01
         -2   -1    0    0    0  501 -0.00000000000E+00  0.00000000000E+00  0.87636685003E+03  0.87636685004E+03  0.25500000000E-02 0.  1.
          2   -1    0    0  501    0  0.00000000000E+00 -0.00000000000E+00 -0.81707926107E+03  0.81707926107E+03  0.25500000000E-02 0. -1.
    8880023    1    1    2    0    0 -0.14660902895E+03  0.52773118760E+03 -0.41601540323E+03  0.95229902642E+03  0.65864270000E+03 0. -1.
    8880022    1    1    2    0    0  0.14660902895E+03 -0.52773118760E+03  0.47530299220E+03  0.74114708469E+03  0.15294330000E+03 0.  0.
<mgrwt>
<rscale>  0 0.77322846E+03</rscale>
<asrwt>0</asrwt>
<pdfrwt beam="1">  1        2 0.12570450E+00 0.85662397E+03</pdfrwt>
<pdfrwt beam="2">  1       -2 0.13482567E+00 0.85662397E+03</pdfrwt>
<totfact> 0.13316386E+01</totfact>
</mgrwt>
</event>
<event>
 4    5  0.6615028E-008  0.1392744E+04  0.7818608E-02  0.8989342E-01
         -2   -1    0    0    0  501 -0.00000000000E+00  0.00000000000E+00  0.74471916528E+03  0.74471916529E+03  0.25500000000E-02 0.  1.
          2   -1    0    0  501    0  0.00000000000E+00 -0.00000000000E+00 -0.26585729525E+04  0.26585729525E+04  0.25500000000E-02 0. -1.
    8880023    1    1    2    0    0  0.99525835208E+03 -0.71790397548E+03 -0.16120118383E+04  0.21303327624E+04  0.65864270000E+03 0.  0.
    8880022    1    1    2    0    0 -0.99525835208E+03  0.71790397548E+03 -0.30184194892E+03  0.12729593554E+04  0.15294330000E+03 0.  0.
<mgrwt>
<rscale>  0 0.13519656E+04</rscale>
<asrwt>0</asrwt>
<pdfrwt beam="1">  1        2 0.40901122E+00 0.13927439E+04</pdfrwt>
<pdfrwt beam="2">  1       -2 0.11457218E+00 0.13927439E+04</pdfrwt>
<totfact> 0.16086549E+00</totfact>
</mgrwt>
</event>
<event>
 4    5  0.6615028E-008  0.8468903E+03  0.7818608E-02  0.9617322E-01
         -2   -1    0    0    0  501 -0.00000000000E+00  0.00000000000E+00  0.76083515248E+03  0.76083515249E+03  0.25500000000E-02 0.  1.
          2   -1    0    0  501    0  0.00000000000E+00 -0.00000000000E+00 -0.10643765646E+04  0.10643765646E+04  0.25500000000E-02 0. -1.
    8880023    1    1    2    0    0 -0.43734120637E+03 -0.30355498959E+03 -0.73636896295E+03  0.11222577326E+04  0.65864270000E+03 0.  0.
    8880022    1    1    2    0    0  0.43734120637E+03  0.30355498959E+03  0.43282755086E+03  0.70295398448E+03  0.15294330000E+03 0.  0.
<mgrwt>
<rscale>  0 0.76160205E+03</rscale>
<asrwt>0</asrwt>
<pdfrwt beam="1">  1        2 0.16375024E+00 0.84689029E+03</pdfrwt>
<pdfrwt beam="2">  1       -2 0.11705156E+00 0.84689029E+03</pdfrwt>
<totfact> 0.13037386E+01</totfact>
</mgrwt>
</event>
<event>
 4    5  0.6615028E-008  0.6837302E+03  0.7818608E-02  0.1007288E+00
         -2   -1    0    0    0  501 -0.00000000000E+00  0.00000000000E+00  0.85051480795E+03  0.85051480795E+03  0.25500000000E-02 0.  1.
          2   -1    0    0  501    0  0.00000000000E+00 -0.00000000000E+00 -0.22419712792E+04  0.22419712792E+04  0.25500000000E-02 0. -1.
    8880023    1    1    2    0    0  0.17656315435E+03 -0.50021738837E+02 -0.21715439043E+04  0.22766400366E+04  0.65864270000E+03 0. -1.
    8880022    1    1    2    0    0 -0.17656315435E+03  0.50021738837E+02  0.78008743308E+03  0.81584605049E+03  0.15294330000E+03 0.  0.
<mgrwt>
<rscale>  0 0.52566975E+03</rscale>
<asrwt>0</asrwt>
<pdfrwt beam="1">  1        2 0.34491865E+00 0.68373016E+03</pdfrwt>
<pdfrwt beam="2">  1       -2 0.13084843E+00 0.68373016E+03</pdfrwt>
<totfact> 0.22086950E+00</totfact>
</mgrwt>
</event>
<event>
 4    5  0.6615028E-008  0.7714240E+03  0.7818608E-02  0.9776382E-01
         -2   -1    0    0    0  501 -0.00000000000E+00  0.00000000000E+00  0.22095082671E+03  0.22095082672E+03  0.25500000000E-02 0.  1.
          2   -1    0    0  501    0  0.00000000000E+00 -0.00000000000E+00 -0.23607461951E+04  0.23607461951E+04  0.25500000000E-02 0. -1.
    8880023    1    1    2    0    0 -0.20075939963E+02 -0.40110071881E+03 -0.19769665591E+04  0.21221432120E+04  0.65864270000E+03 0. -1.
    8880022    1    1    2    0    0  0.20075939963E+02  0.40110071881E+03 -0.16282880926E+03  0.45955380983E+03  0.15294330000E+03 0.  0.
<mgrwt>
<rscale>  0 0.66645575E+03</rscale>
<asrwt>0</asrwt>
<pdfrwt beam="1">  1        2 0.36319171E+00 0.77142403E+03</pdfrwt>
<pdfrwt beam="2">  1       -2 0.33992436E-01 0.77142403E+03</pdfrwt>
<totfact> 0.35142225E+01</totfact>
</mgrwt>
</event>
<event>
 4    5  0.6615028E-008  0.1292735E+04  0.7818608E-02  0.9071859E-01
          2   -1    0    0  501    0  0.00000000000E+00  0.00000000000E+00  0.25138901009E+04  0.25138901009E+04  0.25500000000E-02 0. -1.
         -2   -1    0    0    0  501 -0.00000000000E+00 -0.00000000000E+00 -0.10769034172E+04  0.10769034172E+04  0.25500000000E-02 0.  1.
    8880023    1    1    2    0    0  0.70244528457E+03  0.86250994922E+03  0.19633397887E+04  0.23507160872E+04  0.65864270000E+03 0.  0.
    8880022    1    1    2    0    0 -0.70244528457E+03 -0.86250994922E+03 -0.52635310503E+03  0.12400774309E+04  0.15294330000E+03 0.  0.
<mgrwt>
<rscale>  0 0.12479881E+04</rscale>
<asrwt>0</asrwt>
<pdfrwt beam="1">  1        2 0.38675232E+00 0.12927347E+04</pdfrwt>
<pdfrwt beam="2">  1       -2 0.16567745E+00 0.12927347E+04</pdfrwt>
<totfact> 0.75511309E-01</totfact>
</mgrwt>
</event>
<event>
 4    5  0.6615028E-008  0.9690881E+03  0.7818608E-02  0.9423166E-01
          2   -1    0    0  501    0  0.00000000000E+00  0.00000000000E+00  0.10027281933E+04  0.10027281933E+04  0.25500000000E-02 0. -1.
         -2   -1    0    0    0  501 -0.00000000000E+00 -0.00000000000E+00 -0.87400326608E+03  0.87400326608E+03  0.25500000000E-02 0.  1.
    8880023    1    1    2    0    0  0.66592024810E+03 -0.24874050472E+03  0.46586225074E+03  0.10752485566E+04  0.65864270000E+03 0.  0.
    8880022    1    1    2    0    0 -0.66592024810E+03  0.24874050472E+03 -0.33713732353E+03  0.80148290278E+03  0.15294330000E+03 0.  0.
<mgrwt>
<rscale>  0 0.90193447E+03</rscale>
<asrwt>0</asrwt>
<pdfrwt beam="1">  1        2 0.15426588E+00 0.96908814E+03</pdfrwt>
<pdfrwt beam="2">  1       -2 0.13446204E+00 0.96908814E+03</pdfrwt>
<totfact> 0.99445190E+00</totfact>
</mgrwt>
</event>
<event>
 4    5  0.6615028E-008  0.1237436E+04  0.7818608E-02  0.9121564E-01
          2   -1    0    0  501    0  0.00000000000E+00  0.00000000000E+00  0.27550902653E+04  0.27550902653E+04  0.25500000000E-02 0. -1.
         -2   -1    0    0    0  501 -0.00000000000E+00 -0.00000000000E+00 -0.93329163481E+03  0.93329163482E+03  0.25500000000E-02 0.  1.
    8880023    1    1    2    0    0 -0.97668416033E+03 -0.37884843672E+03  0.22327495512E+04  0.25527277277E+04  0.65864270000E+03 0.  0.
    8880022    1    1    2    0    0  0.97668416033E+03  0.37884843672E+03 -0.41095092073E+03  0.11356541724E+04  0.15294330000E+03 0.  0.
<mgrwt>
<rscale>  0 0.11901030E+04</rscale>
<asrwt>0</asrwt>
<pdfrwt beam="1">  1        2 0.42386003E+00 0.12374362E+04</pdfrwt>
<pdfrwt beam="2">  1       -2 0.14358333E+00 0.12374362E+04</pdfrwt>
<totfact> 0.80828227E-01</totfact>
</mgrwt>
</event>
<event>
 4    5  0.6615028E-008  0.9222638E+03  0.7818608E-02  0.9491197E-01
         -2   -1    0    0    0  501 -0.00000000000E+00  0.00000000000E+00  0.12268649383E+04  0.12268649383E+04  0.25500000000E-02 0.  1.
          2   -1    0    0  501    0  0.00000000000E+00 -0.00000000000E+00 -0.13448728759E+04  0.13448728759E+04  0.25500000000E-02 0. -1.
    8880023    1    1    2    0    0 -0.23455051696E+03 -0.60145362059E+03 -0.10692166390E+04  0.14120179992E+04  0.65864270000E+03 0. -1.
    8880022    1    1    2    0    0  0.23455051696E+03  0.60145362059E+03  0.95120870141E+03  0.11597198150E+04  0.15294330000E+03 0.  0.
<mgrwt>
<rscale>  0 0.84935986E+03</rscale>
<asrwt>0</asrwt>
<pdfrwt beam="1">  1        2 0.20690352E+00 0.92226385E+03</pdfrwt>
<pdfrwt beam="2">  1       -2 0.18874845E+00 0.92226385E+03</pdfrwt>
<totfact> 0.24652995E+00</totfact>
</mgrwt>
</event>
<event>
 4    5  0.6615028E-008  0.1303900E+04  0.7818608E-02  0.9062199E-01
         -2   -1    0    0    0  501 -0.00000000000E+00  0.00000000000E+00  0.10158658044E+04  0.10158658044E+04  0.25500000000E-02 0.  1.
          2   -1    0    0  501    0  0.00000000000E+00 -0.00000000000E+00 -0.26753636301E+04  0.26753636301E+04  0.25500000000E-02 0. -1.
    8880023    1    1    2    0    0 -0.11212344737E+04  0.95802207634E+02 -0.21010334458E+04  0.24727508073E+04  0.65864270000E+03 0.  0.
    8880022    1    1    2    0    0  0.11212344737E+04 -0.95802207634E+02  0.44153562015E+03  0.12184786272E+04  0.15294330000E+03 0.  0.
<mgrwt>
<rscale>  0 0.12596382E+04</rscale>
<asrwt>0</asrwt>
<pdfrwt beam="1">  1        2 0.41159440E+00 0.13038999E+04</pdfrwt>
<pdfrwt beam="2">  1       -2 0.15628705E+00 0.13038999E+04</pdfrwt>
<totfact> 0.71258750E-01</totfact>
</mgrwt>
</event>
<event>
 4    5  0.6615028E-008  0.1992500E+04  0.7818608E-02  0.8622920E-01
          2   -1    0    0  501    0  0.00000000000E+00  0.00000000000E+00  0.32483161287E+04  0.32483161287E+04  0.25500000000E-02 0. -1.
         -2   -1    0    0    0  501 -0.00000000000E+00 -0.00000000000E+00 -0.16088799350E+04  0.16088799350E+04  0.25500000000E-02 0.  1.
    8880023    1    1    2    0    0  0.22608391304E+03 -0.18668503820E+04 -0.44928070249E+03  0.20425248200E+04  0.65864270000E+03 0.  0.
    8880022    1    1    2    0    0 -0.22608391304E+03  0.18668503820E+04  0.20887168961E+04  0.28146712437E+04  0.15294330000E+03 0.  0.
<mgrwt>
<rscale>  0 0.19655060E+04</rscale>
<asrwt>0</asrwt>
<pdfrwt beam="1">  1        2 0.49974094E+00 0.19924996E+04</pdfrwt>
<pdfrwt beam="2">  1       -2 0.24751999E+00 0.19924996E+04</pdfrwt>
<totfact> 0.71321168E-02</totfact>
</mgrwt>
</event>
<event>
 4    5  0.6615028E-008  0.8641349E+03  0.7818608E-02  0.9586250E-01
          2   -1    0    0  501    0  0.00000000000E+00  0.00000000000E+00  0.18139404695E+04  0.18139404695E+04  0.25500000000E-02 0. -1.
         -2   -1    0    0    0  501 -0.00000000000E+00 -0.00000000000E+00 -0.74090353660E+03  0.74090353660E+03  0.25500000000E-02 0.  1.
    8880023    1    1    2    0    0  0.18518054723E+03 -0.52785142776E+03 -0.41439484197E+03  0.95835914780E+03  0.65864270000E+03 0.  1.
    8880022    1    1    2    0    0 -0.18518054723E+03  0.52785142776E+03  0.14874317748E+04  0.15964848583E+04  0.15294330000E+03 0.  0.
<mgrwt>
<rscale>  0 0.78212963E+03</rscale>
<asrwt>0</asrwt>
<pdfrwt beam="1">  1        2 0.27906776E+00 0.86413493E+03</pdfrwt>
<pdfrwt beam="2">  1       -2 0.11398516E+00 0.86413493E+03</pdfrwt>
<totfact> 0.51813894E+00</totfact>
</mgrwt>
</event>
<event>
 4    5  0.6615028E-008  0.1039588E+04  0.7818608E-02  0.9331503E-01
         -2   -1    0    0    0  501 -0.00000000000E+00  0.00000000000E+00  0.60605580746E+03  0.60605580747E+03  0.25500000000E-02 0.  1.
          2   -1    0    0  501    0  0.00000000000E+00 -0.00000000000E+00 -0.26519486455E+04  0.26519486455E+04  0.25500000000E-02 0. -1.
    8880023    1    1    2    0    0 -0.45794665106E+03 -0.66122525895E+03 -0.21922857583E+04  0.24262854388E+04  0.65864270000E+03 0. -1.
    8880022    1    1    2    0    0  0.45794665106E+03  0.66122525895E+03  0.14639292032E+03  0.83171901410E+03  0.15294330000E+03 0.  0.
<mgrwt>
<rscale>  0 0.97933622E+03</rscale>
<asrwt>0</asrwt>
<pdfrwt beam="1">  1        2 0.40799209E+00 0.10395885E+04</pdfrwt>
<pdfrwt beam="2">  1       -2 0.93239356E-01 0.10395885E+04</pdfrwt>
<totfact> 0.27790818E+00</totfact>
</mgrwt>
</event>
<event>
 4    5  0.6615028E-008  0.9309351E+03  0.7818608E-02  0.9478092E-01
          2   -1    0    0  501    0  0.00000000000E+00  0.00000000000E+00  0.15146760276E+04  0.15146760276E+04  0.25500000000E-02 0. -1.
         -2   -1    0    0    0  501 -0.00000000000E+00 -0.00000000000E+00 -0.65473400502E+03  0.65473400503E+03  0.25500000000E-02 0.  1.
    8880023    1    1    2    0    0 -0.29059680057E+03  0.59024023962E+03  0.11104162592E+04  0.14490219170E+04  0.65864270000E+03 0.  0.
    8880022    1    1    2    0    0  0.29059680057E+03 -0.59024023962E+03 -0.25047423659E+03  0.72038811566E+03  0.15294330000E+03 0.  0.
<mgrwt>
<rscale>  0 0.85918475E+03</rscale>
<asrwt>0</asrwt>
<pdfrwt beam="1">  1        2 0.23302708E+00 0.93093515E+03</pdfrwt>
<pdfrwt beam="2">  1       -2 0.10072831E+00 0.93093515E+03</pdfrwt>
<totfact> 0.10138577E+01</totfact>
</mgrwt>
</event>
<event>
 4    5  0.6615028E-008  0.8892550E+03  0.7818608E-02  0.9543506E-01
         -2   -1    0    0    0  501 -0.00000000000E+00  0.00000000000E+00  0.20121518056E+04  0.20121518056E+04  0.25500000000E-02 0.  1.
          2   -1    0    0  501    0  0.00000000000E+00 -0.00000000000E+00 -0.61591129381E+03  0.61591129381E+03  0.25500000000E-02 0. -1.
    8880023    1    1    2    0    0 -0.31219391918E+03  0.50941062891E+03 -0.20463760797E+03  0.91249711719E+03  0.65864270000E+03 0. -1.
    8880022    1    1    2    0    0  0.31219391918E+03 -0.50941062891E+03  0.16008781198E+04  0.17155659822E+04  0.15294330000E+03 0.  0.
<mgrwt>
<rscale>  0 0.81150930E+03</rscale>
<asrwt>0</asrwt>
<pdfrwt beam="1">  1        2 0.94755583E-01 0.88925499E+03</pdfrwt>
<pdfrwt beam="2">  1       -2 0.30956182E+00 0.88925499E+03</pdfrwt>
<totfact> 0.13638960E+00</totfact>
</mgrwt>
</event>
<event>
 4    5  0.6615028E-008  0.7994114E+03  0.7818608E-02  0.9712070E-01
          2   -1    0    0  501    0  0.00000000000E+00  0.00000000000E+00  0.14246555220E+04  0.14246555220E+04  0.25500000000E-02 0. -1.
         -2   -1    0    0    0  501 -0.00000000000E+00 -0.00000000000E+00 -0.80616882071E+03  0.80616882072E+03  0.25500000000E-02 0.  1.
    8880023    1    1    2    0    0  0.26605103584E+03 -0.36669493918E+03  0.12223644335E+04  0.14605592582E+04  0.65864270000E+03 0.  0.
    8880022    1    1    2    0    0 -0.26605103584E+03  0.36669493918E+03 -0.60387773218E+03  0.77026508458E+03  0.15294330000E+03 0.  0.
<mgrwt>
<rscale>  0 0.70302661E+03</rscale>
<asrwt>0</asrwt>
<pdfrwt beam="1">  1        2 0.21917777E+00 0.79941137E+03</pdfrwt>
<pdfrwt beam="2">  1       -2 0.12402597E+00 0.79941137E+03</pdfrwt>
<totfact> 0.69658768E+00</totfact>
</mgrwt>
</event>
<event>
 4    5  0.6615028E-008  0.6623967E+03  0.7818608E-02  0.1021825E+00
         -2   -1    0    0    0  501 -0.00000000000E+00  0.00000000000E+00  0.33521266573E+03  0.33521266574E+03  0.25500000000E-02 0.  1.
          2   -1    0    0  501    0  0.00000000000E+00 -0.00000000000E+00 -0.63883535745E+03  0.63883535745E+03  0.25500000000E-02 0. -1.
    8880023    1    1    2    0    0  0.51136465016E+02 -0.48417811215E+02 -0.40606640099E+03  0.77695517938E+03  0.65864270000E+03 0.  0.
    8880022    1    1    2    0    0 -0.51136465016E+02  0.48417811215E+02  0.10244370927E+03  0.19709284381E+03  0.15294330000E+03 0.  0.
<mgrwt>
<rscale>  0 0.47033732E+03</rscale>
<asrwt>0</asrwt>
<pdfrwt beam="1">  1        2 0.98282363E-01 0.66239673E+03</pdfrwt>
<pdfrwt beam="2">  1       -2 0.51571179E-01 0.66239673E+03</pdfrwt>
<totfact> 0.16557628E+02</totfact>
</mgrwt>
</event>
<event>
 4    5  0.6615028E-008  0.8429257E+03  0.7818608E-02  0.9624688E-01
         -2   -1    0    0    0  501 -0.00000000000E+00  0.00000000000E+00  0.15861703951E+04  0.15861703951E+04  0.25500000000E-02 0.  1.
          2   -1    0    0  501    0  0.00000000000E+00 -0.00000000000E+00 -0.14461864296E+04  0.14461864296E+04  0.25500000000E-02 0. -1.
    8880023    1    1    2    0    0  0.10186306170E+03  0.51607892587E+03 -0.12674005733E+04  0.15221129920E+04  0.65864270000E+03 0.  0.
    8880022    1    1    2    0    0 -0.10186306170E+03 -0.51607892587E+03  0.14073845388E+04  0.15102438327E+04  0.15294330000E+03 0.  0.
<mgrwt>
<rscale>  0 0.75683492E+03</rscale>
<asrwt>0</asrwt>
<pdfrwt beam="1">  1        2 0.22249022E+00 0.84292571E+03</pdfrwt>
<pdfrwt beam="2">  1       -2 0.24402621E+00 0.84292571E+03</pdfrwt>
<totfact> 0.97373737E-01</totfact>
</mgrwt>
</event>
<event>
 4    5  0.6615028E-008  0.7662638E+03  0.7818608E-02  0.9789153E-01
          2   -1    0    0  501    0  0.00000000000E+00  0.00000000000E+00  0.65632352303E+03  0.65632352303E+03  0.25500000000E-02 0. -1.
         -2   -1    0    0    0  501 -0.00000000000E+00 -0.00000000000E+00 -0.30535570611E+04  0.30535570611E+04  0.25500000000E-02 0.  1.
    8880023    1    1    2    0    0  0.20369169413E+03  0.33445424376E+03  0.41156342696E+03  0.86979572780E+03  0.65864270000E+03 0.  0.
    8880022    1    1    2    0    0 -0.20369169413E+03 -0.33445424376E+03 -0.28087969650E+04  0.28400848563E+04  0.15294330000E+03 0.  0.
<mgrwt>
<rscale>  0 0.65947914E+03</rscale>
<asrwt>0</asrwt>
<pdfrwt beam="1">  1        2 0.10097285E+00 0.76626376E+03</pdfrwt>
<pdfrwt beam="2">  1       -2 0.46977800E+00 0.76626376E+03</pdfrwt>
<totfact> 0.12142746E-01</totfact>
</mgrwt>
</event>
<event>
 4    5  0.6615028E-008  0.7860048E+03  0.7818608E-02  0.9741916E-01
          2   -1    0    0  501    0  0.00000000000E+00  0.00000000000E+00  0.81474964430E+03  0.81474964430E+03  0.25500000000E-02 0. -1.
         -2   -1    0    0    0  501 -0.00000000000E+00 -0.00000000000E+00 -0.55007028893E+03  0.55007028893E+03  0.25500000000E-02 0.  1.
    8880023    1    1    2    0    0 -0.27683152137E+03  0.32765468477E+03  0.41037554926E+03  0.88668572864E+03  0.65864270000E+03 0. -1.
    8880022    1    1    2    0    0  0.27683152137E+03 -0.32765468477E+03 -0.14569619389E+03  0.47813420460E+03  0.15294330000E+03 0.  0.
<mgrwt>
<rscale>  0 0.68575035E+03</rscale>
<asrwt>0</asrwt>
<pdfrwt beam="1">  1        2 0.12534610E+00 0.78600476E+03</pdfrwt>
<pdfrwt beam="2">  1       -2 0.84626199E-01 0.78600476E+03</pdfrwt>
<totfact> 0.41361599E+01</totfact>
</mgrwt>
</event>
<event>
 4    5  0.6615028E-008  0.1088936E+04  0.7818608E-02  0.9273475E-01
          2   -1    0    0  501    0  0.00000000000E+00  0.00000000000E+00  0.63496123874E+03  0.63496123875E+03  0.25500000000E-02 0. -1.
         -2   -1    0    0    0  501 -0.00000000000E+00 -0.00000000000E+00 -0.19749319738E+04  0.19749319738E+04  0.25500000000E-02 0.  1.
    8880023    1    1    2    0    0 -0.86581674043E+03  0.48309658790E+02 -0.10616962217E+03  0.10940999251E+04  0.65864270000E+03 0.  0.
    8880022    1    1    2    0    0  0.86581674043E+03 -0.48309658790E+02 -0.12338011129E+04  0.15157932875E+04  0.15294330000E+03 0.  0.
<mgrwt>
<rscale>  0 0.10326190E+04</rscale>
<asrwt>0</asrwt>
<pdfrwt beam="1">  1        2 0.97686345E-01 0.10889365E+04</pdfrwt>
<pdfrwt beam="2">  1       -2 0.30383569E+00 0.10889365E+04</pdfrwt>
<totfact> 0.13874344E+00</totfact>
</mgrwt>
</event>
<event>
 4    5  0.6615028E-008  0.1128029E+04  0.7818608E-02  0.9230472E-01
          2   -1    0    0  501    0  0.00000000000E+00  0.00000000000E+00  0.42984321203E+04  0.42984321203E+04  0.25500000000E-02 0. -1.
         -2   -1    0    0    0  501 -0.00000000000E+00 -0.00000000000E+00 -0.56924706203E+03  0.56924706203E+03  0.25500000000E-02 0.  1.
    8880023    1    1    2    0    0 -0.29146764389E+03 -0.86815117558E+03  0.37731713403E+04  0.39381813087E+04  0.65864270000E+03 0.  0.
    8880022    1    1    2    0    0  0.29146764389E+03  0.86815117558E+03 -0.43986281958E+02  0.92949787365E+03  0.15294330000E+03 0.  0.
<mgrwt>
<rscale>  0 0.10744363E+04</rscale>
<asrwt>0</asrwt>
<pdfrwt beam="1">  1        2 0.66129724E+00 0.11280293E+04</pdfrwt>
<pdfrwt beam="2">  1       -2 0.87576473E-01 0.11280293E+04</pdfrwt>
<totfact> 0.22228974E-01</totfact>
</mgrwt>
</event>
<event>
 4    5  0.6615028E-008  0.9123758E+03  0.7818608E-02  0.9506450E-01
          2   -1    0    0  501    0  0.00000000000E+00  0.00000000000E+00  0.18984957254E+04  0.18984957254E+04  0.25500000000E-02 0. -1.
         -2   -1    0    0    0  501 -0.00000000000E+00 -0.00000000000E+00 -0.15018635331E+04  0.15018635331E+04  0.25500000000E-02 0.  1.
    8880023    1    1    2    0    0 -0.29415252702E+03  0.55865341164E+03  0.17082773005E+04  0.19366571418E+04  0.65864270000E+03 0. -1.
    8880022    1    1    2    0    0  0.29415252702E+03 -0.55865341164E+03 -0.13116451082E+04  0.14637021167E+04  0.15294330000E+03 0.  0.
<mgrwt>
<rscale>  0 0.83809988E+03</rscale>
<asrwt>0</asrwt>
<pdfrwt beam="1">  1        2 0.29207627E+00 0.91237577E+03</pdfrwt>
<pdfrwt beam="2">  1       -2 0.23105593E+00 0.91237577E+03</pdfrwt>
<totfact> 0.65000105E-01</totfact>
</mgrwt>
</event>
<event>
 4    5  0.6615028E-008  0.6999014E+03  0.7818608E-02  0.9997610E-01
          2   -1    0    0  501    0  0.00000000000E+00  0.00000000000E+00  0.12312898400E+04  0.12312898400E+04  0.25500000000E-02 0. -1.
         -2   -1    0    0    0  501 -0.00000000000E+00 -0.00000000000E+00 -0.20460708088E+03  0.20460708089E+03  0.25500000000E-02 0.  1.
    8880023    1    1    2    0    0 -0.20718698665E+03  0.11456592488E+03  0.85860673467E+03  0.11077308020E+04  0.65864270000E+03 0. -1.
    8880022    1    1    2    0    0  0.20718698665E+03 -0.11456592488E+03  0.16807602443E+03  0.32816611888E+03  0.15294330000E+03 0.  1.
<mgrwt>
<rscale>  0 0.55755141E+03</rscale>
<asrwt>0</asrwt>
<pdfrwt beam="1">  1        2 0.18942921E+00 0.69990143E+03</pdfrwt>
<pdfrwt beam="2">  1       -2 0.31478012E-01 0.69990143E+03</pdfrwt>
<totfact> 0.17272757E+02</totfact>
</mgrwt>
</event>
<event>
 4    5  0.6615028E-008  0.1095682E+04  0.7818608E-02  0.9265879E-01
          2   -1    0    0  501    0  0.00000000000E+00  0.00000000000E+00  0.18410715316E+04  0.18410715316E+04  0.25500000000E-02 0. -1.
         -2   -1    0    0    0  501 -0.00000000000E+00 -0.00000000000E+00 -0.63557137731E+03  0.63557137731E+03  0.25500000000E-02 0.  1.
    8880023    1    1    2    0    0 -0.87015394788E+03  0.97675194644E+02  0.11464119378E+04  0.15858054338E+04  0.65864270000E+03 0.  0.
    8880022    1    1    2    0    0  0.87015394788E+03 -0.97675194644E+02  0.59088216523E+02  0.89083747508E+03  0.15294330000E+03 0.  0.
<mgrwt>
<rscale>  0 0.10398569E+04</rscale>
<asrwt>0</asrwt>
<pdfrwt beam="1">  1        2 0.28324177E+00 0.10956818E+04</pdfrwt>
<pdfrwt beam="2">  1       -2 0.97780213E-01 0.10956818E+04</pdfrwt>
<totfact> 0.70491964E+00</totfact>
</mgrwt>
</event>
<event>
 4    5  0.6615028E-008  0.8495940E+03  0.7818608E-02  0.9612349E-01
         -2   -1    0    0    0  501 -0.00000000000E+00  0.00000000000E+00  0.79204640080E+03  0.79204640080E+03  0.25500000000E-02 0.  1.
          2   -1    0    0  501    0  0.00000000000E+00 -0.00000000000E+00 -0.36142896308E+04  0.36142896308E+04  0.25500000000E-02 0. -1.
    8880023    1    1    2    0    0  0.48427112920E+03  0.23126024790E+03 -0.34577553453E+04  0.35606013626E+04  0.65864270000E+03 0.  0.
    8880022    1    1    2    0    0 -0.48427112920E+03 -0.23126024790E+03  0.63551211526E+03  0.84573466908E+03  0.15294330000E+03 0.  0.
<mgrwt>
<rscale>  0 0.76484236E+03</rscale>
<asrwt>0</asrwt>
<pdfrwt beam="1">  1        2 0.55604455E+00 0.84959404E+03</pdfrwt>
<pdfrwt beam="2">  1       -2 0.12185329E+00 0.84959404E+03</pdfrwt>
<totfact> 0.36819009E-01</totfact>
</mgrwt>
</event>
<event>
 4    5  0.6615028E-008  0.1450116E+04  0.7818608E-02  0.8945689E-01
         -2   -1    0    0    0  501 -0.00000000000E+00  0.00000000000E+00  0.16323666228E+04  0.16323666228E+04  0.25500000000E-02 0.  1.
          2   -1    0    0  501    0  0.00000000000E+00 -0.00000000000E+00 -0.17885193351E+04  0.17885193351E+04  0.25500000000E-02 0. -1.
    8880023    1    1    2    0    0  0.12436342018E+04  0.34985591007E+03 -0.10945462757E+04  0.18168288147E+04  0.65864270000E+03 0.  0.
    8880022    1    1    2    0    0 -0.12436342018E+04 -0.34985591007E+03  0.93839356344E+03  0.16040571432E+04  0.15294330000E+03 0.  0.
<mgrwt>
<rscale>  0 0.14112872E+04</rscale>
<asrwt>0</asrwt>
<pdfrwt beam="1">  1        2 0.27515682E+00 0.14501156E+04</pdfrwt>
<pdfrwt beam="2">  1       -2 0.25113333E+00 0.14501156E+04</pdfrwt>
<totfact> 0.52239081E-01</totfact>
</mgrwt>
</event>
<event>
 4    5  0.6615028E-008  0.1341020E+04  0.7818608E-02  0.9030922E-01
          2   -1    0    0  501    0  0.00000000000E+00  0.00000000000E+00  0.27738903295E+04  0.27738903295E+04  0.25500000000E-02 0. -1.
         -2   -1    0    0    0  501 -0.00000000000E+00 -0.00000000000E+00 -0.11379889269E+04  0.11379889269E+04  0.25500000000E-02 0.  1.
    8880023    1    1    2    0    0  0.11315266702E+04  0.29012221175E+03  0.22225649982E+04  0.25957906080E+04  0.65864270000E+03 0. -1.
    8880022    1    1    2    0    0 -0.11315266702E+04 -0.29012221175E+03 -0.58666359557E+03  0.13160886484E+04  0.15294330000E+03 0.  0.
<mgrwt>
<rscale>  0 0.12982900E+04</rscale>
<asrwt>0</asrwt>
<pdfrwt beam="1">  1        2 0.42675235E+00 0.13410197E+04</pdfrwt>
<pdfrwt beam="2">  1       -2 0.17507522E+00 0.13410197E+04</pdfrwt>
<totfact> 0.45238817E-01</totfact>
</mgrwt>
</event>
<event>
 4    5  0.6615028E-008  0.7300365E+03  0.7818608E-02  0.9889983E-01
         -2   -1    0    0    0  501 -0.00000000000E+00  0.00000000000E+00  0.66974113181E+03  0.66974113181E+03  0.25500000000E-02 0.  1.
          2   -1    0    0  501    0  0.00000000000E+00 -0.00000000000E+00 -0.32799461217E+04  0.32799461217E+04  0.25500000000E-02 0. -1.
    8880023    1    1    2    0    0  0.16354596210E+03 -0.26906457025E+03 -0.31899708283E+04  0.32724405443E+04  0.65864270000E+03 0. -1.
    8880022    1    1    2    0    0 -0.16354596210E+03  0.26906457025E+03  0.57976583840E+03  0.67724670916E+03  0.15294330000E+03 0.  0.
<mgrwt>
<rscale>  0 0.60749232E+03</rscale>
<asrwt>0</asrwt>
<pdfrwt beam="1">  1        2 0.50460709E+00 0.73003646E+03</pdfrwt>
<pdfrwt beam="2">  1       -2 0.10303710E+00 0.73003646E+03</pdfrwt>
<totfact> 0.95780876E-01</totfact>
</mgrwt>
</event>
<event>
 4    5  0.6615028E-008  0.9111669E+03  0.7818608E-02  0.9508338E-01
          2   -1    0    0  501    0  0.00000000000E+00  0.00000000000E+00  0.93974306103E+03  0.93974306104E+03  0.25500000000E-02 0. -1.
         -2   -1    0    0    0  501 -0.00000000000E+00 -0.00000000000E+00 -0.95416543920E+03  0.95416543920E+03  0.25500000000E-02 0.  1.
    8880023    1    1    2    0    0  0.10714185571E+03 -0.62043174077E+03  0.52432802078E+03  0.10512587702E+04  0.65864270000E+03 0. -1.
    8880022    1    1    2    0    0 -0.10714185571E+03  0.62043174077E+03 -0.53875039895E+03  0.84264973007E+03  0.15294330000E+03 0.  0.
<mgrwt>
<rscale>  0 0.83671895E+03</rscale>
<asrwt>0</asrwt>
<pdfrwt beam="1">  1        2 0.14457586E+00 0.91116690E+03</pdfrwt>
<pdfrwt beam="2">  1       -2 0.14679468E+00 0.91116690E+03</pdfrwt>
<totfact> 0.87468114E+00</totfact>
</mgrwt>
</event>
<event>
 4    5  0.6615028E-008  0.1103754E+04  0.7818608E-02  0.9256888E-01
          2   -1    0    0  501    0  0.00000000000E+00  0.00000000000E+00  0.94214578209E+03  0.94214578210E+03  0.25500000000E-02 0. -1.
         -2   -1    0    0    0  501 -0.00000000000E+00 -0.00000000000E+00 -0.17293826885E+04  0.17293826885E+04  0.25500000000E-02 0.  1.
    8880023    1    1    2    0    0 -0.52977366006E+03 -0.70979106505E+03  0.40739281789E+03  0.11765383977E+04  0.65864270000E+03 0.  0.
    8880022    1    1    2    0    0  0.52977366006E+03  0.70979106505E+03 -0.11946297243E+04  0.14949900729E+04  0.15294330000E+03 0.  0.
<mgrwt>
<rscale>  0 0.10485062E+04</rscale>
<asrwt>0</asrwt>
<pdfrwt beam="1">  1        2 0.14494550E+00 0.11037544E+04</pdfrwt>
<pdfrwt beam="2">  1       -2 0.26605888E+00 0.11037544E+04</pdfrwt>
<totfact> 0.13885289E+00</totfact>
</mgrwt>
</event>
<event>
 4    5  0.6615028E-008  0.1177923E+04  0.7818608E-02  0.9178888E-01
          2   -1    0    0  501    0  0.00000000000E+00  0.00000000000E+00  0.34418551563E+04  0.34418551563E+04  0.25500000000E-02 0. -1.
         -2   -1    0    0    0  501 -0.00000000000E+00 -0.00000000000E+00 -0.35077110824E+03  0.35077110825E+03  0.25500000000E-02 0.  1.
    8880023    1    1    2    0    0  0.62707835114E+03  0.74864156263E+03  0.19938611482E+04  0.23158117221E+04  0.65864270000E+03 0.  0.
    8880022    1    1    2    0    0 -0.62707835114E+03 -0.74864156263E+03  0.10972228999E+04  0.14768145425E+04  0.15294330000E+03 0.  0.
<mgrwt>
<rscale>  0 0.11274025E+04</rscale>
<asrwt>0</asrwt>
<pdfrwt beam="1">  1        2 0.52951617E+00 0.11779226E+04</pdfrwt>
<pdfrwt beam="2">  1       -2 0.53964787E-01 0.11779226E+04</pdfrwt>
<totfact> 0.29119419E+00</totfact>
</mgrwt>
</event>
<event>
 4    5  0.6615028E-008  0.8360164E+03  0.7818608E-02  0.9637738E-01
         -2   -1    0    0    0  501 -0.00000000000E+00  0.00000000000E+00  0.80511560508E+03  0.80511560508E+03  0.25500000000E-02 0.  1.
          2   -1    0    0  501    0  0.00000000000E+00 -0.00000000000E+00 -0.12227773845E+04  0.12227773845E+04  0.25500000000E-02 0. -1.
    8880023    1    1    2    0    0  0.19745034382E+03  0.47552762982E+03 -0.95424642556E+03  0.12686644994E+04  0.65864270000E+03 0. -1.
    8880022    1    1    2    0    0 -0.19745034382E+03 -0.47552762982E+03  0.53658464609E+03  0.75922849026E+03  0.15294330000E+03 0.  1.
<mgrwt>
<rscale>  0 0.74848003E+03</rscale>
<asrwt>0</asrwt>
<pdfrwt beam="1">  1        2 0.18811960E+00 0.83601637E+03</pdfrwt>
<pdfrwt beam="2">  1       -2 0.12386394E+00 0.83601637E+03</pdfrwt>
<totfact> 0.90931467E+00</totfact>
</mgrwt>
</event>
<event>
 4    5  0.6615028E-008  0.6778593E+03  0.7818608E-02  0.1010561E+00
         -2   -1    0    0    0  501 -0.00000000000E+00  0.00000000000E+00  0.37184750968E+03  0.37184750969E+03  0.25500000000E-02 0.  1.
          2   -1    0    0  501    0  0.00000000000E+00 -0.00000000000E+00 -0.38143803420E+04  0.38143803420E+04  0.25500000000E-02 0. -1.
    8880023    1    1    2    0    0 -0.15428005744E+03  0.43366240369E+02 -0.37480465643E+04  0.38088510369E+04  0.65864270000E+03 0. -1.
    8880022    1    1    2    0    0  0.15428005744E+03 -0.43366240369E+02  0.30551373195E+03  0.37737681481E+03  0.15294330000E+03 0.  0.
<mgrwt>
<rscale>  0 0.51252112E+03</rscale>
<asrwt>0</asrwt>
<pdfrwt beam="1">  1        2 0.58682772E+00 0.67785926E+03</pdfrwt>
<pdfrwt beam="2">  1       -2 0.57207312E-01 0.67785926E+03</pdfrwt>
<totfact> 0.15391176E+00</totfact>
</mgrwt>
</event>
<event>
 4    5  0.6615028E-008  0.1003947E+04  0.7818608E-02  0.9376412E-01
         -2   -1    0    0    0  501 -0.00000000000E+00  0.00000000000E+00  0.64617092340E+03  0.64617092340E+03  0.25500000000E-02 0.  1.
          2   -1    0    0  501    0  0.00000000000E+00 -0.00000000000E+00 -0.14963835370E+04  0.14963835370E+04  0.25500000000E-02 0. -1.
    8880023    1    1    2    0    0  0.67942048281E+03 -0.33538991818E+03 -0.92610593856E+03  0.13658627330E+04  0.65864270000E+03 0.  0.
    8880022    1    1    2    0    0 -0.67942048281E+03  0.33538991818E+03  0.75893324926E+02  0.77669172744E+03  0.15294330000E+03 0.  0.
<mgrwt>
<rscale>  0 0.94042532E+03</rscale>
<asrwt>0</asrwt>
<pdfrwt beam="1">  1        2 0.23021285E+00 0.10039466E+04</pdfrwt>
<pdfrwt beam="2">  1       -2 0.99410912E-01 0.10039466E+04</pdfrwt>
<totfact> 0.10630885E+01</totfact>
</mgrwt>
</event>
<event>
 4    5  0.6615028E-008  0.1814505E+04  0.7818608E-02  0.8714555E-01
         -2   -1    0    0    0  501 -0.00000000000E+00  0.00000000000E+00  0.15831696414E+04  0.15831696414E+04  0.25500000000E-02 0.  1.
          2   -1    0    0  501    0  0.00000000000E+00 -0.00000000000E+00 -0.21194899981E+04  0.21194899981E+04  0.25500000000E-02 0. -1.
    8880023    1    1    2    0    0 -0.16871211261E+04 -0.11062962301E+03 -0.80290437066E+03  0.19842082154E+04  0.65864270000E+03 0.  0.
    8880022    1    1    2    0    0  0.16871211261E+04  0.11062962301E+03  0.26658401401E+03  0.17184514241E+04  0.15294330000E+03 0.  0.
<mgrwt>
<rscale>  0 0.17845571E+04</rscale>
<asrwt>0</asrwt>
<pdfrwt beam="1">  1        2 0.32607538E+00 0.18145046E+04</pdfrwt>
<pdfrwt beam="2">  1       -2 0.24356456E+00 0.18145046E+04</pdfrwt>
<totfact> 0.36642719E-01</totfact>
</mgrwt>
</event>
<event>
 4    5  0.6615028E-008  0.1134316E+04  0.7818608E-02  0.9223778E-01
          2   -1    0    0  501    0  0.00000000000E+00  0.00000000000E+00  0.19045556419E+04  0.19045556419E+04  0.25500000000E-02 0. -1.
         -2   -1    0    0    0  501 -0.00000000000E+00 -0.00000000000E+00 -0.12673564442E+04  0.12673564442E+04  0.25500000000E-02 0.  1.
    8880023    1    1    2    0    0  0.21484174389E+03  0.89816825897E+03  0.15123370154E+04  0.18904593756E+04  0.65864270000E+03 0. -1.
    8880022    1    1    2    0    0 -0.21484174389E+03 -0.89816825897E+03 -0.87513781771E+03  0.12814527105E+04  0.15294330000E+03 0.  0.
<mgrwt>
<rscale>  0 0.10811338E+04</rscale>
<asrwt>0</asrwt>
<pdfrwt beam="1">  1        2 0.29300856E+00 0.11343163E+04</pdfrwt>
<pdfrwt beam="2">  1       -2 0.19497791E+00 0.11343163E+04</pdfrwt>
<totfact> 0.10609887E+00</totfact>
</mgrwt>
</event>
<event>
 4    5  0.6615028E-008  0.7652435E+03  0.7818608E-02  0.9791717E-01
         -2   -1    0    0    0  501 -0.00000000000E+00  0.00000000000E+00  0.62091586659E+03  0.62091586660E+03  0.25500000000E-02 0.  1.
          2   -1    0    0  501    0  0.00000000000E+00 -0.00000000000E+00 -0.12328361259E+04  0.12328361259E+04  0.25500000000E-02 0. -1.
    8880023    1    1    2    0    0 -0.37499961517E+03 -0.10565381462E+03 -0.10160204143E+04  0.12719650657E+04  0.65864270000E+03 0.  0.
    8880022    1    1    2    0    0  0.37499961517E+03  0.10565381462E+03  0.40410015496E+03  0.58178692678E+03  0.15294330000E+03 0.  0.
<mgrwt>
<rscale>  0 0.65808960E+03</rscale>
<asrwt>0</asrwt>
<pdfrwt beam="1">  1        2 0.18966710E+00 0.76524352E+03</pdfrwt>
<pdfrwt beam="2">  1       -2 0.95525518E-01 0.76524352E+03</pdfrwt>
<totfact> 0.16957966E+01</totfact>
</mgrwt>
</event>
<event>
 4    5  0.6615028E-008  0.1128738E+04  0.7818608E-02  0.9229715E-01
         -2   -1    0    0    0  501 -0.00000000000E+00  0.00000000000E+00  0.73558617471E+03  0.73558617471E+03  0.25500000000E-02 0.  1.
          2   -1    0    0  501    0  0.00000000000E+00 -0.00000000000E+00 -0.20240935555E+04  0.20240935555E+04  0.25500000000E-02 0. -1.
    8880023    1    1    2    0    0  0.43419346107E+03 -0.80728881292E+03 -0.14277026278E+04  0.18199956562E+04  0.65864270000E+03 0. -1.
    8880022    1    1    2    0    0 -0.43419346107E+03  0.80728881292E+03  0.13919524698E+03  0.93968407398E+03  0.15294330000E+03 0.  0.
<mgrwt>
<rscale>  0 0.10751916E+04</rscale>
<asrwt>0</asrwt>
<pdfrwt beam="1">  1        2 0.31139901E+00 0.11287380E+04</pdfrwt>
<pdfrwt beam="2">  1       -2 0.11316710E+00 0.11287380E+04</pdfrwt>
<totfact> 0.39121146E+00</totfact>
</mgrwt>
</event>
<event>
 4    5  0.6615028E-008  0.9851982E+03  0.7818608E-02  0.9401184E-01
          2   -1    0    0  501    0  0.00000000000E+00  0.00000000000E+00  0.14519853752E+04  0.14519853752E+04  0.25500000000E-02 0. -1.
         -2   -1    0    0    0  501 -0.00000000000E+00 -0.00000000000E+00 -0.89374703703E+03  0.89374703703E+03  0.25500000000E-02 0.  1.
    8880023    1    1    2    0    0 -0.32131228693E+03  0.65845560159E+03  0.10580615087E+04  0.14457211790E+04  0.65864270000E+03 0. -1.
    8880022    1    1    2    0    0  0.32131228693E+03 -0.65845560159E+03 -0.49982317056E+03  0.90001123318E+03  0.15294330000E+03 0.  0.
<mgrwt>
<rscale>  0 0.91978288E+03</rscale>
<asrwt>0</asrwt>
<pdfrwt beam="1">  1        2 0.22338236E+00 0.98519824E+03</pdfrwt>
<pdfrwt beam="2">  1       -2 0.13749955E+00 0.98519824E+03</pdfrwt>
<totfact> 0.50580089E+00</totfact>
</mgrwt>
</event>
<event>
 4    5  0.6615028E-008  0.7523393E+03  0.7818608E-02  0.9825360E-01
          2   -1    0    0  501    0  0.00000000000E+00  0.00000000000E+00  0.27879434743E+04  0.27879434743E+04  0.25500000000E-02 0. -1.
         -2   -1    0    0    0  501 -0.00000000000E+00 -0.00000000000E+00 -0.44925634133E+03  0.44925634134E+03  0.25500000000E-02 0.  1.
    8880023    1    1    2    0    0  0.22886729465E+03 -0.28253141597E+03  0.26372687731E+04  0.27424808162E+04  0.65864270000E+03 0. -1.
    8880022    1    1    2    0    0 -0.22886729465E+03  0.28253141597E+03 -0.29858164011E+03  0.49471899943E+03  0.15294330000E+03 0.  0.
<mgrwt>
<rscale>  0 0.64019177E+03</rscale>
<asrwt>0</asrwt>
<pdfrwt beam="1">  1        2 0.42891438E+00 0.75233932E+03</pdfrwt>
<pdfrwt beam="2">  1       -2 0.69116360E-01 0.75233932E+03</pdfrwt>
<totfact> 0.47575022E+00</totfact>
</mgrwt>
</event>
<event>
 4    5  0.6615028E-008  0.6642186E+03  0.7818608E-02  0.1020198E+00
         -2   -1    0    0    0  501 -0.00000000000E+00  0.00000000000E+00  0.17983553927E+03  0.17983553928E+03  0.25500000000E-02 0.  1.
          2   -1    0    0  501    0  0.00000000000E+00 -0.00000000000E+00 -0.19469876277E+04  0.19469876277E+04  0.25500000000E-02 0. -1.
    8880023    1    1    2    0    0  0.67637924273E+02  0.52926306317E+02 -0.18250063345E+04  0.19421211110E+04  0.65864270000E+03 0. -1.
    8880022    1    1    2    0    0 -0.67637924273E+02 -0.52926306317E+02  0.57854246002E+02  0.18470205601E+03  0.15294330000E+03 0.  0.
<mgrwt>
<rscale>  0 0.47615154E+03</rscale>
<asrwt>0</asrwt>
<pdfrwt beam="1">  1        2 0.29953654E+00 0.66421856E+03</pdfrwt>
<pdfrwt beam="2">  1       -2 0.27667007E-01 0.66421856E+03</pdfrwt>
<totfact> 0.88229846E+01</totfact>
</mgrwt>
</event>
<event>
 4    5  0.6615028E-008  0.7230627E+03  0.7818608E-02  0.9912356E-01
         -2   -1    0    0    0  501 -0.00000000000E+00  0.00000000000E+00  0.19354648638E+03  0.19354648639E+03  0.25500000000E-02 0.  1.
          2   -1    0    0  501    0  0.00000000000E+00 -0.00000000000E+00 -0.14967519466E+04  0.14967519466E+04  0.25500000000E-02 0. -1.
    8880023    1    1    2    0    0  0.29489774903E+03 -0.45218805280E+02 -0.10264937887E+04  0.12555911465E+04  0.65864270000E+03 0. -1.
    8880022    1    1    2    0    0 -0.29489774903E+03  0.45218805280E+02 -0.27671167152E+03  0.43470728646E+03  0.15294330000E+03 0.  1.
<mgrwt>
<rscale>  0 0.59666184E+03</rscale>
<asrwt>0</asrwt>
<pdfrwt beam="1">  1        2 0.23026952E+00 0.72306267E+03</pdfrwt>
<pdfrwt beam="2">  1       -2 0.29776383E-01 0.72306267E+03</pdfrwt>
<totfact> 0.13502486E+02</totfact>
</mgrwt>
</event>
<event>
 4    5  0.6615028E-008  0.8025171E+03  0.7818608E-02  0.9705380E-01
          2   -1    0    0  501    0  0.00000000000E+00  0.00000000000E+00  0.18959657810E+04  0.18959657810E+04  0.25500000000E-02 0. -1.
         -2   -1    0    0    0  501 -0.00000000000E+00 -0.00000000000E+00 -0.23525901313E+03  0.23525901314E+03  0.25500000000E-02 0.  1.
    8880023    1    1    2    0    0 -0.44952114269E+03  0.90300899098E+02  0.13014759883E+04  0.15290106162E+04  0.65864270000E+03 0.  0.
    8880022    1    1    2    0    0  0.44952114269E+03 -0.90300899098E+02  0.35923077957E+03  0.60221417794E+03  0.15294330000E+03 0.  0.
<mgrwt>
<rscale>  0 0.70697386E+03</rscale>
<asrwt>0</asrwt>
<pdfrwt beam="1">  1        2 0.29168704E+00 0.80251711E+03</pdfrwt>
<pdfrwt beam="2">  1       -2 0.36193694E-01 0.80251711E+03</pdfrwt>
<totfact> 0.55998144E+01</totfact>
</mgrwt>
</event>
<event>
 4    5  0.6615028E-008  0.7122720E+03  0.7818608E-02  0.9949659E-01
         -2   -1    0    0    0  501 -0.00000000000E+00  0.00000000000E+00  0.64494193481E+03  0.64494193482E+03  0.25500000000E-02 0.  1.
          2   -1    0    0  501    0  0.00000000000E+00 -0.00000000000E+00 -0.16180388296E+04  0.16180388296E+04  0.25500000000E-02 0. -1.
    8880023    1    1    2    0    0  0.27067190840E+03  0.16061606088E+02 -0.14945898282E+04  0.16556358954E+04  0.65864270000E+03 0. -1.
    8880022    1    1    2    0    0 -0.27067190840E+03 -0.16061606088E+02  0.52149293349E+03  0.60734486898E+03  0.15294330000E+03 0.  0.
<mgrwt>
<rscale>  0 0.57913809E+03</rscale>
<asrwt>0</asrwt>
<pdfrwt beam="1">  1        2 0.24892905E+00 0.71227204E+03</pdfrwt>
<pdfrwt beam="2">  1       -2 0.99221837E-01 0.71227204E+03</pdfrwt>
<totfact> 0.94666522E+00</totfact>
</mgrwt>
</event>
<event>
 4    5  0.6615028E-008  0.7902824E+03  0.7818608E-02  0.9732215E-01
         -2   -1    0    0    0  501 -0.00000000000E+00  0.00000000000E+00  0.14960019093E+04  0.14960019093E+04  0.25500000000E-02 0.  1.
          2   -1    0    0  501    0  0.00000000000E+00 -0.00000000000E+00 -0.57944452750E+03  0.57944452751E+03  0.25500000000E-02 0. -1.
    8880023    1    1    2    0    0 -0.41862793347E+03 -0.12444576847E+03  0.12681835900E+04  0.14942676869E+04  0.65864270000E+03 0.  1.
    8880022    1    1    2    0    0  0.41862793347E+03  0.12444576847E+03 -0.35162620823E+03  0.58117874987E+03  0.15294330000E+03 0.  0.
<mgrwt>
<rscale>  0 0.69130685E+03</rscale>
<asrwt>0</asrwt>
<pdfrwt beam="1">  1        2 0.89145313E-01 0.79028242E+03</pdfrwt>
<pdfrwt beam="2">  1       -2 0.23015414E+00 0.79028242E+03</pdfrwt>
<totfact> 0.45020559E+00</totfact>
</mgrwt>
</event>
<event>
 4    5  0.6615028E-008  0.9093048E+03  0.7818608E-02  0.9511256E-01
         -2   -1    0    0    0  501 -0.00000000000E+00  0.00000000000E+00  0.60861879038E+03  0.60861879039E+03  0.25500000000E-02 0.  1.
          2   -1    0    0  501    0  0.00000000000E+00 -0.00000000000E+00 -0.17869260881E+04  0.17869260881E+04  0.25500000000E-02 0. -1.
    8880023    1    1    2    0    0 -0.15766285440E+03  0.60676807888E+03  0.14735264667E+03  0.92116669825E+03  0.65864270000E+03 0.  1.
    8880022    1    1    2    0    0  0.15766285440E+03 -0.60676807888E+03 -0.13256599444E+04  0.14743781803E+04  0.15294330000E+03 0.  0.
<mgrwt>
<rscale>  0 0.83458994E+03</rscale>
<asrwt>0</asrwt>
<pdfrwt beam="1">  1        2 0.27491170E+00 0.90930484E+03</pdfrwt>
<pdfrwt beam="2">  1       -2 0.93633661E-01 0.90930484E+03</pdfrwt>
<totfact> 0.85346718E+00</totfact>
</mgrwt>
</event>
<event>
 4    5  0.6615028E-008  0.7029587E+03  0.7818608E-02  0.9985142E-01
         -2   -1    0    0    0  501 -0.00000000000E+00  0.00000000000E+00  0.26915054945E+03  0.26915054946E+03  0.25500000000E-02 0.  1.
          2   -1    0    0  501    0  0.00000000000E+00 -0.00000000000E+00 -0.19737943907E+04  0.19737943907E+04  0.25500000000E-02 0. -1.
    8880023    1    1    2    0    0  0.47395490171E+02  0.24102775725E+03 -0.18046962714E+04  0.19367703918E+04  0.65864270000E+03 0.  0.
    8880022    1    1    2    0    0 -0.47395490171E+02 -0.24102775725E+03  0.10005243018E+03  0.30617454834E+03  0.15294330000E+03 0.  0.
<mgrwt>
<rscale>  0 0.56306564E+03</rscale>
<asrwt>0</asrwt>
<pdfrwt beam="1">  1        2 0.30366067E+00 0.70295869E+03</pdfrwt>
<pdfrwt beam="2">  1       -2 0.41407778E-01 0.70295869E+03</pdfrwt>
<totfact> 0.39586945E+01</totfact>
</mgrwt>
</event>
<event>
 4    5  0.6615028E-008  0.8295822E+03  0.7818608E-02  0.9650146E-01
          2   -1    0    0  501    0  0.00000000000E+00  0.00000000000E+00  0.15005897636E+04  0.15005897636E+04  0.25500000000E-02 0. -1.
         -2   -1    0    0    0  501 -0.00000000000E+00 -0.00000000000E+00 -0.48078625522E+03  0.48078625523E+03  0.25500000000E-02 0.  1.
    8880023    1    1    2    0    0  0.45284629205E+03 -0.22209620120E+03  0.11691505458E+04  0.14335688654E+04  0.65864270000E+03 0.  0.
    8880022    1    1    2    0    0 -0.45284629205E+03  0.22209620120E+03 -0.14934703738E+03  0.54780715348E+03  0.15294330000E+03 0.  0.
<mgrwt>
<rscale>  0 0.74064279E+03</rscale>
<asrwt>0</asrwt>
<pdfrwt beam="1">  1        2 0.23085996E+00 0.82958224E+03</pdfrwt>
<pdfrwt beam="2">  1       -2 0.73967118E-01 0.82958224E+03</pdfrwt>
<totfact> 0.21190559E+01</totfact>
</mgrwt>
</event>
<event>
 4    5  0.6615028E-008  0.1112682E+04  0.7818608E-02  0.9247066E-01
          2   -1    0    0  501    0  0.00000000000E+00  0.00000000000E+00  0.80606437367E+03  0.80606437367E+03  0.25500000000E-02 0. -1.
         -2   -1    0    0    0  501 -0.00000000000E+00 -0.00000000000E+00 -0.13741710823E+04  0.13741710823E+04  0.25500000000E-02 0.  1.
    8880023    1    1    2    0    0  0.88840729484E+03  0.12240832804E+03 -0.95918404026E+01  0.11127234742E+04  0.65864270000E+03 0.  0.
    8880022    1    1    2    0    0 -0.88840729484E+03 -0.12240832804E+03 -0.55851486826E+03  0.10675119818E+04  0.15294330000E+03 0.  0.
<mgrwt>
<rscale>  0 0.10580561E+04</rscale>
<asrwt>0</asrwt>
<pdfrwt beam="1">  1        2 0.12400990E+00 0.11126821E+04</pdfrwt>
<pdfrwt beam="2">  1       -2 0.21141094E+00 0.11126821E+04</pdfrwt>
<totfact> 0.37577096E+00</totfact>
</mgrwt>
</event>
<event>
 4    5  0.6615028E-008  0.1008929E+04  0.7818608E-02  0.9369968E-01
         -2   -1    0    0    0  501 -0.00000000000E+00  0.00000000000E+00  0.24393457318E+04  0.24393457318E+04  0.25500000000E-02 0.  1.
          2   -1    0    0  501    0  0.00000000000E+00 -0.00000000000E+00 -0.71701963200E+03  0.71701963200E+03  0.25500000000E-02 0. -1.
    8880023    1    1    2    0    0  0.10307274264E+03  0.75729990619E+03 -0.24672564533E+03  0.10386582154E+04  0.65864270000E+03 0. -1.
    8880022    1    1    2    0    0 -0.10307274264E+03 -0.75729990619E+03  0.19690517452E+04  0.21177071484E+04  0.15294330000E+03 0.  0.
<mgrwt>
<rscale>  0 0.94588940E+03</rscale>
<asrwt>0</asrwt>
<pdfrwt beam="1">  1        2 0.11031071E+00 0.10089288E+04</pdfrwt>
<pdfrwt beam="2">  1       -2 0.37528396E+00 0.10089288E+04</pdfrwt>
<totfact> 0.43287326E-01</totfact>
</mgrwt>
</event>
<event>
 4    5  0.6615028E-008  0.1702780E+04  0.7818608E-02  0.8778311E-01
          2   -1    0    0  501    0  0.00000000000E+00  0.00000000000E+00  0.16142505658E+04  0.16142505658E+04  0.25500000000E-02 0. -1.
         -2   -1    0    0    0  501 -0.00000000000E+00 -0.00000000000E+00 -0.17466351126E+04  0.17466351126E+04  0.25500000000E-02 0.  1.
    8880023    1    1    2    0    0 -0.15119058830E+04 -0.42401610896E+03  0.29083050431E+03  0.17274378855E+04  0.65864270000E+03 0.  0.
    8880022    1    1    2    0    0  0.15119058830E+04  0.42401610896E+03 -0.42321505102E+03  0.16334477929E+04  0.15294330000E+03 0.  0.
<mgrwt>
<rscale>  0 0.16706015E+04</rscale>
<asrwt>0</asrwt>
<pdfrwt beam="1">  1        2 0.24834624E+00 0.17027799E+04</pdfrwt>
<pdfrwt beam="2">  1       -2 0.26871309E+00 0.17027799E+04</pdfrwt>
<totfact> 0.49778024E-01</totfact>
</mgrwt>
</event>
<event>
 4    5  0.7731154E-008  0.1229694E+04  0.7818608E-02  0.9128784E-01
          2   -1    0    0  501    0  0.00000000000E+00  0.00000000000E+00  0.28093212246E+04  0.28093212246E+04  0.25500000000E-02 0. -1.
         -2   -1    0    0    0  501 -0.00000000000E+00 -0.00000000000E+00 -0.13872554563E+04  0.13872554563E+04  0.25500000000E-02 0.  1.
    8880023    1    1    2    0    0 -0.10283349852E+04 -0.14444897612E+03  0.24412970806E+04  0.27335105616E+04  0.65864270000E+03 0. -1.
    8880022    1    1    2    0    0  0.10283349852E+04  0.14444897612E+03 -0.10192313123E+04  0.14630661193E+04  0.15294330000E+03 0.  0.
<mgrwt>
<rscale>  0 0.11819724E+04</rscale>
<asrwt>0</asrwt>
<pdfrwt beam="1">  1        2 0.43220326E+00 0.12296945E+04</pdfrwt>
<pdfrwt beam="2">  1       -2 0.21342392E+00 0.12296945E+04</pdfrwt>
<totfact> 0.24237289E-01</totfact>
</mgrwt>
</event>
<event>
 4    5  0.6615028E-008  0.1107809E+04  0.7818608E-02  0.9252412E-01
          2   -1    0    0  501    0  0.00000000000E+00  0.00000000000E+00  0.18271850287E+04  0.18271850287E+04  0.25500000000E-02 0. -1.
         -2   -1    0    0    0  501 -0.00000000000E+00 -0.00000000000E+00 -0.11446752558E+04  0.11446752558E+04  0.25500000000E-02 0.  1.
    8880023    1    1    2    0    0 -0.52167691308E+03  0.72199932431E+03  0.14230618495E+04  0.18034259230E+04  0.65864270000E+03 0.  0.
    8880022    1    1    2    0    0  0.52167691308E+03 -0.72199932431E+03 -0.74055207666E+03  0.11684343615E+04  0.15294330000E+03 0.  0.
<mgrwt>
<rscale>  0 0.10528451E+04</rscale>
<asrwt>0</asrwt>
<pdfrwt beam="1">  1        2 0.28110539E+00 0.11078087E+04</pdfrwt>
<pdfrwt beam="2">  1       -2 0.17610389E+00 0.11078087E+04</pdfrwt>
<totfact> 0.15790896E+00</totfact>
</mgrwt>
</event>
<event>
 4    5  0.6615028E-008  0.1071218E+04  0.7818608E-02  0.9293799E-01
         -2   -1    0    0    0  501 -0.00000000000E+00  0.00000000000E+00  0.56356910142E+03  0.56356910143E+03  0.25500000000E-02 0.  1.
          2   -1    0    0  501    0  0.00000000000E+00 -0.00000000000E+00 -0.25135433365E+04  0.25135433365E+04  0.25500000000E-02 0. -1.
    8880023    1    1    2    0    0  0.49227014324E+03 -0.68656171509E+03 -0.19427890669E+04  0.22185437673E+04  0.65864270000E+03 0.  0.
    8880022    1    1    2    0    0 -0.49227014324E+03  0.68656171509E+03 -0.71851681608E+01  0.85856867065E+03  0.15294330000E+03 0.  0.
<mgrwt>
<rscale>  0 0.10135571E+04</rscale>
<asrwt>0</asrwt>
<pdfrwt beam="1">  1        2 0.38669897E+00 0.10712176E+04</pdfrwt>
<pdfrwt beam="2">  1       -2 0.86702940E-01 0.10712176E+04</pdfrwt>
<totfact> 0.39389540E+00</totfact>
</mgrwt>
</event>
<event>
 4    5  0.6615028E-008  0.1224885E+04  0.7818608E-02  0.9133304E-01
         -2   -1    0    0    0  501 -0.00000000000E+00  0.00000000000E+00  0.39054848693E+03  0.39054848693E+03  0.25500000000E-02 0.  1.
          2   -1    0    0  501    0  0.00000000000E+00 -0.00000000000E+00 -0.37803953281E+04  0.37803953281E+04  0.25500000000E-02 0. -1.
    8880023    1    1    2    0    0  0.31937200687E+03 -0.98210704684E+03 -0.10676940737E+04  0.16249041730E+04  0.65864270000E+03 0.  0.
    8880022    1    1    2    0    0 -0.31937200687E+03  0.98210704684E+03 -0.23221527674E+04  0.25460396420E+04  0.15294330000E+03 0.  0.
<mgrwt>
<rscale>  0 0.11769174E+04</rscale>
<asrwt>0</asrwt>
<pdfrwt beam="1">  1        2 0.58159926E+00 0.12248849E+04</pdfrwt>
<pdfrwt beam="2">  1       -2 0.60084385E-01 0.12248849E+04</pdfrwt>
<totfact> 0.13253460E+00</totfact>
</mgrwt>
</event>
<event>
 4    5  0.8170123E-008  0.1026655E+04  0.7818608E-02  0.9347487E-01
          2   -1    0    0  501    0  0.00000000000E+00  0.00000000000E+00  0.23847843393E+04  0.23847843393E+04  0.25500000000E-02 0. -1.
         -2   -1    0    0    0  501 -0.00000000000E+00 -0.00000000000E+00 -0.17120707720E+04  0.17120707720E+04  0.25500000000E-02 0.  1.
    8880023    1    1    2    0    0  0.10575930919E+02  0.78746285641E+03  0.21686446591E+04  0.23993831424E+04  0.65864270000E+03 0. -1.
    8880022    1    1    2    0    0 -0.10575930919E+02 -0.78746285641E+03 -0.14959310918E+04  0.16974719688E+04  0.15294330000E+03 0.  0.
<mgrwt>
<rscale>  0 0.96526242E+03</rscale>
<asrwt>0</asrwt>
<pdfrwt beam="1">  1        2 0.36688990E+00 0.10266547E+04</pdfrwt>
<pdfrwt beam="2">  1       -2 0.26339550E+00 0.10266547E+04</pdfrwt>
<totfact> 0.21702476E-01</totfact>
</mgrwt>
</event>
<event>
 4    5  0.6615028E-008  0.1012063E+04  0.7818608E-02  0.9365943E-01
         -2   -1    0    0    0  501 -0.00000000000E+00  0.00000000000E+00  0.13727894694E+04  0.13727894694E+04  0.25500000000E-02 0.  1.
          2   -1    0    0  501    0  0.00000000000E+00 -0.00000000000E+00 -0.15134687449E+04  0.15134687449E+04  0.25500000000E-02 0. -1.
    8880023    1    1    2    0    0  0.73679687098E+03 -0.21815435275E+03 -0.11992858405E+04  0.15692538623E+04  0.65864270000E+03 0.  0.
    8880022    1    1    2    0    0 -0.73679687098E+03  0.21815435275E+03  0.10586065650E+04  0.13170043520E+04  0.15294330000E+03 0.  0.
<mgrwt>
<rscale>  0 0.94932216E+03</rscale>
<asrwt>0</asrwt>
<pdfrwt beam="1">  1        2 0.23284134E+00 0.10120628E+04</pdfrwt>
<pdfrwt beam="2">  1       -2 0.21119838E+00 0.10120628E+04</pdfrwt>
<totfact> 0.13930715E+00</totfact>
</mgrwt>
</event>
<event>
 4    5  0.6615028E-008  0.7060143E+03  0.7818608E-02  0.9973110E-01
         -2   -1    0    0    0  501 -0.00000000000E+00  0.00000000000E+00  0.22160041916E+03  0.22160041918E+03  0.25500000000E-02 0.  1.
          2   -1    0    0  501    0  0.00000000000E+00 -0.00000000000E+00 -0.28182621570E+04  0.28182621570E+04  0.25500000000E-02 0. -1.
    8880023    1    1    2    0    0  0.24111108821E+03 -0.80693550227E+02 -0.26464472911E+04  0.27390033729E+04  0.65864270000E+03 0. -1.
    8880022    1    1    2    0    0 -0.24111108821E+03  0.80693550227E+02  0.49785553212E+02  0.30085920333E+03  0.15294330000E+03 0.  0.
<mgrwt>
<rscale>  0 0.56845186E+03</rscale>
<asrwt>0</asrwt>
<pdfrwt beam="1">  1        2 0.43357877E+00 0.70601431E+03</pdfrwt>
<pdfrwt beam="2">  1       -2 0.34092374E-01 0.70601431E+03</pdfrwt>
<totfact> 0.19282998E+01</totfact>
</mgrwt>
</event>
<event>
 4    5  0.6615028E-008  0.7920587E+03  0.7818608E-02  0.9728237E-01
         -2   -1    0    0    0  501 -0.00000000000E+00  0.00000000000E+00  0.16567898047E+03  0.16567898049E+03  0.25500000000E-02 0.  1.
          2   -1    0    0  501    0  0.00000000000E+00 -0.00000000000E+00 -0.58493445635E+04  0.58493445635E+04  0.25500000000E-02 0. -1.
    8880023    1    1    2    0    0  0.41677443535E+03 -0.14087519329E+03 -0.54244743171E+04  0.54819958568E+04  0.65864270000E+03 0.  0.
    8880022    1    1    2    0    0 -0.41677443535E+03  0.14087519329E+03 -0.25919126593E+03  0.53302768727E+03  0.15294330000E+03 0.  0.
<mgrwt>
<rscale>  0 0.69360158E+03</rscale>
<asrwt>0</asrwt>
<pdfrwt beam="1">  1        2 0.89989901E+00 0.79205868E+03</pdfrwt>
<pdfrwt beam="2">  1       -2 0.25489078E-01 0.79205868E+03</pdfrwt>
<totfact> 0.17400214E-02</totfact>
</mgrwt>
</event>
<event>
 4    5  0.6615028E-008  0.7228027E+03  0.7818608E-02  0.9913214E-01
         -2   -1    0    0    0  501 -0.00000000000E+00  0.00000000000E+00  0.37975075362E+03  0.37975075362E+03  0.25500000000E-02 0.  1.
          2   -1    0    0  501    0  0.00000000000E+00 -0.00000000000E+00 -0.22386157753E+04  0.22386157753E+04  0.25500000000E-02 0. -1.
    8880023    1    1    2    0    0 -0.27613641449E+03  0.11127557191E+03 -0.20901026839E+04  0.22115544325E+04  0.65864270000E+03 0. -1.
    8880022    1    1    2    0    0  0.27613641449E+03 -0.11127557191E+03  0.23123766227E+03  0.40681209640E+03  0.15294330000E+03 0.  0.
<mgrwt>
<rscale>  0 0.59625127E+03</rscale>
<asrwt>0</asrwt>
<pdfrwt beam="1">  1        2 0.34440242E+00 0.72280272E+03</pdfrwt>
<pdfrwt beam="2">  1       -2 0.58423194E-01 0.72280272E+03</pdfrwt>
<totfact> 0.14061534E+01</totfact>
</mgrwt>
</event>
<event>
 4    5  0.6615028E-008  0.7661966E+03  0.7818608E-02  0.9789321E-01
          2   -1    0    0  501    0  0.00000000000E+00  0.00000000000E+00  0.31595027096E+04  0.31595027096E+04  0.25500000000E-02 0. -1.
         -2   -1    0    0    0  501 -0.00000000000E+00 -0.00000000000E+00 -0.15096870448E+03  0.15096870450E+03  0.25500000000E-02 0.  1.
    8880023    1    1    2    0    0  0.36194895920E+03  0.14913082622E+03  0.26483685542E+04  0.27569753821E+04  0.65864270000E+03 0. -1.
    8880022    1    1    2    0    0 -0.36194895920E+03 -0.14913082622E+03  0.36016545093E+03  0.55349603201E+03  0.15294330000E+03 0.  0.
<mgrwt>
<rscale>  0 0.65938780E+03</rscale>
<asrwt>0</asrwt>
<pdfrwt beam="1">  1        2 0.48607733E+00 0.76619662E+03</pdfrwt>
<pdfrwt beam="2">  1       -2 0.23225955E-01 0.76619662E+03</pdfrwt>
<totfact> 0.23921161E+01</totfact>
</mgrwt>
</event>
<event>
 4    5  0.6615028E-008  0.1524451E+04  0.7818608E-02  0.8892560E-01
          2   -1    0    0  501    0  0.00000000000E+00  0.00000000000E+00  0.31909612451E+04  0.31909612451E+04  0.25500000000E-02 0. -1.
         -2   -1    0    0    0  501 -0.00000000000E+00 -0.00000000000E+00 -0.11112820010E+04  0.11112820010E+04  0.25500000000E-02 0.  1.
    8880023    1    1    2    0    0 -0.13732393525E+04  0.65991914153E+02 -0.29623814558E+03  0.15529676420E+04  0.65864270000E+03 0.  1.
    8880022    1    1    2    0    0  0.13732393525E+04 -0.65991914153E+02  0.23759173896E+04  0.27492756041E+04  0.15294330000E+03 0.  0.
<mgrwt>
<rscale>  0 0.14878688E+04</rscale>
<asrwt>0</asrwt>
<pdfrwt beam="1">  1        2 0.49091711E+00 0.15244512E+04</pdfrwt>
<pdfrwt beam="2">  1       -2 0.17096646E+00 0.15244512E+04</pdfrwt>
<totfact> 0.26032727E-01</totfact>
</mgrwt>
</event>
<event>
 4    5  0.6615028E-008  0.6631600E+03  0.7818608E-02  0.1021130E+00
          2   -1    0    0  501    0  0.00000000000E+00  0.00000000000E+00  0.97226816128E+03  0.97226816128E+03  0.25500000000E-02 0. -1.
         -2   -1    0    0    0  501 -0.00000000000E+00 -0.00000000000E+00 -0.38016023618E+03  0.38016023619E+03  0.25500000000E-02 0.  1.
    8880023    1    1    2    0    0  0.75424068114E+02  0.16800241409E+02  0.82802211580E+03  0.10608495976E+04  0.65864270000E+03 0. -1.
    8880022    1    1    2    0    0 -0.75424068114E+02 -0.16800241409E+02 -0.23591419070E+03  0.29157879990E+03  0.15294330000E+03 0.  0.
<mgrwt>
<rscale>  0 0.47281173E+03</rscale>
<asrwt>0</asrwt>
<pdfrwt beam="1">  1        2 0.14957972E+00 0.66316004E+03</pdfrwt>
<pdfrwt beam="2">  1       -2 0.58486190E-01 0.66316004E+03</pdfrwt>
<totfact> 0.73322723E+01</totfact>
</mgrwt>
</event>
<event>
 4    5  0.6615028E-008  0.1337132E+04  0.7818608E-02  0.9034139E-01
          2   -1    0    0  501    0  0.00000000000E+00  0.00000000000E+00  0.30629851284E+04  0.30629851284E+04  0.25500000000E-02 0. -1.
         -2   -1    0    0    0  501 -0.00000000000E+00 -0.00000000000E+00 -0.61912150010E+03  0.61912150010E+03  0.25500000000E-02 0.  1.
    8880023    1    1    2    0    0  0.43050138972E+02  0.11628667359E+04  0.53271672167E+03  0.14393434864E+04  0.65864270000E+03 0.  0.
    8880022    1    1    2    0    0 -0.43050138972E+02 -0.11628667359E+04  0.19111469066E+04  0.22427631421E+04  0.15294330000E+03 0.  0.
<mgrwt>
<rscale>  0 0.12942476E+04</rscale>
<asrwt>0</asrwt>
<pdfrwt beam="1">  1        2 0.47122848E+00 0.13371322E+04</pdfrwt>
<pdfrwt beam="2">  1       -2 0.95249461E-01 0.13371322E+04</pdfrwt>
<totfact> 0.14357904E+00</totfact>
</mgrwt>
</event>
<event>
 4    5  0.6615028E-008  0.7377346E+03  0.7818608E-02  0.9866596E-01
         -2   -1    0    0    0  501 -0.00000000000E+00  0.00000000000E+00  0.32002684904E+03  0.32002684905E+03  0.25500000000E-02 0.  1.
          2   -1    0    0  501    0  0.00000000000E+00 -0.00000000000E+00 -0.21939942153E+04  0.21939942153E+04  0.25500000000E-02 0. -1.
    8880023    1    1    2    0    0 -0.12694858711E+03  0.30712557780E+03 -0.19963176372E+04  0.21282707486E+04  0.65864270000E+03 0. -1.
    8880022    1    1    2    0    0  0.12694858711E+03 -0.30712557780E+03  0.12235027095E+03  0.38575031578E+03  0.15294330000E+03 0.  0.
<mgrwt>
<rscale>  0 0.61907859E+03</rscale>
<asrwt>0</asrwt>
<pdfrwt beam="1">  1        2 0.33753756E+00 0.73773455E+03</pdfrwt>
<pdfrwt beam="2">  1       -2 0.49234901E-01 0.73773455E+03</pdfrwt>
<totfact> 0.21136452E+01</totfact>
</mgrwt>
</event>
<event>
 4    5  0.6615028E-008  0.7186669E+03  0.7818608E-02  0.9927123E-01
         -2   -1    0    0    0  501 -0.00000000000E+00  0.00000000000E+00  0.79213127830E+03  0.79213127831E+03  0.25500000000E-02 0.  1.
          2   -1    0    0  501    0  0.00000000000E+00 -0.00000000000E+00 -0.16761593785E+04  0.16761593785E+04  0.25500000000E-02 0. -1.
    8880023    1    1    2    0    0 -0.23567378347E+03  0.16471096912E+03 -0.15602078905E+04  0.17177691066E+04  0.65864270000E+03 0. -1.
    8880022    1    1    2    0    0  0.23567378347E+03 -0.16471096912E+03  0.67617979031E+03  0.75052155026E+03  0.15294330000E+03 0.  0.
<mgrwt>
<rscale>  0 0.58964612E+03</rscale>
<asrwt>0</asrwt>
<pdfrwt beam="1">  1        2 0.25787067E+00 0.71866685E+03</pdfrwt>
<pdfrwt beam="2">  1       -2 0.12186635E+00 0.71866685E+03</pdfrwt>
<totfact> 0.53415140E+00</totfact>
</mgrwt>
</event>
<event>
 4    5  0.6615028E-008  0.1137128E+04  0.7818608E-02  0.9220803E-01
          2   -1    0    0  501    0  0.00000000000E+00  0.00000000000E+00  0.18886334791E+04  0.18886334791E+04  0.25500000000E-02 0. -1.
         -2   -1    0    0    0  501 -0.00000000000E+00 -0.00000000000E+00 -0.11372844819E+04  0.11372844819E+04  0.25500000000E-02 0.  1.
    8880023    1    1    2    0    0  0.66715833449E+03  0.64354374641E+03  0.14589559118E+04  0.18497598103E+04  0.65864270000E+03 0. -1.
    8880022    1    1    2    0    0 -0.66715833449E+03 -0.64354374641E+03 -0.70760691469E+03  0.11761581507E+04  0.15294330000E+03 0.  0.
<mgrwt>
<rscale>  0 0.10841262E+04</rscale>
<asrwt>0</asrwt>
<pdfrwt beam="1">  1        2 0.29055899E+00 0.11371275E+04</pdfrwt>
<pdfrwt beam="2">  1       -2 0.17496684E+00 0.11371275E+04</pdfrwt>
<totfact> 0.14821944E+00</totfact>
</mgrwt>
</event>
<event>
 4    5  0.6615028E-008  0.7014507E+03  0.7818608E-02  0.9991236E-01
          2   -1    0    0  501    0  0.00000000000E+00  0.00000000000E+00  0.80034410914E+03  0.80034410915E+03  0.25500000000E-02 0. -1.
         -2   -1    0    0    0  501 -0.00000000000E+00 -0.00000000000E+00 -0.31788108416E+03  0.31788108417E+03  0.25500000000E-02 0.  1.
    8880023    1    1    2    0    0 -0.23910316028E+03 -0.32442996258E+02  0.44350779459E+03  0.82989893324E+03  0.65864270000E+03 0. -1.
    8880022    1    1    2    0    0  0.23910316028E+03  0.32442996258E+02  0.38955230389E+02  0.28832626008E+03  0.15294330000E+03 0.  0.
<mgrwt>
<rscale>  0 0.56036215E+03</rscale>
<asrwt>0</asrwt>
<pdfrwt beam="1">  1        2 0.12312986E+00 0.70145069E+03</pdfrwt>
<pdfrwt beam="2">  1       -2 0.48904783E-01 0.70145069E+03</pdfrwt>
<totfact> 0.13823864E+02</totfact>
</mgrwt>
</event>
<event>
 4    5  0.8300489E-008  0.8801845E+03  0.7818608E-02  0.9558621E-01
          2   -1    0    0  501    0  0.00000000000E+00  0.00000000000E+00  0.23253744955E+04  0.23253744955E+04  0.25500000000E-02 0. -1.
         -2   -1    0    0    0  501 -0.00000000000E+00 -0.00000000000E+00 -0.14290143652E+04  0.14290143652E+04  0.25500000000E-02 0.  1.
    8880023    1    1    2    0    0 -0.58375855923E+03  0.11849456572E+02  0.21717781180E+04  0.23433618724E+04  0.65864270000E+03 0. -1.
    8880022    1    1    2    0    0  0.58375855923E+03 -0.11849456572E+02 -0.12754179877E+04  0.14110269882E+04  0.15294330000E+03 0.  0.
<mgrwt>
<rscale>  0 0.80096507E+03</rscale>
<asrwt>0</asrwt>
<pdfrwt beam="1">  1        2 0.35774992E+00 0.88018445E+03</pdfrwt>
<pdfrwt beam="2">  1       -2 0.21984837E+00 0.88018445E+03</pdfrwt>
<totfact> 0.44628652E-01</totfact>
</mgrwt>
</event>
<event>
 4    5  0.6615028E-008  0.9866321E+03  0.7818608E-02  0.9399260E-01
         -2   -1    0    0    0  501 -0.00000000000E+00  0.00000000000E+00  0.88269747362E+03  0.88269747362E+03  0.25500000000E-02 0.  1.
          2   -1    0    0  501    0  0.00000000000E+00 -0.00000000000E+00 -0.14479866365E+04  0.14479866365E+04  0.25500000000E-02 0. -1.
    8880023    1    1    2    0    0 -0.26766926407E+03 -0.68409491007E+03 -0.10473066160E+04  0.14388516377E+04  0.65864270000E+03 0. -1.
    8880022    1    1    2    0    0  0.26766926407E+03  0.68409491007E+03  0.48201745312E+03  0.89183247252E+03  0.15294330000E+03 0.  0.
<mgrwt>
<rscale>  0 0.92136630E+03</rscale>
<asrwt>0</asrwt>
<pdfrwt beam="1">  1        2 0.22276718E+00 0.98663209E+03</pdfrwt>
<pdfrwt beam="2">  1       -2 0.13579961E+00 0.98663209E+03</pdfrwt>
<totfact> 0.52493545E+00</totfact>
</mgrwt>
</event>
<event>
 4    5  0.6615028E-008  0.8752603E+03  0.7818608E-02  0.9566974E-01
          2   -1    0    0  501    0  0.00000000000E+00  0.00000000000E+00  0.33220910009E+04  0.33220910009E+04  0.25500000000E-02 0. -1.
         -2   -1    0    0    0  501 -0.00000000000E+00 -0.00000000000E+00 -0.50573340018E+03  0.50573340019E+03  0.25500000000E-02 0.  1.
    8880023    1    1    2    0    0 -0.26102779300E+03  0.51394048648E+03  0.30606605836E+04  0.31833510247E+04  0.65864270000E+03 0. -1.
    8880022    1    1    2    0    0  0.26102779300E+03 -0.51394048648E+03 -0.24430298289E+03  0.64447337635E+03  0.15294330000E+03 0.  0.
<mgrwt>
<rscale>  0 0.79521139E+03</rscale>
<asrwt>0</asrwt>
<pdfrwt beam="1">  1        2 0.51109095E+00 0.87526027E+03</pdfrwt>
<pdfrwt beam="2">  1       -2 0.77805135E-01 0.87526027E+03</pdfrwt>
<totfact> 0.16676354E+00</totfact>
</mgrwt>
</event>
<event>
 4    5  0.6615028E-008  0.1295759E+04  0.7818608E-02  0.9069231E-01
          2   -1    0    0  501    0  0.00000000000E+00  0.00000000000E+00  0.16386135062E+04  0.16386135062E+04  0.25500000000E-02 0. -1.
         -2   -1    0    0    0  501 -0.00000000000E+00 -0.00000000000E+00 -0.13553376268E+04  0.13553376268E+04  0.25500000000E-02 0.  1.
    8880023    1    1    2    0    0 -0.93298130726E+03  0.61215006188E+03  0.10191715743E+04  0.16485456385E+04  0.65864270000E+03 0.  0.
    8880022    1    1    2    0    0  0.93298130726E+03 -0.61215006188E+03 -0.73589569494E+03  0.13454054946E+04  0.15294330000E+03 0.  0.
<mgrwt>
<rscale>  0 0.12511451E+04</rscale>
<asrwt>0</asrwt>
<pdfrwt beam="1">  1        2 0.25209438E+00 0.12957592E+04</pdfrwt>
<pdfrwt beam="2">  1       -2 0.20851348E+00 0.12957592E+04</pdfrwt>
<totfact> 0.11922520E+00</totfact>
</mgrwt>
</event>
<event>
 4    5  0.6615028E-008  0.1153596E+04  0.7818608E-02  0.9203606E-01
          2   -1    0    0  501    0  0.00000000000E+00  0.00000000000E+00  0.16699394253E+04  0.16699394253E+04  0.25500000000E-02 0. -1.
         -2   -1    0    0    0  501 -0.00000000000E+00 -0.00000000000E+00 -0.97948107672E+03  0.97948107673E+03  0.25500000000E-02 0.  1.
    8880023    1    1    2    0    0 -0.10301166652E+03 -0.94146747247E+03  0.11113140912E+04  0.16018119805E+04  0.65864270000E+03 0. -1.
    8880022    1    1    2    0    0  0.10301166652E+03  0.94146747247E+03 -0.42085574270E+03  0.10476085215E+04  0.15294330000E+03 0.  0.
<mgrwt>
<rscale>  0 0.11016284E+04</rscale>
<asrwt>0</asrwt>
<pdfrwt beam="1">  1        2 0.25691376E+00 0.11535955E+04</pdfrwt>
<pdfrwt beam="2">  1       -2 0.15068940E+00 0.11535955E+04</pdfrwt>
<totfact> 0.29467638E+00</totfact>
</mgrwt>
</event>
<event>
 4    5  0.6615028E-008  0.1695506E+04  0.7818608E-02  0.8782653E-01
         -2   -1    0    0    0  501 -0.00000000000E+00  0.00000000000E+00  0.17553381505E+04  0.17553381505E+04  0.25500000000E-02 0.  1.
          2   -1    0    0  501    0  0.00000000000E+00 -0.00000000000E+00 -0.22261989063E+04  0.22261989063E+04  0.25500000000E-02 0. -1.
    8880023    1    1    2    0    0  0.15262893930E+04  0.33372509670E+03 -0.13634382908E+04  0.21757081446E+04  0.65864270000E+03 0. -1.
    8880022    1    1    2    0    0 -0.15262893930E+04 -0.33372509670E+03  0.89257753503E+03  0.18058289122E+04  0.15294330000E+03 0.  0.
<mgrwt>
<rscale>  0 0.16631706E+04</rscale>
<asrwt>0</asrwt>
<pdfrwt beam="1">  1        2 0.34249214E+00 0.16955064E+04</pdfrwt>
<pdfrwt beam="2">  1       -2 0.27005202E+00 0.16955064E+04</pdfrwt>
<totfact> 0.22167680E-01</totfact>
</mgrwt>
</event>
<event>
 4    5  0.6615028E-008  0.7630262E+03  0.7818608E-02  0.9797335E-01
         -2   -1    0    0    0  501 -0.00000000000E+00  0.00000000000E+00  0.29698376579E+04  0.29698376579E+04  0.25500000000E-02 0.  1.
          2   -1    0    0  501    0  0.00000000000E+00 -0.00000000000E+00 -0.13619260453E+04  0.13619260453E+04  0.25500000000E-02 0. -1.
    8880023    1    1    2    0    0 -0.28326070720E+02  0.38418274385E+03 -0.12388555937E+04  0.14549818333E+04  0.65864270000E+03 0. -1.
    8880022    1    1    2    0    0  0.28326070720E+02 -0.38418274385E+03  0.28467672063E+04  0.28767818699E+04  0.15294330000E+03 0.  0.
<mgrwt>
<rscale>  0 0.65505753E+03</rscale>
<asrwt>0</asrwt>
<pdfrwt beam="1">  1        2 0.20952709E+00 0.76302618E+03</pdfrwt>
<pdfrwt beam="2">  1       -2 0.45689810E+00 0.76302618E+03</pdfrwt>
<totfact> 0.51059977E-02</totfact>
</mgrwt>
</event>
<event>
 4    5  0.6615028E-008  0.6668959E+03  0.7818608E-02  0.1017993E+00
         -2   -1    0    0    0  501 -0.00000000000E+00  0.00000000000E+00  0.31310128124E+03  0.31310128125E+03  0.25500000000E-02 0.  1.
          2   -1    0    0  501    0  0.00000000000E+00 -0.00000000000E+00 -0.12263223593E+04  0.12263223593E+04  0.25500000000E-02 0. -1.
    8880023    1    1    2    0    0 -0.86573506572E+02 -0.58693624532E+02 -0.10935564751E+04  0.12808652872E+04  0.65864270000E+03 0. -1.
    8880022    1    1    2    0    0  0.86573506572E+02  0.58693624532E+02  0.18033539706E+03  0.25855835327E+03  0.15294330000E+03 0.  0.
<mgrwt>
<rscale>  0 0.48417820E+03</rscale>
<asrwt>0</asrwt>
<pdfrwt beam="1">  1        2 0.18866498E+00 0.66689588E+03</pdfrwt>
<pdfrwt beam="2">  1       -2 0.48169429E-01 0.66689588E+03</pdfrwt>
<totfact> 0.76409638E+01</totfact>
</mgrwt>
</event>
<event>
 4    5  0.6615028E-008  0.1023324E+04  0.7818608E-02  0.9351659E-01
          2   -1    0    0  501    0  0.00000000000E+00  0.00000000000E+00  0.19993402444E+04  0.19993402444E+04  0.25500000000E-02 0. -1.
         -2   -1    0    0    0  501 -0.00000000000E+00 -0.00000000000E+00 -0.53195876529E+03  0.53195876530E+03  0.25500000000E-02 0.  1.
    8880023    1    1    2    0    0 -0.46733543444E+03 -0.62847463700E+03  0.13949296779E+04  0.17300351991E+04  0.65864270000E+03 0. -1.
    8880022    1    1    2    0    0  0.46733543444E+03  0.62847463700E+03  0.72451801226E+02  0.80126381059E+03  0.15294330000E+03 0.  0.
<mgrwt>
<rscale>  0 0.96163049E+03</rscale>
<asrwt>0</asrwt>
<pdfrwt beam="1">  1        2 0.30759080E+00 0.10233245E+04</pdfrwt>
<pdfrwt beam="2">  1       -2 0.81839811E-01 0.10233245E+04</pdfrwt>
<totfact> 0.87752619E+00</totfact>
</mgrwt>
</event>
<event>
 4    5  0.6615028E-008  0.1388249E+04  0.7818608E-02  0.8992868E-01
          2   -1    0    0  501    0  0.00000000000E+00  0.00000000000E+00  0.37949482800E+04  0.37949482800E+04  0.25500000000E-02 0. -1.
         -2   -1    0    0    0  501 -0.00000000000E+00 -0.00000000000E+00 -0.60217289908E+03  0.60217289908E+03  0.25500000000E-02 0.  1.
    8880023    1    1    2    0    0  0.81879834787E+03 -0.90719029766E+03  0.27639647863E+04  0.30930141475E+04  0.65864270000E+03 0.  0.
    8880022    1    1    2    0    0 -0.81879834787E+03  0.90719029766E+03  0.42881059461E+03  0.13041070315E+04  0.15294330000E+03 0.  0.
<mgrwt>
<rscale>  0 0.13473088E+04</rscale>
<asrwt>0</asrwt>
<pdfrwt beam="1">  1        2 0.58383818E+00 0.13882490E+04</pdfrwt>
<pdfrwt beam="2">  1       -2 0.92641988E-01 0.13882490E+04</pdfrwt>
<totfact> 0.48084871E-01</totfact>
</mgrwt>
</event>
<event>
 4    5  0.6615028E-008  0.7865961E+03  0.7818608E-02  0.9740565E-01
         -2   -1    0    0    0  501 -0.00000000000E+00  0.00000000000E+00  0.79483759123E+03  0.79483759123E+03  0.25500000000E-02 0.  1.
          2   -1    0    0  501    0  0.00000000000E+00 -0.00000000000E+00 -0.29801242797E+04  0.29801242797E+04  0.25500000000E-02 0. -1.
    8880023    1    1    2    0    0  0.11177484099E+03 -0.41524646991E+03 -0.28567495533E+04  0.29630645390E+04  0.65864270000E+03 0. -1.
    8880022    1    1    2    0    0 -0.11177484099E+03  0.41524646991E+03  0.67146286478E+03  0.81189733196E+03  0.15294330000E+03 0.  0.
<mgrwt>
<rscale>  0 0.68652110E+03</rscale>
<asrwt>0</asrwt>
<pdfrwt beam="1">  1        2 0.45848065E+00 0.78659612E+03</pdfrwt>
<pdfrwt beam="2">  1       -2 0.12228271E+00 0.78659612E+03</pdfrwt>
<totfact> 0.96142198E-01</totfact>
</mgrwt>
</event>
<event>
 4    5  0.6615028E-008  0.7215561E+03  0.7818608E-02  0.9917355E-01
          2   -1    0    0  501    0  0.00000000000E+00  0.00000000000E+00  0.44316467966E+03  0.44316467966E+03  0.25500000000E-02 0. -1.
         -2   -1    0    0    0  501 -0.00000000000E+00 -0.00000000000E+00 -0.85900495694E+03  0.85900495694E+03  0.25500000000E-02 0.  1.
    8880023    1    1    2    0    0  0.12233167340E+03  0.26808212289E+03  0.57678366042E+02  0.72385776441E+03  0.65864270000E+03 0. -1.
    8880022    1    1    2    0    0 -0.12233167340E+03 -0.26808212289E+03 -0.47351864333E+03  0.57831187219E+03  0.15294330000E+03 0.  0.
<mgrwt>
<rscale>  0 0.59427501E+03</rscale>
<asrwt>0</asrwt>
<pdfrwt beam="1">  1        2 0.68179182E-01 0.72155614E+03</pdfrwt>
<pdfrwt beam="2">  1       -2 0.13215461E+00 0.72155614E+03</pdfrwt>
<totfact> 0.29906926E+01</totfact>
</mgrwt>
</event>
<event>
 4    5  0.6615028E-008  0.8520652E+03  0.7818608E-02  0.9607837E-01
          2   -1    0    0  501    0  0.00000000000E+00  0.00000000000E+00  0.21635924708E+04  0.21635924708E+04  0.25500000000E-02 0. -1.
         -2   -1    0    0    0  501 -0.00000000000E+00 -0.00000000000E+00 -0.92529120509E+03  0.92529120509E+03  0.25500000000E-02 0.  1.
    8880023    1    1    2    0    0 -0.46420135338E+03 -0.27698721753E+03  0.19816851977E+04  0.21571025113E+04  0.65864270000E+03 0. -1.
    8880022    1    1    2    0    0  0.46420135338E+03  0.27698721753E+03 -0.74338393205E+03  0.93178116454E+03  0.15294330000E+03 0.  0.
<mgrwt>
<rscale>  0 0.76779648E+03</rscale>
<asrwt>0</asrwt>
<pdfrwt beam="1">  1        2 0.33286038E+00 0.85206515E+03</pdfrwt>
<pdfrwt beam="2">  1       -2 0.14235250E+00 0.85206515E+03</pdfrwt>
<totfact> 0.19044323E+00</totfact>
</mgrwt>
</event>
<event>
 4    5  0.6615028E-008  0.9465779E+03  0.7818608E-02  0.9455055E-01
          2   -1    0    0  501    0  0.00000000000E+00  0.00000000000E+00  0.19588508297E+04  0.19588508297E+04  0.25500000000E-02 0. -1.
         -2   -1    0    0    0  501 -0.00000000000E+00 -0.00000000000E+00 -0.56779719279E+03  0.56779719279E+03  0.25500000000E-02 0.  1.
    8880023    1    1    2    0    0  0.55505536291E+03 -0.39257225393E+03  0.15460170784E+04  0.18127819624E+04  0.65864270000E+03 0. -1.
    8880022    1    1    2    0    0 -0.55505536291E+03  0.39257225393E+03 -0.15496344148E+03  0.71386606003E+03  0.15294330000E+03 0.  0.
<mgrwt>
<rscale>  0 0.87680111E+03</rscale>
<asrwt>0</asrwt>
<pdfrwt beam="1">  1        2 0.30136166E+00 0.94657786E+03</pdfrwt>
<pdfrwt beam="2">  1       -2 0.87353416E-01 0.94657786E+03</pdfrwt>
<totfact> 0.80305094E+00</totfact>
</mgrwt>
</event>
<event>
 4    5  0.6615028E-008  0.7389325E+03  0.7818608E-02  0.9863068E-01
         -2   -1    0    0    0  501 -0.00000000000E+00  0.00000000000E+00  0.14702493423E+04  0.14702493423E+04  0.25500000000E-02 0.  1.
          2   -1    0    0  501    0  0.00000000000E+00 -0.00000000000E+00 -0.18694745597E+04  0.18694745597E+04  0.25500000000E-02 0. -1.
    8880023    1    1    2    0    0  0.23417829286E+03 -0.23952371697E+03 -0.17712163057E+04  0.19191739087E+04  0.65864270000E+03 0. -1.
    8880022    1    1    2    0    0 -0.23417829286E+03  0.23952371697E+03  0.13719910884E+04  0.14205499933E+04  0.15294330000E+03 0.  0.
<mgrwt>
<rscale>  0 0.62085066E+03</rscale>
<asrwt>0</asrwt>
<pdfrwt beam="1">  1        2 0.28761147E+00 0.73893253E+03</pdfrwt>
<pdfrwt beam="2">  1       -2 0.22619221E+00 0.73893253E+03</pdfrwt>
<totfact> 0.74730259E-01</totfact>
</mgrwt>
</event>
<event>
 4    5  0.6615028E-008  0.6681038E+03  0.7818608E-02  0.1017060E+00
          2   -1    0    0  501    0  0.00000000000E+00  0.00000000000E+00  0.21141274979E+04  0.21141274979E+04  0.25500000000E-02 0. -1.
         -2   -1    0    0    0  501 -0.00000000000E+00 -0.00000000000E+00 -0.14018976114E+03  0.14018976116E+03  0.25500000000E-02 0.  1.
    8880023    1    1    2    0    0  0.99090095110E+02  0.52283570276E+02  0.19523532756E+04  0.20635033166E+04  0.65864270000E+03 0. -1.
    8880022    1    1    2    0    0 -0.99090095110E+02 -0.52283570276E+02  0.21584461206E+02  0.19081394249E+03  0.15294330000E+03 0.  0.
<mgrwt>
<rscale>  0 0.48762543E+03</rscale>
<asrwt>0</asrwt>
<pdfrwt beam="1">  1        2 0.32525035E+00 0.66810375E+03</pdfrwt>
<pdfrwt beam="2">  1       -2 0.21567658E-01 0.66810375E+03</pdfrwt>
<totfact> 0.11184036E+02</totfact>
</mgrwt>
</event>
<event>
 4    5  0.6615028E-008  0.1332068E+04  0.7818608E-02  0.9038350E-01
          2   -1    0    0  501    0  0.00000000000E+00  0.00000000000E+00  0.15530304042E+04  0.15530304042E+04  0.25500000000E-02 0. -1.
         -2   -1    0    0    0  501 -0.00000000000E+00 -0.00000000000E+00 -0.12402748109E+04  0.12402748109E+04  0.25500000000E-02 0.  1.
    8880023    1    1    2    0    0  0.10725550940E+04 -0.43614358762E+03  0.77055845217E+03  0.15388847238E+04  0.65864270000E+03 0.  0.
    8880022    1    1    2    0    0 -0.10725550940E+04  0.43614358762E+03 -0.45780285888E+03  0.12544204914E+04  0.15294330000E+03 0.  0.
<mgrwt>
<rscale>  0 0.12889799E+04</rscale>
<asrwt>0</asrwt>
<pdfrwt beam="1">  1        2 0.23892775E+00 0.13320683E+04</pdfrwt>
<pdfrwt beam="2">  1       -2 0.19081151E+00 0.13320683E+04</pdfrwt>
<totfact> 0.17359602E+00</totfact>
</mgrwt>
</event>
<event>
 4    5  0.6615028E-008  0.1065309E+04  0.7818608E-02  0.9300700E-01
         -2   -1    0    0    0  501 -0.00000000000E+00  0.00000000000E+00  0.59884206624E+03  0.59884206625E+03  0.25500000000E-02 0.  1.
          2   -1    0    0  501    0  0.00000000000E+00 -0.00000000000E+00 -0.23893216058E+04  0.23893216059E+04  0.25500000000E-02 0. -1.
    8880023    1    1    2    0    0 -0.83722545693E+03 -0.11268309368E+02 -0.18501356213E+04  0.21349204819E+04  0.65864270000E+03 0.  0.
    8880022    1    1    2    0    0  0.83722545693E+03  0.11268309368E+02  0.59656081692E+02  0.85324319020E+03  0.15294330000E+03 0.  0.
<mgrwt>
<rscale>  0 0.10071843E+04</rscale>
<asrwt>0</asrwt>
<pdfrwt beam="1">  1        2 0.36758794E+00 0.10653092E+04</pdfrwt>
<pdfrwt beam="2">  1       -2 0.92129550E-01 0.10653092E+04</pdfrwt>
<totfact> 0.40313523E+00</totfact>
</mgrwt>
</event>
<event>
 4    5  0.6615028E-008  0.7463440E+03  0.7818608E-02  0.9841838E-01
          2   -1    0    0  501    0  0.00000000000E+00  0.00000000000E+00  0.19920647377E+04  0.19920647377E+04  0.25500000000E-02 0. -1.
         -2   -1    0    0    0  501 -0.00000000000E+00 -0.00000000000E+00 -0.51998093499E+03  0.51998093499E+03  0.25500000000E-02 0.  1.
    8880023    1    1    2    0    0 -0.25600039587E+03 -0.24017279239E+03  0.18371747811E+04  0.19829877850E+04  0.65864270000E+03 0. -1.
    8880022    1    1    2    0    0  0.25600039587E+03  0.24017279239E+03 -0.36509097846E+03  0.52905788762E+03  0.15294330000E+03 0.  0.
<mgrwt>
<rscale>  0 0.63164788E+03</rscale>
<asrwt>0</asrwt>
<pdfrwt beam="1">  1        2 0.30647149E+00 0.74634401E+03</pdfrwt>
<pdfrwt beam="2">  1       -2 0.79997068E-01 0.74634401E+03</pdfrwt>
<totfact> 0.96648024E+00</totfact>
</mgrwt>
</event>
<event>
 4    5  0.6615028E-008  0.9079386E+03  0.7818608E-02  0.9513406E-01
         -2   -1    0    0    0  501 -0.00000000000E+00  0.00000000000E+00  0.17812120073E+04  0.17812120073E+04  0.25500000000E-02 0.  1.
          2   -1    0    0  501    0  0.00000000000E+00 -0.00000000000E+00 -0.62978384588E+03  0.62978384588E+03  0.25500000000E-02 0. -1.
    8880023    1    1    2    0    0  0.21682347411E+02 -0.62455762716E+03 -0.18606259686E+03  0.92680734246E+03  0.65864270000E+03 0. -1.
    8880022    1    1    2    0    0 -0.21682347411E+02  0.62455762716E+03  0.13374907582E+04  0.14841885107E+04  0.15294330000E+03 0.  0.
<mgrwt>
<rscale>  0 0.83302639E+03</rscale>
<asrwt>0</asrwt>
<pdfrwt beam="1">  1        2 0.96889825E-01 0.90793863E+03</pdfrwt>
<pdfrwt beam="2">  1       -2 0.27403261E+00 0.90793863E+03</pdfrwt>
<totfact> 0.21691206E+00</totfact>
</mgrwt>
</event>
<event>
 4    5  0.6615028E-008  0.6821067E+03  0.7818608E-02  0.1008156E+00
          2   -1    0    0  501    0  0.00000000000E+00  0.00000000000E+00  0.61560402099E+03  0.61560402100E+03  0.25500000000E-02 0. -1.
         -2   -1    0    0    0  501 -0.00000000000E+00 -0.00000000000E+00 -0.34105679136E+03  0.34105679137E+03  0.25500000000E-02 0.  1.
    8880023    1    1    2    0    0 -0.35360519069E+01  0.17733270607E+03  0.21080170201E+03  0.71393764163E+03  0.65864270000E+03 0. -1.
    8880022    1    1    2    0    0  0.35360519069E+01 -0.17733270607E+03  0.63745527619E+02  0.24272317074E+03  0.15294330000E+03 0.  1.
<mgrwt>
<rscale>  0 0.52214048E+03</rscale>
<asrwt>0</asrwt>
<pdfrwt beam="1">  1        2 0.94708311E-01 0.68210674E+03</pdfrwt>
<pdfrwt beam="2">  1       -2 0.52470276E-01 0.68210674E+03</pdfrwt>
<totfact> 0.16701245E+02</totfact>
</mgrwt>
</event>
<event>
 4    5  0.6615028E-008  0.1035058E+04  0.7818608E-02  0.9337063E-01
         -2   -1    0    0    0  501 -0.00000000000E+00  0.00000000000E+00  0.15916068339E+04  0.15916068339E+04  0.25500000000E-02 0.  1.
          2   -1    0    0  501    0  0.00000000000E+00 -0.00000000000E+00 -0.17750586068E+04  0.17750586068E+04  0.25500000000E-02 0. -1.
    8880023    1    1    2    0    0 -0.39133876378E+02 -0.79749868315E+03 -0.14981361157E+04  0.18209221942E+04  0.65864270000E+03 0. -1.
    8880022    1    1    2    0    0  0.39133876378E+02  0.79749868315E+03  0.13146843428E+04  0.15457432465E+04  0.15294330000E+03 0.  0.
<mgrwt>
<rscale>  0 0.97441248E+03</rscale>
<asrwt>0</asrwt>
<pdfrwt beam="1">  1        2 0.27308594E+00 0.10350584E+04</pdfrwt>
<pdfrwt beam="2">  1       -2 0.24486259E+00 0.10350584E+04</pdfrwt>
<totfact> 0.61238856E-01</totfact>
</mgrwt>
</event>
<event>
 4    5  0.6615028E-008  0.9380185E+03  0.7818608E-02  0.9467567E-01
         -2   -1    0    0    0  501 -0.00000000000E+00  0.00000000000E+00  0.87197615133E+03  0.87197615133E+03  0.25500000000E-02 0.  1.
          2   -1    0    0  501    0  0.00000000000E+00 -0.00000000000E+00 -0.23240846422E+04  0.23240846422E+04  0.25500000000E-02 0. -1.
    8880023    1    1    2    0    0 -0.26658325726E+03 -0.61237395263E+03 -0.20705147702E+04  0.22730838327E+04  0.65864270000E+03 0.  0.
    8880022    1    1    2    0    0  0.26658325726E+03  0.61237395263E+03  0.61840627928E+03  0.92297696081E+03  0.15294330000E+03 0.  0.
<mgrwt>
<rscale>  0 0.86717828E+03</rscale>
<asrwt>0</asrwt>
<pdfrwt beam="1">  1        2 0.35755148E+00 0.93801850E+03</pdfrwt>
<pdfrwt beam="2">  1       -2 0.13415018E+00 0.93801850E+03</pdfrwt>
<totfact> 0.17832794E+00</totfact>
</mgrwt>
</event>
<event>
 4    5  0.6615028E-008  0.1292056E+04  0.7818608E-02  0.9072451E-01
          2   -1    0    0  501    0  0.00000000000E+00  0.00000000000E+00  0.91548776994E+03  0.91548776995E+03  0.25500000000E-02 0. -1.
         -2   -1    0    0    0  501 -0.00000000000E+00 -0.00000000000E+00 -0.26071670531E+04  0.26071670531E+04  0.25500000000E-02 0.  1.
    8880023    1    1    2    0    0 -0.21211181815E+03 -0.10911490493E+04  0.21548782002E+03  0.13099018582E+04  0.65864270000E+03 0.  0.
    8880022    1    1    2    0    0  0.21211181815E+03  0.10911490493E+04 -0.19071671032E+04  0.22127529649E+04  0.15294330000E+03 0.  0.
<mgrwt>
<rscale>  0 0.12472792E+04</rscale>
<asrwt>0</asrwt>
<pdfrwt beam="1">  1        2 0.14084427E+00 0.12920557E+04</pdfrwt>
<pdfrwt beam="2">  1       -2 0.40110262E+00 0.12920557E+04</pdfrwt>
<totfact> 0.20372235E-01</totfact>
</mgrwt>
</event>
<event>
 4    5  0.6615028E-008  0.7040626E+03  0.7818608E-02  0.9980748E-01
         -2   -1    0    0    0  501 -0.00000000000E+00  0.00000000000E+00  0.28662825221E+03  0.28662825222E+03  0.25500000000E-02 0.  1.
          2   -1    0    0  501    0  0.00000000000E+00 -0.00000000000E+00 -0.23902197140E+04  0.23902197140E+04  0.25500000000E-02 0. -1.
    8880023    1    1    2    0    0 -0.16828544768E+03  0.18323208398E+03 -0.22446855359E+04  0.23525129862E+04  0.65864270000E+03 0. -1.
    8880022    1    1    2    0    0  0.16828544768E+03 -0.18323208398E+03  0.14109407417E+03  0.32433498005E+03  0.15294330000E+03 0.  0.
<mgrwt>
<rscale>  0 0.56502539E+03</rscale>
<asrwt>0</asrwt>
<pdfrwt beam="1">  1        2 0.36772610E+00 0.70406264E+03</pdfrwt>
<pdfrwt beam="2">  1       -2 0.44096656E-01 0.70406264E+03</pdfrwt>
<totfact> 0.20628591E+01</totfact>
</mgrwt>
</event>
<event>
 4    5  0.6615028E-008  0.6628979E+03  0.7818608E-02  0.1021366E+00
          2   -1    0    0  501    0  0.00000000000E+00  0.00000000000E+00  0.12273947694E+04  0.12273947694E+04  0.25500000000E-02 0. -1.
         -2   -1    0    0    0  501 -0.00000000000E+00 -0.00000000000E+00 -0.14283677026E+03  0.14283677029E+03  0.25500000000E-02 0.  1.
    8880023    1    1    2    0    0 -0.53213877737E+01 -0.74800055675E+02  0.80434534126E+03  0.10423075361E+04  0.65864270000E+03 0.  0.
    8880022    1    1    2    0    0  0.53213877737E+01  0.74800055675E+02  0.28021265792E+03  0.32792400365E+03  0.15294330000E+03 0.  1.
<mgrwt>
<rscale>  0 0.47196829E+03</rscale>
<asrwt>0</asrwt>
<pdfrwt beam="1">  1        2 0.18882996E+00 0.66289786E+03</pdfrwt>
<pdfrwt beam="2">  1       -2 0.21974888E-01 0.66289786E+03</pdfrwt>
<totfact> 0.33438123E+02</totfact>
</mgrwt>
</event>
<event>
 4    5  0.6615028E-008  0.7627129E+03  0.7818608E-02  0.9798134E-01
          2   -1    0    0  501    0  0.00000000000E+00  0.00000000000E+00  0.79331517835E+03  0.79331517835E+03  0.25500000000E-02 0. -1.
         -2   -1    0    0    0  501 -0.00000000000E+00 -0.00000000000E+00 -0.81368653161E+03  0.81368653162E+03  0.25500000000E-02 0.  1.
    8880023    1    1    2    0    0 -0.71408199062E+02 -0.37791743428E+03  0.52237057076E+03  0.92444682783E+03  0.65864270000E+03 0. -1.
    8880022    1    1    2    0    0  0.71408199062E+02  0.37791743428E+03 -0.54274192402E+03  0.68255488214E+03  0.15294330000E+03 0.  0.
<mgrwt>
<rscale>  0 0.65462773E+03</rscale>
<asrwt>0</asrwt>
<pdfrwt beam="1">  1        2 0.12204849E+00 0.76271287E+03</pdfrwt>
<pdfrwt beam="2">  1       -2 0.12518254E+00 0.76271287E+03</pdfrwt>
<totfact> 0.16865441E+01</totfact>
</mgrwt>
</event>
<event>
 4    5  0.6615028E-008  0.1578635E+04  0.7818608E-02  0.8856016E-01
         -2   -1    0    0    0  501 -0.00000000000E+00  0.00000000000E+00  0.19249590118E+04  0.19249590118E+04  0.25500000000E-02 0.  1.
          2   -1    0    0  501    0  0.00000000000E+00 -0.00000000000E+00 -0.24762726454E+04  0.24762726454E+04  0.25500000000E-02 0. -1.
    8880023    1    1    2    0    0 -0.17053682744E+03  0.14244981793E+04  0.13063704841E+04  0.20490709896E+04  0.65864270000E+03 0.  1.
    8880022    1    1    2    0    0  0.17053682744E+03 -0.14244981793E+04 -0.18576841176E+04  0.23521606676E+04  0.15294330000E+03 0.  0.
<mgrwt>
<rscale>  0 0.15435217E+04</rscale>
<asrwt>0</asrwt>
<pdfrwt beam="1">  1        2 0.38096502E+00 0.15786349E+04</pdfrwt>
<pdfrwt beam="2">  1       -2 0.29614754E+00 0.15786349E+04</pdfrwt>
<totfact> 0.11197934E-01</totfact>
</mgrwt>
</event>
<event>
 4    5  0.6615028E-008  0.7674075E+03  0.7818608E-02  0.9786294E-01
          2   -1    0    0  501    0  0.00000000000E+00  0.00000000000E+00  0.20780420700E+04  0.20780420700E+04  0.25500000000E-02 0. -1.
         -2   -1    0    0    0  501 -0.00000000000E+00 -0.00000000000E+00 -0.58977272059E+03  0.58977272060E+03  0.25500000000E-02 0.  1.
    8880023    1    1    2    0    0 -0.83694131728E+02  0.38483671647E+03  0.19176085795E+04  0.20654628723E+04  0.65864270000E+03 0. -1.
    8880022    1    1    2    0    0  0.83694131728E+02 -0.38483671647E+03 -0.42933923012E+03  0.60235191837E+03  0.15294330000E+03 0.  0.
<mgrwt>
<rscale>  0 0.66103274E+03</rscale>
<asrwt>0</asrwt>
<pdfrwt beam="1">  1        2 0.31969878E+00 0.76740746E+03</pdfrwt>
<pdfrwt beam="2">  1       -2 0.90734265E-01 0.76740746E+03</pdfrwt>
<totfact> 0.64876569E+00</totfact>
</mgrwt>
</event>
<event>
 4    5  0.6615028E-008  0.9320972E+03  0.7818608E-02  0.9476354E-01
         -2   -1    0    0    0  501 -0.00000000000E+00  0.00000000000E+00  0.61949193558E+03  0.61949193559E+03  0.25500000000E-02 0.  1.
          2   -1    0    0  501    0  0.00000000000E+00 -0.00000000000E+00 -0.17545089453E+04  0.17545089453E+04  0.25500000000E-02 0. -1.
    8880023    1    1    2    0    0  0.11944187402E+03 -0.64863599623E+03 -0.13702791965E+04  0.16572478087E+04  0.65864270000E+03 0.  0.
    8880022    1    1    2    0    0 -0.11944187402E+03  0.64863599623E+03  0.23526218681E+03  0.71675307215E+03  0.15294330000E+03 0.  0.
<mgrwt>
<rscale>  0 0.86049808E+03</rscale>
<asrwt>0</asrwt>
<pdfrwt beam="1">  1        2 0.26992445E+00 0.93209722E+03</pdfrwt>
<pdfrwt beam="2">  1       -2 0.95306452E-01 0.93209722E+03</pdfrwt>
<totfact> 0.85079531E+00</totfact>
</mgrwt>
</event>
<event>
 4    5  0.6615028E-008  0.1047391E+04  0.7818608E-02  0.9322025E-01
         -2   -1    0    0    0  501 -0.00000000000E+00  0.00000000000E+00  0.10479289440E+04  0.10479289440E+04  0.25500000000E-02 0.  1.
          2   -1    0    0  501    0  0.00000000000E+00 -0.00000000000E+00 -0.16618917873E+04  0.16618917873E+04  0.25500000000E-02 0. -1.
    8880023    1    1    2    0    0  0.70883580360E+03  0.40096033161E+03 -0.12748455331E+04  0.16499268843E+04  0.65864270000E+03 0.  0.
    8880022    1    1    2    0    0 -0.70883580360E+03 -0.40096033161E+03  0.66088268985E+03  0.10598938469E+04  0.15294330000E+03 0.  0.
<mgrwt>
<rscale>  0 0.98780284E+03</rscale>
<asrwt>0</asrwt>
<pdfrwt beam="1">  1        2 0.25567566E+00 0.10473908E+04</pdfrwt>
<pdfrwt beam="2">  1       -2 0.16121984E+00 0.10473908E+04</pdfrwt>
<totfact> 0.25103406E+00</totfact>
</mgrwt>
</event>
<event>
 4    5  0.6615028E-008  0.8819244E+03  0.7818608E-02  0.9555695E-01
         -2   -1    0    0    0  501 -0.00000000000E+00  0.00000000000E+00  0.36945391100E+03  0.36945391101E+03  0.25500000000E-02 0.  1.
          2   -1    0    0  501    0  0.00000000000E+00 -0.00000000000E+00 -0.17860540587E+04  0.17860540587E+04  0.25500000000E-02 0. -1.
    8880023    1    1    2    0    0  0.52011668090E+03  0.27103347179E+03 -0.12447319449E+04  0.15254993692E+04  0.65864270000E+03 0.  0.
    8880022    1    1    2    0    0 -0.52011668090E+03 -0.27103347179E+03 -0.17186820286E+03  0.63000860054E+03  0.15294330000E+03 0.  0.
<mgrwt>
<rscale>  0 0.80299310E+03</rscale>
<asrwt>0</asrwt>
<pdfrwt beam="1">  1        2 0.27477754E+00 0.88192444E+03</pdfrwt>
<pdfrwt beam="2">  1       -2 0.56839064E-01 0.88192444E+03</pdfrwt>
<totfact> 0.25831120E+01</totfact>
</mgrwt>
</event>
<event>
 4    5  0.6615028E-008  0.8596308E+03  0.7818608E-02  0.9594220E-01
          2   -1    0    0  501    0  0.00000000000E+00  0.00000000000E+00  0.12689077674E+04  0.12689077674E+04  0.25500000000E-02 0. -1.
         -2   -1    0    0    0  501 -0.00000000000E+00 -0.00000000000E+00 -0.12365954998E+04  0.12365954998E+04  0.25500000000E-02 0.  1.
    8880023    1    1    2    0    0 -0.19903053418E+03 -0.51530748774E+03  0.10381202029E+04  0.13478348275E+04  0.65864270000E+03 0. -1.
    8880022    1    1    2    0    0  0.19903053418E+03  0.51530748774E+03 -0.10058079353E+04  0.11576684396E+04  0.15294330000E+03 0.  0.
<mgrwt>
<rscale>  0 0.77679892E+03</rscale>
<asrwt>0</asrwt>
<pdfrwt beam="1">  1        2 0.19521658E+00 0.85963083E+03</pdfrwt>
<pdfrwt beam="2">  1       -2 0.19024546E+00 0.85963083E+03</pdfrwt>
<totfact> 0.26886467E+00</totfact>
</mgrwt>
</event>
<event>
 4    5  0.6615028E-008  0.1072538E+04  0.7818608E-02  0.9292265E-01
          2   -1    0    0  501    0  0.00000000000E+00  0.00000000000E+00  0.42387832844E+03  0.42387832845E+03  0.25500000000E-02 0. -1.
         -2   -1    0    0    0  501 -0.00000000000E+00 -0.00000000000E+00 -0.22679633457E+04  0.22679633457E+04  0.25500000000E-02 0.  1.
    8880023    1    1    2    0    0  0.21912537067E+03  0.81762593551E+03 -0.79421448579E+03  0.13345841878E+04  0.65864270000E+03 0.  0.
    8880022    1    1    2    0    0 -0.21912537067E+03 -0.81762593551E+03 -0.10498705314E+04  0.13572574864E+04  0.15294330000E+03 0.  0.
<mgrwt>
<rscale>  0 0.10149804E+04</rscale>
<asrwt>0</asrwt>
<pdfrwt beam="1">  1        2 0.65212052E-01 0.10725383E+04</pdfrwt>
<pdfrwt beam="2">  1       -2 0.34891743E+00 0.10725383E+04</pdfrwt>
<totfact> 0.11844476E+00</totfact>
</mgrwt>
</event>
<event>
 4    5  0.6615028E-008  0.9731390E+03  0.7818608E-02  0.9417576E-01
          2   -1    0    0  501    0  0.00000000000E+00  0.00000000000E+00  0.10452929160E+04  0.10452929160E+04  0.25500000000E-02 0. -1.
         -2   -1    0    0    0  501 -0.00000000000E+00 -0.00000000000E+00 -0.10651126763E+04  0.10651126763E+04  0.25500000000E-02 0.  1.
    8880023    1    1    2    0    0 -0.28027892627E+02  0.71582380122E+03  0.60647254652E+03  0.11466509639E+04  0.65864270000E+03 0.  0.
    8880022    1    1    2    0    0  0.28027892627E+02 -0.71582380122E+03 -0.62629230676E+03  0.96375462836E+03  0.15294330000E+03 0.  0.
<mgrwt>
<rscale>  0 0.90643269E+03</rscale>
<asrwt>0</asrwt>
<pdfrwt beam="1">  1        2 0.16081429E+00 0.97313898E+03</pdfrwt>
<pdfrwt beam="2">  1       -2 0.16386349E+00 0.97313898E+03</pdfrwt>
<totfact> 0.55270610E+00</totfact>
</mgrwt>
</event>
<event>
 4    5  0.6615028E-008  0.6702837E+03  0.7818608E-02  0.1015460E+00
         -2   -1    0    0    0  501 -0.00000000000E+00  0.00000000000E+00  0.48975508036E+03  0.48975508037E+03  0.25500000000E-02 0.  1.
          2   -1    0    0  501    0  0.00000000000E+00 -0.00000000000E+00 -0.13873507648E+04  0.13873507648E+04  0.25500000000E-02 0. -1.
    8880023    1    1    2    0    0  0.99124951658E+02 -0.75128203564E+02 -0.12811260281E+04  0.14458783176E+04  0.65864270000E+03 0. -1.
    8880022    1    1    2    0    0 -0.99124951658E+02  0.75128203564E+02  0.38353034369E+03  0.43122752759E+03  0.15294330000E+03 0.  0.
<mgrwt>
<rscale>  0 0.49361022E+03</rscale>
<asrwt>0</asrwt>
<pdfrwt beam="1">  1        2 0.21343858E+00 0.67028368E+03</pdfrwt>
<pdfrwt beam="2">  1       -2 0.75346936E-01 0.67028368E+03</pdfrwt>
<totfact> 0.23996054E+01</totfact>
</mgrwt>
</event>
<event>
 4    5  0.6615028E-008  0.9462904E+03  0.7818608E-02  0.9455472E-01
         -2   -1    0    0    0  501 -0.00000000000E+00  0.00000000000E+00  0.11612588884E+04  0.11612588884E+04  0.25500000000E-02 0.  1.
          2   -1    0    0  501    0  0.00000000000E+00 -0.00000000000E+00 -0.74937961017E+03  0.74937961017E+03  0.25500000000E-02 0. -1.
    8880023    1    1    2    0    0  0.54719212764E+03  0.40278551641E+03 -0.21858344432E+03  0.97120766326E+03  0.65864270000E+03 0.  0.
    8880022    1    1    2    0    0 -0.54719212764E+03 -0.40278551641E+03  0.63046272250E+03  0.93943083527E+03  0.15294330000E+03 0.  0.
<mgrwt>
<rscale>  0 0.87647861E+03</rscale>
<asrwt>0</asrwt>
<pdfrwt beam="1">  1        2 0.11528917E+00 0.94629044E+03</pdfrwt>
<pdfrwt beam="2">  1       -2 0.17865521E+00 0.94629044E+03</pdfrwt>
<totfact> 0.69356272E+00</totfact>
</mgrwt>
</event>
<event>
 4    5  0.6615028E-008  0.6901118E+03  0.7818608E-02  0.1004099E+00
         -2   -1    0    0    0  501 -0.00000000000E+00  0.00000000000E+00  0.83839549624E+03  0.83839549624E+03  0.25500000000E-02 0.  1.
          2   -1    0    0  501    0  0.00000000000E+00 -0.00000000000E+00 -0.12868754427E+04  0.12868754427E+04  0.25500000000E-02 0. -1.
    8880023    1    1    2    0    0 -0.20274625160E+02 -0.20501967955E+03 -0.11706216124E+04  0.13589000313E+04  0.65864270000E+03 0. -1.
    8880022    1    1    2    0    0  0.20274625160E+02  0.20501967955E+03  0.72214166591E+03  0.76637090765E+03  0.15294330000E+03 0.  0.
<mgrwt>
<rscale>  0 0.53888656E+03</rscale>
<asrwt>0</asrwt>
<pdfrwt beam="1">  1        2 0.19798084E+00 0.69011183E+03</pdfrwt>
<pdfrwt beam="2">  1       -2 0.12898392E+00 0.69011183E+03</pdfrwt>
<totfact> 0.76792787E+00</totfact>
</mgrwt>
</event>
<event>
 4    5  0.6615028E-008  0.1509145E+04  0.7818608E-02  0.8903205E-01
          2   -1    0    0  501    0  0.00000000000E+00  0.00000000000E+00  0.12087072201E+04  0.12087072201E+04  0.25500000000E-02 0. -1.
         -2   -1    0    0    0  501 -0.00000000000E+00 -0.00000000000E+00 -0.35793314366E+04  0.35793314366E+04  0.25500000000E-02 0.  1.
    8880023    1    1    2    0    0 -0.43695354729E+03  0.12856051069E+04  0.51552746754E+03  0.15947688451E+04  0.65864270000E+03 0.  0.
    8880022    1    1    2    0    0  0.43695354729E+03 -0.12856051069E+04 -0.28861516841E+04  0.31932698116E+04  0.15294330000E+03 0.  0.
<mgrwt>
<rscale>  0 0.14721234E+04</rscale>
<asrwt>0</asrwt>
<pdfrwt beam="1">  1        2 0.18595496E+00 0.15091452E+04</pdfrwt>
<pdfrwt beam="2">  1       -2 0.55066637E+00 0.15091452E+04</pdfrwt>
<totfact> 0.14631798E-02</totfact>
</mgrwt>
</event>
<event>
 4    5  0.6615028E-008  0.1012543E+04  0.7818608E-02  0.9365328E-01
          2   -1    0    0  501    0  0.00000000000E+00  0.00000000000E+00  0.21253353415E+04  0.21253353415E+04  0.25500000000E-02 0. -1.
         -2   -1    0    0    0  501 -0.00000000000E+00 -0.00000000000E+00 -0.70976430252E+03  0.70976430253E+03  0.25500000000E-02 0.  1.
    8880023    1    1    2    0    0  0.49977003727E+03  0.58451953299E+03  0.17184148400E+04  0.19945407850E+04  0.65864270000E+03 0.  0.
    8880022    1    1    2    0    0 -0.49977003727E+03 -0.58451953299E+03 -0.30284380101E+03  0.84055885899E+03  0.15294330000E+03 0.  0.
<mgrwt>
<rscale>  0 0.94984784E+03</rscale>
<asrwt>0</asrwt>
<pdfrwt beam="1">  1        2 0.32697466E+00 0.10125430E+04</pdfrwt>
<pdfrwt beam="2">  1       -2 0.10919451E+00 0.10125430E+04</pdfrwt>
<totfact> 0.38034795E+00</totfact>
</mgrwt>
</event>
<event>
 4    5  0.6615028E-008  0.1255847E+04  0.7818608E-02  0.9104659E-01
         -2   -1    0    0    0  501 -0.00000000000E+00  0.00000000000E+00  0.18796470134E+04  0.18796470134E+04  0.25500000000E-02 0.  1.
          2   -1    0    0  501    0  0.00000000000E+00 -0.00000000000E+00 -0.11928130579E+04  0.11928130579E+04  0.25500000000E-02 0. -1.
    8880023    1    1    2    0    0 -0.10558637561E+04 -0.16879699099E+03 -0.60047012730E+03  0.13920184179E+04  0.65864270000E+03 0.  0.
    8880022    1    1    2    0    0  0.10558637561E+04  0.16879699099E+03  0.12873040828E+04  0.16804416533E+04  0.15294330000E+03 0.  0.
<mgrwt>
<rscale>  0 0.12094109E+04</rscale>
<asrwt>0</asrwt>
<pdfrwt beam="1">  1        2 0.18350970E+00 0.12558467E+04</pdfrwt>
<pdfrwt beam="2">  1       -2 0.28917646E+00 0.12558467E+04</pdfrwt>
<totfact> 0.68626475E-01</totfact>
</mgrwt>
</event>
<event>
 4    5  0.6615028E-008  0.9480236E+03  0.7818608E-02  0.9452963E-01
         -2   -1    0    0    0  501 -0.00000000000E+00  0.00000000000E+00  0.78335479268E+03  0.78335479268E+03  0.25500000000E-02 0.  1.
          2   -1    0    0  501    0  0.00000000000E+00 -0.00000000000E+00 -0.21527864506E+04  0.21527864506E+04  0.25500000000E-02 0. -1.
    8880023    1    1    2    0    0  0.64327623153E+03 -0.22612858755E+03 -0.18563575487E+04  0.20844212633E+04  0.65864270000E+03 0. -1.
    8880022    1    1    2    0    0 -0.64327623153E+03  0.22612858755E+03  0.48692589076E+03  0.85171997996E+03  0.15294330000E+03 0.  0.
<mgrwt>
<rscale>  0 0.87842266E+03</rscale>
<asrwt>0</asrwt>
<pdfrwt beam="1">  1        2 0.33119791E+00 0.94802355E+03</pdfrwt>
<pdfrwt beam="2">  1       -2 0.12051612E+00 0.94802355E+03</pdfrwt>
<totfact> 0.29077840E+00</totfact>
</mgrwt>
</event>
<event>
 4    5  0.6615028E-008  0.6902963E+03  0.7818608E-02  0.1004012E+00
         -2   -1    0    0    0  501 -0.00000000000E+00  0.00000000000E+00  0.10044719709E+04  0.10044719709E+04  0.25500000000E-02 0.  1.
          2   -1    0    0  501    0  0.00000000000E+00 -0.00000000000E+00 -0.26288459395E+04  0.26288459395E+04  0.25500000000E-02 0. -1.
    8880023    1    1    2    0    0  0.17629158856E+03 -0.10779637801E+03 -0.25659999728E+04  0.26572287915E+04  0.65864270000E+03 0. -1.
    8880022    1    1    2    0    0 -0.17629158856E+03  0.10779637801E+03  0.94162600423E+03  0.97608911896E+03  0.15294330000E+03 0.  0.
<mgrwt>
<rscale>  0 0.53925476E+03</rscale>
<asrwt>0</asrwt>
<pdfrwt beam="1">  1        2 0.40443783E+00 0.69029631E+03</pdfrwt>
<pdfrwt beam="2">  1       -2 0.15453415E+00 0.69029631E+03</pdfrwt>
<totfact> 0.86789521E-01</totfact>
</mgrwt>
</event>
<event>
 4    5  0.6615028E-008  0.7364316E+03  0.7818608E-02  0.9870466E-01
         -2   -1    0    0    0  501 -0.00000000000E+00  0.00000000000E+00  0.72478645690E+03  0.72478645691E+03  0.25500000000E-02 0.  1.
          2   -1    0    0  501    0  0.00000000000E+00 -0.00000000000E+00 -0.60641274412E+03  0.60641274413E+03  0.25500000000E-02 0. -1.
    8880023    1    1    2    0    0  0.22742991851E+03  0.23832114563E+03 -0.28386766253E+03  0.78924799169E+03  0.65864270000E+03 0.  0.
    8880022    1    1    2    0    0 -0.22742991851E+03 -0.23832114563E+03  0.40224137531E+03  0.54195120935E+03  0.15294330000E+03 0.  0.
<mgrwt>
<rscale>  0 0.61714224E+03</rscale>
<asrwt>0</asrwt>
<pdfrwt beam="1">  1        2 0.93294269E-01 0.73643163E+03</pdfrwt>
<pdfrwt beam="2">  1       -2 0.11150561E+00 0.73643163E+03</pdfrwt>
<totfact> 0.31556332E+01</totfact>
</mgrwt>
</event>
<event>
 4    5  0.6615028E-008  0.7445789E+03  0.7818608E-02  0.9846804E-01
          2   -1    0    0  501    0  0.00000000000E+00  0.00000000000E+00  0.16361425443E+04  0.16361425443E+04  0.25500000000E-02 0. -1.
         -2   -1    0    0    0  501 -0.00000000000E+00 -0.00000000000E+00 -0.91183998749E+03  0.91183998750E+03  0.25500000000E-02 0.  1.
    8880023    1    1    2    0    0  0.28179075674E+03 -0.20293231748E+03  0.15054698079E+04  0.16795347882E+04  0.65864270000E+03 0. -1.
    8880022    1    1    2    0    0 -0.28179075674E+03  0.20293231748E+03 -0.78116725112E+03  0.86844774356E+03  0.15294330000E+03 0.  0.
<mgrwt>
<rscale>  0 0.62910121E+03</rscale>
<asrwt>0</asrwt>
<pdfrwt beam="1">  1        2 0.25171424E+00 0.74457892E+03</pdfrwt>
<pdfrwt beam="2">  1       -2 0.14028308E+00 0.74457892E+03</pdfrwt>
<totfact> 0.39159068E+00</totfact>
</mgrwt>
</event>
<event>
 4    5  0.6615028E-008  0.9669957E+03  0.7818608E-02  0.9426071E-01
         -2   -1    0    0    0  501 -0.00000000000E+00  0.00000000000E+00  0.17159010848E+04  0.17159010848E+04  0.25500000000E-02 0.  1.
          2   -1    0    0  501    0  0.00000000000E+00 -0.00000000000E+00 -0.99395090136E+03  0.99395090136E+03  0.25500000000E-02 0. -1.
    8880023    1    1    2    0    0  0.47237149950E+03 -0.52738574121E+03 -0.64533315856E+03  0.11625556526E+04  0.65864270000E+03 0.  0.
    8880022    1    1    2    0    0 -0.47237149950E+03  0.52738574121E+03  0.13672833420E+04  0.15472963336E+04  0.15294330000E+03 0.  0.
<mgrwt>
<rscale>  0 0.89960817E+03</rscale>
<asrwt>0</asrwt>
<pdfrwt beam="1">  1        2 0.15291553E+00 0.96699574E+03</pdfrwt>
<pdfrwt beam="2">  1       -2 0.26398478E+00 0.96699574E+03</pdfrwt>
<totfact> 0.13447327E+00</totfact>
</mgrwt>
</event>
<event>
 4    5  0.6615028E-008  0.9969596E+03  0.7818608E-02  0.9385546E-01
         -2   -1    0    0    0  501 -0.00000000000E+00  0.00000000000E+00  0.10973298998E+04  0.10973298998E+04  0.25500000000E-02 0.  1.
          2   -1    0    0  501    0  0.00000000000E+00 -0.00000000000E+00 -0.10057918556E+04  0.10057918556E+04  0.25500000000E-02 0. -1.
    8880023    1    1    2    0    0 -0.95809906852E+01  0.74834920657E+03 -0.52016970569E+03  0.11245021384E+04  0.65864270000E+03 0. -1.
    8880022    1    1    2    0    0  0.95809906852E+01 -0.74834920657E+03  0.61170774986E+03  0.97861961692E+03  0.15294330000E+03 0.  0.
<mgrwt>
<rscale>  0 0.93274777E+03</rscale>
<asrwt>0</asrwt>
<pdfrwt beam="1">  1        2 0.15473721E+00 0.99695965E+03</pdfrwt>
<pdfrwt beam="2">  1       -2 0.16881998E+00 0.99695965E+03</pdfrwt>
<totfact> 0.53805433E+00</totfact>
</mgrwt>
</event>
<event>
 4    5  0.6615028E-008  0.2022589E+04  0.7818608E-02  0.8608477E-01
         -2   -1    0    0    0  501 -0.00000000000E+00  0.00000000000E+00  0.15849140379E+04  0.15849140379E+04  0.25500000000E-02 0.  1.
          2   -1    0    0  501    0  0.00000000000E+00 -0.00000000000E+00 -0.31871467613E+04  0.31871467613E+04  0.25500000000E-02 0. -1.
    8880023    1    1    2    0    0  0.40866433287E+03  0.18681668980E+04 -0.19646257998E+04  0.28196841730E+04  0.65864270000E+03 0.  0.
    8880022    1    1    2    0    0 -0.40866433287E+03 -0.18681668980E+04  0.36239307640E+03  0.19523766263E+04  0.15294330000E+03 0.  0.
<mgrwt>
<rscale>  0 0.19960352E+04</rscale>
<asrwt>0</asrwt>
<pdfrwt beam="1">  1        2 0.49033027E+00 0.20225885E+04</pdfrwt>
<pdfrwt beam="2">  1       -2 0.24383293E+00 0.20225885E+04</pdfrwt>
<totfact> 0.82205746E-02</totfact>
</mgrwt>
</event>
<event>
 4    5  0.6615028E-008  0.1478509E+04  0.7818608E-02  0.8924962E-01
         -2   -1    0    0    0  501 -0.00000000000E+00  0.00000000000E+00  0.54851656147E+03  0.54851656147E+03  0.25500000000E-02 0.  1.
          2   -1    0    0  501    0  0.00000000000E+00 -0.00000000000E+00 -0.37752887459E+04  0.37752887459E+04  0.25500000000E-02 0. -1.
    8880023    1    1    2    0    0  0.13227178401E+04  0.50961555991E+02 -0.21566487383E+04  0.26147893895E+04  0.65864270000E+03 0.  0.
    8880022    1    1    2    0    0 -0.13227178401E+04 -0.50961555991E+02 -0.10701234461E+04  0.17090159179E+04  0.15294330000E+03 0.  0.
<mgrwt>
<rscale>  0 0.14405731E+04</rscale>
<asrwt>0</asrwt>
<pdfrwt beam="1">  1        2 0.58081364E+00 0.14785093E+04</pdfrwt>
<pdfrwt beam="2">  1       -2 0.84387166E-01 0.14785093E+04</pdfrwt>
<totfact> 0.61054701E-01</totfact>
</mgrwt>
</event>
<event>
 4    5  0.6615028E-008  0.6723748E+03  0.7818608E-02  0.1014015E+00
          2   -1    0    0  501    0  0.00000000000E+00  0.00000000000E+00  0.11172598496E+04  0.11172598496E+04  0.25500000000E-02 0. -1.
         -2   -1    0    0    0  501 -0.00000000000E+00 -0.00000000000E+00 -0.25413975187E+03  0.25413975188E+03  0.25500000000E-02 0.  1.
    8880023    1    1    2    0    0 -0.13474266683E+03  0.11050210773E+02  0.93789179468E+03  0.11540055971E+04  0.65864270000E+03 0.  0.
    8880022    1    1    2    0    0  0.13474266683E+03 -0.11050210773E+02 -0.74771696991E+02  0.21739400430E+03  0.15294330000E+03 0.  0.
<mgrwt>
<rscale>  0 0.49909781E+03</rscale>
<asrwt>0</asrwt>
<pdfrwt beam="1">  1        2 0.17188613E+00 0.67237482E+03</pdfrwt>
<pdfrwt beam="2">  1       -2 0.39098423E-01 0.67237482E+03</pdfrwt>
<totfact> 0.13395943E+02</totfact>
</mgrwt>
</event>
<event>
 4    5  0.6615028E-008  0.8230774E+03  0.7818608E-02  0.9662955E-01
         -2   -1    0    0    0  501 -0.00000000000E+00  0.00000000000E+00  0.29079747469E+03  0.29079747470E+03  0.25500000000E-02 0.  1.
          2   -1    0    0  501    0  0.00000000000E+00 -0.00000000000E+00 -0.26468410690E+04  0.26468410690E+04  0.25500000000E-02 0. -1.
    8880023    1    1    2    0    0 -0.45027702835E+03  0.20222966075E+03 -0.22689080077E+04  0.24135865411E+04  0.65864270000E+03 0. -1.
    8880022    1    1    2    0    0  0.45027702835E+03 -0.20222966075E+03 -0.87135586666E+02  0.52405200260E+03  0.15294330000E+03 0.  0.
<mgrwt>
<rscale>  0 0.73265940E+03</rscale>
<asrwt>0</asrwt>
<pdfrwt beam="1">  1        2 0.40720630E+00 0.82307742E+03</pdfrwt>
<pdfrwt beam="2">  1       -2 0.44738075E-01 0.82307742E+03</pdfrwt>
<totfact> 0.14064146E+01</totfact>
</mgrwt>
</event>
<event>
 4    5  0.6615028E-008  0.1174858E+04  0.7818608E-02  0.9181958E-01
          2   -1    0    0  501    0  0.00000000000E+00  0.00000000000E+00  0.25272097484E+04  0.25272097484E+04  0.25500000000E-02 0. -1.
         -2   -1    0    0    0  501 -0.00000000000E+00 -0.00000000000E+00 -0.10750603566E+04  0.10750603566E+04  0.25500000000E-02 0.  1.
    8880023    1    1    2    0    0 -0.85259320073E+03 -0.46857825596E+03  0.21120315357E+04  0.24168095006E+04  0.65864270000E+03 0.  0.
    8880022    1    1    2    0    0  0.85259320073E+03  0.46857825596E+03 -0.65988214386E+03  0.11854606044E+04  0.15294330000E+03 0.  0.
<mgrwt>
<rscale>  0 0.11241605E+04</rscale>
<asrwt>0</asrwt>
<pdfrwt beam="1">  1        2 0.38880150E+00 0.11748578E+04</pdfrwt>
<pdfrwt beam="2">  1       -2 0.16539390E+00 0.11748578E+04</pdfrwt>
<totfact> 0.75690920E-01</totfact>
</mgrwt>
</event>
<event>
 4    5  0.6615028E-008  0.6924161E+03  0.7818608E-02  0.1003025E+00
         -2   -1    0    0    0  501 -0.00000000000E+00  0.00000000000E+00  0.38148863075E+03  0.38148863076E+03  0.25500000000E-02 0.  1.
          2   -1    0    0  501    0  0.00000000000E+00 -0.00000000000E+00 -0.12700950665E+04  0.12700950665E+04  0.25500000000E-02 0. -1.
    8880023    1    1    2    0    0  0.17152146949E+02 -0.21292177612E+03 -0.11098396662E+04  0.13081223833E+04  0.65864270000E+03 0. -1.
    8880022    1    1    2    0    0 -0.17152146949E+02  0.21292177612E+03  0.22123323044E+03  0.34346131392E+03  0.15294330000E+03 0.  0.
<mgrwt>
<rscale>  0 0.54343606E+03</rscale>
<asrwt>0</asrwt>
<pdfrwt beam="1">  1        2 0.19539924E+00 0.69241612E+03</pdfrwt>
<pdfrwt beam="2">  1       -2 0.58690559E-01 0.69241612E+03</pdfrwt>
<totfact> 0.47858610E+01</totfact>
</mgrwt>
</event>
<event>
 4    5  0.6615028E-008  0.1026830E+04  0.7818608E-02  0.9347268E-01
         -2   -1    0    0    0  501 -0.00000000000E+00  0.00000000000E+00  0.91884494835E+03  0.91884494835E+03  0.25500000000E-02 0.  1.
          2   -1    0    0  501    0  0.00000000000E+00 -0.00000000000E+00 -0.16160424477E+04  0.16160424477E+04  0.25500000000E-02 0. -1.
    8880023    1    1    2    0    0 -0.78766187065E+03 -0.12577203169E+02 -0.12066042273E+04  0.15843842262E+04  0.65864270000E+03 0.  0.
    8880022    1    1    2    0    0  0.78766187065E+03  0.12577203169E+02  0.50940672794E+03  0.95050316991E+03  0.15294330000E+03 0.  0.
<mgrwt>
<rscale>  0 0.96545342E+03</rscale>
<asrwt>0</asrwt>
<pdfrwt beam="1">  1        2 0.24862191E+00 0.10268299E+04</pdfrwt>
<pdfrwt beam="2">  1       -2 0.14136076E+00 0.10268299E+04</pdfrwt>
<totfact> 0.37902077E+00</totfact>
</mgrwt>
</event>
<event>
 4    5  0.6615028E-008  0.7708224E+03  0.7818608E-02  0.9777854E-01
          2   -1    0    0  501    0  0.00000000000E+00  0.00000000000E+00  0.21248536156E+04  0.21248536156E+04  0.25500000000E-02 0. -1.
         -2   -1    0    0    0  501 -0.00000000000E+00 -0.00000000000E+00 -0.43548284322E+03  0.43548284323E+03  0.25500000000E-02 0.  1.
    8880023    1    1    2    0    0 -0.12804082598E+03  0.37942396599E+03  0.19232893656E+04  0.20720060785E+04  0.65864270000E+03 0. -1.
    8880022    1    1    2    0    0  0.12804082598E+03 -0.37942396599E+03 -0.23391859325E+03  0.48833038034E+03  0.15294330000E+03 0.  0.
<mgrwt>
<rscale>  0 0.66564669E+03</rscale>
<asrwt>0</asrwt>
<pdfrwt beam="1">  1        2 0.32690056E+00 0.77082242E+03</pdfrwt>
<pdfrwt beam="2">  1       -2 0.66997359E-01 0.77082242E+03</pdfrwt>
<totfact> 0.12044348E+01</totfact>
</mgrwt>
</event>
<event>
 4    5  0.6615028E-008  0.7832422E+03  0.7818608E-02  0.9748275E-01
         -2   -1    0    0    0  501 -0.00000000000E+00  0.00000000000E+00  0.11647567520E+04  0.11647567520E+04  0.25500000000E-02 0.  1.
          2   -1    0    0  501    0  0.00000000000E+00 -0.00000000000E+00 -0.11597657902E+04  0.11597657902E+04  0.25500000000E-02 0. -1.
    8880023    1    1    2    0    0 -0.21849328768E+03 -0.36320628046E+03 -0.97219126955E+03  0.12484487133E+04  0.65864270000E+03 0. -1.
    8880022    1    1    2    0    0  0.21849328768E+03  0.36320628046E+03  0.97718223130E+03  0.10760738288E+04  0.15294330000E+03 0.  0.
<mgrwt>
<rscale>  0 0.68213819E+03</rscale>
<asrwt>0</asrwt>
<pdfrwt beam="1">  1        2 0.17842551E+00 0.78324219E+03</pdfrwt>
<pdfrwt beam="2">  1       -2 0.17919335E+00 0.78324219E+03</pdfrwt>
<totfact> 0.37469001E+00</totfact>
</mgrwt>
</event>
<event>
 4    5  0.8767727E-008  0.8532572E+03  0.7818608E-02  0.9605672E-01
         -2   -1    0    0    0  501 -0.00000000000E+00  0.00000000000E+00  0.27050779650E+04  0.27050779650E+04  0.25500000000E-02 0.  1.
          2   -1    0    0  501    0  0.00000000000E+00 -0.00000000000E+00 -0.20798935053E+04  0.20798935053E+04  0.25500000000E-02 0. -1.
    8880023    1    1    2    0    0 -0.41039605171E+03 -0.35470080379E+03 -0.19607360354E+04  0.21383483314E+04  0.65864270000E+03 0. -1.
    8880022    1    1    2    0    0  0.41039605171E+03  0.35470080379E+03  0.25859204951E+04  0.26466231390E+04  0.15294330000E+03 0.  0.
<mgrwt>
<rscale>  0 0.76921902E+03</rscale>
<asrwt>0</asrwt>
<pdfrwt beam="1">  1        2 0.31998362E+00 0.85325716E+03</pdfrwt>
<pdfrwt beam="2">  1       -2 0.41616584E+00 0.85325716E+03</pdfrwt>
<totfact> 0.37226006E-02</totfact>
</mgrwt>
</event>
<event>
 4    5  0.6615028E-008  0.8167319E+03  0.7818608E-02  0.9675722E-01
          2   -1    0    0  501    0  0.00000000000E+00  0.00000000000E+00  0.22768101884E+04  0.22768101884E+04  0.25500000000E-02 0. -1.
         -2   -1    0    0    0  501 -0.00000000000E+00 -0.00000000000E+00 -0.37515793603E+03  0.37515793604E+03  0.25500000000E-02 0.  1.
    8880023    1    1    2    0    0  0.44328731727E+03  0.19166923109E+03  0.19776957076E+04  0.21397035444E+04  0.65864270000E+03 0. -1.
    8880022    1    1    2    0    0 -0.44328731727E+03 -0.19166923109E+03 -0.76043455297E+02  0.51226457998E+03  0.15294330000E+03 0.  0.
<mgrwt>
<rscale>  0 0.72480897E+03</rscale>
<asrwt>0</asrwt>
<pdfrwt beam="1">  1        2 0.35027849E+00 0.81673187E+03</pdfrwt>
<pdfrwt beam="2">  1       -2 0.57716605E-01 0.81673187E+03</pdfrwt>
<totfact> 0.13548676E+01</totfact>
</mgrwt>
</event>
<event>
 4    5  0.6615028E-008  0.6726179E+03  0.7818608E-02  0.1013852E+00
          2   -1    0    0  501    0  0.00000000000E+00  0.00000000000E+00  0.58765796899E+03  0.58765796900E+03  0.25500000000E-02 0. -1.
         -2   -1    0    0    0  501 -0.00000000000E+00 -0.00000000000E+00 -0.11560317706E+04  0.11560317706E+04  0.25500000000E-02 0.  1.
    8880023    1    1    2    0    0  0.62895258462E+02  0.12103240623E+03  0.38060516742E+03  0.77283578891E+03  0.65864270000E+03 0. -1.
    8880022    1    1    2    0    0 -0.62895258462E+02 -0.12103240623E+03 -0.94897896907E+03  0.97085395073E+03  0.15294330000E+03 0.  0.
<mgrwt>
<rscale>  0 0.49972113E+03</rscale>
<asrwt>0</asrwt>
<pdfrwt beam="1">  1        2 0.90408919E-01 0.67261792E+03</pdfrwt>
<pdfrwt beam="2">  1       -2 0.17785104E+00 0.67261792E+03</pdfrwt>
<totfact> 0.97924798E+00</totfact>
</mgrwt>
</event>
<event>
 4    5  0.6615028E-008  0.1780638E+04  0.7818608E-02  0.8733323E-01
         -2   -1    0    0    0  501 -0.00000000000E+00  0.00000000000E+00  0.23219943895E+04  0.23219943895E+04  0.25500000000E-02 0.  1.
          2   -1    0    0  501    0  0.00000000000E+00 -0.00000000000E+00 -0.19620557308E+04  0.19620557308E+04  0.25500000000E-02 0. -1.
    8880023    1    1    2    0    0  0.95407082408E+03 -0.13515220647E+04 -0.10824894065E+04  0.20838561731E+04  0.65864270000E+03 0.  0.
    8880022    1    1    2    0    0 -0.95407082408E+03  0.13515220647E+04  0.14424280652E+04  0.22001939471E+04  0.15294330000E+03 0.  0.
<mgrwt>
<rscale>  0 0.17500500E+04</rscale>
<asrwt>0</asrwt>
<pdfrwt beam="1">  1        2 0.30185473E+00 0.17806384E+04</pdfrwt>
<pdfrwt beam="2">  1       -2 0.35722991E+00 0.17806384E+04</pdfrwt>
<totfact> 0.89261042E-02</totfact>
</mgrwt>
</event>
<event>
 4    5  0.6615028E-008  0.8274186E+03  0.7818608E-02  0.9654376E-01
          2   -1    0    0  501    0  0.00000000000E+00  0.00000000000E+00  0.67833254703E+03  0.67833254703E+03  0.25500000000E-02 0. -1.
         -2   -1    0    0    0  501 -0.00000000000E+00 -0.00000000000E+00 -0.12806703966E+04  0.12806703966E+04  0.25500000000E-02 0.  1.
    8880023    1    1    2    0    0 -0.47777666762E+03 -0.15013574699E+03  0.32909753674E+03  0.89046430675E+03  0.65864270000E+03 0.  0.
    8880022    1    1    2    0    0  0.47777666762E+03  0.15013574699E+03 -0.93143538636E+03  0.10685386369E+04  0.15294330000E+03 0.  0.
<mgrwt>
<rscale>  0 0.73799422E+03</rscale>
<asrwt>0</asrwt>
<pdfrwt beam="1">  1        2 0.10435885E+00 0.82741857E+03</pdfrwt>
<pdfrwt beam="2">  1       -2 0.19702621E+00 0.82741857E+03</pdfrwt>
<totfact> 0.59975767E+00</totfact>
</mgrwt>
</event>
<event>
 4    5  0.6615028E-008  0.8539563E+03  0.7818608E-02  0.9604406E-01
          2   -1    0    0  501    0  0.00000000000E+00  0.00000000000E+00  0.11769586369E+04  0.11769586369E+04  0.25500000000E-02 0. -1.
         -2   -1    0    0    0  501 -0.00000000000E+00 -0.00000000000E+00 -0.56185721639E+03  0.56185721640E+03  0.25500000000E-02 0.  1.
    8880023    1    1    2    0    0 -0.24562637798E+03  0.48486983579E+03  0.77369570023E+03  0.11523221416E+04  0.65864270000E+03 0. -1.
    8880022    1    1    2    0    0  0.24562637798E+03 -0.48486983579E+03 -0.15859427976E+03  0.58649371165E+03  0.15294330000E+03 0.  0.
<mgrwt>
<rscale>  0 0.77005257E+03</rscale>
<asrwt>0</asrwt>
<pdfrwt beam="1">  1        2 0.18107056E+00 0.85395625E+03</pdfrwt>
<pdfrwt beam="2">  1       -2 0.86439573E-01 0.85395625E+03</pdfrwt>
<totfact> 0.22855009E+01</totfact>
</mgrwt>
</event>
<event>
 4    5  0.6615028E-008  0.1328457E+04  0.7818608E-02  0.9041367E-01
          2   -1    0    0  501    0  0.00000000000E+00  0.00000000000E+00  0.26676088184E+04  0.26676088184E+04  0.25500000000E-02 0. -1.
         -2   -1    0    0    0  501 -0.00000000000E+00 -0.00000000000E+00 -0.12080689303E+04  0.12080689303E+04  0.25500000000E-02 0.  1.
    8880023    1    1    2    0    0 -0.10187440604E+04  0.54143069075E+03  0.21464561688E+04  0.25242961285E+04  0.65864270000E+03 0. -1.
    8880022    1    1    2    0    0  0.10187440604E+04 -0.54143069075E+03 -0.68691628077E+03  0.13513816201E+04  0.15294330000E+03 0.  0.
<mgrwt>
<rscale>  0 0.12852216E+04</rscale>
<asrwt>0</asrwt>
<pdfrwt beam="1">  1        2 0.41040136E+00 0.13284566E+04</pdfrwt>
<pdfrwt beam="2">  1       -2 0.18585676E+00 0.13284566E+04</pdfrwt>
<totfact> 0.44109431E-01</totfact>
</mgrwt>
</event>
<event>
 4    5  0.6615028E-008  0.7516142E+03  0.7818608E-02  0.9827322E-01
          2   -1    0    0  501    0  0.00000000000E+00  0.00000000000E+00  0.26763217624E+04  0.26763217624E+04  0.25500000000E-02 0. -1.
         -2   -1    0    0    0  501 -0.00000000000E+00 -0.00000000000E+00 -0.16766175872E+03  0.16766175874E+03  0.25500000000E-02 0.  1.
    8880023    1    1    2    0    0 -0.35928965132E+03  0.44996862466E+02  0.22530456518E+04  0.23751081421E+04  0.65864270000E+03 0. -1.
    8880022    1    1    2    0    0  0.35928965132E+03 -0.44996862466E+02  0.25561435183E+03  0.46887537902E+03  0.15294330000E+03 0.  0.
<mgrwt>
<rscale>  0 0.63916682E+03</rscale>
<asrwt>0</asrwt>
<pdfrwt beam="1">  1        2 0.41174181E+00 0.75161425E+03</pdfrwt>
<pdfrwt beam="2">  1       -2 0.25794117E-01 0.75161425E+03</pdfrwt>
<totfact> 0.38870270E+01</totfact>
</mgrwt>
</event>
<event>
 4    5  0.6615028E-008  0.1163411E+04  0.7818608E-02  0.9193537E-01
          2   -1    0    0  501    0  0.00000000000E+00  0.00000000000E+00  0.30341907617E+04  0.30341907617E+04  0.25500000000E-02 0. -1.
         -2   -1    0    0    0  501 -0.00000000000E+00 -0.00000000000E+00 -0.37991567344E+03  0.37991567345E+03  0.25500000000E-02 0.  1.
    8880023    1    1    2    0    0 -0.95860469398E+03 -0.28146768153E+02  0.16303647120E+04  0.20029015203E+04  0.65864270000E+03 0.  0.
    8880022    1    1    2    0    0  0.95860469398E+03  0.28146768153E+02  0.10239103763E+04  0.14112049148E+04  0.15294330000E+03 0.  0.
<mgrwt>
<rscale>  0 0.11120390E+04</rscale>
<asrwt>0</asrwt>
<pdfrwt beam="1">  1        2 0.46679857E+00 0.11634111E+04</pdfrwt>
<pdfrwt beam="2">  1       -2 0.58448566E-01 0.11634111E+04</pdfrwt>
<totfact> 0.45436590E+00</totfact>
</mgrwt>
</event>
<event>
 4    5  0.6615028E-008  0.6946891E+03  0.7818608E-02  0.1001999E+00
         -2   -1    0    0    0  501 -0.00000000000E+00  0.00000000000E+00  0.36695981326E+03  0.36695981327E+03  0.25500000000E-02 0.  1.
          2   -1    0    0  501    0  0.00000000000E+00 -0.00000000000E+00 -0.18170681907E+04  0.18170681907E+04  0.25500000000E-02 0. -1.
    8880023    1    1    2    0    0 -0.93680062579E+02  0.20001711691E+03 -0.16878913863E+04  0.18252589787E+04  0.65864270000E+03 0.  0.
    8880022    1    1    2    0    0  0.93680062579E+02 -0.20001711691E+03  0.23778300884E+03  0.35876902527E+03  0.15294330000E+03 0.  0.
<mgrwt>
<rscale>  0 0.54782371E+03</rscale>
<asrwt>0</asrwt>
<pdfrwt beam="1">  1        2 0.27954895E+00 0.69468914E+03</pdfrwt>
<pdfrwt beam="2">  1       -2 0.56455357E-01 0.69468914E+03</pdfrwt>
<totfact> 0.25776731E+01</totfact>
</mgrwt>
</event>
<event>
 4    5  0.6615028E-008  0.7918856E+03  0.7818608E-02  0.9728624E-01
          2   -1    0    0  501    0  0.00000000000E+00  0.00000000000E+00  0.30127232149E+04  0.30127232149E+04  0.25500000000E-02 0. -1.
         -2   -1    0    0    0  501 -0.00000000000E+00 -0.00000000000E+00 -0.55868626220E+03  0.55868626221E+03  0.25500000000E-02 0.  1.
    8880023    1    1    2    0    0 -0.10892708730E+03 -0.42591950362E+03  0.28514476387E+04  0.29593641844E+04  0.65864270000E+03 0. -1.
    8880022    1    1    2    0    0  0.10892708730E+03  0.42591950362E+03 -0.39741068598E+03  0.61204529265E+03  0.15294330000E+03 0.  0.
<mgrwt>
<rscale>  0 0.69337824E+03</rscale>
<asrwt>0</asrwt>
<pdfrwt beam="1">  1        2 0.46349588E+00 0.79188556E+03</pdfrwt>
<pdfrwt beam="2">  1       -2 0.85951732E-01 0.79188556E+03</pdfrwt>
<totfact> 0.21262440E+00</totfact>
</mgrwt>
</event>
<event>
 4    5  0.6615028E-008  0.1297384E+04  0.7818608E-02  0.9067822E-01
          2   -1    0    0  501    0  0.00000000000E+00  0.00000000000E+00  0.13700755384E+04  0.13700755384E+04  0.25500000000E-02 0. -1.
         -2   -1    0    0    0  501 -0.00000000000E+00 -0.00000000000E+00 -0.12813765635E+04  0.12813765635E+04  0.25500000000E-02 0.  1.
    8880023    1    1    2    0    0 -0.10904919689E+04 -0.24540288636E+03  0.57976496613E+03  0.14210323476E+04  0.65864270000E+03 0.  0.
    8880022    1    1    2    0    0  0.10904919689E+04  0.24540288636E+03 -0.49106599125E+03  0.12304197542E+04  0.15294330000E+03 0.  0.
<mgrwt>
<rscale>  0 0.12528408E+04</rscale>
<asrwt>0</asrwt>
<pdfrwt beam="1">  1        2 0.21078085E+00 0.12973841E+04</pdfrwt>
<pdfrwt beam="2">  1       -2 0.19713486E+00 0.12973841E+04</pdfrwt>
<totfact> 0.20097079E+00</totfact>
</mgrwt>
</event>
<event>
 4    5  0.6615028E-008  0.1872164E+04  0.7818608E-02  0.8683634E-01
         -2   -1    0    0    0  501 -0.00000000000E+00  0.00000000000E+00  0.17895866180E+04  0.17895866180E+04  0.25500000000E-02 0.  1.
          2   -1    0    0  501    0  0.00000000000E+00 -0.00000000000E+00 -0.25068311566E+04  0.25068311566E+04  0.25500000000E-02 0. -1.
    8880023    1    1    2    0    0  0.75131597608E+03  0.15832599893E+04 -0.14726401019E+04  0.23819460459E+04  0.65864270000E+03 0.  0.
    8880022    1    1    2    0    0 -0.75131597608E+03 -0.15832599893E+04  0.75539556332E+03  0.19144717286E+04  0.15294330000E+03 0.  0.
<mgrwt>
<rscale>  0 0.18432453E+04</rscale>
<asrwt>0</asrwt>
<pdfrwt beam="1">  1        2 0.38566633E+00 0.18721640E+04</pdfrwt>
<pdfrwt beam="2">  1       -2 0.27532102E+00 0.18721640E+04</pdfrwt>
<totfact> 0.13948443E-01</totfact>
</mgrwt>
</event>
<event>
 4    5  0.6615028E-008  0.6806069E+03  0.7818608E-02  0.1008982E+00
         -2   -1    0    0    0  501 -0.00000000000E+00  0.00000000000E+00  0.74026806762E+03  0.74026806763E+03  0.25500000000E-02 0.  1.
          2   -1    0    0  501    0  0.00000000000E+00 -0.00000000000E+00 -0.99758679210E+03  0.99758679210E+03  0.25500000000E-02 0. -1.
    8880023    1    1    2    0    0  0.16083440083E+03  0.59563198191E+02 -0.85773878867E+03  0.10949618783E+04  0.65864270000E+03 0. -1.
    8880022    1    1    2    0    0 -0.16083440083E+03 -0.59563198191E+02  0.60042006420E+03  0.64289298143E+03  0.15294330000E+03 0.  0.
<mgrwt>
<rscale>  0 0.51881056E+03</rscale>
<asrwt>0</asrwt>
<pdfrwt beam="1">  1        2 0.15347489E+00 0.68060685E+03</pdfrwt>
<pdfrwt beam="2">  1       -2 0.11388739E+00 0.68060685E+03</pdfrwt>
<totfact> 0.15644176E+01</totfact>
</mgrwt>
</event>
<event>
 4    5  0.6615028E-008  0.9782543E+03  0.7818608E-02  0.9410577E-01
          2   -1    0    0  501    0  0.00000000000E+00  0.00000000000E+00  0.32351498007E+04  0.32351498007E+04  0.25500000000E-02 0. -1.
         -2   -1    0    0    0  501 -0.00000000000E+00 -0.00000000000E+00 -0.32574191703E+03  0.32574191704E+03  0.25500000000E-02 0.  1.
    8880023    1    1    2    0    0  0.66255516330E+03 -0.29015835091E+03  0.25651778005E+04  0.27453813155E+04  0.65864270000E+03 0.  0.
    8880022    1    1    2    0    0 -0.66255516330E+03  0.29015835091E+03  0.34423008318E+03  0.81551040227E+03  0.15294330000E+03 0.  0.
<mgrwt>
<rscale>  0 0.91210289E+03</rscale>
<asrwt>0</asrwt>
<pdfrwt beam="1">  1        2 0.49771534E+00 0.97825427E+03</pdfrwt>
<pdfrwt beam="2">  1       -2 0.50114142E-01 0.97825427E+03</pdfrwt>
<totfact> 0.47834342E+00</totfact>
</mgrwt>
</event>
<event>
 4    5  0.6615028E-008  0.9805291E+03  0.7818608E-02  0.9407487E-01
          2   -1    0    0  501    0  0.00000000000E+00  0.00000000000E+00  0.72832212335E+03  0.72832212335E+03  0.25500000000E-02 0. -1.
         -2   -1    0    0    0  501 -0.00000000000E+00 -0.00000000000E+00 -0.19942969597E+04  0.19942969597E+04  0.25500000000E-02 0.  1.
    8880023    1    1    2    0    0  0.18823273653E+03 -0.70156650575E+03  0.26970275835E+03  0.10169448900E+04  0.65864270000E+03 0.  0.
    8880022    1    1    2    0    0 -0.18823273653E+03  0.70156650575E+03 -0.15356775947E+04  0.17056741931E+04  0.15294330000E+03 0.  0.
<mgrwt>
<rscale>  0 0.91462100E+03</rscale>
<asrwt>0</asrwt>
<pdfrwt beam="1">  1        2 0.11204956E+00 0.98052911E+03</pdfrwt>
<pdfrwt beam="2">  1       -2 0.30681492E+00 0.98052911E+03</pdfrwt>
<totfact> 0.11341065E+00</totfact>
</mgrwt>
</event>
<event>
 4    5  0.6615028E-008  0.1241807E+04  0.7818608E-02  0.9117517E-01
          2   -1    0    0  501    0  0.00000000000E+00  0.00000000000E+00  0.50891036954E+03  0.50891036955E+03  0.25500000000E-02 0. -1.
         -2   -1    0    0    0  501 -0.00000000000E+00 -0.00000000000E+00 -0.29796914384E+04  0.29796914384E+04  0.25500000000E-02 0.  1.
    8880023    1    1    2    0    0  0.46720512851E+03  0.94339510384E+03 -0.70732014817E+03  0.14291210419E+04  0.65864270000E+03 0.  0.
    8880022    1    1    2    0    0 -0.46720512851E+03 -0.94339510384E+03 -0.17634609207E+04  0.20594807661E+04  0.15294330000E+03 0.  0.
<mgrwt>
<rscale>  0 0.11946906E+04</rscale>
<asrwt>0</asrwt>
<pdfrwt beam="1">  1        2 0.78293905E-01 0.12418072E+04</pdfrwt>
<pdfrwt beam="2">  1       -2 0.45841406E+00 0.12418072E+04</pdfrwt>
<totfact> 0.18188107E-01</totfact>
</mgrwt>
</event>
<event>
 4    5  0.6615028E-008  0.9165892E+03  0.7818608E-02  0.9499909E-01
          2   -1    0    0  501    0  0.00000000000E+00  0.00000000000E+00  0.92942782127E+03  0.92942782127E+03  0.25500000000E-02 0. -1.
         -2   -1    0    0    0  501 -0.00000000000E+00 -0.00000000000E+00 -0.99234167852E+03  0.99234167852E+03  0.25500000000E-02 0.  1.
    8880023    1    1    2    0    0  0.63358255659E+03 -0.69990286359E+02  0.51196094876E+03  0.10498760477E+04  0.65864270000E+03 0. -1.
    8880022    1    1    2    0    0 -0.63358255659E+03  0.69990286359E+02 -0.57487480601E+03  0.87189345210E+03  0.15294330000E+03 0.  0.
<mgrwt>
<rscale>  0 0.84290548E+03</rscale>
<asrwt>0</asrwt>
<pdfrwt beam="1">  1        2 0.14298890E+00 0.91658917E+03</pdfrwt>
<pdfrwt beam="2">  1       -2 0.15266795E+00 0.91658917E+03</pdfrwt>
<totfact> 0.80036899E+00</totfact>
</mgrwt>
</event>
<event>
 4    5  0.6615028E-008  0.7896109E+03  0.7818608E-02  0.9733727E-01
          2   -1    0    0  501    0  0.00000000000E+00  0.00000000000E+00  0.45412120406E+03  0.45412120407E+03  0.25500000000E-02 0. -1.
         -2   -1    0    0    0  501 -0.00000000000E+00 -0.00000000000E+00 -0.10592097417E+04  0.10592097417E+04  0.25500000000E-02 0.  1.
    8880023    1    1    2    0    0  0.33777541403E+03 -0.27492361435E+03 -0.49711705938E+02  0.79117424378E+03  0.65864270000E+03 0.  0.
    8880022    1    1    2    0    0 -0.33777541403E+03  0.27492361435E+03 -0.55537683174E+03  0.72215670203E+03  0.15294330000E+03 0.  0.
<mgrwt>
<rscale>  0 0.69043748E+03</rscale>
<asrwt>0</asrwt>
<pdfrwt beam="1">  1        2 0.69864801E-01 0.78961094E+03</pdfrwt>
<pdfrwt beam="2">  1       -2 0.16295534E+00 0.78961094E+03</pdfrwt>
<totfact> 0.16669440E+01</totfact>
</mgrwt>
</event>
<event>
 4    5  0.6615028E-008  0.7289651E+03  0.7818608E-02  0.9893342E-01
          2   -1    0    0  501    0  0.00000000000E+00  0.00000000000E+00  0.19409478915E+04  0.19409478915E+04  0.25500000000E-02 0. -1.
         -2   -1    0    0    0  501 -0.00000000000E+00 -0.00000000000E+00 -0.61627448952E+03  0.61627448953E+03  0.25500000000E-02 0.  1.
    8880023    1    1    2    0    0  0.31147865115E+03 -0.23684461598E+02  0.18150835929E+04  0.19559955418E+04  0.65864270000E+03 0. -1.
    8880022    1    1    2    0    0 -0.31147865115E+03  0.23684461598E+02 -0.49041019095E+03  0.60122683926E+03  0.15294330000E+03 0.  0.
<mgrwt>
<rscale>  0 0.60585048E+03</rscale>
<asrwt>0</asrwt>
<pdfrwt beam="1">  1        2 0.29860737E+00 0.72896510E+03</pdfrwt>
<pdfrwt beam="2">  1       -2 0.94811460E-01 0.72896510E+03</pdfrwt>
<totfact> 0.70022966E+00</totfact>
</mgrwt>
</event>
<event>
 4    5  0.6615028E-008  0.6727938E+03  0.7818608E-02  0.1013734E+00
         -2   -1    0    0    0  501 -0.00000000000E+00  0.00000000000E+00  0.42775683720E+03  0.42775683721E+03  0.25500000000E-02 0.  1.
          2   -1    0    0  501    0  0.00000000000E+00 -0.00000000000E+00 -0.15878717109E+04  0.15878717109E+04  0.25500000000E-02 0. -1.
    8880023    1    1    2    0    0 -0.69131866076E+02  0.11858367736E+03 -0.14855142291E+04  0.16307679279E+04  0.65864270000E+03 0. -1.
    8880022    1    1    2    0    0  0.69131866076E+02 -0.11858367736E+03  0.32539935545E+03  0.38486062020E+03  0.15294330000E+03 0.  0.
<mgrwt>
<rscale>  0 0.50017033E+03</rscale>
<asrwt>0</asrwt>
<pdfrwt beam="1">  1        2 0.24428795E+00 0.67279381E+03</pdfrwt>
<pdfrwt beam="2">  1       -2 0.65808745E-01 0.67279381E+03</pdfrwt>
<totfact> 0.24932572E+01</totfact>
</mgrwt>
</event>
<event>
 4    5  0.6615028E-008  0.1038853E+04  0.7818608E-02  0.9332404E-01
         -2   -1    0    0    0  501 -0.00000000000E+00  0.00000000000E+00  0.36936003687E+03  0.36936003688E+03  0.25500000000E-02 0.  1.
          2   -1    0    0  501    0  0.00000000000E+00 -0.00000000000E+00 -0.30344420709E+04  0.30344420709E+04  0.25500000000E-02 0. -1.
    8880023    1    1    2    0    0 -0.40957767670E+03  0.69112283755E+03 -0.64085588486E+03  0.12206191549E+04  0.65864270000E+03 0.  1.
    8880022    1    1    2    0    0  0.40957767670E+03 -0.69112283755E+03 -0.20242261491E+04  0.21831829529E+04  0.15294330000E+03 0.  0.
<mgrwt>
<rscale>  0 0.97853689E+03</rscale>
<asrwt>0</asrwt>
<pdfrwt beam="1">  1        2 0.46683723E+00 0.10388527E+04</pdfrwt>
<pdfrwt beam="2">  1       -2 0.56824623E-01 0.10388527E+04</pdfrwt>
<totfact> 0.48976474E+00</totfact>
</mgrwt>
</event>
<event>
 4    5  0.6615028E-008  0.8757415E+03  0.7818608E-02  0.9566153E-01
         -2   -1    0    0    0  501 -0.00000000000E+00  0.00000000000E+00  0.84394541859E+03  0.84394541859E+03  0.25500000000E-02 0.  1.
          2   -1    0    0  501    0  0.00000000000E+00 -0.00000000000E+00 -0.11285556718E+04  0.11285556718E+04  0.25500000000E-02 0. -1.
    8880023    1    1    2    0    0  0.47612758244E+03 -0.32621377336E+03 -0.79819890841E+03  0.11849238812E+04  0.65864270000E+03 0. -1.
    8880022    1    1    2    0    0 -0.47612758244E+03  0.32621377336E+03  0.51358865517E+03  0.78757720918E+03  0.15294330000E+03 0.  0.
<mgrwt>
<rscale>  0 0.79577459E+03</rscale>
<asrwt>0</asrwt>
<pdfrwt beam="1">  1        2 0.17362395E+00 0.87574146E+03</pdfrwt>
<pdfrwt beam="2">  1       -2 0.12983776E+00 0.87574146E+03</pdfrwt>
<totfact> 0.91554244E+00</totfact>
</mgrwt>
</event>
<event>
 4    5  0.6615028E-008  0.7919078E+03  0.7818608E-02  0.9728574E-01
         -2   -1    0    0    0  501 -0.00000000000E+00  0.00000000000E+00  0.22457002100E+03  0.22457002102E+03  0.25500000000E-02 0.  1.
          2   -1    0    0  501    0  0.00000000000E+00 -0.00000000000E+00 -0.20235210942E+04  0.20235210942E+04  0.25500000000E-02 0. -1.
    8880023    1    1    2    0    0 -0.42288336303E+03 -0.12032246912E+03 -0.70910420484E+03  0.10629895648E+04  0.65864270000E+03 0.  0.
    8880022    1    1    2    0    0  0.42288336303E+03  0.12032246912E+03 -0.10898468684E+04  0.11851015504E+04  0.15294330000E+03 0.  0.
<mgrwt>
<rscale>  0 0.69340700E+03</rscale>
<asrwt>0</asrwt>
<pdfrwt beam="1">  1        2 0.31131093E+00 0.79190785E+03</pdfrwt>
<pdfrwt beam="2">  1       -2 0.34549235E-01 0.79190785E+03</pdfrwt>
<totfact> 0.52183887E+01</totfact>
</mgrwt>
</event>
<event>
 4    5  0.6615028E-008  0.9672213E+03  0.7818608E-02  0.9425758E-01
          2   -1    0    0  501    0  0.00000000000E+00  0.00000000000E+00  0.38385143108E+04  0.38385143108E+04  0.25500000000E-02 0. -1.
         -2   -1    0    0    0  501 -0.00000000000E+00 -0.00000000000E+00 -0.58733679903E+03  0.58733679904E+03  0.25500000000E-02 0.  1.
    8880023    1    1    2    0    0  0.70688998809E+03 -0.44870654973E+02  0.35218960078E+04  0.36522963361E+04  0.65864270000E+03 0. -1.
    8880022    1    1    2    0    0 -0.70688998809E+03  0.44870654973E+02 -0.27071849597E+03  0.77355477376E+03  0.15294330000E+03 0.  0.
<mgrwt>
<rscale>  0 0.89985904E+03</rscale>
<asrwt>0</asrwt>
<pdfrwt beam="1">  1        2 0.59054068E+00 0.96722130E+03</pdfrwt>
<pdfrwt beam="2">  1       -2 0.90359506E-01 0.96722130E+03</pdfrwt>
<totfact> 0.50574566E-01</totfact>
</mgrwt>
</event>
<event>
 4    5  0.6615028E-008  0.6941717E+03  0.7818608E-02  0.1002230E+00
          2   -1    0    0  501    0  0.00000000000E+00  0.00000000000E+00  0.26511695541E+04  0.26511695541E+04  0.25500000000E-02 0. -1.
         -2   -1    0    0    0  501 -0.00000000000E+00 -0.00000000000E+00 -0.16145362262E+03  0.16145362264E+03  0.25500000000E-02 0.  1.
    8880023    1    1    2    0    0 -0.42420044428E+02 -0.21509237827E+03  0.24449541616E+04  0.25415891190E+04  0.65864270000E+03 0.  0.
    8880022    1    1    2    0    0  0.42420044428E+02  0.21509237827E+03  0.44761769831E+02  0.27103405766E+03  0.15294330000E+03 0.  0.
<mgrwt>
<rscale>  0 0.54683325E+03</rscale>
<asrwt>0</asrwt>
<pdfrwt beam="1">  1        2 0.40787220E+00 0.69417173E+03</pdfrwt>
<pdfrwt beam="2">  1       -2 0.24839021E-01 0.69417173E+03</pdfrwt>
<totfact> 0.43394421E+01</totfact>
</mgrwt>
</event>
<event>
 4    5  0.6615028E-008  0.1448111E+04  0.7818608E-02  0.8947173E-01
         -2   -1    0    0    0  501 -0.00000000000E+00  0.00000000000E+00  0.10129559181E+04  0.10129559181E+04  0.25500000000E-02 0.  1.
          2   -1    0    0  501    0  0.00000000000E+00 -0.00000000000E+00 -0.33076039199E+04  0.33076039199E+04  0.25500000000E-02 0. -1.
    8880023    1    1    2    0    0  0.94825516516E+03 -0.87408653879E+03 -0.26093792275E+04  0.29842729926E+04  0.65864270000E+03 0.  0.
    8880022    1    1    2    0    0 -0.94825516516E+03  0.87408653879E+03  0.31473122563E+03  0.13362868453E+04  0.15294330000E+03 0.  0.
<mgrwt>
<rscale>  0 0.14092178E+04</rscale>
<asrwt>0</asrwt>
<pdfrwt beam="1">  1        2 0.50886214E+00 0.14481110E+04</pdfrwt>
<pdfrwt beam="2">  1       -2 0.15583937E+00 0.14481110E+04</pdfrwt>
<totfact> 0.28481128E-01</totfact>
</mgrwt>
</event>
<event>
 4    5  0.6615028E-008  0.8382363E+03  0.7818608E-02  0.9633515E-01
          2   -1    0    0  501    0  0.00000000000E+00  0.00000000000E+00  0.52910453532E+03  0.52910453532E+03  0.25500000000E-02 0. -1.
         -2   -1    0    0    0  501 -0.00000000000E+00 -0.00000000000E+00 -0.13939923813E+04  0.13939923813E+04  0.25500000000E-02 0.  1.
    8880023    1    1    2    0    0 -0.51628804029E+03  0.47712937671E+02  0.72123767286E+02  0.84133341134E+03  0.65864270000E+03 0.  0.
    8880022    1    1    2    0    0  0.51628804029E+03 -0.47712937671E+02 -0.93701161330E+03  0.10817635053E+04  0.15294330000E+03 0.  0.
<mgrwt>
<rscale>  0 0.75117109E+03</rscale>
<asrwt>0</asrwt>
<pdfrwt beam="1">  1        2 0.81400698E-01 0.83823629E+03</pdfrwt>
<pdfrwt beam="2">  1       -2 0.21446037E+00 0.83823629E+03</pdfrwt>
<totfact> 0.62515526E+00</totfact>
</mgrwt>
</event>
<event>
 4    5  0.6615028E-008  0.9129658E+03  0.7818608E-02  0.9505530E-01
          2   -1    0    0  501    0  0.00000000000E+00  0.00000000000E+00  0.32748392918E+03  0.32748392919E+03  0.25500000000E-02 0. -1.
         -2   -1    0    0    0  501 -0.00000000000E+00 -0.00000000000E+00 -0.46610432950E+04  0.46610432950E+04  0.25500000000E-02 0.  1.
    8880023    1    1    2    0    0 -0.60627435531E+03 -0.17924195035E+03 -0.39184174766E+03  0.99350210475E+03  0.65864270000E+03 0. -1.
    8880022    1    1    2    0    0  0.60627435531E+03  0.17924195035E+03 -0.39417176181E+04  0.39950251194E+04  0.15294330000E+03 0.  0.
<mgrwt>
<rscale>  0 0.83877349E+03</rscale>
<asrwt>0</asrwt>
<pdfrwt beam="1">  1        2 0.50382146E-01 0.91296576E+03</pdfrwt>
<pdfrwt beam="2">  1       -2 0.71708354E+00 0.91296576E+03</pdfrwt>
<totfact> 0.20358817E-02</totfact>
</mgrwt>
</event>
<event>
 4    5  0.6615028E-008  0.9298831E+03  0.7818608E-02  0.9479669E-01
         -2   -1    0    0    0  501 -0.00000000000E+00  0.00000000000E+00  0.71660507174E+03  0.71660507175E+03  0.25500000000E-02 0.  1.
          2   -1    0    0  501    0  0.00000000000E+00 -0.00000000000E+00 -0.20330393091E+04  0.20330393091E+04  0.25500000000E-02 0. -1.
    8880023    1    1    2    0    0  0.22942085443E+03  0.61501094977E+03 -0.17262992167E+04  0.19608140118E+04  0.65864270000E+03 0.  0.
    8880022    1    1    2    0    0 -0.22942085443E+03 -0.61501094977E+03  0.40986497940E+03  0.78883036905E+03  0.15294330000E+03 0.  0.
<mgrwt>
<rscale>  0 0.85799512E+03</rscale>
<asrwt>0</asrwt>
<pdfrwt beam="1">  1        2 0.31277528E+00 0.92988311E+03</pdfrwt>
<pdfrwt beam="2">  1       -2 0.11024693E+00 0.92988311E+03</pdfrwt>
<totfact> 0.42238172E+00</totfact>
</mgrwt>
</event>
<event>
 4    5  0.6615028E-008  0.1020278E+04  0.7818608E-02  0.9355495E-01
         -2   -1    0    0    0  501 -0.00000000000E+00  0.00000000000E+00  0.91312299817E+03  0.91312299817E+03  0.25500000000E-02 0.  1.
          2   -1    0    0  501    0  0.00000000000E+00 -0.00000000000E+00 -0.21842300724E+04  0.21842300724E+04  0.25500000000E-02 0. -1.
    8880023    1    1    2    0    0  0.53708371754E+03  0.56453434632E+03 -0.18513495987E+04  0.21138740480E+04  0.65864270000E+03 0. -1.
    8880022    1    1    2    0    0 -0.53708371754E+03 -0.56453434632E+03  0.58024252442E+03  0.98347902264E+03  0.15294330000E+03 0.  0.
<mgrwt>
<rscale>  0 0.95830543E+03</rscale>
<asrwt>0</asrwt>
<pdfrwt beam="1">  1        2 0.33603539E+00 0.10202785E+04</pdfrwt>
<pdfrwt beam="2">  1       -2 0.14048046E+00 0.10202785E+04</pdfrwt>
<totfact> 0.18719758E+00</totfact>
</mgrwt>
</event>
<event>
 4    5  0.6615028E-008  0.8439957E+03  0.7818608E-02  0.9622691E-01
          2   -1    0    0  501    0  0.00000000000E+00  0.00000000000E+00  0.10093913154E+04  0.10093913154E+04  0.25500000000E-02 0. -1.
         -2   -1    0    0    0  501 -0.00000000000E+00 -0.00000000000E+00 -0.11087316139E+04  0.11087316139E+04  0.25500000000E-02 0.  1.
    8880023    1    1    2    0    0  0.44908754264E+03 -0.27719839661E+03 -0.84340166261E+03  0.11931702070E+04  0.65864270000E+03 0.  1.
    8880022    1    1    2    0    0 -0.44908754264E+03  0.27719839661E+03  0.74406136414E+03  0.92495272239E+03  0.15294330000E+03 0.  0.
<mgrwt>
<rscale>  0 0.75812342E+03</rscale>
<asrwt>0</asrwt>
<pdfrwt beam="1">  1        2 0.15529097E+00 0.84399572E+03</pdfrwt>
<pdfrwt beam="2">  1       -2 0.17057409E+00 0.84399572E+03</pdfrwt>
<totfact> 0.52882247E+00</totfact>
</mgrwt>
</event>
<event>
 4    5  0.6615028E-008  0.8917225E+03  0.7818608E-02  0.9539452E-01
         -2   -1    0    0    0  501 -0.00000000000E+00  0.00000000000E+00  0.13005777208E+04  0.13005777208E+04  0.25500000000E-02 0.  1.
          2   -1    0    0  501    0  0.00000000000E+00 -0.00000000000E+00 -0.12149107524E+04  0.12149107524E+04  0.25500000000E-02 0. -1.
    8880023    1    1    2    0    0  0.17478977938E+03  0.57515848852E+03 -0.95335771596E+03  0.13053964512E+04  0.65864270000E+03 0. -1.
    8880022    1    1    2    0    0 -0.17478977938E+03 -0.57515848852E+03  0.10390246844E+04  0.12100920220E+04  0.15294330000E+03 0.  0.
<mgrwt>
<rscale>  0 0.81436606E+03</rscale>
<asrwt>0</asrwt>
<pdfrwt beam="1">  1        2 0.18690935E+00 0.89172247E+03</pdfrwt>
<pdfrwt beam="2">  1       -2 0.20008888E+00 0.89172247E+03</pdfrwt>
<totfact> 0.24795630E+00</totfact>
</mgrwt>
</event>
<event>
 4    5  0.6615028E-008  0.1264975E+04  0.7818608E-02  0.9096412E-01
          2   -1    0    0  501    0  0.00000000000E+00  0.00000000000E+00  0.34210167952E+04  0.34210167952E+04  0.25500000000E-02 0. -1.
         -2   -1    0    0    0  501 -0.00000000000E+00 -0.00000000000E+00 -0.96266153996E+03  0.96266153997E+03  0.25500000000E-02 0.  1.
    8880023    1    1    2    0    0  0.69911201059E+03 -0.82316142601E+03  0.29329759687E+04  0.31941369062E+04  0.65864270000E+03 0. -1.
    8880022    1    1    2    0    0 -0.69911201059E+03  0.82316142601E+03 -0.47462071341E+03  0.11895414290E+04  0.15294330000E+03 0.  0.
<mgrwt>
<rscale>  0 0.12189706E+04</rscale>
<asrwt>0</asrwt>
<pdfrwt beam="1">  1        2 0.52631027E+00 0.12649753E+04</pdfrwt>
<pdfrwt beam="2">  1       -2 0.14810178E+00 0.12649753E+04</pdfrwt>
<totfact> 0.28102459E-01</totfact>
</mgrwt>
</event>
<event>
 4    5  0.6615028E-008  0.9139057E+03  0.7818608E-02  0.9504067E-01
         -2   -1    0    0    0  501 -0.00000000000E+00  0.00000000000E+00  0.86695998153E+03  0.86695998153E+03  0.25500000000E-02 0.  1.
          2   -1    0    0  501    0  0.00000000000E+00 -0.00000000000E+00 -0.84595032360E+03  0.84595032361E+03  0.25500000000E-02 0. -1.
    8880023    1    1    2    0    0 -0.49317527638E+03 -0.39773305542E+03 -0.33119165832E+03  0.97206561374E+03  0.65864270000E+03 0.  0.
    8880022    1    1    2    0    0  0.49317527638E+03  0.39773305542E+03  0.35220131625E+03  0.74084469140E+03  0.15294330000E+03 0.  0.
<mgrwt>
<rscale>  0 0.83984619E+03</rscale>
<asrwt>0</asrwt>
<pdfrwt beam="1">  1        2 0.13014620E+00 0.91390571E+03</pdfrwt>
<pdfrwt beam="2">  1       -2 0.13337846E+00 0.91390571E+03</pdfrwt>
<totfact> 0.12992539E+01</totfact>
</mgrwt>
</event>
<event>
 4    5  0.6615028E-008  0.7320084E+03  0.7818608E-02  0.9883869E-01
         -2   -1    0    0    0  501 -0.00000000000E+00  0.00000000000E+00  0.51418392575E+03  0.51418392576E+03  0.25500000000E-02 0.  1.
          2   -1    0    0  501    0  0.00000000000E+00 -0.00000000000E+00 -0.13542117719E+04  0.13542117719E+04  0.25500000000E-02 0. -1.
    8880023    1    1    2    0    0  0.20788532250E+03 -0.24250727052E+03 -0.11727618390E+04  0.13824639673E+04  0.65864270000E+03 0.  0.
    8880022    1    1    2    0    0 -0.20788532250E+03  0.24250727052E+03  0.33273399285E+03  0.48593173037E+03  0.15294330000E+03 0.  1.
<mgrwt>
<rscale>  0 0.61049473E+03</rscale>
<asrwt>0</asrwt>
<pdfrwt beam="1">  1        2 0.20834027E+00 0.73200839E+03</pdfrwt>
<pdfrwt beam="2">  1       -2 0.79105220E-01 0.73200839E+03</pdfrwt>
<totfact> 0.22309828E+01</totfact>
</mgrwt>
</event>
<event>
 4    5  0.6615028E-008  0.8677255E+03  0.7818608E-02  0.9579966E-01
         -2   -1    0    0    0  501 -0.00000000000E+00  0.00000000000E+00  0.58425869932E+03  0.58425869933E+03  0.25500000000E-02 0.  1.
          2   -1    0    0  501    0  0.00000000000E+00 -0.00000000000E+00 -0.16435391112E+04  0.16435391112E+04  0.25500000000E-02 0. -1.
    8880023    1    1    2    0    0  0.50727873272E+03  0.24860729427E+03 -0.13259546688E+04  0.15846461086E+04  0.65864270000E+03 0.  0.
    8880022    1    1    2    0    0 -0.50727873272E+03 -0.24860729427E+03  0.26667425690E+03  0.64315170197E+03  0.15294330000E+03 0.  0.
<mgrwt>
<rscale>  0 0.78636454E+03</rscale>
<asrwt>0</asrwt>
<pdfrwt beam="1">  1        2 0.25285217E+00 0.86772548E+03</pdfrwt>
<pdfrwt beam="2">  1       -2 0.89885955E-01 0.86772548E+03</pdfrwt>
<totfact> 0.11309517E+01</totfact>
</mgrwt>
</event>
<event>
 4    5  0.6615028E-008  0.6964221E+03  0.7818608E-02  0.1001238E+00
         -2   -1    0    0    0  501 -0.00000000000E+00  0.00000000000E+00  0.35531056092E+03  0.35531056093E+03  0.25500000000E-02 0.  1.
          2   -1    0    0  501    0  0.00000000000E+00 -0.00000000000E+00 -0.13089740949E+04  0.13089740949E+04  0.25500000000E-02 0. -1.
    8880023    1    1    2    0    0 -0.21968646566E+03  0.54142203042E+02 -0.11384304376E+04  0.13345514561E+04  0.65864270000E+03 0. -1.
    8880022    1    1    2    0    0  0.21968646566E+03 -0.54142203042E+02  0.18476690362E+03  0.32973319978E+03  0.15294330000E+03 0.  0.
<mgrwt>
<rscale>  0 0.55110705E+03</rscale>
<asrwt>0</asrwt>
<pdfrwt beam="1">  1        2 0.20138063E+00 0.69642209E+03</pdfrwt>
<pdfrwt beam="2">  1       -2 0.54663164E-01 0.69642209E+03</pdfrwt>
<totfact> 0.52690619E+01</totfact>
</mgrwt>
</event>
<event>
 4    5  0.6615028E-008  0.8933547E+03  0.7818608E-02  0.9536785E-01
          2   -1    0    0  501    0  0.00000000000E+00  0.00000000000E+00  0.68329584768E+03  0.68329584768E+03  0.25500000000E-02 0. -1.
         -2   -1    0    0    0  501 -0.00000000000E+00 -0.00000000000E+00 -0.99779949969E+03  0.99779949969E+03  0.25500000000E-02 0.  1.
    8880023    1    1    2    0    0 -0.59174889954E+03 -0.11876704390E+03  0.14793741265E+03  0.90552087505E+03  0.65864270000E+03 0. -1.
    8880022    1    1    2    0    0  0.59174889954E+03  0.11876704390E+03 -0.46244106466E+03  0.77557447233E+03  0.15294330000E+03 0.  0.
<mgrwt>
<rscale>  0 0.81625316E+03</rscale>
<asrwt>0</asrwt>
<pdfrwt beam="1">  1        2 0.10512244E+00 0.89335468E+03</pdfrwt>
<pdfrwt beam="2">  1       -2 0.15350762E+00 0.89335468E+03</pdfrwt>
<totfact> 0.11918728E+01</totfact>
</mgrwt>
</event>
<event>
 4    5  0.6615028E-008  0.1183478E+04  0.7818608E-02  0.9173352E-01
         -2   -1    0    0    0  501 -0.00000000000E+00  0.00000000000E+00  0.14662244431E+04  0.14662244431E+04  0.25500000000E-02 0.  1.
          2   -1    0    0  501    0  0.00000000000E+00 -0.00000000000E+00 -0.17777403096E+04  0.17777403096E+04  0.25500000000E-02 0. -1.
    8880023    1    1    2    0    0 -0.89659181597E+03  0.40364976406E+03  0.10332535557E+04  0.15710611487E+04  0.65864270000E+03 0.  0.
    8880022    1    1    2    0    0  0.89659181597E+03 -0.40364976406E+03 -0.13447694222E+04  0.16729036040E+04  0.15294330000E+03 0.  0.
<mgrwt>
<rscale>  0 0.11332758E+04</rscale>
<asrwt>0</asrwt>
<pdfrwt beam="1">  1        2 0.27349851E+00 0.11834780E+04</pdfrwt>
<pdfrwt beam="2">  1       -2 0.22557299E+00 0.11834780E+04</pdfrwt>
<totfact> 0.78721360E-01</totfact>
</mgrwt>
</event>
<event>
 4    5  0.6615028E-008  0.7991692E+03  0.7818608E-02  0.9712595E-01
          2   -1    0    0  501    0  0.00000000000E+00  0.00000000000E+00  0.33022319398E+04  0.33022319398E+04  0.25500000000E-02 0. -1.
         -2   -1    0    0    0  501 -0.00000000000E+00 -0.00000000000E+00 -0.16039660302E+03  0.16039660304E+03  0.25500000000E-02 0.  1.
    8880023    1    1    2    0    0  0.25738749455E+03 -0.37230749857E+03  0.26857317624E+04  0.28021110795E+04  0.65864270000E+03 0. -1.
    8880022    1    1    2    0    0 -0.25738749455E+03  0.37230749857E+03  0.45610357437E+03  0.66051746336E+03  0.15294330000E+03 0.  0.
<mgrwt>
<rscale>  0 0.70271800E+03</rscale>
<asrwt>0</asrwt>
<pdfrwt beam="1">  1        2 0.50803560E+00 0.79916919E+03</pdfrwt>
<pdfrwt beam="2">  1       -2 0.24676404E-01 0.79916919E+03</pdfrwt>
<totfact> 0.17285429E+01</totfact>
</mgrwt>
</event>
<event>
 4    5  0.6615028E-008  0.7749593E+03  0.7818608E-02  0.9767814E-01
         -2   -1    0    0    0  501 -0.00000000000E+00  0.00000000000E+00  0.18307430123E+04  0.18307430123E+04  0.25500000000E-02 0.  1.
          2   -1    0    0  501    0  0.00000000000E+00 -0.00000000000E+00 -0.55340112863E+03  0.55340112864E+03  0.25500000000E-02 0. -1.
    8880023    1    1    2    0    0  0.12364858091E+03  0.38918209298E+03 -0.23530896884E+03  0.80989640704E+03  0.65864270000E+03 0.  0.
    8880022    1    1    2    0    0 -0.12364858091E+03 -0.38918209298E+03  0.15126508525E+04  0.15742477339E+04  0.15294330000E+03 0.  0.
<mgrwt>
<rscale>  0 0.67118818E+03</rscale>
<asrwt>0</asrwt>
<pdfrwt beam="1">  1        2 0.85138636E-01 0.77495928E+03</pdfrwt>
<pdfrwt beam="2">  1       -2 0.28165277E+00 0.77495928E+03</pdfrwt>
<totfact> 0.23236500E+00</totfact>
</mgrwt>
</event>
<event>
 4    5  0.6615028E-008  0.1101254E+04  0.7818608E-02  0.9259661E-01
         -2   -1    0    0    0  501 -0.00000000000E+00  0.00000000000E+00  0.12509832036E+04  0.12509832036E+04  0.25500000000E-02 0.  1.
          2   -1    0    0  501    0  0.00000000000E+00 -0.00000000000E+00 -0.14529547165E+04  0.14529547165E+04  0.25500000000E-02 0. -1.
    8880023    1    1    2    0    0  0.72530205560E+03  0.50287938981E+03 -0.10124677399E+04  0.14959451471E+04  0.65864270000E+03 0.  0.
    8880022    1    1    2    0    0 -0.72530205560E+03 -0.50287938981E+03  0.81049622698E+03  0.12079927730E+04  0.15294330000E+03 0.  0.
<mgrwt>
<rscale>  0 0.10458290E+04</rscale>
<asrwt>0</asrwt>
<pdfrwt beam="1">  1        2 0.22353149E+00 0.11012543E+04</pdfrwt>
<pdfrwt beam="2">  1       -2 0.19245896E+00 0.11012543E+04</pdfrwt>
<totfact> 0.19756203E+00</totfact>
</mgrwt>
</event>
<event>
 4    5  0.6615028E-008  0.1112172E+04  0.7818608E-02  0.9247623E-01
          2   -1    0    0  501    0  0.00000000000E+00  0.00000000000E+00  0.33072823270E+04  0.33072823270E+04  0.25500000000E-02 0. -1.
         -2   -1    0    0    0  501 -0.00000000000E+00 -0.00000000000E+00 -0.62154373713E+03  0.62154373714E+03  0.25500000000E-02 0.  1.
    8880023    1    1    2    0    0 -0.86314652013E+03 -0.24102975850E+03  0.27997670953E+04  0.30125775101E+04  0.65864270000E+03 0. -1.
    8880022    1    1    2    0    0  0.86314652013E+03  0.24102975850E+03 -0.11402850552E+03  0.91624855404E+03  0.15294330000E+03 0.  0.
<mgrwt>
<rscale>  0 0.10575113E+04</rscale>
<asrwt>0</asrwt>
<pdfrwt beam="1">  1        2 0.50881268E+00 0.11121724E+04</pdfrwt>
<pdfrwt beam="2">  1       -2 0.95622111E-01 0.11121724E+04</pdfrwt>
<totfact> 0.10208773E+00</totfact>
</mgrwt>
</event>
<event>
 4    5  0.6615028E-008  0.1267200E+04  0.7818608E-02  0.9094415E-01
         -2   -1    0    0    0  501 -0.00000000000E+00  0.00000000000E+00  0.12656949328E+04  0.12656949328E+04  0.25500000000E-02 0.  1.
          2   -1    0    0  501    0  0.00000000000E+00 -0.00000000000E+00 -0.26096430363E+04  0.26096430363E+04  0.25500000000E-02 0. -1.
    8880023    1    1    2    0    0 -0.95250775227E+03  0.51450426664E+03 -0.21646246182E+04  0.25082654570E+04  0.65864270000E+03 0. -1.
    8880022    1    1    2    0    0  0.95250775227E+03 -0.51450426664E+03  0.82067651473E+03  0.13670725121E+04  0.15294330000E+03 0.  0.
<mgrwt>
<rscale>  0 0.12212990E+04</rscale>
<asrwt>0</asrwt>
<pdfrwt beam="1">  1        2 0.40148354E+00 0.12672000E+04</pdfrwt>
<pdfrwt beam="2">  1       -2 0.19472230E+00 0.12672000E+04</pdfrwt>
<totfact> 0.41905297E-01</totfact>
</mgrwt>
</event>
<event>
 4    5  0.6615028E-008  0.8951933E+03  0.7818608E-02  0.9533792E-01
         -2   -1    0    0    0  501 -0.00000000000E+00  0.00000000000E+00  0.76787183151E+03  0.76787183151E+03  0.25500000000E-02 0.  1.
          2   -1    0    0  501    0  0.00000000000E+00 -0.00000000000E+00 -0.21315361274E+04  0.21315361274E+04  0.25500000000E-02 0. -1.
    8880023    1    1    2    0    0  0.56854895149E+03 -0.21050631826E+03 -0.18840608207E+04  0.20859185513E+04  0.65864270000E+03 0.  0.
    8880022    1    1    2    0    0 -0.56854895149E+03  0.21050631826E+03  0.52039652480E+03  0.81348940762E+03  0.15294330000E+03 0.  1.
<mgrwt>
<rscale>  0 0.81837642E+03</rscale>
<asrwt>0</asrwt>
<pdfrwt beam="1">  1        2 0.32792863E+00 0.89519329E+03</pdfrwt>
<pdfrwt beam="2">  1       -2 0.11813413E+00 0.89519329E+03</pdfrwt>
<totfact> 0.31634427E+00</totfact>
</mgrwt>
</event>
<event>
 4    5  0.6615028E-008  0.1110277E+04  0.7818608E-02  0.9249699E-01
          2   -1    0    0  501    0  0.00000000000E+00  0.00000000000E+00  0.27796376338E+04  0.27796376338E+04  0.25500000000E-02 0. -1.
         -2   -1    0    0    0  501 -0.00000000000E+00 -0.00000000000E+00 -0.65116614332E+03  0.65116614332E+03  0.25500000000E-02 0.  1.
    8880023    1    1    2    0    0  0.53117092487E+03  0.71886218164E+03  0.22566417991E+04  0.25149846527E+04  0.65864270000E+03 0. -1.
    8880022    1    1    2    0    0 -0.53117092487E+03 -0.71886218164E+03 -0.12817030863E+03  0.91581912441E+03  0.15294330000E+03 0.  0.
<mgrwt>
<rscale>  0 0.10554853E+04</rscale>
<asrwt>0</asrwt>
<pdfrwt beam="1">  1        2 0.42763657E+00 0.11102773E+04</pdfrwt>
<pdfrwt beam="2">  1       -2 0.10017940E+00 0.11102773E+04</pdfrwt>
<totfact> 0.19538476E+00</totfact>
</mgrwt>
</event>
<event>
 4    5  0.6615028E-008  0.1044136E+04  0.7818608E-02  0.9325964E-01
          2   -1    0    0  501    0  0.00000000000E+00  0.00000000000E+00  0.36558324571E+04  0.36558324571E+04  0.25500000000E-02 0. -1.
         -2   -1    0    0    0  501 -0.00000000000E+00 -0.00000000000E+00 -0.58725390047E+03  0.58725390047E+03  0.25500000000E-02 0.  1.
    8880023    1    1    2    0    0  0.61781489919E+03  0.52413300304E+03  0.32372825841E+04  0.34015025195E+04  0.65864270000E+03 0.  0.
    8880022    1    1    2    0    0 -0.61781489919E+03 -0.52413300304E+03 -0.16870402751E+03  0.84158383804E+03  0.15294330000E+03 0.  0.
<mgrwt>
<rscale>  0 0.98427343E+03</rscale>
<asrwt>0</asrwt>
<pdfrwt beam="1">  1        2 0.56243577E+00 0.10441364E+04</pdfrwt>
<pdfrwt beam="2">  1       -2 0.90346753E-01 0.10441364E+04</pdfrwt>
<totfact> 0.67934808E-01</totfact>
</mgrwt>
</event>
<event>
 4    5  0.6615028E-008  0.7242368E+03  0.7818608E-02  0.9908502E-01
         -2   -1    0    0    0  501 -0.00000000000E+00  0.00000000000E+00  0.23480807117E+04  0.23480807117E+04  0.25500000000E-02 0.  1.
          2   -1    0    0  501    0  0.00000000000E+00 -0.00000000000E+00 -0.13656265942E+04  0.13656265942E+04  0.25500000000E-02 0. -1.
    8880023    1    1    2    0    0  0.80737219856E+02  0.29015550291E+03 -0.12560343447E+04  0.14498762691E+04  0.65864270000E+03 0. -1.
    8880022    1    1    2    0    0 -0.80737219856E+02 -0.29015550291E+03  0.22384884621E+04  0.22638310367E+04  0.15294330000E+03 0.  0.
<mgrwt>
<rscale>  0 0.59850987E+03</rscale>
<asrwt>0</asrwt>
<pdfrwt beam="1">  1        2 0.21009640E+00 0.72423679E+03</pdfrwt>
<pdfrwt beam="2">  1       -2 0.36124318E+00 0.72423679E+03</pdfrwt>
<totfact> 0.21481702E-01</totfact>
</mgrwt>
</event>
<event>
 4    5  0.6615028E-008  0.1223127E+04  0.7818608E-02  0.9134963E-01
         -2   -1    0    0    0  501 -0.00000000000E+00  0.00000000000E+00  0.90273581956E+03  0.90273581957E+03  0.25500000000E-02 0.  1.
          2   -1    0    0  501    0  0.00000000000E+00 -0.00000000000E+00 -0.32675883119E+04  0.32675883119E+04  0.25500000000E-02 0. -1.
    8880023    1    1    2    0    0  0.26089636248E+03  0.99707712590E+03 -0.27889638964E+04  0.30453833139E+04  0.65864270000E+03 0.  0.
    8880022    1    1    2    0    0 -0.26089636248E+03 -0.99707712590E+03  0.42411140406E+03  0.11249408176E+04  0.15294330000E+03 0.  0.
<mgrwt>
<rscale>  0 0.11750693E+04</rscale>
<asrwt>0</asrwt>
<pdfrwt beam="1">  1        2 0.50270589E+00 0.12231271E+04</pdfrwt>
<pdfrwt beam="2">  1       -2 0.13888244E+00 0.12231271E+04</pdfrwt>
<totfact> 0.42384157E-01</totfact>
</mgrwt>
</event>
<event>
 4    5  0.6615028E-008  0.7099144E+03  0.7818608E-02  0.9958319E-01
          2   -1    0    0  501    0  0.00000000000E+00  0.00000000000E+00  0.11356334002E+04  0.11356334002E+04  0.25500000000E-02 0. -1.
         -2   -1    0    0    0  501 -0.00000000000E+00 -0.00000000000E+00 -0.28548284722E+03  0.28548284723E+03  0.25500000000E-02 0.  1.
    8880023    1    1    2    0    0  0.88571440990E+02  0.24964641427E+03  0.85990490901E+03  0.11150851497E+04  0.65864270000E+03 0. -1.
    8880022    1    1    2    0    0 -0.88571440990E+02 -0.24964641427E+03 -0.97543559936E+01  0.30603109775E+03  0.15294330000E+03 0.  0.
<mgrwt>
<rscale>  0 0.57516267E+03</rscale>
<asrwt>0</asrwt>
<pdfrwt beam="1">  1        2 0.17471283E+00 0.70991439E+03</pdfrwt>
<pdfrwt beam="2">  1       -2 0.43920438E-01 0.70991439E+03</pdfrwt>
<totfact> 0.10363738E+02</totfact>
</mgrwt>
</event>
<event>
 4    5  0.6615028E-008  0.1017294E+04  0.7818608E-02  0.9359273E-01
         -2   -1    0    0    0  501 -0.00000000000E+00  0.00000000000E+00  0.69137861306E+03  0.69137861307E+03  0.25500000000E-02 0.  1.
          2   -1    0    0  501    0  0.00000000000E+00 -0.00000000000E+00 -0.20511291035E+04  0.20511291035E+04  0.25500000000E-02 0. -1.
    8880023    1    1    2    0    0 -0.17360962658E+03 -0.75560361248E+03 -0.16179252473E+04  0.19111696507E+04  0.65864270000E+03 0. -1.
    8880022    1    1    2    0    0  0.17360962658E+03  0.75560361248E+03  0.25817475687E+03  0.83133806586E+03  0.15294330000E+03 0.  1.
<mgrwt>
<rscale>  0 0.95504479E+03</rscale>
<asrwt>0</asrwt>
<pdfrwt beam="1">  1        2 0.31555832E+00 0.10172941E+04</pdfrwt>
<pdfrwt beam="2">  1       -2 0.10636594E+00 0.10172941E+04</pdfrwt>
<totfact> 0.44522250E+00</totfact>
</mgrwt>
</event>
<event>
 4    5  0.2178141E-007  0.9020686E+03  0.7818608E-02  0.9522719E-01
          2   -1    0    0  501    0  0.00000000000E+00  0.00000000000E+00  0.34284821462E+04  0.34284821462E+04  0.25500000000E-02 0. -1.
         -2   -1    0    0    0  501 -0.00000000000E+00 -0.00000000000E+00 -0.17334424493E+04  0.17334424493E+04  0.25500000000E-02 0.  1.
    8880023    1    1    2    0    0 -0.22134410300E+03  0.57526016635E+03  0.33078188916E+04  0.34286139323E+04  0.65864270000E+03 0.  0.
    8880022    1    1    2    0    0  0.22134410300E+03 -0.57526016635E+03 -0.16127791947E+04  0.17333106631E+04  0.15294330000E+03 0.  0.
<mgrwt>
<rscale>  0 0.82629365E+03</rscale>
<asrwt>0</asrwt>
<pdfrwt beam="1">  1        2 0.52745879E+00 0.90206855E+03</pdfrwt>
<pdfrwt beam="2">  1       -2 0.26668346E+00 0.90206855E+03</pdfrwt>
<totfact> 0.49133035E-02</totfact>
</mgrwt>
</event>
<event>
 4    5  0.6615028E-008  0.8331608E+03  0.7818608E-02  0.9643213E-01
          2   -1    0    0  501    0  0.00000000000E+00  0.00000000000E+00  0.13306767520E+04  0.13306767520E+04  0.25500000000E-02 0. -1.
         -2   -1    0    0    0  501 -0.00000000000E+00 -0.00000000000E+00 -0.11039370369E+04  0.11039370369E+04  0.25500000000E-02 0.  1.
    8880023    1    1    2    0    0 -0.31682012563E+03  0.39996473302E+03  0.11192061448E+04  0.13952703611E+04  0.65864270000E+03 0.  0.
    8880022    1    1    2    0    0  0.31682012563E+03 -0.39996473302E+03 -0.89246642972E+03  0.10393434278E+04  0.15294330000E+03 0.  1.
<mgrwt>
<rscale>  0 0.74500881E+03</rscale>
<asrwt>0</asrwt>
<pdfrwt beam="1">  1        2 0.20471950E+00 0.83316084E+03</pdfrwt>
<pdfrwt beam="2">  1       -2 0.16983647E+00 0.83316084E+03</pdfrwt>
<totfact> 0.34339033E+00</totfact>
</mgrwt>
</event>
<event>
 4    5  0.6615028E-008  0.1301518E+04  0.7818608E-02  0.9064250E-01
         -2   -1    0    0    0  501 -0.00000000000E+00  0.00000000000E+00  0.74245755657E+03  0.74245755658E+03  0.25500000000E-02 0.  1.
          2   -1    0    0  501    0  0.00000000000E+00 -0.00000000000E+00 -0.29785502828E+04  0.29785502828E+04  0.25500000000E-02 0. -1.
    8880023    1    1    2    0    0 -0.10086292096E+04 -0.49275240788E+03 -0.22370067183E+04  0.25880778740E+04  0.65864270000E+03 0. -1.
    8880022    1    1    2    0    0  0.10086292096E+04  0.49275240788E+03  0.91399214449E+00  0.11329299653E+04  0.15294330000E+03 0.  0.
<mgrwt>
<rscale>  0 0.12571534E+04</rscale>
<asrwt>0</asrwt>
<pdfrwt beam="1">  1        2 0.45823850E+00 0.13015176E+04</pdfrwt>
<pdfrwt beam="2">  1       -2 0.11422424E+00 0.13015176E+04</pdfrwt>
<totfact> 0.10501053E+00</totfact>
</mgrwt>
</event>
<event>
 4    5  0.6615028E-008  0.1217493E+04  0.7818608E-02  0.9140303E-01
          2   -1    0    0  501    0  0.00000000000E+00  0.00000000000E+00  0.14954408661E+04  0.14954408661E+04  0.25500000000E-02 0. -1.
         -2   -1    0    0    0  501 -0.00000000000E+00 -0.00000000000E+00 -0.10078544394E+04  0.10078544394E+04  0.25500000000E-02 0.  1.
    8880023    1    1    2    0    0  0.86523217593E+03  0.54758680633E+03  0.75681955522E+03  0.14335494669E+04  0.65864270000E+03 0.  1.
    8880022    1    1    2    0    0 -0.86523217593E+03 -0.54758680633E+03 -0.26923312846E+03  0.10697458386E+04  0.15294330000E+03 0.  0.
<mgrwt>
<rscale>  0 0.11691426E+04</rscale>
<asrwt>0</asrwt>
<pdfrwt beam="1">  1        2 0.23006782E+00 0.12174926E+04</pdfrwt>
<pdfrwt beam="2">  1       -2 0.15505453E+00 0.12174926E+04</pdfrwt>
<totfact> 0.33972315E+00</totfact>
</mgrwt>
</event>
<event>
 4    5  0.6615028E-008  0.1041522E+04  0.7818608E-02  0.9329143E-01
         -2   -1    0    0    0  501 -0.00000000000E+00  0.00000000000E+00  0.33114449587E+03  0.33114449588E+03  0.25500000000E-02 0.  1.
          2   -1    0    0  501    0  0.00000000000E+00 -0.00000000000E+00 -0.31266689287E+04  0.31266689287E+04  0.25500000000E-02 0. -1.
    8880023    1    1    2    0    0 -0.68219096182E+03 -0.43078342213E+03 -0.22285228042E+04  0.24598949083E+04  0.65864270000E+03 0.  0.
    8880022    1    1    2    0    0  0.68219096182E+03  0.43078342213E+03 -0.56700162872E+03  0.99791851629E+03  0.15294330000E+03 0.  0.
<mgrwt>
<rscale>  0 0.98143648E+03</rscale>
<asrwt>0</asrwt>
<pdfrwt beam="1">  1        2 0.48102597E+00 0.10415225E+04</pdfrwt>
<pdfrwt beam="2">  1       -2 0.50945309E-01 0.10415225E+04</pdfrwt>
<totfact> 0.53760176E+00</totfact>
</mgrwt>
</event>
<event>
 4    5  0.6615028E-008  0.9055438E+03  0.7818608E-02  0.9517190E-01
          2   -1    0    0  501    0  0.00000000000E+00  0.00000000000E+00  0.19273084669E+04  0.19273084670E+04  0.25500000000E-02 0. -1.
         -2   -1    0    0    0  501 -0.00000000000E+00 -0.00000000000E+00 -0.36005844956E+03  0.36005844957E+03  0.25500000000E-02 0.  1.
    8880023    1    1    2    0    0  0.74403890932E+02  0.61697930166E+03  0.13211204551E+04  0.16016768903E+04  0.65864270000E+03 0.  0.
    8880022    1    1    2    0    0 -0.74403890932E+02 -0.61697930166E+03  0.24612956227E+03  0.68569002625E+03  0.15294330000E+03 0.  0.
<mgrwt>
<rscale>  0 0.83028255E+03</rscale>
<asrwt>0</asrwt>
<pdfrwt beam="1">  1        2 0.29650899E+00 0.90554382E+03</pdfrwt>
<pdfrwt beam="2">  1       -2 0.55393609E-01 0.90554382E+03</pdfrwt>
<totfact> 0.22749648E+01</totfact>
</mgrwt>
</event>
<event>
 4    5  0.6615028E-008  0.7691051E+03  0.7818608E-02  0.9782081E-01
          2   -1    0    0  501    0  0.00000000000E+00  0.00000000000E+00  0.20212866558E+04  0.20212866558E+04  0.25500000000E-02 0. -1.
         -2   -1    0    0    0  501 -0.00000000000E+00 -0.00000000000E+00 -0.27422430936E+03  0.27422430937E+03  0.25500000000E-02 0.  1.
    8880023    1    1    2    0    0  0.21020486514E+03  0.33693675541E+03  0.17018290686E+04  0.18675504939E+04  0.65864270000E+03 0.  0.
    8880022    1    1    2    0    0 -0.21020486514E+03 -0.33693675541E+03  0.45233277842E+02  0.42796047121E+03  0.15294330000E+03 0.  1.
<mgrwt>
<rscale>  0 0.66333103E+03</rscale>
<asrwt>0</asrwt>
<pdfrwt beam="1">  1        2 0.31096718E+00 0.76910511E+03</pdfrwt>
<pdfrwt beam="2">  1       -2 0.42188354E-01 0.76910511E+03</pdfrwt>
<totfact> 0.35647550E+01</totfact>
</mgrwt>
</event>
<event>
 4    5  0.6615028E-008  0.1008576E+04  0.7818608E-02  0.9370422E-01
          2   -1    0    0  501    0  0.00000000000E+00  0.00000000000E+00  0.29150130678E+04  0.29150130678E+04  0.25500000000E-02 0. -1.
         -2   -1    0    0    0  501 -0.00000000000E+00 -0.00000000000E+00 -0.68955265150E+03  0.68955265150E+03  0.25500000000E-02 0.  1.
    8880023    1    1    2    0    0  0.56192248788E+03  0.51735782222E+03  0.25639757558E+04  0.27552128558E+04  0.65864270000E+03 0.  0.
    8880022    1    1    2    0    0 -0.56192248788E+03 -0.51735782222E+03 -0.33851533946E+03  0.84935286346E+03  0.15294330000E+03 0.  0.
<mgrwt>
<rscale>  0 0.94550310E+03</rscale>
<asrwt>0</asrwt>
<pdfrwt beam="1">  1        2 0.44846354E+00 0.10085763E+04</pdfrwt>
<pdfrwt beam="2">  1       -2 0.10608503E+00 0.10085763E+04</pdfrwt>
<totfact> 0.14324226E+00</totfact>
</mgrwt>
</event>
<event>
 4    5  0.6615028E-008  0.8961897E+03  0.7818608E-02  0.9532176E-01
          2   -1    0    0  501    0  0.00000000000E+00  0.00000000000E+00  0.20520352906E+04  0.20520352906E+04  0.25500000000E-02 0. -1.
         -2   -1    0    0    0  501 -0.00000000000E+00 -0.00000000000E+00 -0.63100917605E+03  0.63100917606E+03  0.25500000000E-02 0.  1.
    8880023    1    1    2    0    0  0.40602807378E+03  0.45220227841E+03  0.17567194446E+04  0.19721103191E+04  0.65864270000E+03 0. -1.
    8880022    1    1    2    0    0 -0.40602807378E+03 -0.45220227841E+03 -0.33569333008E+03  0.71093414756E+03  0.15294330000E+03 0.  0.
<mgrwt>
<rscale>  0 0.81952597E+03</rscale>
<asrwt>0</asrwt>
<pdfrwt beam="1">  1        2 0.31569773E+00 0.89618966E+03</pdfrwt>
<pdfrwt beam="2">  1       -2 0.97078336E-01 0.89618966E+03</pdfrwt>
<totfact> 0.56188340E+00</totfact>
</mgrwt>
</event>
<event>
 4    5  0.6615028E-008  0.7331984E+03  0.7818608E-02  0.9880222E-01
          2   -1    0    0  501    0  0.00000000000E+00  0.00000000000E+00  0.85966889258E+03  0.85966889258E+03  0.25500000000E-02 0. -1.
         -2   -1    0    0    0  501 -0.00000000000E+00 -0.00000000000E+00 -0.56783903433E+03  0.56783903434E+03  0.25500000000E-02 0.  1.
    8880023    1    1    2    0    0 -0.11553606712E+03 -0.30070094732E+03  0.60679927360E+03  0.95172748580E+03  0.65864270000E+03 0. -1.
    8880022    1    1    2    0    0  0.11553606712E+03  0.30070094732E+03 -0.31496941535E+03  0.47578044112E+03  0.15294330000E+03 0.  0.
<mgrwt>
<rscale>  0 0.61229468E+03</rscale>
<asrwt>0</asrwt>
<pdfrwt beam="1">  1        2 0.13225675E+00 0.73319837E+03</pdfrwt>
<pdfrwt beam="2">  1       -2 0.87359851E-01 0.73319837E+03</pdfrwt>
<totfact> 0.35935327E+01</totfact>
</mgrwt>
</event>
<event>
 4    5  0.6615028E-008  0.8569976E+03  0.7818608E-02  0.9598927E-01
          2   -1    0    0  501    0  0.00000000000E+00  0.00000000000E+00  0.29522185269E+04  0.29522185269E+04  0.25500000000E-02 0. -1.
         -2   -1    0    0    0  501 -0.00000000000E+00 -0.00000000000E+00 -0.26537567241E+03  0.26537567242E+03  0.25500000000E-02 0.  1.
    8880023    1    1    2    0    0  0.44999929049E+03  0.31326547285E+03  0.24596914916E+04  0.26047124713E+04  0.65864270000E+03 0. -1.
    8880022    1    1    2    0    0 -0.44999929049E+03 -0.31326547285E+03  0.22715136292E+03  0.61288172808E+03  0.15294330000E+03 0.  0.
<mgrwt>
<rscale>  0 0.77367260E+03</rscale>
<asrwt>0</asrwt>
<pdfrwt beam="1">  1        2 0.45418745E+00 0.85699756E+03</pdfrwt>
<pdfrwt beam="2">  1       -2 0.40827028E-01 0.85699756E+03</pdfrwt>
<totfact> 0.11047293E+01</totfact>
</mgrwt>
</event>
<event>
 4    5  0.6615028E-008  0.8973946E+03  0.7818608E-02  0.9530227E-01
          2   -1    0    0  501    0  0.00000000000E+00  0.00000000000E+00  0.27834159137E+04  0.27834159137E+04  0.25500000000E-02 0. -1.
         -2   -1    0    0    0  501 -0.00000000000E+00 -0.00000000000E+00 -0.24112272110E+03  0.24112272111E+03  0.25500000000E-02 0.  1.
    8880023    1    1    2    0    0  0.27626289625E+03  0.54330996596E+03  0.20090910070E+04  0.22004008243E+04  0.65864270000E+03 0.  0.
    8880022    1    1    2    0    0 -0.27626289625E+03 -0.54330996596E+03  0.53320218559E+03  0.82413781050E+03  0.15294330000E+03 0.  0.
<mgrwt>
<rscale>  0 0.82091519E+03</rscale>
<asrwt>0</asrwt>
<pdfrwt beam="1">  1        2 0.42821783E+00 0.89739463E+03</pdfrwt>
<pdfrwt beam="2">  1       -2 0.37095803E-01 0.89739463E+03</pdfrwt>
<totfact> 0.16713931E+01</totfact>
</mgrwt>
</event>
<event>
 4    5  0.6615028E-008  0.8998914E+03  0.7818608E-02  0.9526206E-01
          2   -1    0    0  501    0  0.00000000000E+00  0.00000000000E+00  0.29585138343E+04  0.29585138343E+04  0.25500000000E-02 0. -1.
         -2   -1    0    0    0  501 -0.00000000000E+00 -0.00000000000E+00 -0.32459945472E+03  0.32459945473E+03  0.25500000000E-02 0.  1.
    8880023    1    1    2    0    0 -0.41026417776E+02 -0.61180972479E+03  0.24720436453E+04  0.26307421570E+04  0.65864270000E+03 0.  0.
    8880022    1    1    2    0    0  0.41026417776E+02  0.61180972479E+03  0.16187073435E+03  0.65237113207E+03  0.15294330000E+03 0.  0.
<mgrwt>
<rscale>  0 0.82379030E+03</rscale>
<asrwt>0</asrwt>
<pdfrwt beam="1">  1        2 0.45515598E+00 0.89989139E+03</pdfrwt>
<pdfrwt beam="2">  1       -2 0.49938377E-01 0.89989139E+03</pdfrwt>
<totfact> 0.72708560E+00</totfact>
</mgrwt>
</event>
<event>
 4    5  0.6615028E-008  0.1112505E+04  0.7818608E-02  0.9247259E-01
         -2   -1    0    0    0  501 -0.00000000000E+00  0.00000000000E+00  0.12706436464E+04  0.12706436464E+04  0.25500000000E-02 0.  1.
          2   -1    0    0  501    0  0.00000000000E+00 -0.00000000000E+00 -0.18713970582E+04  0.18713970582E+04  0.25500000000E-02 0. -1.
    8880023    1    1    2    0    0 -0.67374882202E+03  0.59154060815E+03 -0.14970041996E+04  0.18651245390E+04  0.65864270000E+03 0.  0.
    8880022    1    1    2    0    0  0.67374882202E+03 -0.59154060815E+03  0.89625078781E+03  0.12769161656E+04  0.15294330000E+03 0.  0.
<mgrwt>
<rscale>  0 0.10578671E+04</rscale>
<asrwt>0</asrwt>
<pdfrwt beam="1">  1        2 0.28790724E+00 0.11125053E+04</pdfrwt>
<pdfrwt beam="2">  1       -2 0.19548364E+00 0.11125053E+04</pdfrwt>
<totfact> 0.11012336E+00</totfact>
</mgrwt>
</event>
<event>
 4    5  0.6615028E-008  0.9704300E+03  0.7818608E-02  0.9421310E-01
         -2   -1    0    0    0  501 -0.00000000000E+00  0.00000000000E+00  0.45971399617E+03  0.45971399617E+03  0.25500000000E-02 0.  1.
          2   -1    0    0  501    0  0.00000000000E+00 -0.00000000000E+00 -0.15713485105E+04  0.15713485105E+04  0.25500000000E-02 0. -1.
    8880023    1    1    2    0    0  0.28004301597E+03  0.65536261236E+03 -0.65923914000E+03  0.11731712128E+04  0.65864270000E+03 0.  1.
    8880022    1    1    2    0    0 -0.28004301597E+03 -0.65536261236E+03 -0.45239537437E+03  0.85789129395E+03  0.15294330000E+03 0. -1.
<mgrwt>
<rscale>  0 0.90342535E+03</rscale>
<asrwt>0</asrwt>
<pdfrwt beam="1">  1        2 0.24174592E+00 0.97043003E+03</pdfrwt>
<pdfrwt beam="2">  1       -2 0.70725231E-01 0.97043003E+03</pdfrwt>
<totfact> 0.21055589E+01</totfact>
</mgrwt>
</event>
<event>
 4    5  0.6615028E-008  0.9003536E+03  0.7818608E-02  0.9525464E-01
         -2   -1    0    0    0  501 -0.00000000000E+00  0.00000000000E+00  0.38346114321E+03  0.38346114321E+03  0.25500000000E-02 0.  1.
          2   -1    0    0  501    0  0.00000000000E+00 -0.00000000000E+00 -0.26691926774E+04  0.26691926774E+04  0.25500000000E-02 0. -1.
    8880023    1    1    2    0    0  0.37038114006E+03 -0.48953466563E+03 -0.22448865130E+04  0.24187087547E+04  0.65864270000E+03 0. -1.
    8880022    1    1    2    0    0 -0.37038114006E+03  0.48953466563E+03 -0.40845021196E+02  0.63394506587E+03  0.15294330000E+03 0.  0.
<mgrwt>
<rscale>  0 0.82432203E+03</rscale>
<asrwt>0</asrwt>
<pdfrwt beam="1">  1        2 0.41064501E+00 0.90035359E+03</pdfrwt>
<pdfrwt beam="2">  1       -2 0.58994024E-01 0.90035359E+03</pdfrwt>
<totfact> 0.76518957E+00</totfact>
</mgrwt>
</event>
<event>
 4    5  0.6615028E-008  0.7817404E+03  0.7818608E-02  0.9751765E-01
          2   -1    0    0  501    0  0.00000000000E+00  0.00000000000E+00  0.56628587721E+03  0.56628587722E+03  0.25500000000E-02 0. -1.
         -2   -1    0    0    0  501 -0.00000000000E+00 -0.00000000000E+00 -0.10085052724E+04  0.10085052724E+04  0.25500000000E-02 0.  1.
    8880023    1    1    2    0    0  0.42079499011E+03  0.15472956946E+02  0.18564858753E+03  0.80348207224E+03  0.65864270000E+03 0. -1.
    8880022    1    1    2    0    0 -0.42079499011E+03 -0.15472956946E+02 -0.62786798272E+03  0.77130907737E+03  0.15294330000E+03 0.  0.
<mgrwt>
<rscale>  0 0.68016644E+03</rscale>
<asrwt>0</asrwt>
<pdfrwt beam="1">  1        2 0.87120905E-01 0.78174039E+03</pdfrwt>
<pdfrwt beam="2">  1       -2 0.15515466E+00 0.78174039E+03</pdfrwt>
<totfact> 0.14725360E+01</totfact>
</mgrwt>
</event>
<event>
 4    5  0.6615028E-008  0.6874744E+03  0.7818608E-02  0.1005377E+00
          2   -1    0    0  501    0  0.00000000000E+00  0.00000000000E+00  0.13905082196E+04  0.13905082196E+04  0.25500000000E-02 0. -1.
         -2   -1    0    0    0  501 -0.00000000000E+00 -0.00000000000E+00 -0.23476865384E+03  0.23476865385E+03  0.25500000000E-02 0.  1.
    8880023    1    1    2    0    0 -0.18794491904E+03 -0.59055493796E+02  0.11892232525E+04  0.13736349568E+04  0.65864270000E+03 0. -1.
    8880022    1    1    2    0    0  0.18794491904E+03  0.59055493796E+02 -0.33483686741E+02  0.25164191668E+03  0.15294330000E+03 0.  0.
<mgrwt>
<rscale>  0 0.53354171E+03</rscale>
<asrwt>0</asrwt>
<pdfrwt beam="1">  1        2 0.21392434E+00 0.68747440E+03</pdfrwt>
<pdfrwt beam="2">  1       -2 0.36118254E-01 0.68747440E+03</pdfrwt>
<totfact> 0.10802540E+02</totfact>
</mgrwt>
</event>
<event>
 4    5  0.6615028E-008  0.7412383E+03  0.7818608E-02  0.9856355E-01
         -2   -1    0    0    0  501 -0.00000000000E+00  0.00000000000E+00  0.48216767803E+03  0.48216767803E+03  0.25500000000E-02 0.  1.
          2   -1    0    0  501    0  0.00000000000E+00 -0.00000000000E+00 -0.10639987085E+04  0.10639987085E+04  0.25500000000E-02 0. -1.
    8880023    1    1    2    0    0 -0.22788651499E+03 -0.25237229801E+03 -0.81872933164E+03  0.11044238160E+04  0.65864270000E+03 0. -1.
    8880022    1    1    2    0    0  0.22788651499E+03  0.25237229801E+03  0.23689830119E+03  0.44174257055E+03  0.15294330000E+03 0.  0.
<mgrwt>
<rscale>  0 0.62423969E+03</rscale>
<asrwt>0</asrwt>
<pdfrwt beam="1">  1        2 0.16369211E+00 0.74123832E+03</pdfrwt>
<pdfrwt beam="2">  1       -2 0.74179643E-01 0.74123832E+03</pdfrwt>
<totfact> 0.38188413E+01</totfact>
</mgrwt>
</event>
<event>
 4    5  0.6615028E-008  0.1016749E+04  0.7818608E-02  0.9359965E-01
          2   -1    0    0  501    0  0.00000000000E+00  0.00000000000E+00  0.18339167098E+04  0.18339167098E+04  0.25500000000E-02 0. -1.
         -2   -1    0    0    0  501 -0.00000000000E+00 -0.00000000000E+00 -0.73535139411E+03  0.73535139411E+03  0.25500000000E-02 0.  1.
    8880023    1    1    2    0    0 -0.69207068410E+02 -0.77147843408E+03  0.13947503319E+04  0.17260090634E+04  0.65864270000E+03 0.  0.
    8880022    1    1    2    0    0  0.69207068410E+02  0.77147843408E+03 -0.29618501615E+03  0.84325904050E+03  0.15294330000E+03 0.  0.
<mgrwt>
<rscale>  0 0.95444904E+03</rscale>
<asrwt>0</asrwt>
<pdfrwt beam="1">  1        2 0.28214103E+00 0.10167491E+04</pdfrwt>
<pdfrwt beam="2">  1       -2 0.11313098E+00 0.10167491E+04</pdfrwt>
<totfact> 0.50481708E+00</totfact>
</mgrwt>
</event>
<event>
 4    5  0.6615028E-008  0.1245299E+04  0.7818608E-02  0.9114298E-01
          2   -1    0    0  501    0  0.00000000000E+00  0.00000000000E+00  0.34985986396E+04  0.34985986396E+04  0.25500000000E-02 0. -1.
         -2   -1    0    0    0  501 -0.00000000000E+00 -0.00000000000E+00 -0.52315764988E+03  0.52315764989E+03  0.25500000000E-02 0.  1.
    8880023    1    1    2    0    0 -0.61226891443E+03  0.86144468160E+03  0.53013082095E+03  0.13534434072E+04  0.65864270000E+03 0.  0.
    8880022    1    1    2    0    0  0.61226891443E+03 -0.86144468160E+03  0.24453101687E+04  0.26683128822E+04  0.15294330000E+03 0.  0.
<mgrwt>
<rscale>  0 0.11983541E+04</rscale>
<asrwt>0</asrwt>
<pdfrwt beam="1">  1        2 0.53824595E+00 0.12452993E+04</pdfrwt>
<pdfrwt beam="2">  1       -2 0.80485792E-01 0.12452993E+04</pdfrwt>
<totfact> 0.11077326E+00</totfact>
</mgrwt>
</event>
<event>
 4    5  0.6615028E-008  0.7204352E+03  0.7818608E-02  0.9921116E-01
         -2   -1    0    0    0  501 -0.00000000000E+00  0.00000000000E+00  0.52647947717E+03  0.52647947717E+03  0.25500000000E-02 0.  1.
          2   -1    0    0  501    0  0.00000000000E+00 -0.00000000000E+00 -0.21051341088E+04  0.21051341088E+04  0.25500000000E-02 0. -1.
    8880023    1    1    2    0    0  0.25500749031E+03  0.14208411170E+03 -0.19830955889E+04  0.21099040347E+04  0.65864270000E+03 0. -1.
    8880022    1    1    2    0    0 -0.25500749031E+03 -0.14208411170E+03  0.40444095726E+03  0.52170955122E+03  0.15294330000E+03 0.  0.
<mgrwt>
<rscale>  0 0.59248740E+03</rscale>
<asrwt>0</asrwt>
<pdfrwt beam="1">  1        2 0.32386678E+00 0.72043523E+03</pdfrwt>
<pdfrwt beam="2">  1       -2 0.80996844E-01 0.72043523E+03</pdfrwt>
<totfact> 0.81854673E+00</totfact>
</mgrwt>
</event>
<event>
 4    5  0.6615028E-008  0.1433350E+04  0.7818608E-02  0.8958193E-01
          2   -1    0    0  501    0  0.00000000000E+00  0.00000000000E+00  0.16870169544E+04  0.16870169544E+04  0.25500000000E-02 0. -1.
         -2   -1    0    0    0  501 -0.00000000000E+00 -0.00000000000E+00 -0.16030228945E+04  0.16030228945E+04  0.25500000000E-02 0.  1.
    8880023    1    1    2    0    0 -0.61653464306E+03  0.11138079185E+04  0.97068047155E+03  0.17311019120E+04  0.65864270000E+03 0. -1.
    8880022    1    1    2    0    0  0.61653464306E+03 -0.11138079185E+04 -0.88668641172E+03  0.15589379369E+04  0.15294330000E+03 0.  0.
<mgrwt>
<rscale>  0 0.13939733E+04</rscale>
<asrwt>0</asrwt>
<pdfrwt beam="1">  1        2 0.25954107E+00 0.14333504E+04</pdfrwt>
<pdfrwt beam="2">  1       -2 0.24661891E+00 0.14333504E+04</pdfrwt>
<totfact> 0.63566780E-01</totfact>
</mgrwt>
</event>
<event>
 4    5  0.6615028E-008  0.1945458E+04  0.7818608E-02  0.8646074E-01
         -2   -1    0    0    0  501 -0.00000000000E+00  0.00000000000E+00  0.30496259850E+04  0.30496259850E+04  0.25500000000E-02 0.  1.
          2   -1    0    0  501    0  0.00000000000E+00 -0.00000000000E+00 -0.18360012760E+04  0.18360012760E+04  0.25500000000E-02 0. -1.
    8880023    1    1    2    0    0  0.18285975400E+04  0.85027042917E+02 -0.84983251470E+03  0.21229752873E+04  0.65864270000E+03 0.  0.
    8880022    1    1    2    0    0 -0.18285975400E+04 -0.85027042917E+02  0.20634572236E+04  0.27626519737E+04  0.15294330000E+03 0.  0.
<mgrwt>
<rscale>  0 0.19177451E+04</rscale>
<asrwt>0</asrwt>
<pdfrwt beam="1">  1        2 0.28246174E+00 0.19454585E+04</pdfrwt>
<pdfrwt beam="2">  1       -2 0.46917323E+00 0.19454585E+04</pdfrwt>
<totfact> 0.18990787E-02</totfact>
</mgrwt>
</event>
<event>
 4    5  0.6615028E-008  0.6995766E+03  0.7818608E-02  0.9998962E-01
         -2   -1    0    0    0  501 -0.00000000000E+00  0.00000000000E+00  0.29033220094E+03  0.29033220095E+03  0.25500000000E-02 0.  1.
          2   -1    0    0  501    0  0.00000000000E+00 -0.00000000000E+00 -0.15764846954E+04  0.15764846954E+04  0.25500000000E-02 0. -1.
    8880023    1    1    2    0    0 -0.21406749323E+03  0.98854803508E+02 -0.13988377216E+04  0.15640186512E+04  0.65864270000E+03 0. -1.
    8880022    1    1    2    0    0  0.21406749323E+03 -0.98854803508E+02  0.11268522710E+03  0.30279824513E+03  0.15294330000E+03 0.  0.
<mgrwt>
<rscale>  0 0.55695761E+03</rscale>
<asrwt>0</asrwt>
<pdfrwt beam="1">  1        2 0.24253610E+00 0.69957656E+03</pdfrwt>
<pdfrwt beam="2">  1       -2 0.44666493E-01 0.69957656E+03</pdfrwt>
<totfact> 0.56170808E+01</totfact>
</mgrwt>
</event>
<event>
 4    5  0.6615028E-008  0.7884876E+03  0.7818608E-02  0.9736264E-01
          2   -1    0    0  501    0  0.00000000000E+00  0.00000000000E+00  0.27833345338E+04  0.27833345338E+04  0.25500000000E-02 0. -1.
         -2   -1    0    0    0  501 -0.00000000000E+00 -0.00000000000E+00 -0.41836133341E+03  0.41836133342E+03  0.25500000000E-02 0.  1.
    8880023    1    1    2    0    0 -0.21323340957E+03 -0.37740435834E+03  0.25774042355E+04  0.26953154427E+04  0.65864270000E+03 0.  0.
    8880022    1    1    2    0    0  0.21323340957E+03  0.37740435834E+03 -0.21243103505E+03  0.50638042450E+03  0.15294330000E+03 0.  1.
<mgrwt>
<rscale>  0 0.68898078E+03</rscale>
<asrwt>0</asrwt>
<pdfrwt beam="1">  1        2 0.42820531E+00 0.78848763E+03</pdfrwt>
<pdfrwt beam="2">  1       -2 0.64363282E-01 0.78848763E+03</pdfrwt>
<totfact> 0.55478315E+00</totfact>
</mgrwt>
</event>
<event>
 4    5  0.6615028E-008  0.1980357E+04  0.7818608E-02  0.8628828E-01
         -2   -1    0    0    0  501 -0.00000000000E+00  0.00000000000E+00  0.23673840546E+04  0.23673840546E+04  0.25500000000E-02 0.  1.
          2   -1    0    0  501    0  0.00000000000E+00 -0.00000000000E+00 -0.33077772024E+04  0.33077772024E+04  0.25500000000E-02 0. -1.
    8880023    1    1    2    0    0 -0.13695535777E+04  0.12697740236E+04  0.15807551133E+04  0.25338902911E+04  0.65864270000E+03 0.  1.
    8880022    1    1    2    0    0  0.13695535777E+04 -0.12697740236E+04 -0.25211482611E+04  0.31412709658E+04  0.15294330000E+03 0.  0.
<mgrwt>
<rscale>  0 0.19531813E+04</rscale>
<asrwt>0</asrwt>
<pdfrwt beam="1">  1        2 0.50888880E+00 0.19803569E+04</pdfrwt>
<pdfrwt beam="2">  1       -2 0.36421293E+00 0.19803569E+04</pdfrwt>
<totfact> 0.12293811E-02</totfact>
</mgrwt>
</event>
<event>
 4    5  0.6615028E-008  0.8418533E+03  0.7818608E-02  0.9626695E-01
         -2   -1    0    0    0  501 -0.00000000000E+00  0.00000000000E+00  0.68974583240E+03  0.68974583240E+03  0.25500000000E-02 0.  1.
          2   -1    0    0  501    0  0.00000000000E+00 -0.00000000000E+00 -0.90030716475E+03  0.90030716475E+03  0.25500000000E-02 0. -1.
    8880023    1    1    2    0    0 -0.38396911949E+03  0.35703573763E+03 -0.49257897154E+03  0.97537226336E+03  0.65864270000E+03 0.  1.
    8880022    1    1    2    0    0  0.38396911949E+03 -0.35703573763E+03  0.28201763919E+03  0.61468073379E+03  0.15294330000E+03 0.  1.
<mgrwt>
<rscale>  0 0.75554215E+03</rscale>
<asrwt>0</asrwt>
<pdfrwt beam="1">  1        2 0.13850879E+00 0.84185332E+03</pdfrwt>
<pdfrwt beam="2">  1       -2 0.10611474E+00 0.84185332E+03</pdfrwt>
<totfact> 0.21143406E+01</totfact>
</mgrwt>
</event>
<event>
 4    5  0.6615028E-008  0.8244489E+03  0.7818608E-02  0.9660231E-01
          2   -1    0    0  501    0  0.00000000000E+00  0.00000000000E+00  0.10857864651E+04  0.10857864651E+04  0.25500000000E-02 0. -1.
         -2   -1    0    0    0  501 -0.00000000000E+00 -0.00000000000E+00 -0.85346136657E+03  0.85346136657E+03  0.25500000000E-02 0.  1.
    8880023    1    1    2    0    0  0.49458793133E+03 -0.35897524363E+02  0.81479437440E+03  0.11591401696E+04  0.65864270000E+03 0. -1.
    8880022    1    1    2    0    0 -0.49458793133E+03  0.35897524363E+02 -0.58246927585E+03  0.78010766205E+03  0.15294330000E+03 0.  0.
<mgrwt>
<rscale>  0 0.73434791E+03</rscale>
<asrwt>0</asrwt>
<pdfrwt beam="1">  1        2 0.16704407E+00 0.82444894E+03</pdfrwt>
<pdfrwt beam="2">  1       -2 0.13130175E+00 0.82444894E+03</pdfrwt>
<totfact> 0.95056113E+00</totfact>
</mgrwt>
</event>
<event>
 4    5  0.6615028E-008  0.7198332E+03  0.7818608E-02  0.9923151E-01
          2   -1    0    0  501    0  0.00000000000E+00  0.00000000000E+00  0.20656088948E+04  0.20656088948E+04  0.25500000000E-02 0. -1.
         -2   -1    0    0    0  501 -0.00000000000E+00 -0.00000000000E+00 -0.60931042268E+03  0.60931042269E+03  0.25500000000E-02 0.  1.
    8880023    1    1    2    0    0 -0.29037676603E+03 -0.55593060643E+01  0.19519419983E+04  0.20804416221E+04  0.65864270000E+03 0. -1.
    8880022    1    1    2    0    0  0.29037676603E+03  0.55593060643E+01 -0.49564352622E+03  0.59447769532E+03  0.15294330000E+03 0.  0.
<mgrwt>
<rscale>  0 0.59152299E+03</rscale>
<asrwt>0</asrwt>
<pdfrwt beam="1">  1        2 0.31778598E+00 0.71983316E+03</pdfrwt>
<pdfrwt beam="2">  1       -2 0.93740067E-01 0.71983316E+03</pdfrwt>
<totfact> 0.61576399E+00</totfact>
</mgrwt>
</event>
<event>
 4    5  0.6615028E-008  0.6754141E+03  0.7818608E-02  0.1012047E+00
         -2   -1    0    0    0  501 -0.00000000000E+00  0.00000000000E+00  0.32552135804E+03  0.32552135805E+03  0.25500000000E-02 0.  1.
          2   -1    0    0  501    0  0.00000000000E+00 -0.00000000000E+00 -0.20671031504E+04  0.20671031504E+04  0.25500000000E-02 0. -1.
    8880023    1    1    2    0    0 -0.92461489514E+02 -0.11757920904E+03 -0.19682700701E+04  0.20809303863E+04  0.65864270000E+03 0. -1.
    8880022    1    1    2    0    0  0.92461489514E+02  0.11757920904E+03  0.22668827781E+03  0.31169412210E+03  0.15294330000E+03 0.  0.
<mgrwt>
<rscale>  0 0.50669317E+03</rscale>
<asrwt>0</asrwt>
<pdfrwt beam="1">  1        2 0.31801586E+00 0.67541410E+03</pdfrwt>
<pdfrwt beam="2">  1       -2 0.50080210E-01 0.67541410E+03</pdfrwt>
<totfact> 0.24186849E+01</totfact>
</mgrwt>
</event>
<event>
 4    5  0.6615028E-008  0.7682065E+03  0.7818608E-02  0.9784307E-01
          2   -1    0    0  501    0  0.00000000000E+00  0.00000000000E+00  0.39394953763E+04  0.39394953763E+04  0.25500000000E-02 0. -1.
         -2   -1    0    0    0  501 -0.00000000000E+00 -0.00000000000E+00 -0.26969547531E+03  0.26969547532E+03  0.25500000000E-02 0.  1.
    8880023    1    1    2    0    0  0.39538627223E+03 -0.81268288172E+00  0.37049923007E+04  0.37837955969E+04  0.65864270000E+03 0. -1.
    8880022    1    1    2    0    0 -0.39538627223E+03  0.81268288172E+00 -0.35192399699E+02  0.42539525471E+03  0.15294330000E+03 0.  0.
<mgrwt>
<rscale>  0 0.66211558E+03</rscale>
<asrwt>0</asrwt>
<pdfrwt beam="1">  1        2 0.60607615E+00 0.76820646E+03</pdfrwt>
<pdfrwt beam="2">  1       -2 0.41491616E-01 0.76820646E+03</pdfrwt>
<totfact> 0.23191995E+00</totfact>
</mgrwt>
</event>
<event>
 4    5  0.6615028E-008  0.1092876E+04  0.7818608E-02  0.9269030E-01
          2   -1    0    0  501    0  0.00000000000E+00  0.00000000000E+00  0.85174564514E+03  0.85174564515E+03  0.25500000000E-02 0. -1.
         -2   -1    0    0    0  501 -0.00000000000E+00 -0.00000000000E+00 -0.14871121056E+04  0.14871121056E+04  0.25500000000E-02 0.  1.
    8880023    1    1    2    0    0  0.57066830476E+02 -0.87023581567E+03  0.21206041099E+03  0.11132595484E+04  0.65864270000E+03 0.  0.
    8880022    1    1    2    0    0 -0.57066830476E+02  0.87023581567E+03 -0.84742687143E+03  0.12255982023E+04  0.15294330000E+03 0.  0.
<mgrwt>
<rscale>  0 0.10368471E+04</rscale>
<asrwt>0</asrwt>
<pdfrwt beam="1">  1        2 0.13103779E+00 0.10928757E+04</pdfrwt>
<pdfrwt beam="2">  1       -2 0.22878648E+00 0.10928757E+04</pdfrwt>
<totfact> 0.27126965E+00</totfact>
</mgrwt>
</event>
<event>
 4    5  0.6615028E-008  0.9036183E+03  0.7818608E-02  0.9520248E-01
          2   -1    0    0  501    0  0.00000000000E+00  0.00000000000E+00  0.39498448946E+03  0.39498448947E+03  0.25500000000E-02 0. -1.
         -2   -1    0    0    0  501 -0.00000000000E+00 -0.00000000000E+00 -0.24696036776E+04  0.24696036776E+04  0.25500000000E-02 0.  1.
    8880023    1    1    2    0    0  0.41075625804E+03  0.46259615022E+03 -0.25843844274E+03  0.93984920953E+03  0.65864270000E+03 0. -1.
    8880022    1    1    2    0    0 -0.41075625804E+03 -0.46259615022E+03 -0.18161807454E+04  0.19247389576E+04  0.15294330000E+03 0.  0.
<mgrwt>
<rscale>  0 0.82807355E+03</rscale>
<asrwt>0</asrwt>
<pdfrwt beam="1">  1        2 0.60766846E-01 0.90361834E+03</pdfrwt>
<pdfrwt beam="2">  1       -2 0.37993902E+00 0.90361834E+03</pdfrwt>
<totfact> 0.83537116E-01</totfact>
</mgrwt>
</event>
<event>
 4    5  0.6615028E-008  0.7150847E+03  0.7818608E-02  0.9939583E-01
          2   -1    0    0  501    0  0.00000000000E+00  0.00000000000E+00  0.41487086239E+03  0.41487086240E+03  0.25500000000E-02 0. -1.
         -2   -1    0    0    0  501 -0.00000000000E+00 -0.00000000000E+00 -0.12816213666E+04  0.12816213666E+04  0.25500000000E-02 0.  1.
    8880023    1    1    2    0    0  0.25407889198E+03 -0.11392905738E+03  0.59226398161E+02  0.71753319503E+03  0.65864270000E+03 0. -1.
    8880022    1    1    2    0    0 -0.25407889198E+03  0.11392905738E+03 -0.92597690241E+03  0.97895903401E+03  0.15294330000E+03 0.  0.
<mgrwt>
<rscale>  0 0.58380705E+03</rscale>
<asrwt>0</asrwt>
<pdfrwt beam="1">  1        2 0.63826287E-01 0.71508469E+03</pdfrwt>
<pdfrwt beam="2">  1       -2 0.19717252E+00 0.71508469E+03</pdfrwt>
<totfact> 0.10825517E+01</totfact>
</mgrwt>
</event>
<event>
 4    5  0.6615028E-008  0.1296370E+04  0.7818608E-02  0.9068701E-01
          2   -1    0    0  501    0  0.00000000000E+00  0.00000000000E+00  0.43502223532E+04  0.43502223532E+04  0.25500000000E-02 0. -1.
         -2   -1    0    0    0  501 -0.00000000000E+00 -0.00000000000E+00 -0.51302508857E+03  0.51302508857E+03  0.25500000000E-02 0.  1.
    8880023    1    1    2    0    0 -0.11140445716E+04  0.75293089635E+02  0.58676918270E+03  0.14229801955E+04  0.65864270000E+03 0.  0.
    8880022    1    1    2    0    0  0.11140445716E+04 -0.75293089635E+02  0.32504280819E+04  0.34402672462E+04  0.15294330000E+03 0.  0.
<mgrwt>
<rscale>  0 0.12517823E+04</rscale>
<asrwt>0</asrwt>
<pdfrwt beam="1">  1        2 0.66926501E+00 0.12963698E+04</pdfrwt>
<pdfrwt beam="2">  1       -2 0.78926933E-01 0.12963698E+04</pdfrwt>
<totfact> 0.24605326E-01</totfact>
</mgrwt>
</event>
<event>
 4    5  0.6615028E-008  0.9095813E+03  0.7818608E-02  0.9510822E-01
         -2   -1    0    0    0  501 -0.00000000000E+00  0.00000000000E+00  0.16578426153E+04  0.16578426153E+04  0.25500000000E-02 0.  1.
          2   -1    0    0  501    0  0.00000000000E+00 -0.00000000000E+00 -0.14515344398E+04  0.14515344398E+04  0.25500000000E-02 0. -1.
    8880023    1    1    2    0    0 -0.43011391939E+03 -0.45665076920E+03 -0.12328098330E+04  0.15320437981E+04  0.65864270000E+03 0.  0.
    8880022    1    1    2    0    0  0.43011391939E+03  0.45665076920E+03  0.14391180085E+04  0.15773332571E+04  0.15294330000E+03 0.  0.
<mgrwt>
<rscale>  0 0.83490617E+03</rscale>
<asrwt>0</asrwt>
<pdfrwt beam="1">  1        2 0.22331299E+00 0.90958129E+03</pdfrwt>
<pdfrwt beam="2">  1       -2 0.25505271E+00 0.90958129E+03</pdfrwt>
<totfact> 0.81937083E-01</totfact>
</mgrwt>
</event>
<event>
 4    5  0.6615028E-008  0.8697536E+03  0.7818608E-02  0.9576444E-01
         -2   -1    0    0    0  501 -0.00000000000E+00  0.00000000000E+00  0.12795081206E+04  0.12795081206E+04  0.25500000000E-02 0.  1.
          2   -1    0    0  501    0  0.00000000000E+00 -0.00000000000E+00 -0.78438521551E+03  0.78438521551E+03  0.25500000000E-02 0. -1.
    8880023    1    1    2    0    0 -0.22375657051E+03 -0.52210549875E+03 -0.42792832848E+03  0.96932657822E+03  0.65864270000E+03 0.  0.
    8880022    1    1    2    0    0  0.22375657051E+03  0.52210549875E+03  0.92305123356E+03  0.10945667579E+04  0.15294330000E+03 0.  0.
<mgrwt>
<rscale>  0 0.78875111E+03</rscale>
<asrwt>0</asrwt>
<pdfrwt beam="1">  1        2 0.12067465E+00 0.86975362E+03</pdfrwt>
<pdfrwt beam="2">  1       -2 0.19684740E+00 0.86975362E+03</pdfrwt>
<totfact> 0.49652408E+00</totfact>
</mgrwt>
</event>
<event>
 4    5  0.6615028E-008  0.1347567E+04  0.7818608E-02  0.9025534E-01
         -2   -1    0    0    0  501 -0.00000000000E+00  0.00000000000E+00  0.25791544788E+04  0.25791544788E+04  0.25500000000E-02 0.  1.
          2   -1    0    0  501    0  0.00000000000E+00 -0.00000000000E+00 -0.11592927735E+04  0.11592927735E+04  0.25500000000E-02 0. -1.
    8880023    1    1    2    0    0  0.63808090040E+03 -0.98741077594E+03 -0.53687767756E+03  0.14505775136E+04  0.65864270000E+03 0.  0.
    8880022    1    1    2    0    0 -0.63808090040E+03  0.98741077594E+03  0.19567393829E+04  0.22878697387E+04  0.15294330000E+03 0.  0.
<mgrwt>
<rscale>  0 0.13050959E+04</rscale>
<asrwt>0</asrwt>
<pdfrwt beam="1">  1        2 0.17835274E+00 0.13475672E+04</pdfrwt>
<pdfrwt beam="2">  1       -2 0.39679299E+00 0.13475672E+04</pdfrwt>
<totfact> 0.15061034E-01</totfact>
</mgrwt>
</event>
<event>
 4    5  0.6615028E-008  0.1783990E+04  0.7818608E-02  0.8731444E-01
         -2   -1    0    0    0  501 -0.00000000000E+00  0.00000000000E+00  0.18559761008E+04  0.18559761008E+04  0.25500000000E-02 0.  1.
          2   -1    0    0  501    0  0.00000000000E+00 -0.00000000000E+00 -0.21687246060E+04  0.21687246060E+04  0.25500000000E-02 0. -1.
    8880023    1    1    2    0    0 -0.81761522814E+03  0.14423302573E+04 -0.11883123146E+04  0.21435269057E+04  0.65864270000E+03 0.  0.
    8880022    1    1    2    0    0  0.81761522814E+03 -0.14423302573E+04  0.87556380946E+03  0.18811738011E+04  0.15294330000E+03 0.  0.
<mgrwt>
<rscale>  0 0.17534666E+04</rscale>
<asrwt>0</asrwt>
<pdfrwt beam="1">  1        2 0.33364994E+00 0.17839903E+04</pdfrwt>
<pdfrwt beam="2">  1       -2 0.28553478E+00 0.17839903E+04</pdfrwt>
<totfact> 0.19033064E-01</totfact>
</mgrwt>
</event>
<event>
 4    5  0.6615028E-008  0.1805205E+04  0.7818608E-02  0.8719663E-01
          2   -1    0    0  501    0  0.00000000000E+00  0.00000000000E+00  0.34675677521E+04  0.34675677521E+04  0.25500000000E-02 0. -1.
         -2   -1    0    0    0  501 -0.00000000000E+00 -0.00000000000E+00 -0.13712272397E+04  0.13712272397E+04  0.25500000000E-02 0.  1.
    8880023    1    1    2    0    0  0.13007929322E+04  0.10643745270E+04  0.25189226208E+04  0.30989896357E+04  0.65864270000E+03 0.  0.
    8880022    1    1    2    0    0 -0.13007929322E+04 -0.10643745270E+04 -0.42258210843E+03  0.17398053562E+04  0.15294330000E+03 0.  0.
<mgrwt>
<rscale>  0 0.17750845E+04</rscale>
<asrwt>0</asrwt>
<pdfrwt beam="1">  1        2 0.53347195E+00 0.18052051E+04</pdfrwt>
<pdfrwt beam="2">  1       -2 0.21095804E+00 0.18052051E+04</pdfrwt>
<totfact> 0.88112167E-02</totfact>
</mgrwt>
</event>
<event>
 4    5  0.6615028E-008  0.6636979E+03  0.7818608E-02  0.1020652E+00
          2   -1    0    0  501    0  0.00000000000E+00  0.00000000000E+00  0.22147282192E+04  0.22147282192E+04  0.25500000000E-02 0. -1.
         -2   -1    0    0    0  501 -0.00000000000E+00 -0.00000000000E+00 -0.33709898204E+03  0.33709898205E+03  0.25500000000E-02 0.  1.
    8880023    1    1    2    0    0 -0.41264806147E+02 -0.70582887844E+02  0.21381901109E+04  0.22388282393E+04  0.65864270000E+03 0. -1.
    8880022    1    1    2    0    0  0.41264806147E+02  0.70582887844E+02 -0.26056087373E+03  0.31299896201E+03  0.15294330000E+03 0.  0.
<mgrwt>
<rscale>  0 0.47452166E+03</rscale>
<asrwt>0</asrwt>
<pdfrwt beam="1">  1        2 0.34072742E+00 0.66369792E+03</pdfrwt>
<pdfrwt beam="2">  1       -2 0.51861381E-01 0.66369792E+03</pdfrwt>
<totfact> 0.18734571E+01</totfact>
</mgrwt>
</event>
<event>
 4    5  0.6615028E-008  0.1047720E+04  0.7818608E-02  0.9321628E-01
          2   -1    0    0  501    0  0.00000000000E+00  0.00000000000E+00  0.12121268129E+04  0.12121268129E+04  0.25500000000E-02 0. -1.
         -2   -1    0    0    0  501 -0.00000000000E+00 -0.00000000000E+00 -0.14026889035E+04  0.14026889035E+04  0.25500000000E-02 0.  1.
    8880023    1    1    2    0    0 -0.52880535987E+03  0.61989613886E+03  0.80355036717E+03  0.13203824183E+04  0.65864270000E+03 0.  0.
    8880022    1    1    2    0    0  0.52880535987E+03 -0.61989613886E+03 -0.99411245775E+03  0.12944332981E+04  0.15294330000E+03 0.  0.
<mgrwt>
<rscale>  0 0.98815930E+03</rscale>
<asrwt>0</asrwt>
<pdfrwt beam="1">  1        2 0.18648105E+00 0.10477197E+04</pdfrwt>
<pdfrwt beam="2">  1       -2 0.21579829E+00 0.10477197E+04</pdfrwt>
<totfact> 0.19336506E+00</totfact>
</mgrwt>
</event>
<event>
 4    5  0.6615028E-008  0.1703844E+04  0.7818608E-02  0.8777678E-01
         -2   -1    0    0    0  501 -0.00000000000E+00  0.00000000000E+00  0.21904009840E+04  0.21904009840E+04  0.25500000000E-02 0.  1.
          2   -1    0    0  501    0  0.00000000000E+00 -0.00000000000E+00 -0.20404079020E+04  0.20404079020E+04  0.25500000000E-02 0. -1.
    8880023    1    1    2    0    0 -0.15014678870E+04 -0.46354046951E+03 -0.12559567642E+04  0.21167222734E+04  0.65864270000E+03 0. -1.
    8880022    1    1    2    0    0  0.15014678870E+04  0.46354046951E+03  0.14059498462E+04  0.21140866127E+04  0.15294330000E+03 0.  0.
<mgrwt>
<rscale>  0 0.16716890E+04</rscale>
<asrwt>0</asrwt>
<pdfrwt beam="1">  1        2 0.31390891E+00 0.17038444E+04</pdfrwt>
<pdfrwt beam="2">  1       -2 0.33698477E+00 0.17038444E+04</pdfrwt>
<totfact> 0.10915009E-01</totfact>
</mgrwt>
</event>
<event>
 4    5  0.6615028E-008  0.7771810E+03  0.7818608E-02  0.9762501E-01
         -2   -1    0    0    0  501 -0.00000000000E+00  0.00000000000E+00  0.56992437606E+03  0.56992437606E+03  0.25500000000E-02 0.  1.
          2   -1    0    0  501    0  0.00000000000E+00 -0.00000000000E+00 -0.32217726001E+04  0.32217726001E+04  0.25500000000E-02 0. -1.
    8880023    1    1    2    0    0 -0.36720308459E+03  0.18804795485E+03 -0.30807376263E+04  0.31772558391E+04  0.65864270000E+03 0.  0.
    8880022    1    1    2    0    0  0.36720308459E+03 -0.18804795485E+03  0.42888940220E+03  0.61444113713E+03  0.15294330000E+03 0.  0.
<mgrwt>
<rscale>  0 0.67414374E+03</rscale>
<asrwt>0</asrwt>
<pdfrwt beam="1">  1        2 0.49565731E+00 0.77718102E+03</pdfrwt>
<pdfrwt beam="2">  1       -2 0.87680675E-01 0.77718102E+03</pdfrwt>
<totfact> 0.15069416E+00</totfact>
</mgrwt>
</event>
<event>
 4    5  0.7030569E-008  0.6915927E+03  0.7818608E-02  0.1003405E+00
         -2   -1    0    0    0  501 -0.00000000000E+00  0.00000000000E+00  0.20046278438E+04  0.20046278438E+04  0.25500000000E-02 0.  1.
          2   -1    0    0  501    0  0.00000000000E+00 -0.00000000000E+00 -0.17340116387E+04  0.17340116387E+04  0.25500000000E-02 0. -1.
    8880023    1    1    2    0    0  0.78845485496E+02 -0.19563645332E+03 -0.16559336653E+04  0.17945519616E+04  0.65864270000E+03 0. -1.
    8880022    1    1    2    0    0 -0.78845485496E+02  0.19563645332E+03  0.19265498705E+04  0.19440875209E+04  0.15294330000E+03 0.  0.
<mgrwt>
<rscale>  0 0.54182249E+03</rscale>
<asrwt>0</asrwt>
<pdfrwt beam="1">  1        2 0.26677102E+00 0.69159268E+03</pdfrwt>
<pdfrwt beam="2">  1       -2 0.30840428E+00 0.69159268E+03</pdfrwt>
<totfact> 0.28564275E-01</totfact>
</mgrwt>
</event>
<event>
 4    5  0.6615028E-008  0.8653928E+03  0.7818608E-02  0.9584042E-01
         -2   -1    0    0    0  501 -0.00000000000E+00  0.00000000000E+00  0.13313267827E+04  0.13313267827E+04  0.25500000000E-02 0.  1.
          2   -1    0    0  501    0  0.00000000000E+00 -0.00000000000E+00 -0.48695033766E+03  0.48695033767E+03  0.25500000000E-02 0. -1.
    8880023    1    1    2    0    0 -0.56016803479E+03 -0.36143296103E+02  0.96507949118E+02  0.87075746081E+03  0.65864270000E+03 0.  0.
    8880022    1    1    2    0    0  0.56016803479E+03  0.36143296103E+02  0.74786849596E+03  0.94751965959E+03  0.15294330000E+03 0.  0.
<mgrwt>
<rscale>  0 0.78361474E+03</rscale>
<asrwt>0</asrwt>
<pdfrwt beam="1">  1        2 0.74915437E-01 0.86539284E+03</pdfrwt>
<pdfrwt beam="2">  1       -2 0.20481950E+00 0.86539284E+03</pdfrwt>
<totfact> 0.79168789E+00</totfact>
</mgrwt>
</event>
<event>
 4    5  0.6615028E-008  0.8135616E+03  0.7818608E-02  0.9682205E-01
         -2   -1    0    0    0  501 -0.00000000000E+00  0.00000000000E+00  0.12394815501E+04  0.12394815501E+04  0.25500000000E-02 0.  1.
          2   -1    0    0  501    0  0.00000000000E+00 -0.00000000000E+00 -0.67602467111E+03  0.67602467112E+03  0.25500000000E-02 0. -1.
    8880023    1    1    2    0    0  0.42731465227E+03  0.21324723720E+03 -0.34036644296E+03  0.88189098985E+03  0.65864270000E+03 0. -1.
    8880022    1    1    2    0    0 -0.42731465227E+03 -0.21324723720E+03  0.90382332198E+03  0.10336152314E+04  0.15294330000E+03 0.  0.
<mgrwt>
<rscale>  0 0.72086221E+03</rscale>
<asrwt>0</asrwt>
<pdfrwt beam="1">  1        2 0.10400380E+00 0.81356155E+03</pdfrwt>
<pdfrwt beam="2">  1       -2 0.19068947E+00 0.81356155E+03</pdfrwt>
<totfact> 0.66440395E+00</totfact>
</mgrwt>
</event>
<event>
 4    5  0.6615028E-008  0.6800518E+03  0.7818608E-02  0.1009294E+00
          2   -1    0    0  501    0  0.00000000000E+00  0.00000000000E+00  0.33963218080E+04  0.33963218080E+04  0.25500000000E-02 0. -1.
         -2   -1    0    0    0  501 -0.00000000000E+00 -0.00000000000E+00 -0.77881968686E+03  0.77881968687E+03  0.25500000000E-02 0.  1.
    8880023    1    1    2    0    0  0.96072164221E+02  0.13939304852E+03  0.33446272835E+04  0.34130634559E+04  0.65864270000E+03 0. -1.
    8880022    1    1    2    0    0 -0.96072164221E+02 -0.13939304852E+03 -0.72712516232E+03  0.76207803893E+03  0.15294330000E+03 0.  0.
<mgrwt>
<rscale>  0 0.51756050E+03</rscale>
<asrwt>0</asrwt>
<pdfrwt beam="1">  1        2 0.52251104E+00 0.68005183E+03</pdfrwt>
<pdfrwt beam="2">  1       -2 0.11981842E+00 0.68005183E+03</pdfrwt>
<totfact> 0.56455651E-01</totfact>
</mgrwt>
</event>
<event>
 4    5  0.6615028E-008  0.1564403E+04  0.7818608E-02  0.8865449E-01
          2   -1    0    0  501    0  0.00000000000E+00  0.00000000000E+00  0.36121061193E+04  0.36121061193E+04  0.25500000000E-02 0. -1.
         -2   -1    0    0    0  501 -0.00000000000E+00 -0.00000000000E+00 -0.16052492572E+04  0.16052492573E+04  0.25500000000E-02 0.  1.
    8880023    1    1    2    0    0  0.50094924509E+03  0.13276277196E+04  0.30646717381E+04  0.34408674163E+04  0.65864270000E+03 0.  0.
    8880022    1    1    2    0    0 -0.50094924509E+03 -0.13276277196E+04 -0.10578148760E+04  0.17764879603E+04  0.15294330000E+03 0.  0.
<mgrwt>
<rscale>  0 0.15289160E+04</rscale>
<asrwt>0</asrwt>
<pdfrwt beam="1">  1        2 0.55570863E+00 0.15644027E+04</pdfrwt>
<pdfrwt beam="2">  1       -2 0.24696143E+00 0.15644027E+04</pdfrwt>
<totfact> 0.42616103E-02</totfact>
</mgrwt>
</event>
<event>
 4    5  0.6615028E-008  0.1937830E+04  0.7818608E-02  0.8649897E-01
          2   -1    0    0  501    0  0.00000000000E+00  0.00000000000E+00  0.28382583749E+04  0.28382583749E+04  0.25500000000E-02 0. -1.
         -2   -1    0    0    0  501 -0.00000000000E+00 -0.00000000000E+00 -0.17167705497E+04  0.17167705497E+04  0.25500000000E-02 0.  1.
    8880023    1    1    2    0    0  0.15233702855E+04 -0.10003585836E+04  0.17601186088E+04  0.26178621136E+04  0.65864270000E+03 0.  0.
    8880022    1    1    2    0    0 -0.15233702855E+04  0.10003585836E+04 -0.63863078361E+03  0.19371668110E+04  0.15294330000E+03 0.  0.
<mgrwt>
<rscale>  0 0.19099960E+04</rscale>
<asrwt>0</asrwt>
<pdfrwt beam="1">  1        2 0.43665513E+00 0.19378299E+04</pdfrwt>
<pdfrwt beam="2">  1       -2 0.26411855E+00 0.19378299E+04</pdfrwt>
<totfact> 0.10303895E-01</totfact>
</mgrwt>
</event>
<event>
 4    5  0.6615028E-008  0.1335713E+04  0.7818608E-02  0.9035317E-01
          2   -1    0    0  501    0  0.00000000000E+00  0.00000000000E+00  0.30649002050E+04  0.30649002050E+04  0.25500000000E-02 0. -1.
         -2   -1    0    0    0  501 -0.00000000000E+00 -0.00000000000E+00 -0.83986180688E+03  0.83986180688E+03  0.25500000000E-02 0.  1.
    8880023    1    1    2    0    0 -0.98526264385E+03  0.61609886554E+03  0.23733084917E+04  0.27233662428E+04  0.65864270000E+03 0.  0.
    8880022    1    1    2    0    0  0.98526264385E+03 -0.61609886554E+03 -0.14827009359E+03  0.11813957691E+04  0.15294330000E+03 0.  0.
<mgrwt>
<rscale>  0 0.12927720E+04</rscale>
<asrwt>0</asrwt>
<pdfrwt beam="1">  1        2 0.47152311E+00 0.13357135E+04</pdfrwt>
<pdfrwt beam="2">  1       -2 0.12920951E+00 0.13357135E+04</pdfrwt>
<totfact> 0.67806501E-01</totfact>
</mgrwt>
</event>
<event>
 4    5  0.6615028E-008  0.8378138E+03  0.7818608E-02  0.9634316E-01
          2   -1    0    0  501    0  0.00000000000E+00  0.00000000000E+00  0.17831343352E+04  0.17831343352E+04  0.25500000000E-02 0. -1.
         -2   -1    0    0    0  501 -0.00000000000E+00 -0.00000000000E+00 -0.27067376953E+03  0.27067376954E+03  0.25500000000E-02 0.  1.
    8880023    1    1    2    0    0  0.33212088161E+03  0.39726248779E+03  0.10470157759E+04  0.13409601058E+04  0.65864270000E+03 0. -1.
    8880022    1    1    2    0    0 -0.33212088161E+03 -0.39726248779E+03  0.46544478979E+03  0.71284799892E+03  0.15294330000E+03 0.  1.
<mgrwt>
<rscale>  0 0.75065944E+03</rscale>
<asrwt>0</asrwt>
<pdfrwt beam="1">  1        2 0.27432836E+00 0.83781380E+03</pdfrwt>
<pdfrwt beam="2">  1       -2 0.41642118E-01 0.83781380E+03</pdfrwt>
<totfact> 0.48973502E+01</totfact>
</mgrwt>
</event>
<event>
 4    5  0.6615028E-008  0.7143892E+03  0.7818608E-02  0.9942049E-01
         -2   -1    0    0    0  501 -0.00000000000E+00  0.00000000000E+00  0.39340792808E+03  0.39340792809E+03  0.25500000000E-02 0.  1.
          2   -1    0    0  501    0  0.00000000000E+00 -0.00000000000E+00 -0.16044926922E+04  0.16044926922E+04  0.25500000000E-02 0. -1.
    8880023    1    1    2    0    0  0.80386617930E+02 -0.26472569986E+03 -0.14400885138E+04  0.16075468386E+04  0.65864270000E+03 0. -1.
    8880022    1    1    2    0    0 -0.80386617930E+02  0.26472569986E+03  0.22900374966E+03  0.39035378169E+03  0.15294330000E+03 0.  0.
<mgrwt>
<rscale>  0 0.58265968E+03</rscale>
<asrwt>0</asrwt>
<pdfrwt beam="1">  1        2 0.24684503E+00 0.71438919E+03</pdfrwt>
<pdfrwt beam="2">  1       -2 0.60524297E-01 0.71438919E+03</pdfrwt>
<totfact> 0.29025507E+01</totfact>
</mgrwt>
</event>
<event>
 4    5  0.6615028E-008  0.1012258E+04  0.7818608E-02  0.9365693E-01
          2   -1    0    0  501    0  0.00000000000E+00  0.00000000000E+00  0.62550320949E+03  0.62550320950E+03  0.25500000000E-02 0. -1.
         -2   -1    0    0    0  501 -0.00000000000E+00 -0.00000000000E+00 -0.18271993348E+04  0.18271993348E+04  0.25500000000E-02 0.  1.
    8880023    1    1    2    0    0  0.72769852553E+03 -0.24761115848E+03  0.68423493348E+01  0.10122813116E+04  0.65864270000E+03 0.  0.
    8880022    1    1    2    0    0 -0.72769852553E+03  0.24761115848E+03 -0.12085384747E+04  0.14404212327E+04  0.15294330000E+03 0.  0.
<mgrwt>
<rscale>  0 0.94953603E+03</rscale>
<asrwt>0</asrwt>
<pdfrwt beam="1">  1        2 0.96231264E-01 0.10122582E+04</pdfrwt>
<pdfrwt beam="2">  1       -2 0.28110759E+00 0.10122582E+04</pdfrwt>
<totfact> 0.19576721E+00</totfact>
</mgrwt>
</event>
<event>
 4    5  0.6615028E-008  0.1496559E+04  0.7818608E-02  0.8912070E-01
         -2   -1    0    0    0  501 -0.00000000000E+00  0.00000000000E+00  0.12193805193E+04  0.12193805193E+04  0.25500000000E-02 0.  1.
          2   -1    0    0  501    0  0.00000000000E+00 -0.00000000000E+00 -0.20317342496E+04  0.20317342496E+04  0.25500000000E-02 0. -1.
    8880023    1    1    2    0    0  0.40137862332E+03  0.12824871911E+04  0.26765983908E+03  0.15203059529E+04  0.65864270000E+03 0.  0.
    8880022    1    1    2    0    0 -0.40137862332E+03 -0.12824871911E+04 -0.10800135693E+04  0.17308088160E+04  0.15294330000E+03 0. -1.
<mgrwt>
<rscale>  0 0.14591672E+04</rscale>
<asrwt>0</asrwt>
<pdfrwt beam="1">  1        2 0.31257450E+00 0.14965589E+04</pdfrwt>
<pdfrwt beam="2">  1       -2 0.18759700E+00 0.14965589E+04</pdfrwt>
<totfact> 0.97076462E-01</totfact>
</mgrwt>
</event>
<event>
 4    5  0.7287460E-008  0.7328805E+03  0.7818608E-02  0.9881193E-01
         -2   -1    0    0    0  501 -0.00000000000E+00  0.00000000000E+00  0.19372149679E+04  0.19372149679E+04  0.25500000000E-02 0.  1.
          2   -1    0    0  501    0  0.00000000000E+00 -0.00000000000E+00 -0.26552225439E+04  0.26552225439E+04  0.25500000000E-02 0. -1.
    8880023    1    1    2    0    0 -0.32130065694E+03 -0.83388078925E+01 -0.25875379300E+04  0.26893245236E+04  0.65864270000E+03 0. -1.
    8880022    1    1    2    0    0  0.32130065694E+03  0.83388078925E+01  0.18695303540E+04  0.19031129881E+04  0.15294330000E+03 0.  0.
<mgrwt>
<rscale>  0 0.61181475E+03</rscale>
<asrwt>0</asrwt>
<pdfrwt beam="1">  1        2 0.40849578E+00 0.73288052E+03</pdfrwt>
<pdfrwt beam="2">  1       -2 0.29803307E+00 0.73288052E+03</pdfrwt>
<totfact> 0.10068589E-01</totfact>
</mgrwt>
</event>
<event>
 4    5  0.6615028E-008  0.1115789E+04  0.7818608E-02  0.9243678E-01
         -2   -1    0    0    0  501 -0.00000000000E+00  0.00000000000E+00  0.19113413360E+04  0.19113413360E+04  0.25500000000E-02 0.  1.
          2   -1    0    0  501    0  0.00000000000E+00 -0.00000000000E+00 -0.79571156599E+03  0.79571156599E+03  0.25500000000E-02 0. -1.
    8880023    1    1    2    0    0 -0.69627185548E+03 -0.57129630166E+03 -0.17127866007E+03  0.11288580720E+04  0.65864270000E+03 0.  0.
    8880022    1    1    2    0    0  0.69627185548E+03  0.57129630166E+03  0.12869084301E+04  0.15781948300E+04  0.15294330000E+03 0.  0.
<mgrwt>
<rscale>  0 0.10613753E+04</rscale>
<asrwt>0</asrwt>
<pdfrwt beam="1">  1        2 0.12241717E+00 0.11157886E+04</pdfrwt>
<pdfrwt beam="2">  1       -2 0.29405251E+00 0.11157886E+04</pdfrwt>
<totfact> 0.11863966E+00</totfact>
</mgrwt>
</event>
<event>
 4    5  0.6615028E-008  0.7572424E+03  0.7818608E-02  0.9812300E-01
         -2   -1    0    0    0  501 -0.00000000000E+00  0.00000000000E+00  0.11474869197E+04  0.11474869198E+04  0.25500000000E-02 0.  1.
          2   -1    0    0  501    0  0.00000000000E+00 -0.00000000000E+00 -0.53588165230E+03  0.53588165231E+03  0.25500000000E-02 0. -1.
    8880023    1    1    2    0    0 -0.37336975003E+03  0.14170749504E+02 -0.19449145831E+03  0.78182025684E+03  0.65864270000E+03 0. -1.
    8880022    1    1    2    0    0  0.37336975003E+03 -0.14170749504E+02  0.80609672576E+03  0.90154831522E+03  0.15294330000E+03 0.  0.
<mgrwt>
<rscale>  0 0.64706628E+03</rscale>
<asrwt>0</asrwt>
<pdfrwt beam="1">  1        2 0.82443331E-01 0.75724236E+03</pdfrwt>
<pdfrwt beam="2">  1       -2 0.17653645E+00 0.75724236E+03</pdfrwt>
<totfact> 0.11052013E+01</totfact>
</mgrwt>
</event>
<event>
 4    5  0.6615028E-008  0.7580015E+03  0.7818608E-02  0.9810309E-01
         -2   -1    0    0    0  501 -0.00000000000E+00  0.00000000000E+00  0.26128207949E+04  0.26128207949E+04  0.25500000000E-02 0.  1.
          2   -1    0    0  501    0  0.00000000000E+00 -0.00000000000E+00 -0.22067637429E+04  0.22067637429E+04  0.25500000000E-02 0. -1.
    8880023    1    1    2    0    0  0.32652445770E+03 -0.18476427489E+03 -0.21250832688E+04  0.22562236512E+04  0.65864270000E+03 0. -1.
    8880022    1    1    2    0    0 -0.32652445770E+03  0.18476427489E+03  0.25311403208E+04  0.25633608866E+04  0.15294330000E+03 0.  0.
<mgrwt>
<rscale>  0 0.64812220E+03</rscale>
<asrwt>0</asrwt>
<pdfrwt beam="1">  1        2 0.33950211E+00 0.75800149E+03</pdfrwt>
<pdfrwt beam="2">  1       -2 0.40197243E+00 0.75800149E+03</pdfrwt>
<totfact> 0.40303872E-02</totfact>
</mgrwt>
</event>
<event>
 4    5  0.6615028E-008  0.1255153E+04  0.7818608E-02  0.9105289E-01
          2   -1    0    0  501    0  0.00000000000E+00  0.00000000000E+00  0.28188684398E+04  0.28188684398E+04  0.25500000000E-02 0. -1.
         -2   -1    0    0    0  501 -0.00000000000E+00 -0.00000000000E+00 -0.89129839534E+03  0.89129839535E+03  0.25500000000E-02 0.  1.
    8880023    1    1    2    0    0  0.18362730412E+03  0.10525586356E+04  0.22562591539E+04  0.25818819191E+04  0.65864270000E+03 0.  0.
    8880022    1    1    2    0    0 -0.18362730412E+03 -0.10525586356E+04 -0.32868910946E+03  0.11282849161E+04  0.15294330000E+03 0.  0.
<mgrwt>
<rscale>  0 0.12086840E+04</rscale>
<asrwt>0</asrwt>
<pdfrwt beam="1">  1        2 0.43367206E+00 0.12551529E+04</pdfrwt>
<pdfrwt beam="2">  1       -2 0.13712283E+00 0.12551529E+04</pdfrwt>
<totfact> 0.83313477E-01</totfact>
</mgrwt>
</event>
<event>
 4    5  0.6615028E-008  0.7014374E+03  0.7818608E-02  0.9991290E-01
          2   -1    0    0  501    0  0.00000000000E+00  0.00000000000E+00  0.35141094197E+04  0.35141094197E+04  0.25500000000E-02 0. -1.
         -2   -1    0    0    0  501 -0.00000000000E+00 -0.00000000000E+00 -0.29222195292E+03  0.29222195293E+03  0.25500000000E-02 0.  1.
    8880023    1    1    2    0    0  0.24033649784E+03  0.21039324942E+02  0.33987392186E+04  0.34703663737E+04  0.65864270000E+03 0. -1.
    8880022    1    1    2    0    0 -0.24033649784E+03 -0.21039324942E+02 -0.17685175180E+03  0.33596499895E+03  0.15294330000E+03 0.  0.
<mgrwt>
<rscale>  0 0.56033826E+03</rscale>
<asrwt>0</asrwt>
<pdfrwt beam="1">  1        2 0.54063217E+00 0.70143745E+03</pdfrwt>
<pdfrwt beam="2">  1       -2 0.44957227E-01 0.70143745E+03</pdfrwt>
<totfact> 0.40903226E+00</totfact>
</mgrwt>
</event>
<event>
 4    5  0.6615028E-008  0.8371882E+03  0.7818608E-02  0.9635505E-01
         -2   -1    0    0    0  501 -0.00000000000E+00  0.00000000000E+00  0.19208061924E+04  0.19208061924E+04  0.25500000000E-02 0.  1.
          2   -1    0    0  501    0  0.00000000000E+00 -0.00000000000E+00 -0.91957135636E+03  0.91957135637E+03  0.25500000000E-02 0. -1.
    8880023    1    1    2    0    0 -0.48300750432E+03  0.18378668251E+03 -0.67766995512E+03  0.10770889324E+04  0.65864270000E+03 0. -1.
    8880022    1    1    2    0    0  0.48300750432E+03 -0.18378668251E+03  0.16789047912E+04  0.17632886164E+04  0.15294330000E+03 0.  0.
<mgrwt>
<rscale>  0 0.74990131E+03</rscale>
<asrwt>0</asrwt>
<pdfrwt beam="1">  1        2 0.14147252E+00 0.83718815E+03</pdfrwt>
<pdfrwt beam="2">  1       -2 0.29550864E+00 0.83718815E+03</pdfrwt>
<totfact> 0.99042293E-01</totfact>
</mgrwt>
</event>
<event>
 4    5  0.6615028E-008  0.1024200E+04  0.7818608E-02  0.9350559E-01
         -2   -1    0    0    0  501 -0.00000000000E+00  0.00000000000E+00  0.10192315228E+04  0.10192315228E+04  0.25500000000E-02 0.  1.
          2   -1    0    0  501    0  0.00000000000E+00 -0.00000000000E+00 -0.97841548481E+03  0.97841548482E+03  0.25500000000E-02 0. -1.
    8880023    1    1    2    0    0  0.68521645004E+02 -0.78133289023E+03 -0.38256023819E+03  0.10933155278E+04  0.65864270000E+03 0. -1.
    8880022    1    1    2    0    0 -0.68521645004E+02  0.78133289023E+03  0.42337627621E+03  0.90433147986E+03  0.15294330000E+03 0.  0.
<mgrwt>
<rscale>  0 0.96258614E+03</rscale>
<asrwt>0</asrwt>
<pdfrwt beam="1">  1        2 0.15052546E+00 0.10242004E+04</pdfrwt>
<pdfrwt beam="2">  1       -2 0.15680485E+00 0.10242004E+04</pdfrwt>
<totfact> 0.68446548E+00</totfact>
</mgrwt>
</event>
<event>
 4    5  0.6615028E-008  0.9670666E+03  0.7818608E-02  0.9425973E-01
         -2   -1    0    0    0  501 -0.00000000000E+00  0.00000000000E+00  0.54400532888E+03  0.54400532888E+03  0.25500000000E-02 0.  1.
          2   -1    0    0  501    0  0.00000000000E+00 -0.00000000000E+00 -0.13419719526E+04  0.13419719526E+04  0.25500000000E-02 0. -1.
    8880023    1    1    2    0    0 -0.63509919951E+03 -0.31313984526E+03 -0.32238095391E+03  0.10193857178E+04  0.65864270000E+03 0.  1.
    8880022    1    1    2    0    0  0.63509919951E+03  0.31313984526E+03 -0.47558566977E+03  0.86659156366E+03  0.15294330000E+03 0.  0.
<mgrwt>
<rscale>  0 0.89968696E+03</rscale>
<asrwt>0</asrwt>
<pdfrwt beam="1">  1        2 0.20645722E+00 0.96706658E+03</pdfrwt>
<pdfrwt beam="2">  1       -2 0.83693128E-01 0.96706658E+03</pdfrwt>
<totfact> 0.19483851E+01</totfact>
</mgrwt>
</event>
<event>
 4    5  0.6615028E-008  0.1068488E+04  0.7818608E-02  0.9296979E-01
          2   -1    0    0  501    0  0.00000000000E+00  0.00000000000E+00  0.18392812442E+04  0.18392812442E+04  0.25500000000E-02 0. -1.
         -2   -1    0    0    0  501 -0.00000000000E+00 -0.00000000000E+00 -0.55312064606E+03  0.55312064606E+03  0.25500000000E-02 0.  1.
    8880023    1    1    2    0    0 -0.39708219598E+03  0.74174296542E+03  0.10661589233E+04  0.15094243781E+04  0.65864270000E+03 0.  0.
    8880022    1    1    2    0    0  0.39708219598E+03 -0.74174296542E+03  0.22000167487E+03  0.88297751222E+03  0.15294330000E+03 0.  0.
<mgrwt>
<rscale>  0 0.10106143E+04</rscale>
<asrwt>0</asrwt>
<pdfrwt beam="1">  1        2 0.28296634E+00 0.10684882E+04</pdfrwt>
<pdfrwt beam="2">  1       -2 0.85095484E-01 0.10684882E+04</pdfrwt>
<totfact> 0.97895160E+00</totfact>
</mgrwt>
</event>
<event>
 4    5  0.6615028E-008  0.1354910E+04  0.7818608E-02  0.9019535E-01
         -2   -1    0    0    0  501 -0.00000000000E+00  0.00000000000E+00  0.22653565573E+04  0.22653565573E+04  0.25500000000E-02 0.  1.
          2   -1    0    0  501    0  0.00000000000E+00 -0.00000000000E+00 -0.74932614407E+03  0.74932614408E+03  0.25500000000E-02 0. -1.
    8880023    1    1    2    0    0  0.10397347219E+04  0.56650037686E+03  0.49098871100E+03  0.14411284084E+04  0.65864270000E+03 0.  0.
    8880022    1    1    2    0    0 -0.10397347219E+04 -0.56650037686E+03  0.10250417023E+04  0.15735542931E+04  0.15294330000E+03 0.  0.
<mgrwt>
<rscale>  0 0.13127243E+04</rscale>
<asrwt>0</asrwt>
<pdfrwt beam="1">  1        2 0.11528095E+00 0.13549100E+04</pdfrwt>
<pdfrwt beam="2">  1       -2 0.34851639E+00 0.13549100E+04</pdfrwt>
<totfact> 0.57825893E-01</totfact>
</mgrwt>
</event>
<event>
 4    5  0.6615028E-008  0.1462504E+04  0.7818608E-02  0.8936577E-01
         -2   -1    0    0    0  501 -0.00000000000E+00  0.00000000000E+00  0.15639215516E+04  0.15639215516E+04  0.25500000000E-02 0.  1.
          2   -1    0    0  501    0  0.00000000000E+00 -0.00000000000E+00 -0.30968714764E+04  0.30968714764E+04  0.25500000000E-02 0. -1.
    8880023    1    1    2    0    0 -0.94707364037E+03  0.89897755125E+03 -0.25896211039E+04  0.29740640184E+04  0.65864270000E+03 0.  0.
    8880022    1    1    2    0    0  0.94707364037E+03 -0.89897755125E+03  0.10566711791E+04  0.16867290096E+04  0.15294330000E+03 0.  0.
<mgrwt>
<rscale>  0 0.14240709E+04</rscale>
<asrwt>0</asrwt>
<pdfrwt beam="1">  1        2 0.47644176E+00 0.14625045E+04</pdfrwt>
<pdfrwt beam="2">  1       -2 0.24060332E+00 0.14625045E+04</pdfrwt>
<totfact> 0.10509568E-01</totfact>
</mgrwt>
</event>
<event>
 4    5  0.6615028E-008  0.7135598E+03  0.7818608E-02  0.9945012E-01
         -2   -1    0    0    0  501 -0.00000000000E+00  0.00000000000E+00  0.32803889569E+03  0.32803889570E+03  0.25500000000E-02 0.  1.
          2   -1    0    0  501    0  0.00000000000E+00 -0.00000000000E+00 -0.19064014790E+04  0.19064014790E+04  0.25500000000E-02 0. -1.
    8880023    1    1    2    0    0 -0.23243730642E+02 -0.27352711246E+03 -0.17403133115E+04  0.18809194509E+04  0.65864270000E+03 0. -1.
    8880022    1    1    2    0    0  0.23243730642E+02  0.27352711246E+03  0.16195072812E+03  0.35352092388E+03  0.15294330000E+03 0.  0.
<mgrwt>
<rscale>  0 0.58128533E+03</rscale>
<asrwt>0</asrwt>
<pdfrwt beam="1">  1        2 0.29329253E+00 0.71355978E+03</pdfrwt>
<pdfrwt beam="2">  1       -2 0.50467524E-01 0.71355978E+03</pdfrwt>
<totfact> 0.28964032E+01</totfact>
</mgrwt>
</event>
<event>
 4    5  0.6615028E-008  0.9248196E+03  0.7818608E-02  0.9487308E-01
          2   -1    0    0  501    0  0.00000000000E+00  0.00000000000E+00  0.12564882913E+04  0.12564882913E+04  0.25500000000E-02 0. -1.
         -2   -1    0    0    0  501 -0.00000000000E+00 -0.00000000000E+00 -0.51255471367E+03  0.51255471368E+03  0.25500000000E-02 0.  1.
    8880023    1    1    2    0    0  0.58237463114E+03 -0.28691620541E+03  0.54300123424E+03  0.10724465798E+04  0.65864270000E+03 0.  1.
    8880022    1    1    2    0    0 -0.58237463114E+03  0.28691620541E+03  0.20093234339E+03  0.69659642517E+03  0.15294330000E+03 0.  0.
<mgrwt>
<rscale>  0 0.85226029E+03</rscale>
<asrwt>0</asrwt>
<pdfrwt beam="1">  1        2 0.19330589E+00 0.92481962E+03</pdfrwt>
<pdfrwt beam="2">  1       -2 0.78854571E-01 0.92481962E+03</pdfrwt>
<totfact> 0.25093094E+01</totfact>
</mgrwt>
</event>
<event>
 4    5  0.6615028E-008  0.1176782E+04  0.7818608E-02  0.9180029E-01
         -2   -1    0    0    0  501 -0.00000000000E+00  0.00000000000E+00  0.97096918358E+03  0.97096918358E+03  0.25500000000E-02 0.  1.
          2   -1    0    0  501    0  0.00000000000E+00 -0.00000000000E+00 -0.36087159280E+04  0.36087159280E+04  0.25500000000E-02 0. -1.
    8880023    1    1    2    0    0  0.97464154013E+03  0.32851555071E+02 -0.32236900525E+04  0.34317623923E+04  0.65864270000E+03 0. -1.
    8880022    1    1    2    0    0 -0.97464154013E+03 -0.32851555071E+02  0.58594330799E+03  0.11479227194E+04  0.15294330000E+03 0.  0.
<mgrwt>
<rscale>  0 0.11261960E+04</rscale>
<asrwt>0</asrwt>
<pdfrwt beam="1">  1        2 0.55518706E+00 0.11767819E+04</pdfrwt>
<pdfrwt beam="2">  1       -2 0.14937988E+00 0.11767819E+04</pdfrwt>
<totfact> 0.20640020E-01</totfact>
</mgrwt>
</event>
<event>
 4    5  0.6615028E-008  0.1380271E+04  0.7818608E-02  0.8999166E-01
          2   -1    0    0  501    0  0.00000000000E+00  0.00000000000E+00  0.11147957982E+04  0.11147957982E+04  0.25500000000E-02 0. -1.
         -2   -1    0    0    0  501 -0.00000000000E+00 -0.00000000000E+00 -0.15851321047E+04  0.15851321047E+04  0.25500000000E-02 0.  1.
    8880023    1    1    2    0    0  0.76643898335E+03 -0.94016409639E+03 -0.52342519945E+03  0.14761847408E+04  0.65864270000E+03 0.  0.
    8880022    1    1    2    0    0 -0.76643898335E+03  0.94016409639E+03  0.53088892945E+02  0.12237431622E+04  0.15294330000E+03 0.  0.
<mgrwt>
<rscale>  0 0.13390399E+04</rscale>
<asrwt>0</asrwt>
<pdfrwt beam="1">  1        2 0.17150704E+00 0.13802708E+04</pdfrwt>
<pdfrwt beam="2">  1       -2 0.24386648E+00 0.13802708E+04</pdfrwt>
<totfact> 0.14292649E+00</totfact>
</mgrwt>
</event>
<event>
 4    5  0.6615028E-008  0.1357106E+04  0.7818608E-02  0.9017750E-01
         -2   -1    0    0    0  501 -0.00000000000E+00  0.00000000000E+00  0.52773166383E+03  0.52773166383E+03  0.25500000000E-02 0.  1.
          2   -1    0    0  501    0  0.00000000000E+00 -0.00000000000E+00 -0.39056210618E+04  0.39056210618E+04  0.25500000000E-02 0. -1.
    8880023    1    1    2    0    0  0.89598625242E+03 -0.77790498800E+03 -0.27851442399E+04  0.30981875635E+04  0.65864270000E+03 0.  0.
    8880022    1    1    2    0    0 -0.89598625242E+03  0.77790498800E+03 -0.59274515804E+03  0.13351651622E+04  0.15294330000E+03 0.  0.
<mgrwt>
<rscale>  0 0.13150052E+04</rscale>
<asrwt>0</asrwt>
<pdfrwt beam="1">  1        2 0.60086476E+00 0.13571064E+04</pdfrwt>
<pdfrwt beam="2">  1       -2 0.81189489E-01 0.13571064E+04</pdfrwt>
<totfact> 0.53901700E-01</totfact>
</mgrwt>
</event>
<event>
 4    5  0.6615028E-008  0.8708565E+03  0.7818608E-02  0.9574536E-01
          2   -1    0    0  501    0  0.00000000000E+00  0.00000000000E+00  0.33467113375E+04  0.33467113375E+04  0.25500000000E-02 0. -1.
         -2   -1    0    0    0  501 -0.00000000000E+00 -0.00000000000E+00 -0.22841983002E+03  0.22841983004E+03  0.25500000000E-02 0.  1.
    8880023    1    1    2    0    0 -0.46122379542E+03  0.33444500980E+03  0.27382990156E+04  0.28734426320E+04  0.65864270000E+03 0.  0.
    8880022    1    1    2    0    0  0.46122379542E+03 -0.33444500980E+03  0.37999249183E+03  0.70168853554E+03  0.15294330000E+03 0.  0.
<mgrwt>
<rscale>  0 0.79004725E+03</rscale>
<asrwt>0</asrwt>
<pdfrwt beam="1">  1        2 0.51487862E+00 0.87085651E+03</pdfrwt>
<pdfrwt beam="2">  1       -2 0.35141515E-01 0.87085651E+03</pdfrwt>
<totfact> 0.82906606E+00</totfact>
</mgrwt>
</event>
<event>
 4    5  0.6615028E-008  0.1126963E+04  0.7818608E-02  0.9231614E-01
          2   -1    0    0  501    0  0.00000000000E+00  0.00000000000E+00  0.27230467595E+04  0.27230467595E+04  0.25500000000E-02 0. -1.
         -2   -1    0    0    0  501 -0.00000000000E+00 -0.00000000000E+00 -0.81333912966E+03  0.81333912967E+03  0.25500000000E-02 0.  1.
    8880023    1    1    2    0    0 -0.58600521823E+03 -0.70202020551E+03  0.22758133192E+04  0.25395611736E+04  0.65864270000E+03 0. -1.
    8880022    1    1    2    0    0  0.58600521823E+03  0.70202020551E+03 -0.36610568931E+03  0.99682471554E+03  0.15294330000E+03 0.  0.
<mgrwt>
<rscale>  0 0.10732993E+04</rscale>
<asrwt>0</asrwt>
<pdfrwt beam="1">  1        2 0.41893028E+00 0.11269626E+04</pdfrwt>
<pdfrwt beam="2">  1       -2 0.12512910E+00 0.11269626E+04</pdfrwt>
<totfact> 0.12213347E+00</totfact>
</mgrwt>
</event>
<event>
 4    5  0.6615028E-008  0.1014840E+04  0.7818608E-02  0.9362395E-01
         -2   -1    0    0    0  501 -0.00000000000E+00  0.00000000000E+00  0.12888560473E+04  0.12888560473E+04  0.25500000000E-02 0.  1.
          2   -1    0    0  501    0  0.00000000000E+00 -0.00000000000E+00 -0.80761525195E+03  0.80761525195E+03  0.25500000000E-02 0. -1.
    8880023    1    1    2    0    0 -0.58134396429E+03 -0.50806432455E+03  0.75312487274E+03  0.12637632068E+04  0.65864270000E+03 0.  0.
    8880022    1    1    2    0    0  0.58134396429E+03  0.50806432455E+03 -0.27188407737E+03  0.83270809245E+03  0.15294330000E+03 0.  0.
<mgrwt>
<rscale>  0 0.95236138E+03</rscale>
<asrwt>0</asrwt>
<pdfrwt beam="1">  1        2 0.12424850E+00 0.10148401E+04</pdfrwt>
<pdfrwt beam="2">  1       -2 0.19828555E+00 0.10148401E+04</pdfrwt>
<totfact> 0.46023173E+00</totfact>
</mgrwt>
</event>
<event>
 4    5  0.6615028E-008  0.1038127E+04  0.7818608E-02  0.9333292E-01
          2   -1    0    0  501    0  0.00000000000E+00  0.00000000000E+00  0.25778026155E+04  0.25778026155E+04  0.25500000000E-02 0. -1.
         -2   -1    0    0    0  501 -0.00000000000E+00 -0.00000000000E+00 -0.68866491272E+03  0.68866491272E+03  0.25500000000E-02 0.  1.
    8880023    1    1    2    0    0 -0.23590307652E+03  0.76697262939E+03  0.21676490179E+04  0.24034162658E+04  0.65864270000E+03 0.  0.
    8880022    1    1    2    0    0  0.23590307652E+03 -0.76697262939E+03 -0.27851131517E+03  0.86305126235E+03  0.15294330000E+03 0.  0.
<mgrwt>
<rscale>  0 0.97774832E+03</rscale>
<asrwt>0</asrwt>
<pdfrwt beam="1">  1        2 0.39658502E+00 0.10381269E+04</pdfrwt>
<pdfrwt beam="2">  1       -2 0.10594845E+00 0.10381269E+04</pdfrwt>
<totfact> 0.22652261E+00</totfact>
</mgrwt>
</event>
<event>
 4    5  0.6615028E-008  0.1372635E+04  0.7818608E-02  0.9005243E-01
          2   -1    0    0  501    0  0.00000000000E+00  0.00000000000E+00  0.12131946622E+04  0.12131946622E+04  0.25500000000E-02 0. -1.
         -2   -1    0    0    0  501 -0.00000000000E+00 -0.00000000000E+00 -0.25696346893E+04  0.25696346893E+04  0.25500000000E-02 0.  1.
    8880023    1    1    2    0    0  0.70703657285E+03 -0.97489279281E+03  0.58580259720E+03  0.14924113247E+04  0.65864270000E+03 0. -1.
    8880022    1    1    2    0    0 -0.70703657285E+03  0.97489279281E+03 -0.19422426244E+04  0.22904180269E+04  0.15294330000E+03 0.  0.
<mgrwt>
<rscale>  0 0.13311216E+04</rscale>
<asrwt>0</asrwt>
<pdfrwt beam="1">  1        2 0.18664533E+00 0.13726350E+04</pdfrwt>
<pdfrwt beam="2">  1       -2 0.39532841E+00 0.13726350E+04</pdfrwt>
<totfact> 0.14234520E-01</totfact>
</mgrwt>
</event>
<event>
 4    5  0.6615028E-008  0.1141821E+04  0.7818608E-02  0.9215862E-01
         -2   -1    0    0    0  501 -0.00000000000E+00  0.00000000000E+00  0.64946285421E+03  0.64946285421E+03  0.25500000000E-02 0.  1.
          2   -1    0    0  501    0  0.00000000000E+00 -0.00000000000E+00 -0.19988993378E+04  0.19988993378E+04  0.25500000000E-02 0. -1.
    8880023    1    1    2    0    0 -0.24896370702E+03  0.89886755576E+03 -0.12577935463E+04  0.16987644397E+04  0.65864270000E+03 0.  0.
    8880022    1    1    2    0    0  0.24896370702E+03 -0.89886755576E+03 -0.91642937268E+02  0.94959775230E+03  0.15294330000E+03 0.  0.
<mgrwt>
<rscale>  0 0.10891196E+04</rscale>
<asrwt>0</asrwt>
<pdfrwt beam="1">  1        2 0.30752297E+00 0.11418214E+04</pdfrwt>
<pdfrwt beam="2">  1       -2 0.99917363E-01 0.11418214E+04</pdfrwt>
<totfact> 0.54530188E+00</totfact>
</mgrwt>
</event>
<event>
 4    5  0.6615028E-008  0.7839065E+03  0.7818608E-02  0.9746739E-01
         -2   -1    0    0    0  501 -0.00000000000E+00  0.00000000000E+00  0.49046963328E+03  0.49046963329E+03  0.25500000000E-02 0.  1.
          2   -1    0    0  501    0  0.00000000000E+00 -0.00000000000E+00 -0.34304268925E+04  0.34304268925E+04  0.25500000000E-02 0. -1.
    8880023    1    1    2    0    0  0.37873851748E+03  0.19301907668E+03 -0.32692101006E+04  0.33618810384E+04  0.65864270000E+03 0.  0.
    8880022    1    1    2    0    0 -0.37873851748E+03 -0.19301907668E+03  0.32925284134E+03  0.55901548738E+03  0.15294330000E+03 0.  0.
<mgrwt>
<rscale>  0 0.68300858E+03</rscale>
<asrwt>0</asrwt>
<pdfrwt beam="1">  1        2 0.52775797E+00 0.78390652E+03</pdfrwt>
<pdfrwt beam="2">  1       -2 0.75456869E-01 0.78390652E+03</pdfrwt>
<totfact> 0.15414851E+00</totfact>
</mgrwt>
</event>
<event>
 4    5  0.6615028E-008  0.1197262E+04  0.7818608E-02  0.9159789E-01
         -2   -1    0    0    0  501 -0.00000000000E+00  0.00000000000E+00  0.15068107763E+04  0.15068107763E+04  0.25500000000E-02 0.  1.
          2   -1    0    0  501    0  0.00000000000E+00 -0.00000000000E+00 -0.15770263088E+04  0.15770263088E+04  0.25500000000E-02 0. -1.
    8880023    1    1    2    0    0 -0.78577478300E+03 -0.61820961110E+03 -0.11104403662E+04  0.16329461552E+04  0.65864270000E+03 0.  0.
    8880022    1    1    2    0    0  0.78577478300E+03  0.61820961110E+03  0.10402248336E+04  0.14508909299E+04  0.15294330000E+03 0.  0.
<mgrwt>
<rscale>  0 0.11478288E+04</rscale>
<asrwt>0</asrwt>
<pdfrwt beam="1">  1        2 0.24261943E+00 0.11972616E+04</pdfrwt>
<pdfrwt beam="2">  1       -2 0.23181704E+00 0.11972616E+04</pdfrwt>
<totfact> 0.92908906E-01</totfact>
</mgrwt>
</event>
<event>
 4    5  0.6615028E-008  0.1489573E+04  0.7818608E-02  0.8917034E-01
          2   -1    0    0  501    0  0.00000000000E+00  0.00000000000E+00  0.32569132268E+04  0.32569132268E+04  0.25500000000E-02 0. -1.
         -2   -1    0    0    0  501 -0.00000000000E+00 -0.00000000000E+00 -0.65949325893E+03  0.65949325894E+03  0.25500000000E-02 0.  1.
    8880023    1    1    2    0    0 -0.13254930806E+04 -0.16758831692E+03  0.86225308547E+03  0.17211357704E+04  0.65864270000E+03 0.  0.
    8880022    1    1    2    0    0  0.13254930806E+04  0.16758831692E+03  0.17351668824E+04  0.21952707153E+04  0.15294330000E+03 0.  0.
<mgrwt>
<rscale>  0 0.14519727E+04</rscale>
<asrwt>0</asrwt>
<pdfrwt beam="1">  1        2 0.50106358E+00 0.14895731E+04</pdfrwt>
<pdfrwt beam="2">  1       -2 0.10146050E+00 0.14895731E+04</pdfrwt>
<totfact> 0.91128466E-01</totfact>
</mgrwt>
</event>
<event>
 4    5  0.6615028E-008  0.7265854E+03  0.7818608E-02  0.9900902E-01
          2   -1    0    0  501    0  0.00000000000E+00  0.00000000000E+00  0.61435108434E+03  0.61435108434E+03  0.25500000000E-02 0. -1.
         -2   -1    0    0    0  501 -0.00000000000E+00 -0.00000000000E+00 -0.15352739546E+04  0.15352739546E+04  0.25500000000E-02 0.  1.
    8880023    1    1    2    0    0 -0.30650603888E+03 -0.13043249268E+02  0.36901076668E+03  0.81492038287E+03  0.65864270000E+03 0. -1.
    8880022    1    1    2    0    0  0.30650603888E+03  0.13043249268E+02 -0.12899336370E+04  0.13347046561E+04  0.15294330000E+03 0.  0.
<mgrwt>
<rscale>  0 0.60217578E+03</rscale>
<asrwt>0</asrwt>
<pdfrwt beam="1">  1        2 0.94515552E-01 0.72658536E+03</pdfrwt>
<pdfrwt beam="2">  1       -2 0.23619599E+00 0.72658536E+03</pdfrwt>
<totfact> 0.38836485E+00</totfact>
</mgrwt>
</event>
<event>
 4    5  0.6615028E-008  0.8038441E+03  0.7818608E-02  0.9702545E-01
          2   -1    0    0  501    0  0.00000000000E+00  0.00000000000E+00  0.52461344720E+03  0.52461344721E+03  0.25500000000E-02 0. -1.
         -2   -1    0    0    0  501 -0.00000000000E+00 -0.00000000000E+00 -0.12333715819E+04  0.12333715819E+04  0.25500000000E-02 0.  1.
    8880023    1    1    2    0    0  0.45841116277E+03  0.47056271436E+02  0.10470705856E+03  0.81063485073E+03  0.65864270000E+03 0.  0.
    8880022    1    1    2    0    0 -0.45841116277E+03 -0.47056271436E+02 -0.81346519328E+03  0.94735017841E+03  0.15294330000E+03 0.  0.
<mgrwt>
<rscale>  0 0.70865454E+03</rscale>
<asrwt>0</asrwt>
<pdfrwt beam="1">  1        2 0.80709761E-01 0.80384407E+03</pdfrwt>
<pdfrwt beam="2">  1       -2 0.18974947E+00 0.80384407E+03</pdfrwt>
<totfact> 0.91697265E+00</totfact>
</mgrwt>
</event>
<event>
 4    5  0.6615028E-008  0.1037787E+04  0.7818608E-02  0.9333710E-01
         -2   -1    0    0    0  501 -0.00000000000E+00  0.00000000000E+00  0.68313508570E+03  0.68313508571E+03  0.25500000000E-02 0.  1.
          2   -1    0    0  501    0  0.00000000000E+00 -0.00000000000E+00 -0.16498053761E+04  0.16498053761E+04  0.25500000000E-02 0. -1.
    8880023    1    1    2    0    0  0.15794791593E+03  0.78628457774E+03 -0.10925216255E+04  0.15068525773E+04  0.65864270000E+03 0. -1.
    8880022    1    1    2    0    0 -0.15794791593E+03 -0.78628457774E+03  0.12585133509E+03  0.82608788449E+03  0.15294330000E+03 0.  0.
<mgrwt>
<rscale>  0 0.97737858E+03</rscale>
<asrwt>0</asrwt>
<pdfrwt beam="1">  1        2 0.25381621E+00 0.10377867E+04</pdfrwt>
<pdfrwt beam="2">  1       -2 0.10509771E+00 0.10377867E+04</pdfrwt>
<totfact> 0.76120022E+00</totfact>
</mgrwt>
</event>
<event>
 4    5  0.6615028E-008  0.9384194E+03  0.7818608E-02  0.9466975E-01
          2   -1    0    0  501    0  0.00000000000E+00  0.00000000000E+00  0.87442790376E+03  0.87442790376E+03  0.25500000000E-02 0. -1.
         -2   -1    0    0    0  501 -0.00000000000E+00 -0.00000000000E+00 -0.99389085681E+03  0.99389085681E+03  0.25500000000E-02 0.  1.
    8880023    1    1    2    0    0 -0.65053780661E+03  0.15369255848E+03 -0.52134082262E+03  0.10735116674E+04  0.65864270000E+03 0.  1.
    8880022    1    1    2    0    0  0.65053780661E+03 -0.15369255848E+03  0.40187786957E+03  0.79480709321E+03  0.15294330000E+03 0.  0.
<mgrwt>
<rscale>  0 0.86762992E+03</rscale>
<asrwt>0</asrwt>
<pdfrwt beam="1">  1        2 0.13452737E+00 0.93841944E+03</pdfrwt>
<pdfrwt beam="2">  1       -2 0.15290628E+00 0.93841944E+03</pdfrwt>
<totfact> 0.86655810E+00</totfact>
</mgrwt>
</event>
<event>
 4    5  0.6615028E-008  0.1350323E+04  0.7818608E-02  0.9023277E-01
         -2   -1    0    0    0  501 -0.00000000000E+00  0.00000000000E+00  0.91569283069E+03  0.91569283069E+03  0.25500000000E-02 0.  1.
          2   -1    0    0  501    0  0.00000000000E+00 -0.00000000000E+00 -0.28572682696E+04  0.28572682696E+04  0.25500000000E-02 0. -1.
    8880023    1    1    2    0    0 -0.10477032164E+04 -0.54025870745E+03 -0.21764422532E+04  0.25613029083E+04  0.65864270000E+03 0.  0.
    8880022    1    1    2    0    0  0.10477032164E+04  0.54025870745E+03  0.23486681428E+03  0.12116581919E+04  0.15294330000E+03 0.  0.
<mgrwt>
<rscale>  0 0.13079591E+04</rscale>
<asrwt>0</asrwt>
<pdfrwt beam="1">  1        2 0.43957973E+00 0.13503228E+04</pdfrwt>
<pdfrwt beam="2">  1       -2 0.14087582E+00 0.13503228E+04</pdfrwt>
<totfact> 0.72737129E-01</totfact>
</mgrwt>
</event>
<event>
 4    5  0.6615028E-008  0.1112317E+04  0.7818608E-02  0.9247465E-01
         -2   -1    0    0    0  501 -0.00000000000E+00  0.00000000000E+00  0.15215419859E+04  0.15215419859E+04  0.25500000000E-02 0.  1.
          2   -1    0    0  501    0  0.00000000000E+00 -0.00000000000E+00 -0.94677294665E+03  0.94677294666E+03  0.25500000000E-02 0. -1.
    8880023    1    1    2    0    0  0.89623251054E+03  0.14383089144E+02 -0.35521664443E+03  0.11676594782E+04  0.65864270000E+03 0.  0.
    8880022    1    1    2    0    0 -0.89623251054E+03 -0.14383089144E+02  0.92998568369E+03  0.13006554544E+04  0.15294330000E+03 0.  0.
<mgrwt>
<rscale>  0 0.10576662E+04</rscale>
<asrwt>0</asrwt>
<pdfrwt beam="1">  1        2 0.14565738E+00 0.11123173E+04</pdfrwt>
<pdfrwt beam="2">  1       -2 0.23408338E+00 0.11123173E+04</pdfrwt>
<totfact> 0.21615014E+00</totfact>
</mgrwt>
</event>
<event>
 4    5  0.6615028E-008  0.1656152E+04  0.7818608E-02  0.8806581E-01
         -2   -1    0    0    0  501 -0.00000000000E+00  0.00000000000E+00  0.22924941299E+04  0.22924941299E+04  0.25500000000E-02 0.  1.
          2   -1    0    0  501    0  0.00000000000E+00 -0.00000000000E+00 -0.18567506057E+04  0.18567506057E+04  0.25500000000E-02 0. -1.
    8880023    1    1    2    0    0  0.14332242753E+04 -0.50487315506E+03  0.15424530444E+04  0.22631836705E+04  0.65864270000E+03 0.  1.
    8880022    1    1    2    0    0 -0.14332242753E+04  0.50487315506E+03 -0.11067095202E+04  0.18860610651E+04  0.15294330000E+03 0.  0.
<mgrwt>
<rscale>  0 0.16229344E+04</rscale>
<asrwt>0</asrwt>
<pdfrwt beam="1">  1        2 0.28565394E+00 0.16561518E+04</pdfrwt>
<pdfrwt beam="2">  1       -2 0.35269141E+00 0.16561518E+04</pdfrwt>
<totfact> 0.11075062E-01</totfact>
</mgrwt>
</event>
<event>
 4    5  0.6615028E-008  0.1417965E+04  0.7818608E-02  0.8969848E-01
         -2   -1    0    0    0  501 -0.00000000000E+00  0.00000000000E+00  0.16898680444E+04  0.16898680444E+04  0.25500000000E-02 0.  1.
          2   -1    0    0  501    0  0.00000000000E+00 -0.00000000000E+00 -0.14036682484E+04  0.14036682484E+04  0.25500000000E-02 0. -1.
    8880023    1    1    2    0    0  0.55404012741E+03  0.11268778751E+04 -0.60963504964E+03  0.15434634133E+04  0.65864270000E+03 0.  0.
    8880022    1    1    2    0    0 -0.55404012741E+03 -0.11268778751E+04  0.89583484565E+03  0.15500728795E+04  0.15294330000E+03 0.  0.
<mgrwt>
<rscale>  0 0.13780694E+04</rscale>
<asrwt>0</asrwt>
<pdfrwt beam="1">  1        2 0.21594896E+00 0.14179649E+04</pdfrwt>
<pdfrwt beam="2">  1       -2 0.25997970E+00 0.14179649E+04</pdfrwt>
<totfact> 0.76282240E-01</totfact>
</mgrwt>
</event>
<event>
 4    5  0.7536109E-008  0.8631352E+03  0.7818608E-02  0.9588011E-01
         -2   -1    0    0    0  501 -0.00000000000E+00  0.00000000000E+00  0.98248581426E+03  0.98248581426E+03  0.25500000000E-02 0.  1.
          2   -1    0    0  501    0  0.00000000000E+00 -0.00000000000E+00 -0.18403172609E+04  0.18403172609E+04  0.25500000000E-02 0. -1.
    8880023    1    1    2    0    0 -0.16044114322E+03 -0.53427602697E+03 -0.16380566807E+04  0.18515485759E+04  0.65864270000E+03 0.  0.
    8880022    1    1    2    0    0  0.16044114322E+03  0.53427602697E+03  0.78022523408E+03  0.97125449926E+03  0.15294330000E+03 0.  0.
<mgrwt>
<rscale>  0 0.78094826E+03</rscale>
<asrwt>0</asrwt>
<pdfrwt beam="1">  1        2 0.28312573E+00 0.86313524E+03</pdfrwt>
<pdfrwt beam="2">  1       -2 0.15115166E+00 0.86313524E+03</pdfrwt>
<totfact> 0.24423588E+00</totfact>
</mgrwt>
</event>
<event>
 4    5  0.6615028E-008  0.6626321E+03  0.7818608E-02  0.1021608E+00
          2   -1    0    0  501    0  0.00000000000E+00  0.00000000000E+00  0.89897569782E+03  0.89897569782E+03  0.25500000000E-02 0. -1.
         -2   -1    0    0    0  501 -0.00000000000E+00 -0.00000000000E+00 -0.27242089023E+04  0.27242089023E+04  0.25500000000E-02 0.  1.
    8880023    1    1    2    0    0 -0.57002053523E+02 -0.44965192747E+02  0.77374024553E+03  0.10187027420E+04  0.65864270000E+03 0. -1.
    8880022    1    1    2    0    0  0.57002053523E+02  0.44965192747E+02 -0.25989734500E+04  0.26044818581E+04  0.15294330000E+03 0.  0.
<mgrwt>
<rscale>  0 0.47110650E+03</rscale>
<asrwt>0</asrwt>
<pdfrwt beam="1">  1        2 0.13830396E+00 0.66263211E+03</pdfrwt>
<pdfrwt beam="2">  1       -2 0.41910906E+00 0.66263211E+03</pdfrwt>
<totfact> 0.17842630E-01</totfact>
</mgrwt>
</event>
<event>
 4    5  0.6615028E-008  0.1668493E+04  0.7818608E-02  0.8798996E-01
         -2   -1    0    0    0  501 -0.00000000000E+00  0.00000000000E+00  0.22254814851E+04  0.22254814851E+04  0.25500000000E-02 0.  1.
          2   -1    0    0  501    0  0.00000000000E+00 -0.00000000000E+00 -0.13974340949E+04  0.13974340949E+04  0.25500000000E-02 0. -1.
    8880023    1    1    2    0    0  0.38988645060E+03  0.14825817353E+04 -0.32342187344E+03  0.16995505173E+04  0.65864270000E+03 0.  0.
    8880022    1    1    2    0    0 -0.38988645060E+03 -0.14825817353E+04  0.11514692636E+04  0.19233650627E+04  0.15294330000E+03 0.  0.
<mgrwt>
<rscale>  0 0.16355579E+04</rscale>
<asrwt>0</asrwt>
<pdfrwt beam="1">  1        2 0.21498986E+00 0.16684934E+04</pdfrwt>
<pdfrwt beam="2">  1       -2 0.34238177E+00 0.16684934E+04</pdfrwt>
<totfact> 0.23368224E-01</totfact>
</mgrwt>
</event>
<event>
 4    5  0.6615028E-008  0.1232480E+04  0.7818608E-02  0.9126178E-01
         -2   -1    0    0    0  501 -0.00000000000E+00  0.00000000000E+00  0.52612310368E+03  0.52612310369E+03  0.25500000000E-02 0.  1.
          2   -1    0    0  501    0  0.00000000000E+00 -0.00000000000E+00 -0.35764755201E+04  0.35764755201E+04  0.25500000000E-02 0. -1.
    8880023    1    1    2    0    0 -0.52578662811E+03 -0.89930239785E+03 -0.27407704343E+04  0.30051338008E+04  0.65864270000E+03 0.  0.
    8880022    1    1    2    0    0  0.52578662811E+03  0.89930239785E+03 -0.30958198218E+03  0.10974648230E+04  0.15294330000E+03 0.  0.
<mgrwt>
<rscale>  0 0.11848985E+04</rscale>
<asrwt>0</asrwt>
<pdfrwt beam="1">  1        2 0.55022699E+00 0.12324799E+04</pdfrwt>
<pdfrwt beam="2">  1       -2 0.80942018E-01 0.12324799E+04</pdfrwt>
<totfact> 0.96670192E-01</totfact>
</mgrwt>
</event>
<event>
 4    5  0.6615028E-008  0.7371416E+03  0.7818608E-02  0.9868353E-01
          2   -1    0    0  501    0  0.00000000000E+00  0.00000000000E+00  0.74719689128E+03  0.74719689129E+03  0.25500000000E-02 0. -1.
         -2   -1    0    0    0  501 -0.00000000000E+00 -0.00000000000E+00 -0.94441442371E+03  0.94441442371E+03  0.25500000000E-02 0.  1.
    8880023    1    1    2    0    0 -0.33043448949E+03 -0.19508937066E+02  0.50969562687E+03  0.89619606604E+03  0.65864270000E+03 0.  0.
    8880022    1    1    2    0    0  0.33043448949E+03  0.19508937066E+02 -0.70691315930E+03  0.79541524896E+03  0.15294330000E+03 0.  0.
<mgrwt>
<rscale>  0 0.61819857E+03</rscale>
<asrwt>0</asrwt>
<pdfrwt beam="1">  1        2 0.11495337E+00 0.73714161E+03</pdfrwt>
<pdfrwt beam="2">  1       -2 0.14529453E+00 0.73714161E+03</pdfrwt>
<totfact> 0.12487839E+01</totfact>
</mgrwt>
</event>
<event>
 4    5  0.6615028E-008  0.7238655E+03  0.7818608E-02  0.9909717E-01
          2   -1    0    0  501    0  0.00000000000E+00  0.00000000000E+00  0.40557179234E+03  0.40557179235E+03  0.25500000000E-02 0. -1.
         -2   -1    0    0    0  501 -0.00000000000E+00 -0.00000000000E+00 -0.20523872248E+04  0.20523872248E+04  0.25500000000E-02 0.  1.
    8880023    1    1    2    0    0 -0.30013150412E+03  0.95966649695E+01  0.52295593128E+02  0.72575205895E+03  0.65864270000E+03 0.  0.
    8880022    1    1    2    0    0  0.30013150412E+03 -0.95966649695E+01 -0.16991110256E+04  0.17322069582E+04  0.15294330000E+03 0.  0.
<mgrwt>
<rscale>  0 0.59792656E+03</rscale>
<asrwt>0</asrwt>
<pdfrwt beam="1">  1        2 0.62395662E-01 0.72386547E+03</pdfrwt>
<pdfrwt beam="2">  1       -2 0.31575187E+00 0.72386547E+03</pdfrwt>
<totfact> 0.20887935E+00</totfact>
</mgrwt>
</event>
<event>
 4    5  0.6615028E-008  0.7153484E+03  0.7818608E-02  0.9938652E-01
          2   -1    0    0  501    0  0.00000000000E+00  0.00000000000E+00  0.26389433626E+04  0.26389433626E+04  0.25500000000E-02 0. -1.
         -2   -1    0    0    0  501 -0.00000000000E+00 -0.00000000000E+00 -0.18102907060E+03  0.18102907062E+03  0.25500000000E-02 0.  1.
    8880023    1    1    2    0    0  0.10714762730E+02 -0.27892346458E+03  0.23896850895E+04  0.24944574838E+04  0.65864270000E+03 0. -1.
    8880022    1    1    2    0    0 -0.10714762730E+02  0.27892346458E+03  0.68229202550E+02  0.32551494947E+03  0.15294330000E+03 0.  0.
<mgrwt>
<rscale>  0 0.58424087E+03</rscale>
<asrwt>0</asrwt>
<pdfrwt beam="1">  1        2 0.40599129E+00 0.71534838E+03</pdfrwt>
<pdfrwt beam="2">  1       -2 0.27850626E-01 0.71534838E+03</pdfrwt>
<totfact> 0.35711201E+01</totfact>
</mgrwt>
</event>
<event>
 4    5  0.6615028E-008  0.7911502E+03  0.7818608E-02  0.9730268E-01
         -2   -1    0    0    0  501 -0.00000000000E+00  0.00000000000E+00  0.70455509077E+03  0.70455509078E+03  0.25500000000E-02 0.  1.
          2   -1    0    0  501    0  0.00000000000E+00 -0.00000000000E+00 -0.11016050671E+04  0.11016050672E+04  0.25500000000E-02 0. -1.
    8880023    1    1    2    0    0  0.42362036497E+03 -0.11249124250E+03 -0.84745232434E+03  0.11593507414E+04  0.65864270000E+03 0. -1.
    8880022    1    1    2    0    0 -0.42362036497E+03  0.11249124250E+03  0.45040234797E+03  0.64680941654E+03  0.15294330000E+03 0.  0.
<mgrwt>
<rscale>  0 0.69242887E+03</rscale>
<asrwt>0</asrwt>
<pdfrwt beam="1">  1        2 0.16947770E+00 0.79115024E+03</pdfrwt>
<pdfrwt beam="2">  1       -2 0.10839309E+00 0.79115024E+03</pdfrwt>
<totfact> 0.14997724E+01</totfact>
</mgrwt>
</event>
<event>
 4    5  0.6615028E-008  0.7614501E+03  0.7818608E-02  0.9801368E-01
          2   -1    0    0  501    0  0.00000000000E+00  0.00000000000E+00  0.18921520406E+04  0.18921520406E+04  0.25500000000E-02 0. -1.
         -2   -1    0    0    0  501 -0.00000000000E+00 -0.00000000000E+00 -0.49586586915E+03  0.49586586915E+03  0.25500000000E-02 0.  1.
    8880023    1    1    2    0    0 -0.61749189749E+02 -0.37707164006E+03  0.17091098359E+04  0.18710592245E+04  0.65864270000E+03 0. -1.
    8880022    1    1    2    0    0  0.61749189749E+02  0.37707164006E+03 -0.31282366446E+03  0.51695868523E+03  0.15294330000E+03 0.  0.
<mgrwt>
<rscale>  0 0.65289190E+03</rscale>
<asrwt>0</asrwt>
<pdfrwt beam="1">  1        2 0.29110031E+00 0.76145006E+03</pdfrwt>
<pdfrwt beam="2">  1       -2 0.76287057E-01 0.76145006E+03</pdfrwt>
<totfact> 0.12157552E+01</totfact>
</mgrwt>
</event>
<event>
 4    5  0.6615028E-008  0.9989508E+03  0.7818608E-02  0.9382932E-01
          2   -1    0    0  501    0  0.00000000000E+00  0.00000000000E+00  0.18538681664E+04  0.18538681664E+04  0.25500000000E-02 0. -1.
         -2   -1    0    0    0  501 -0.00000000000E+00 -0.00000000000E+00 -0.68018942575E+03  0.68018942575E+03  0.25500000000E-02 0.  1.
    8880023    1    1    2    0    0 -0.21882930951E+03  0.71847491344E+03  0.14135692320E+04  0.17309190183E+04  0.65864270000E+03 0.  0.
    8880022    1    1    2    0    0  0.21882930951E+03 -0.71847491344E+03 -0.23989049136E+03  0.80313857385E+03  0.15294330000E+03 0.  0.
<mgrwt>
<rscale>  0 0.93493752E+03</rscale>
<asrwt>0</asrwt>
<pdfrwt beam="1">  1        2 0.28521049E+00 0.99895079E+03</pdfrwt>
<pdfrwt beam="2">  1       -2 0.10464453E+00 0.99895079E+03</pdfrwt>
<totfact> 0.59601637E+00</totfact>
</mgrwt>
</event>
<event>
 4    5  0.6615028E-008  0.6668798E+03  0.7818608E-02  0.1018006E+00
         -2   -1    0    0    0  501 -0.00000000000E+00  0.00000000000E+00  0.10434532291E+03  0.10434532294E+03  0.25500000000E-02 0.  1.
          2   -1    0    0  501    0  0.00000000000E+00 -0.00000000000E+00 -0.31019173325E+04  0.31019173325E+04  0.25500000000E-02 0. -1.
    8880023    1    1    2    0    0  0.84697976069E+02 -0.61194320942E+02 -0.29364275531E+04  0.30112016659E+04  0.65864270000E+03 0. -1.
    8880022    1    1    2    0    0 -0.84697976069E+02  0.61194320942E+02 -0.61144456546E+02  0.19506098956E+03  0.15294330000E+03 0.  0.
<mgrwt>
<rscale>  0 0.48413168E+03</rscale>
<asrwt>0</asrwt>
<pdfrwt beam="1">  1        2 0.47721798E+00 0.66687982E+03</pdfrwt>
<pdfrwt beam="2">  1       -2 0.16053129E-01 0.66687982E+03</pdfrwt>
<totfact> 0.50270817E+01</totfact>
</mgrwt>
</event>
<event>
 4    5  0.6615028E-008  0.1655529E+04  0.7818608E-02  0.8806966E-01
         -2   -1    0    0    0  501 -0.00000000000E+00  0.00000000000E+00  0.18174697916E+04  0.18174697916E+04  0.25500000000E-02 0.  1.
          2   -1    0    0  501    0  0.00000000000E+00 -0.00000000000E+00 -0.27431078518E+04  0.27431078518E+04  0.25500000000E-02 0. -1.
    8880023    1    1    2    0    0  0.15176131207E+04 -0.61769077605E+02  0.11268474460E+04  0.20026383538E+04  0.65864270000E+03 0.  0.
    8880022    1    1    2    0    0 -0.15176131207E+04  0.61769077605E+02 -0.20524855062E+04  0.25579392896E+04  0.15294330000E+03 0.  0.
<mgrwt>
<rscale>  0 0.16222969E+04</rscale>
<asrwt>0</asrwt>
<pdfrwt beam="1">  1        2 0.42201659E+00 0.16555287E+04</pdfrwt>
<pdfrwt beam="2">  1       -2 0.27961074E+00 0.16555287E+04</pdfrwt>
<totfact> 0.97549428E-02</totfact>
</mgrwt>
</event>
<event>
 4    5  0.6615028E-008  0.7045527E+03  0.7818608E-02  0.9978814E-01
         -2   -1    0    0    0  501 -0.00000000000E+00  0.00000000000E+00  0.43888954251E+03  0.43888954252E+03  0.25500000000E-02 0.  1.
          2   -1    0    0  501    0  0.00000000000E+00 -0.00000000000E+00 -0.88294022531E+03  0.88294022532E+03  0.25500000000E-02 0. -1.
    8880023    1    1    2    0    0 -0.24496676293E+03  0.50749538035E+02 -0.65391468798E+03  0.96124859218E+03  0.65864270000E+03 0. -1.
    8880022    1    1    2    0    0  0.24496676293E+03 -0.50749538035E+02  0.20986400518E+03  0.36058117565E+03  0.15294330000E+03 0.  0.
<mgrwt>
<rscale>  0 0.56589020E+03</rscale>
<asrwt>0</asrwt>
<pdfrwt beam="1">  1        2 0.13583696E+00 0.70455265E+03</pdfrwt>
<pdfrwt beam="2">  1       -2 0.67521468E-01 0.70455265E+03</pdfrwt>
<totfact> 0.61633179E+01</totfact>
</mgrwt>
</event>
<event>
 4    5  0.6615028E-008  0.2005395E+04  0.7818608E-02  0.8616695E-01
          2   -1    0    0  501    0  0.00000000000E+00  0.00000000000E+00  0.35695555921E+04  0.35695555921E+04  0.25500000000E-02 0. -1.
         -2   -1    0    0    0  501 -0.00000000000E+00 -0.00000000000E+00 -0.13629507442E+04  0.13629507442E+04  0.25500000000E-02 0.  1.
    8880023    1    1    2    0    0 -0.17953725196E+04 -0.60368640215E+03  0.22727948085E+04  0.30310404491E+04  0.65864270000E+03 0.  0.
    8880022    1    1    2    0    0  0.17953725196E+04  0.60368640215E+03 -0.66189960594E+02  0.19014658872E+04  0.15294330000E+03 0.  0.
<mgrwt>
<rscale>  0 0.19785922E+04</rscale>
<asrwt>0</asrwt>
<pdfrwt beam="1">  1        2 0.54916239E+00 0.20053952E+04</pdfrwt>
<pdfrwt beam="2">  1       -2 0.20968473E+00 0.20053952E+04</pdfrwt>
<totfact> 0.74534420E-02</totfact>
</mgrwt>
</event>
<event>
 4    5  0.6615028E-008  0.9203330E+03  0.7818608E-02  0.9494149E-01
          2   -1    0    0  501    0  0.00000000000E+00  0.00000000000E+00  0.63167741041E+03  0.63167741042E+03  0.25500000000E-02 0. -1.
         -2   -1    0    0    0  501 -0.00000000000E+00 -0.00000000000E+00 -0.18853594028E+04  0.18853594028E+04  0.25500000000E-02 0.  1.
    8880023    1    1    2    0    0 -0.51025405988E+03  0.39095193238E+03  0.18058843952E+03  0.93788326023E+03  0.65864270000E+03 0.  0.
    8880022    1    1    2    0    0  0.51025405988E+03 -0.39095193238E+03 -0.14342704319E+04  0.15791535530E+04  0.15294330000E+03 0.  0.
<mgrwt>
<rscale>  0 0.84716596E+03</rscale>
<asrwt>0</asrwt>
<pdfrwt beam="1">  1        2 0.97181141E-01 0.92033300E+03</pdfrwt>
<pdfrwt beam="2">  1       -2 0.29005529E+00 0.92033300E+03</pdfrwt>
<totfact> 0.17274653E+00</totfact>
</mgrwt>
</event>
<event>
 4    5  0.6615028E-008  0.7559689E+03  0.7818608E-02  0.9815658E-01
          2   -1    0    0  501    0  0.00000000000E+00  0.00000000000E+00  0.73912009506E+03  0.73912009506E+03  0.25500000000E-02 0. -1.
         -2   -1    0    0    0  501 -0.00000000000E+00 -0.00000000000E+00 -0.67550862468E+03  0.67550862468E+03  0.25500000000E-02 0.  1.
    8880023    1    1    2    0    0 -0.71996625087E+02  0.36399896280E+03  0.43127987913E+03  0.87033976087E+03  0.65864270000E+03 0. -1.
    8880022    1    1    2    0    0  0.71996625087E+02 -0.36399896280E+03 -0.36766840876E+03  0.54428895888E+03  0.15294330000E+03 0.  0.
<mgrwt>
<rscale>  0 0.64528997E+03</rscale>
<asrwt>0</asrwt>
<pdfrwt beam="1">  1        2 0.11371078E+00 0.75596889E+03</pdfrwt>
<pdfrwt beam="2">  1       -2 0.10392440E+00 0.75596889E+03</pdfrwt>
<totfact> 0.29175527E+01</totfact>
</mgrwt>
</event>
<event>
 4    5  0.6615028E-008  0.8356049E+03  0.7818608E-02  0.9638524E-01
         -2   -1    0    0    0  501 -0.00000000000E+00  0.00000000000E+00  0.25350483111E+03  0.25350483112E+03  0.25500000000E-02 0.  1.
          2   -1    0    0  501    0  0.00000000000E+00 -0.00000000000E+00 -0.20316322254E+04  0.20316322254E+04  0.25500000000E-02 0. -1.
    8880023    1    1    2    0    0  0.38265601864E+03 -0.34351077718E+03 -0.13941824249E+04  0.16254169074E+04  0.65864270000E+03 0. -1.
    8880022    1    1    2    0    0 -0.38265601864E+03  0.34351077718E+03 -0.38394496939E+03  0.65972014913E+03  0.15294330000E+03 0.  0.
<mgrwt>
<rscale>  0 0.74798048E+03</rscale>
<asrwt>0</asrwt>
<pdfrwt beam="1">  1        2 0.31255879E+00 0.83560486E+03</pdfrwt>
<pdfrwt beam="2">  1       -2 0.39000745E-01 0.83560486E+03</pdfrwt>
<totfact> 0.40714393E+01</totfact>
</mgrwt>
</event>
<event>
 4    5  0.6615028E-008  0.7740289E+03  0.7818608E-02  0.9770055E-01
          2   -1    0    0  501    0  0.00000000000E+00  0.00000000000E+00  0.12650156792E+04  0.12650156792E+04  0.25500000000E-02 0. -1.
         -2   -1    0    0    0  501 -0.00000000000E+00 -0.00000000000E+00 -0.55909114430E+03  0.55909114430E+03  0.25500000000E-02 0.  1.
    8880023    1    1    2    0    0 -0.12873746737E+03 -0.38566456026E+03  0.10254973905E+04  0.12848212299E+04  0.65864270000E+03 0. -1.
    8880022    1    1    2    0    0  0.12873746737E+03  0.38566456026E+03 -0.31957285554E+03  0.53928559369E+03  0.15294330000E+03 0.  0.
<mgrwt>
<rscale>  0 0.66994627E+03</rscale>
<asrwt>0</asrwt>
<pdfrwt beam="1">  1        2 0.19461780E+00 0.77402887E+03</pdfrwt>
<pdfrwt beam="2">  1       -2 0.86014023E-01 0.77402887E+03</pdfrwt>
<totfact> 0.20676093E+01</totfact>
</mgrwt>
</event>
<event>
 4    5  0.6615028E-008  0.7374897E+03  0.7818608E-02  0.9867321E-01
         -2   -1    0    0    0  501 -0.00000000000E+00  0.00000000000E+00  0.33522771902E+03  0.33522771903E+03  0.25500000000E-02 0.  1.
          2   -1    0    0  501    0  0.00000000000E+00 -0.00000000000E+00 -0.15490887998E+04  0.15490887998E+04  0.25500000000E-02 0. -1.
    8880023    1    1    2    0    0  0.15752421814E+03 -0.29200498927E+03 -0.13128445663E+04  0.15058060481E+04  0.65864270000E+03 0.  0.
    8880022    1    1    2    0    0 -0.15752421814E+03  0.29200498927E+03  0.98983485477E+02  0.37851047075E+03  0.15294330000E+03 0.  0.
<mgrwt>
<rscale>  0 0.61871537E+03</rscale>
<asrwt>0</asrwt>
<pdfrwt beam="1">  1        2 0.23832135E+00 0.73748966E+03</pdfrwt>
<pdfrwt beam="2">  1       -2 0.51573496E-01 0.73748966E+03</pdfrwt>
<totfact> 0.43329924E+01</totfact>
</mgrwt>
</event>
<event>
 4    5  0.6615028E-008  0.1057882E+04  0.7818608E-02  0.9309466E-01
         -2   -1    0    0    0  501 -0.00000000000E+00  0.00000000000E+00  0.14888646071E+04  0.14888646071E+04  0.25500000000E-02 0.  1.
          2   -1    0    0  501    0  0.00000000000E+00 -0.00000000000E+00 -0.80766063482E+03  0.80766063482E+03  0.25500000000E-02 0. -1.
    8880023    1    1    2    0    0 -0.89752664974E+02 -0.82295105236E+03 -0.20132921366E+03  0.10768693672E+04  0.65864270000E+03 0. -1.
    8880022    1    1    2    0    0  0.89752664974E+02  0.82295105236E+03  0.88253318592E+03  0.12196558747E+04  0.15294330000E+03 0.  0.
<mgrwt>
<rscale>  0 0.99916076E+03</rscale>
<asrwt>0</asrwt>
<pdfrwt beam="1">  1        2 0.12425548E+00 0.10578819E+04</pdfrwt>
<pdfrwt beam="2">  1       -2 0.22905609E+00 0.10578819E+04</pdfrwt>
<totfact> 0.29152449E+00</totfact>
</mgrwt>
</event>
<event>
 4    5  0.6615028E-008  0.9228628E+03  0.7818608E-02  0.9490283E-01
         -2   -1    0    0    0  501 -0.00000000000E+00  0.00000000000E+00  0.37329703099E+03  0.37329703100E+03  0.25500000000E-02 0.  1.
          2   -1    0    0  501    0  0.00000000000E+00 -0.00000000000E+00 -0.33694838039E+04  0.33694838039E+04  0.25500000000E-02 0. -1.
    8880023    1    1    2    0    0 -0.24578224932E+03  0.59787670469E+03 -0.29338698730E+04  0.30755923179E+04  0.65864270000E+03 0.  0.
    8880022    1    1    2    0    0  0.24578224932E+03 -0.59787670469E+03 -0.62316899839E+02  0.66718851692E+03  0.15294330000E+03 0.  0.
<mgrwt>
<rscale>  0 0.85003989E+03</rscale>
<asrwt>0</asrwt>
<pdfrwt beam="1">  1        2 0.51838210E+00 0.92286276E+03</pdfrwt>
<pdfrwt beam="2">  1       -2 0.57430315E-01 0.92286276E+03</pdfrwt>
<totfact> 0.29713921E+00</totfact>
</mgrwt>
</event>
<event>
 4    5  0.6615028E-008  0.1039602E+04  0.7818608E-02  0.9331487E-01
         -2   -1    0    0    0  501 -0.00000000000E+00  0.00000000000E+00  0.14876730102E+04  0.14876730102E+04  0.25500000000E-02 0.  1.
          2   -1    0    0  501    0  0.00000000000E+00 -0.00000000000E+00 -0.30233973172E+04  0.30233973172E+04  0.25500000000E-02 0. -1.
    8880023    1    1    2    0    0  0.75902879997E+03 -0.26615108754E+03 -0.28101621973E+04  0.29962948623E+04  0.65864270000E+03 0.  0.
    8880022    1    1    2    0    0 -0.75902879997E+03  0.26615108754E+03  0.12744378902E+04  0.15147754651E+04  0.15294330000E+03 0.  0.
<mgrwt>
<rscale>  0 0.97935040E+03</rscale>
<asrwt>0</asrwt>
<pdfrwt beam="1">  1        2 0.46513805E+00 0.10396015E+04</pdfrwt>
<pdfrwt beam="2">  1       -2 0.22887277E+00 0.10396015E+04</pdfrwt>
<totfact> 0.14809691E-01</totfact>
</mgrwt>
</event>
<event>
 4    5  0.6615028E-008  0.9551348E+03  0.7818608E-02  0.9442764E-01
          2   -1    0    0  501    0  0.00000000000E+00  0.00000000000E+00  0.28334561832E+04  0.28334561832E+04  0.25500000000E-02 0. -1.
         -2   -1    0    0    0  501 -0.00000000000E+00 -0.00000000000E+00 -0.47667682916E+03  0.47667682916E+03  0.25500000000E-02 0.  1.
    8880023    1    1    2    0    0  0.19254559897E+03  0.66437831477E+03  0.24172714856E+04  0.25991313923E+04  0.65864270000E+03 0. -1.
    8880022    1    1    2    0    0 -0.19254559897E+03 -0.66437831477E+03 -0.60492131551E+02  0.71100162012E+03  0.15294330000E+03 0.  0.
<mgrwt>
<rscale>  0 0.88638372E+03</rscale>
<asrwt>0</asrwt>
<pdfrwt beam="1">  1        2 0.43591635E+00 0.95513484E+03</pdfrwt>
<pdfrwt beam="2">  1       -2 0.73334895E-01 0.95513484E+03</pdfrwt>
<totfact> 0.37942034E+00</totfact>
</mgrwt>
</event>
<event>
 4    5  0.6615028E-008  0.6984174E+03  0.7818608E-02  0.1000383E+00
          2   -1    0    0  501    0  0.00000000000E+00  0.00000000000E+00  0.99347539268E+03  0.99347539269E+03  0.25500000000E-02 0. -1.
         -2   -1    0    0    0  501 -0.00000000000E+00 -0.00000000000E+00 -0.35739518905E+03  0.35739518906E+03  0.25500000000E-02 0.  1.
    8880023    1    1    2    0    0 -0.19602138697E+03  0.12470902377E+03  0.77220566930E+03  0.10411957197E+04  0.65864270000E+03 0. -1.
    8880022    1    1    2    0    0  0.19602138697E+03 -0.12470902377E+03 -0.13612546567E+03  0.30967486204E+03  0.15294330000E+03 0.  0.
<mgrwt>
<rscale>  0 0.55482593E+03</rscale>
<asrwt>0</asrwt>
<pdfrwt beam="1">  1        2 0.15284237E+00 0.69841745E+03</pdfrwt>
<pdfrwt beam="2">  1       -2 0.54983875E-01 0.69841745E+03</pdfrwt>
<totfact> 0.80581790E+01</totfact>
</mgrwt>
</event>
<event>
 4    5  0.6615028E-008  0.9018727E+03  0.7818608E-02  0.9523032E-01
          2   -1    0    0  501    0  0.00000000000E+00  0.00000000000E+00  0.39240401805E+04  0.39240401805E+04  0.25500000000E-02 0. -1.
         -2   -1    0    0    0  501 -0.00000000000E+00 -0.00000000000E+00 -0.41803201250E+03  0.41803201251E+03  0.25500000000E-02 0.  1.
    8880023    1    1    2    0    0 -0.32421839825E+03  0.52387658662E+03  0.35901827777E+04  0.37017275469E+04  0.65864270000E+03 0. -1.
    8880022    1    1    2    0    0  0.32421839825E+03 -0.52387658662E+03 -0.84174609791E+02  0.64034464605E+03  0.15294330000E+03 0.  0.
<mgrwt>
<rscale>  0 0.82606865E+03</rscale>
<asrwt>0</asrwt>
<pdfrwt beam="1">  1        2 0.60369848E+00 0.90187275E+03</pdfrwt>
<pdfrwt beam="2">  1       -2 0.64312618E-01 0.90187275E+03</pdfrwt>
<totfact> 0.94171216E-01</totfact>
</mgrwt>
</event>
<event>
 4    5  0.6615028E-008  0.1544223E+04  0.7818608E-02  0.8879024E-01
          2   -1    0    0  501    0  0.00000000000E+00  0.00000000000E+00  0.34698994208E+04  0.34698994209E+04  0.25500000000E-02 0. -1.
         -2   -1    0    0    0  501 -0.00000000000E+00 -0.00000000000E+00 -0.91171451286E+03  0.91171451287E+03  0.25500000000E-02 0.  1.
    8880023    1    1    2    0    0  0.11094866124E+04  0.84844244497E+03  0.25445681954E+04  0.29764832660E+04  0.65864270000E+03 0.  0.
    8880022    1    1    2    0    0 -0.11094866124E+04 -0.84844244497E+03  0.13616712626E+02  0.14051306677E+04  0.15294330000E+03 0.  0.
<mgrwt>
<rscale>  0 0.15081920E+04</rscale>
<asrwt>0</asrwt>
<pdfrwt beam="1">  1        2 0.53383067E+00 0.15442232E+04</pdfrwt>
<pdfrwt beam="2">  1       -2 0.14026377E+00 0.15442232E+04</pdfrwt>
<totfact> 0.28941726E-01</totfact>
</mgrwt>
</event>
<event>
 4    5  0.6615028E-008  0.1222332E+04  0.7818608E-02  0.9135714E-01
          2   -1    0    0  501    0  0.00000000000E+00  0.00000000000E+00  0.14919506751E+04  0.14919506751E+04  0.25500000000E-02 0. -1.
         -2   -1    0    0    0  501 -0.00000000000E+00 -0.00000000000E+00 -0.11414862772E+04  0.11414862772E+04  0.25500000000E-02 0.  1.
    8880023    1    1    2    0    0  0.96414595521E+03  0.36153415171E+03  0.83994279874E+03  0.14831043379E+04  0.65864270000E+03 0.  0.
    8880022    1    1    2    0    0 -0.96414595521E+03 -0.36153415171E+03 -0.48947840078E+03  0.11503326144E+04  0.15294330000E+03 0.  0.
<mgrwt>
<rscale>  0 0.11742328E+04</rscale>
<asrwt>0</asrwt>
<pdfrwt beam="1">  1        2 0.22953087E+00 0.12223316E+04</pdfrwt>
<pdfrwt beam="2">  1       -2 0.17561327E+00 0.12223316E+04</pdfrwt>
<totfact> 0.24165414E+00</totfact>
</mgrwt>
</event>
<event>
 4    5  0.6615028E-008  0.9845115E+03  0.7818608E-02  0.9402108E-01
          2   -1    0    0  501    0  0.00000000000E+00  0.00000000000E+00  0.10341449065E+04  0.10341449066E+04  0.25500000000E-02 0. -1.
         -2   -1    0    0    0  501 -0.00000000000E+00 -0.00000000000E+00 -0.18006532865E+04  0.18006532865E+04  0.25500000000E-02 0.  1.
    8880023    1    1    2    0    0 -0.71326070047E+03 -0.16343778576E+03  0.68686528654E+03  0.12004361144E+04  0.65864270000E+03 0.  0.
    8880022    1    1    2    0    0  0.71326070047E+03  0.16343778576E+03 -0.14533736665E+04  0.16343620786E+04  0.15294330000E+03 0.  0.
<mgrwt>
<rscale>  0 0.91902424E+03</rscale>
<asrwt>0</asrwt>
<pdfrwt beam="1">  1        2 0.15909922E+00 0.98451153E+03</pdfrwt>
<pdfrwt beam="2">  1       -2 0.27702358E+00 0.98451153E+03</pdfrwt>
<totfact> 0.10545761E+00</totfact>
</mgrwt>
</event>
<event>
 4    5  0.6615028E-008  0.7120495E+03  0.7818608E-02  0.9950468E-01
          2   -1    0    0  501    0  0.00000000000E+00  0.00000000000E+00  0.24750373667E+04  0.24750373667E+04  0.25500000000E-02 0. -1.
         -2   -1    0    0    0  501 -0.00000000000E+00 -0.00000000000E+00 -0.10754810193E+03  0.10754810196E+03  0.25500000000E-02 0.  1.
    8880023    1    1    2    0    0  0.36502286055E+02  0.26808921430E+03  0.14831187031E+04  0.16451916415E+04  0.65864270000E+03 0. -1.
    8880022    1    1    2    0    0 -0.36502286055E+02 -0.26808921430E+03  0.88437056170E+03  0.93739382712E+03  0.15294330000E+03 0.  0.
<mgrwt>
<rscale>  0 0.57876527E+03</rscale>
<asrwt>0</asrwt>
<pdfrwt beam="1">  1        2 0.38077501E+00 0.71204947E+03</pdfrwt>
<pdfrwt beam="2">  1       -2 0.16545861E-01 0.71204947E+03</pdfrwt>
<totfact> 0.11117319E+02</totfact>
</mgrwt>
</event>
<event>
 4    5  0.6615028E-008  0.1393738E+04  0.7818608E-02  0.8988564E-01
          2   -1    0    0  501    0  0.00000000000E+00  0.00000000000E+00  0.20894149360E+04  0.20894149360E+04  0.25500000000E-02 0. -1.
         -2   -1    0    0    0  501 -0.00000000000E+00 -0.00000000000E+00 -0.14009915845E+04  0.14009915845E+04  0.25500000000E-02 0.  1.
    8880023    1    1    2    0    0  0.10664619796E+04  0.60938884034E+03  0.14706653642E+04  0.20261694727E+04  0.65864270000E+03 0.  0.
    8880022    1    1    2    0    0 -0.10664619796E+04 -0.60938884034E+03 -0.78224201268E+03  0.14642370478E+04  0.15294330000E+03 0.  0.
<mgrwt>
<rscale>  0 0.13529955E+04</rscale>
<asrwt>0</asrwt>
<pdfrwt beam="1">  1        2 0.32144845E+00 0.13937382E+04</pdfrwt>
<pdfrwt beam="2">  1       -2 0.21553717E+00 0.13937382E+04</pdfrwt>
<totfact> 0.59663814E-01</totfact>
</mgrwt>
</event>
<event>
 4    5  0.6615028E-008  0.9347008E+03  0.7818608E-02  0.9472477E-01
          2   -1    0    0  501    0  0.00000000000E+00  0.00000000000E+00  0.40529337287E+03  0.40529337288E+03  0.25500000000E-02 0. -1.
         -2   -1    0    0    0  501 -0.00000000000E+00 -0.00000000000E+00 -0.27099920011E+04  0.27099920011E+04  0.25500000000E-02 0.  1.
    8880023    1    1    2    0    0 -0.24561046848E+03  0.61606071986E+03 -0.27470932986E+03  0.97423340887E+03  0.65864270000E+03 0.  0.
    8880022    1    1    2    0    0  0.24561046848E+03 -0.61606071986E+03 -0.20299892984E+04  0.21410519651E+04  0.15294330000E+03 0.  0.
<mgrwt>
<rscale>  0 0.86343773E+03</rscale>
<asrwt>0</asrwt>
<pdfrwt beam="1">  1        2 0.62352828E-01 0.93470076E+03</pdfrwt>
<pdfrwt beam="2">  1       -2 0.41692184E+00 0.93470076E+03</pdfrwt>
<totfact> 0.46460645E-01</totfact>
</mgrwt>
</event>
<event>
 4    5  0.6615028E-008  0.7136086E+03  0.7818608E-02  0.9944837E-01
          2   -1    0    0  501    0  0.00000000000E+00  0.00000000000E+00  0.53761624779E+03  0.53761624780E+03  0.25500000000E-02 0. -1.
         -2   -1    0    0    0  501 -0.00000000000E+00 -0.00000000000E+00 -0.13202154502E+04  0.13202154502E+04  0.25500000000E-02 0.  1.
    8880023    1    1    2    0    0  0.24214492347E+02 -0.27357030054E+03  0.26718804798E+03  0.76198865492E+03  0.65864270000E+03 0. -1.
    8880022    1    1    2    0    0 -0.24214492347E+02  0.27357030054E+03 -0.10497872504E+04  0.10958430430E+04  0.15294330000E+03 0.  0.
<mgrwt>
<rscale>  0 0.58136644E+03</rscale>
<asrwt>0</asrwt>
<pdfrwt beam="1">  1        2 0.82710192E-01 0.71360862E+03</pdfrwt>
<pdfrwt beam="2">  1       -2 0.20311007E+00 0.71360862E+03</pdfrwt>
<totfact> 0.73535460E+00</totfact>
</mgrwt>
</event>
<event>
 4    5  0.6615028E-008  0.9512604E+03  0.7818608E-02  0.9448303E-01
         -2   -1    0    0    0  501 -0.00000000000E+00  0.00000000000E+00  0.25802419972E+03  0.25802419973E+03  0.25500000000E-02 0.  1.
          2   -1    0    0  501    0  0.00000000000E+00 -0.00000000000E+00 -0.27554632113E+04  0.27554632113E+04  0.25500000000E-02 0. -1.
    8880023    1    1    2    0    0 -0.67237185797E+03 -0.13784850239E+03 -0.17175997610E+04  0.19634269200E+04  0.65864270000E+03 0.  0.
    8880022    1    1    2    0    0  0.67237185797E+03  0.13784850239E+03 -0.77983925054E+03  0.10500604910E+04  0.15294330000E+03 0.  0.
<mgrwt>
<rscale>  0 0.88204940E+03</rscale>
<asrwt>0</asrwt>
<pdfrwt beam="1">  1        2 0.42391740E+00 0.95126039E+03</pdfrwt>
<pdfrwt beam="2">  1       -2 0.39696033E-01 0.95126039E+03</pdfrwt>
<totfact> 0.15115828E+01</totfact>
</mgrwt>
</event>
<event>
 4    5  0.6615028E-008  0.7554699E+03  0.7818608E-02  0.9816980E-01
          2   -1    0    0  501    0  0.00000000000E+00  0.00000000000E+00  0.21624964179E+04  0.21624964179E+04  0.25500000000E-02 0. -1.
         -2   -1    0    0    0  501 -0.00000000000E+00 -0.00000000000E+00 -0.69642322310E+03  0.69642322311E+03  0.25500000000E-02 0.  1.
    8880023    1    1    2    0    0 -0.16302744800E+03  0.33218461792E+03  0.20307346303E+04  0.21667066977E+04  0.65864270000E+03 0. -1.
    8880022    1    1    2    0    0  0.16302744800E+03 -0.33218461792E+03 -0.56466143544E+03  0.69221294330E+03  0.15294330000E+03 0.  0.
<mgrwt>
<rscale>  0 0.64459222E+03</rscale>
<asrwt>0</asrwt>
<pdfrwt beam="1">  1        2 0.33269175E+00 0.75546990E+03</pdfrwt>
<pdfrwt beam="2">  1       -2 0.10714204E+00 0.75546990E+03</pdfrwt>
<totfact> 0.39454830E+00</totfact>
</mgrwt>
</event>
<event>
 4    5  0.6615028E-008  0.7112307E+03  0.7818608E-02  0.9953459E-01
          2   -1    0    0  501    0  0.00000000000E+00  0.00000000000E+00  0.77986352906E+03  0.77986352907E+03  0.25500000000E-02 0. -1.
         -2   -1    0    0    0  501 -0.00000000000E+00 -0.00000000000E+00 -0.14711932229E+04  0.14711932229E+04  0.25500000000E-02 0.  1.
    8880023    1    1    2    0    0 -0.21328035097E+03 -0.16294282153E+03  0.59553212268E+03  0.92763548154E+03  0.65864270000E+03 0. -1.
    8880022    1    1    2    0    0  0.21328035097E+03  0.16294282153E+03 -0.12868618165E+04  0.13234212704E+04  0.15294330000E+03 0.  0.
<mgrwt>
<rscale>  0 0.57738936E+03</rscale>
<asrwt>0</asrwt>
<pdfrwt beam="1">  1        2 0.11997900E+00 0.71123068E+03</pdfrwt>
<pdfrwt beam="2">  1       -2 0.22633742E+00 0.71123068E+03</pdfrwt>
<totfact> 0.33157490E+00</totfact>
</mgrwt>
</event>
<event>
 4    5  0.6615028E-008  0.9385756E+03  0.7818608E-02  0.9466745E-01
          2   -1    0    0  501    0  0.00000000000E+00  0.00000000000E+00  0.44373706351E+03  0.44373706352E+03  0.25500000000E-02 0. -1.
         -2   -1    0    0    0  501 -0.00000000000E+00 -0.00000000000E+00 -0.26706092070E+04  0.26706092070E+04  0.25500000000E-02 0.  1.
    8880023    1    1    2    0    0 -0.51233861476E+03 -0.42967787794E+03 -0.18010694878E+03  0.95570008592E+03  0.65864270000E+03 0.  0.
    8880022    1    1    2    0    0  0.51233861476E+03  0.42967787794E+03 -0.20467651947E+04  0.21586461846E+04  0.15294330000E+03 0.  0.
<mgrwt>
<rscale>  0 0.86780578E+03</rscale>
<asrwt>0</asrwt>
<pdfrwt beam="1">  1        2 0.68267242E-01 0.93857559E+03</pdfrwt>
<pdfrwt beam="2">  1       -2 0.41086295E+00 0.93857559E+03</pdfrwt>
<totfact> 0.45890951E-01</totfact>
</mgrwt>
</event>
<event>
 4    5  0.6615028E-008  0.9498270E+03  0.7818608E-02  0.9450363E-01
         -2   -1    0    0    0  501 -0.00000000000E+00  0.00000000000E+00  0.53555521858E+03  0.53555521859E+03  0.25500000000E-02 0.  1.
          2   -1    0    0  501    0  0.00000000000E+00 -0.00000000000E+00 -0.16711363255E+04  0.16711363255E+04  0.25500000000E-02 0. -1.
    8880023    1    1    2    0    0 -0.67666210073E+03 -0.10241814573E+03 -0.11670704015E+04  0.15047340640E+04  0.65864270000E+03 0.  0.
    8880022    1    1    2    0    0  0.67666210073E+03  0.10241814573E+03  0.31489294567E+02  0.70195748007E+03  0.15294330000E+03 0.  0.
<mgrwt>
<rscale>  0 0.88044397E+03</rscale>
<asrwt>0</asrwt>
<pdfrwt beam="1">  1        2 0.25709789E+00 0.94982697E+03</pdfrwt>
<pdfrwt beam="2">  1       -2 0.82393112E-01 0.94982697E+03</pdfrwt>
<totfact> 0.13207006E+01</totfact>
</mgrwt>
</event>
<event>
 4    5  0.6615028E-008  0.1598949E+04  0.7818608E-02  0.8842751E-01
         -2   -1    0    0    0  501 -0.00000000000E+00  0.00000000000E+00  0.26038476998E+04  0.26038476998E+04  0.25500000000E-02 0.  1.
          2   -1    0    0  501    0  0.00000000000E+00 -0.00000000000E+00 -0.14420848456E+04  0.14420848456E+04  0.25500000000E-02 0. -1.
    8880023    1    1    2    0    0  0.85244603744E+03  0.11815929452E+04 -0.64127698770E+03  0.17227514377E+04  0.65864270000E+03 0.  0.
    8880022    1    1    2    0    0 -0.85244603744E+03 -0.11815929452E+04  0.18030398419E+04  0.23231811078E+04  0.15294330000E+03 0.  0.
<mgrwt>
<rscale>  0 0.15643542E+04</rscale>
<asrwt>0</asrwt>
<pdfrwt beam="1">  1        2 0.22185921E+00 0.15989485E+04</pdfrwt>
<pdfrwt beam="2">  1       -2 0.40059195E+00 0.15989485E+04</pdfrwt>
<totfact> 0.93900703E-02</totfact>
</mgrwt>
</event>
<event>
 4    5  0.6615028E-008  0.1162048E+04  0.7818608E-02  0.9194928E-01
          2   -1    0    0  501    0  0.00000000000E+00  0.00000000000E+00  0.35689422068E+04  0.35689422068E+04  0.25500000000E-02 0. -1.
         -2   -1    0    0    0  501 -0.00000000000E+00 -0.00000000000E+00 -0.57644381572E+03  0.57644381572E+03  0.25500000000E-02 0.  1.
    8880023    1    1    2    0    0 -0.69392529732E+03 -0.65955448139E+03  0.29548674692E+04  0.31751529725E+04  0.65864270000E+03 0.  0.
    8880022    1    1    2    0    0  0.69392529732E+03  0.65955448139E+03  0.37630921977E+02  0.97023305008E+03  0.15294330000E+03 0.  0.
<mgrwt>
<rscale>  0 0.11105938E+04</rscale>
<asrwt>0</asrwt>
<pdfrwt beam="1">  1        2 0.54906803E+00 0.11620476E+04</pdfrwt>
<pdfrwt beam="2">  1       -2 0.88683665E-01 0.11620476E+04</pdfrwt>
<totfact> 0.80203162E-01</totfact>
</mgrwt>
</event>
<event>
 4    5  0.6615028E-008  0.6638842E+03  0.7818608E-02  0.1020488E+00
         -2   -1    0    0    0  501 -0.00000000000E+00  0.00000000000E+00  0.44293249544E+03  0.44293249544E+03  0.25500000000E-02 0.  1.
          2   -1    0    0  501    0  0.00000000000E+00 -0.00000000000E+00 -0.16912225701E+04  0.16912225701E+04  0.25500000000E-02 0. -1.
    8880023    1    1    2    0    0 -0.61145519123E+02 -0.56509273352E+02 -0.16051784376E+04  0.17370492495E+04  0.65864270000E+03 0. -1.
    8880022    1    1    2    0    0  0.61145519123E+02  0.56509273352E+02  0.35688836295E+03  0.39710581601E+03  0.15294330000E+03 0.  0.
<mgrwt>
<rscale>  0 0.47510772E+03</rscale>
<asrwt>0</asrwt>
<pdfrwt beam="1">  1        2 0.26018808E+00 0.66388424E+03</pdfrwt>
<pdfrwt beam="2">  1       -2 0.68143462E-01 0.66388424E+03</pdfrwt>
<totfact> 0.20326668E+01</totfact>
</mgrwt>
</event>
<event>
 4    5  0.6615028E-008  0.9199685E+03  0.7818608E-02  0.9494707E-01
         -2   -1    0    0    0  501 -0.00000000000E+00  0.00000000000E+00  0.33704873614E+03  0.33704873615E+03  0.25500000000E-02 0.  1.
          2   -1    0    0  501    0  0.00000000000E+00 -0.00000000000E+00 -0.25607936954E+04  0.25607936954E+04  0.25500000000E-02 0. -1.
    8880023    1    1    2    0    0  0.37490154692E+03 -0.52151767606E+03 -0.19987643665E+04  0.22003183987E+04  0.65864270000E+03 0.  0.
    8880022    1    1    2    0    0 -0.37490154692E+03  0.52151767606E+03 -0.22498059271E+03  0.69752403287E+03  0.15294330000E+03 0.  0.
<mgrwt>
<rscale>  0 0.84675157E+03</rscale>
<asrwt>0</asrwt>
<pdfrwt beam="1">  1        2 0.39396825E+00 0.91996851E+03</pdfrwt>
<pdfrwt beam="2">  1       -2 0.51853653E-01 0.91996851E+03</pdfrwt>
<totfact> 0.11535636E+01</totfact>
</mgrwt>
</event>
<event>
 4    5  0.6615028E-008  0.8019590E+03  0.7818608E-02  0.9706576E-01
         -2   -1    0    0    0  501 -0.00000000000E+00  0.00000000000E+00  0.49282498110E+03  0.49282498111E+03  0.25500000000E-02 0.  1.
          2   -1    0    0  501    0  0.00000000000E+00 -0.00000000000E+00 -0.19085618520E+04  0.19085618520E+04  0.25500000000E-02 0. -1.
    8880023    1    1    2    0    0  0.24422724820E+03  0.38688631177E+03 -0.16725516406E+04  0.18548765899E+04  0.65864270000E+03 0.  0.
    8880022    1    1    2    0    0 -0.24422724820E+03 -0.38688631177E+03  0.25681476969E+03  0.54651024322E+03  0.15294330000E+03 0.  0.
<mgrwt>
<rscale>  0 0.70626589E+03</rscale>
<asrwt>0</asrwt>
<pdfrwt beam="1">  1        2 0.29362490E+00 0.80195896E+03</pdfrwt>
<pdfrwt beam="2">  1       -2 0.75819229E-01 0.80195896E+03</pdfrwt>
<totfact> 0.12005963E+01</totfact>
</mgrwt>
</event>
<event>
 4    5  0.6615028E-008  0.1075635E+04  0.7818608E-02  0.9288681E-01
         -2   -1    0    0    0  501 -0.00000000000E+00  0.00000000000E+00  0.77817167711E+03  0.77817167711E+03  0.25500000000E-02 0.  1.
          2   -1    0    0  501    0  0.00000000000E+00 -0.00000000000E+00 -0.16413879580E+04  0.16413879580E+04  0.25500000000E-02 0. -1.
    8880023    1    1    2    0    0  0.52750331233E+03 -0.66702387907E+03 -0.10846782815E+04  0.15275856050E+04  0.65864270000E+03 0.  0.
    8880022    1    1    2    0    0 -0.52750331233E+03  0.66702387907E+03  0.22146200063E+03  0.89197403017E+03  0.15294330000E+03 0.  0.
<mgrwt>
<rscale>  0 0.10183163E+04</rscale>
<asrwt>0</asrwt>
<pdfrwt beam="1">  1        2 0.25252122E+00 0.10756351E+04</pdfrwt>
<pdfrwt beam="2">  1       -2 0.11971872E+00 0.10756351E+04</pdfrwt>
<totfact> 0.55739336E+00</totfact>
</mgrwt>
</event>
<event>
 4    5  0.6615028E-008  0.1336848E+04  0.7818608E-02  0.9034375E-01
         -2   -1    0    0    0  501 -0.00000000000E+00  0.00000000000E+00  0.18845118497E+04  0.18845118497E+04  0.25500000000E-02 0.  1.
          2   -1    0    0  501    0  0.00000000000E+00 -0.00000000000E+00 -0.90865713614E+03  0.90865713614E+03  0.25500000000E-02 0. -1.
    8880023    1    1    2    0    0  0.93288671234E+03 -0.69503589023E+03  0.12275639040E+03  0.13424722881E+04  0.65864270000E+03 0.  0.
    8880022    1    1    2    0    0 -0.93288671234E+03  0.69503589023E+03  0.85309832317E+03  0.14506966977E+04  0.15294330000E+03 0.  0.
<mgrwt>
<rscale>  0 0.12939521E+04</rscale>
<asrwt>0</asrwt>
<pdfrwt beam="1">  1        2 0.13979341E+00 0.13368481E+04</pdfrwt>
<pdfrwt beam="2">  1       -2 0.28992490E+00 0.13368481E+04</pdfrwt>
<totfact> 0.10217700E+00</totfact>
</mgrwt>
</event>
<event>
 4    5  0.6615028E-008  0.7283405E+03  0.7818608E-02  0.9895313E-01
          2   -1    0    0  501    0  0.00000000000E+00  0.00000000000E+00  0.10267942687E+04  0.10267942687E+04  0.25500000000E-02 0. -1.
         -2   -1    0    0    0  501 -0.00000000000E+00 -0.00000000000E+00 -0.65758200292E+03  0.65758200293E+03  0.25500000000E-02 0.  1.
    8880023    1    1    2    0    0 -0.20343896060E+03 -0.23512185171E+03  0.83231373074E+03  0.11059955011E+04  0.65864270000E+03 0.  0.
    8880022    1    1    2    0    0  0.20343896060E+03  0.23512185171E+03 -0.46310146496E+03  0.57838077052E+03  0.15294330000E+03 0.  0.
<mgrwt>
<rscale>  0 0.60488979E+03</rscale>
<asrwt>0</asrwt>
<pdfrwt beam="1">  1        2 0.15796835E+00 0.72834051E+03</pdfrwt>
<pdfrwt beam="2">  1       -2 0.10116646E+00 0.72834051E+03</pdfrwt>
<totfact> 0.19829722E+01</totfact>
</mgrwt>
</event>
<event>
 4    5  0.6615028E-008  0.1030351E+04  0.7818608E-02  0.9342884E-01
         -2   -1    0    0    0  501 -0.00000000000E+00  0.00000000000E+00  0.17590735041E+04  0.17590735041E+04  0.25500000000E-02 0.  1.
          2   -1    0    0  501    0  0.00000000000E+00 -0.00000000000E+00 -0.83939992998E+03  0.83939992999E+03  0.25500000000E-02 0. -1.
    8880023    1    1    2    0    0 -0.58587524409E+03 -0.53344508926E+03 -0.35503367991E+03  0.10898039204E+04  0.65864270000E+03 0.  0.
    8880022    1    1    2    0    0  0.58587524409E+03  0.53344508926E+03  0.12747072540E+04  0.15086695136E+04  0.15294330000E+03 0.  0.
<mgrwt>
<rscale>  0 0.96928992E+03</rscale>
<asrwt>0</asrwt>
<pdfrwt beam="1">  1        2 0.12913845E+00 0.10303512E+04</pdfrwt>
<pdfrwt beam="2">  1       -2 0.27062669E+00 0.10303512E+04</pdfrwt>
<totfact> 0.15453105E+00</totfact>
</mgrwt>
</event>
<event>
 4    5  0.6615028E-008  0.1129842E+04  0.7818608E-02  0.9228537E-01
          2   -1    0    0  501    0  0.00000000000E+00  0.00000000000E+00  0.21758192508E+04  0.21758192508E+04  0.25500000000E-02 0. -1.
         -2   -1    0    0    0  501 -0.00000000000E+00 -0.00000000000E+00 -0.90370732686E+03  0.90370732686E+03  0.25500000000E-02 0.  1.
    8880023    1    1    2    0    0  0.75501229273E+03 -0.52219547808E+03  0.17111518902E+04  0.20505079071E+04  0.65864270000E+03 0. -1.
    8880022    1    1    2    0    0 -0.75501229273E+03  0.52219547808E+03 -0.43903996621E+03  0.10290186706E+04  0.15294330000E+03 0.  0.
<mgrwt>
<rscale>  0 0.10763676E+04</rscale>
<asrwt>0</asrwt>
<pdfrwt beam="1">  1        2 0.33474142E+00 0.11298415E+04</pdfrwt>
<pdfrwt beam="2">  1       -2 0.13903190E+00 0.11298415E+04</pdfrwt>
<totfact> 0.19166874E+00</totfact>
</mgrwt>
</event>
<event>
 4    5  0.6615028E-008  0.8293928E+03  0.7818608E-02  0.9650515E-01
         -2   -1    0    0    0  501 -0.00000000000E+00  0.00000000000E+00  0.76879657623E+03  0.76879657624E+03  0.25500000000E-02 0.  1.
          2   -1    0    0  501    0  0.00000000000E+00 -0.00000000000E+00 -0.75349587581E+03  0.75349587582E+03  0.25500000000E-02 0. -1.
    8880023    1    1    2    0    0 -0.54350522942E+02 -0.50112691268E+03 -0.32979717096E+03  0.89255730471E+03  0.65864270000E+03 0.  1.
    8880022    1    1    2    0    0  0.54350522942E+02  0.50112691268E+03  0.34509787138E+03  0.62973514734E+03  0.15294330000E+03 0.  0.
<mgrwt>
<rscale>  0 0.74041112E+03</rscale>
<asrwt>0</asrwt>
<pdfrwt beam="1">  1        2 0.11592244E+00 0.82939277E+03</pdfrwt>
<pdfrwt beam="2">  1       -2 0.11827640E+00 0.82939277E+03</pdfrwt>
<totfact> 0.20658570E+01</totfact>
</mgrwt>
</event>
<event>
 4    5  0.6615028E-008  0.6789239E+03  0.7818608E-02  0.1009939E+00
         -2   -1    0    0    0  501 -0.00000000000E+00  0.00000000000E+00  0.53874481409E+03  0.53874481410E+03  0.25500000000E-02 0.  1.
          2   -1    0    0  501    0  0.00000000000E+00 -0.00000000000E+00 -0.25441085783E+04  0.25441085783E+04  0.25500000000E-02 0. -1.
    8880023    1    1    2    0    0 -0.13743634838E+03 -0.90767227865E+02 -0.24727344681E+04  0.25642451902E+04  0.65864270000E+03 0. -1.
    8880022    1    1    2    0    0  0.13743634838E+03  0.90767227865E+02  0.46737070389E+03  0.51860820219E+03  0.15294330000E+03 0.  0.
<mgrwt>
<rscale>  0 0.51498877E+03</rscale>
<asrwt>0</asrwt>
<pdfrwt beam="1">  1        2 0.39140131E+00 0.67892389E+03</pdfrwt>
<pdfrwt beam="2">  1       -2 0.82883819E-01 0.67892389E+03</pdfrwt>
<totfact> 0.44628838E+00</totfact>
</mgrwt>
</event>
<event>
 4    5  0.6615028E-008  0.7403728E+03  0.7818608E-02  0.9858863E-01
          2   -1    0    0  501    0  0.00000000000E+00  0.00000000000E+00  0.18662797751E+04  0.18662797751E+04  0.25500000000E-02 0. -1.
         -2   -1    0    0    0  501 -0.00000000000E+00 -0.00000000000E+00 -0.36535928370E+03  0.36535928371E+03  0.25500000000E-02 0.  1.
    8880023    1    1    2    0    0 -0.25925571921E+03 -0.21709003531E+03  0.16677791583E+04  0.18247298809E+04  0.65864270000E+03 0. -1.
    8880022    1    1    2    0    0  0.25925571921E+03  0.21709003531E+03 -0.16685866681E+03  0.40690917792E+03  0.15294330000E+03 0.  0.
<mgrwt>
<rscale>  0 0.62297078E+03</rscale>
<asrwt>0</asrwt>
<pdfrwt beam="1">  1        2 0.28711997E+00 0.74037276E+03</pdfrwt>
<pdfrwt beam="2">  1       -2 0.56209120E-01 0.74037276E+03</pdfrwt>
<totfact> 0.24306128E+01</totfact>
</mgrwt>
</event>
<event>
 4    5  0.6615028E-008  0.6659367E+03  0.7818608E-02  0.1018760E+00
          2   -1    0    0  501    0  0.00000000000E+00  0.00000000000E+00  0.28595160869E+04  0.28595160869E+04  0.25500000000E-02 0. -1.
         -2   -1    0    0    0  501 -0.00000000000E+00 -0.00000000000E+00 -0.14710956144E+03  0.14710956146E+03  0.25500000000E-02 0.  1.
    8880023    1    1    2    0    0  0.90989025061E+01 -0.97871011134E+02  0.27426344888E+04  0.28223245154E+04  0.65864270000E+03 0. -1.
    8880022    1    1    2    0    0 -0.90989025061E+01  0.97871011134E+02 -0.30227963286E+02  0.18430113300E+03  0.15294330000E+03 0.  0.
<mgrwt>
<rscale>  0 0.48136707E+03</rscale>
<asrwt>0</asrwt>
<pdfrwt beam="1">  1        2 0.43992551E+00 0.66593673E+03</pdfrwt>
<pdfrwt beam="2">  1       -2 0.22632242E-01 0.66593673E+03</pdfrwt>
<totfact> 0.38874938E+01</totfact>
</mgrwt>
</event>
<event>
 4    5  0.6615028E-008  0.1005302E+04  0.7818608E-02  0.9374653E-01
          2   -1    0    0  501    0  0.00000000000E+00  0.00000000000E+00  0.14254904823E+04  0.14254904823E+04  0.25500000000E-02 0. -1.
         -2   -1    0    0    0  501 -0.00000000000E+00 -0.00000000000E+00 -0.80958208040E+03  0.80958208040E+03  0.25500000000E-02 0.  1.
    8880023    1    1    2    0    0  0.68255398979E+03  0.33308039564E+03  0.95754696747E+03  0.13883547458E+04  0.65864270000E+03 0.  0.
    8880022    1    1    2    0    0 -0.68255398979E+03 -0.33308039564E+03 -0.34163856560E+03  0.84671781690E+03  0.15294330000E+03 0.  0.
<mgrwt>
<rscale>  0 0.94191299E+03</rscale>
<asrwt>0</asrwt>
<pdfrwt beam="1">  1        2 0.21930623E+00 0.10053023E+04</pdfrwt>
<pdfrwt beam="2">  1       -2 0.12455109E+00 0.10053023E+04</pdfrwt>
<totfact> 0.67210860E+00</totfact>
</mgrwt>
</event>
<event>
 4    5  0.6615028E-008  0.1083652E+04  0.7818608E-02  0.9279479E-01
          2   -1    0    0  501    0  0.00000000000E+00  0.00000000000E+00  0.40160360074E+04  0.40160360074E+04  0.25500000000E-02 0. -1.
         -2   -1    0    0    0  501 -0.00000000000E+00 -0.00000000000E+00 -0.65186524733E+03  0.65186524733E+03  0.25500000000E-02 0.  1.
    8880023    1    1    2    0    0  0.82469960630E+03  0.24568891200E+03  0.36025238761E+04  0.37619783314E+04  0.65864270000E+03 0. -1.
    8880022    1    1    2    0    0 -0.82469960630E+03 -0.24568891200E+03 -0.23835311598E+03  0.90592292334E+03  0.15294330000E+03 0.  0.
<mgrwt>
<rscale>  0 0.10269421E+04</rscale>
<asrwt>0</asrwt>
<pdfrwt beam="1">  1        2 0.61785168E+00 0.10836525E+04</pdfrwt>
<pdfrwt beam="2">  1       -2 0.10028696E+00 0.10836525E+04</pdfrwt>
<totfact> 0.28187529E-01</totfact>
</mgrwt>
</event>
<event>
 4    5  0.6615028E-008  0.1180349E+04  0.7818608E-02  0.9176465E-01
          2   -1    0    0  501    0  0.00000000000E+00  0.00000000000E+00  0.17146147695E+04  0.17146147695E+04  0.25500000000E-02 0. -1.
         -2   -1    0    0    0  501 -0.00000000000E+00 -0.00000000000E+00 -0.18909927770E+04  0.18909927770E+04  0.25500000000E-02 0.  1.
    8880023    1    1    2    0    0 -0.95636352993E+03 -0.21162010949E+03  0.13451578622E+04  0.17896016743E+04  0.65864270000E+03 0.  0.
    8880022    1    1    2    0    0  0.95636352993E+03  0.21162010949E+03 -0.15215358697E+04  0.18160058722E+04  0.15294330000E+03 0.  0.
<mgrwt>
<rscale>  0 0.11299686E+04</rscale>
<asrwt>0</asrwt>
<pdfrwt beam="1">  1        2 0.26378689E+00 0.11803493E+04</pdfrwt>
<pdfrwt beam="2">  1       -2 0.29092197E+00 0.11803493E+04</pdfrwt>
<totfact> 0.33988390E-01</totfact>
</mgrwt>
</event>
<event>
 4    5  0.6615028E-008  0.8669249E+03  0.7818608E-02  0.9581362E-01
          2   -1    0    0  501    0  0.00000000000E+00  0.00000000000E+00  0.33848629547E+04  0.33848629547E+04  0.25500000000E-02 0. -1.
         -2   -1    0    0    0  501 -0.00000000000E+00 -0.00000000000E+00 -0.37392129788E+03  0.37392129789E+03  0.25500000000E-02 0.  1.
    8880023    1    1    2    0    0  0.53289984774E+03 -0.18375622654E+03  0.30525165436E+04  0.31732343207E+04  0.65864270000E+03 0.  0.
    8880022    1    1    2    0    0 -0.53289984774E+03  0.18375622654E+03 -0.41574886824E+02  0.58554993190E+03  0.15294330000E+03 0.  0.
<mgrwt>
<rscale>  0 0.78542141E+03</rscale>
<asrwt>0</asrwt>
<pdfrwt beam="1">  1        2 0.52074815E+00 0.86692491E+03</pdfrwt>
<pdfrwt beam="2">  1       -2 0.57526353E-01 0.86692491E+03</pdfrwt>
<totfact> 0.29204273E+00</totfact>
</mgrwt>
</event>
<event>
 4    5  0.6615028E-008  0.8641911E+03  0.7818608E-02  0.9586151E-01
         -2   -1    0    0    0  501 -0.00000000000E+00  0.00000000000E+00  0.12204539690E+04  0.12204539690E+04  0.25500000000E-02 0.  1.
          2   -1    0    0  501    0  0.00000000000E+00 -0.00000000000E+00 -0.16609371812E+04  0.16609371812E+04  0.25500000000E-02 0. -1.
    8880023    1    1    2    0    0  0.55447036490E+03 -0.74690331538E+02 -0.14668425090E+04  0.17024844151E+04  0.65864270000E+03 0.  0.
    8880022    1    1    2    0    0 -0.55447036490E+03  0.74690331538E+02  0.10263592967E+04  0.11789067351E+04  0.15294330000E+03 0.  0.
<mgrwt>
<rscale>  0 0.78219597E+03</rscale>
<asrwt>0</asrwt>
<pdfrwt beam="1">  1        2 0.25552880E+00 0.86419109E+03</pdfrwt>
<pdfrwt beam="2">  1       -2 0.18776215E+00 0.86419109E+03</pdfrwt>
<totfact> 0.16779311E+00</totfact>
</mgrwt>
</event>
<event>
 4    5  0.6615028E-008  0.9691174E+03  0.7818608E-02  0.9423126E-01
          2   -1    0    0  501    0  0.00000000000E+00  0.00000000000E+00  0.20399991716E+04  0.20399991716E+04  0.25500000000E-02 0. -1.
         -2   -1    0    0    0  501 -0.00000000000E+00 -0.00000000000E+00 -0.54011563359E+03  0.54011563359E+03  0.25500000000E-02 0.  1.
    8880023    1    1    2    0    0  0.55086667993E+03  0.44935982477E+03  0.15747964943E+04  0.18491004721E+04  0.65864270000E+03 0. -1.
    8880022    1    1    2    0    0 -0.55086667993E+03 -0.44935982477E+03 -0.74912956280E+02  0.73101433310E+03  0.15294330000E+03 0.  0.
<mgrwt>
<rscale>  0 0.90196700E+03</rscale>
<asrwt>0</asrwt>
<pdfrwt beam="1">  1        2 0.31384603E+00 0.96911741E+03</pdfrwt>
<pdfrwt beam="2">  1       -2 0.83094713E-01 0.96911741E+03</pdfrwt>
<totfact> 0.81012605E+00</totfact>
</mgrwt>
</event>
<event>
 4    5  0.6615028E-008  0.6757427E+03  0.7818608E-02  0.1011842E+00
         -2   -1    0    0    0  501 -0.00000000000E+00  0.00000000000E+00  0.17200614937E+04  0.17200614937E+04  0.25500000000E-02 0.  1.
          2   -1    0    0  501    0  0.00000000000E+00 -0.00000000000E+00 -0.15988283411E+04  0.15988283411E+04  0.25500000000E-02 0. -1.
    8880023    1    1    2    0    0 -0.57849215635E+02 -0.13954015173E+03 -0.15201050548E+04  0.16635346614E+04  0.65864270000E+03 0. -1.
    8880022    1    1    2    0    0  0.57849215635E+02  0.13954015173E+03  0.16413382075E+04  0.16553551734E+04  0.15294330000E+03 0.  0.
<mgrwt>
<rscale>  0 0.50749012E+03</rscale>
<asrwt>0</asrwt>
<pdfrwt beam="1">  1        2 0.24597359E+00 0.67574270E+03</pdfrwt>
<pdfrwt beam="2">  1       -2 0.26462485E+00 0.67574270E+03</pdfrwt>
<totfact> 0.62217106E-01</totfact>
</mgrwt>
</event>
<event>
 4    5  0.6615028E-008  0.9386357E+03  0.7818608E-02  0.9466657E-01
         -2   -1    0    0    0  501 -0.00000000000E+00  0.00000000000E+00  0.12684117058E+04  0.12684117058E+04  0.25500000000E-02 0.  1.
          2   -1    0    0  501    0  0.00000000000E+00 -0.00000000000E+00 -0.10889354426E+04  0.10889354426E+04  0.25500000000E-02 0. -1.
    8880023    1    1    2    0    0 -0.36659998408E+03 -0.55931315893E+03 -0.75045446510E+03  0.12017565762E+04  0.65864270000E+03 0.  0.
    8880022    1    1    2    0    0  0.36659998408E+03  0.55931315893E+03  0.92993072827E+03  0.11555905722E+04  0.15294330000E+03 0.  0.
<mgrwt>
<rscale>  0 0.86787347E+03</rscale>
<asrwt>0</asrwt>
<pdfrwt beam="1">  1        2 0.16752853E+00 0.93863569E+03</pdfrwt>
<pdfrwt beam="2">  1       -2 0.19514026E+00 0.93863569E+03</pdfrwt>
<totfact> 0.31663718E+00</totfact>
</mgrwt>
</event>
<event>
 4    5  0.6615028E-008  0.1649930E+04  0.7818608E-02  0.8810433E-01
          2   -1    0    0  501    0  0.00000000000E+00  0.00000000000E+00  0.23898173250E+04  0.23898173250E+04  0.25500000000E-02 0. -1.
         -2   -1    0    0    0  501 -0.00000000000E+00 -0.00000000000E+00 -0.13363823249E+04  0.13363823249E+04  0.25500000000E-02 0.  1.
    8880023    1    1    2    0    0  0.81681125208E+03 -0.12732943738E+04  0.14032971786E+04  0.21659899265E+04  0.65864270000E+03 0.  0.
    8880022    1    1    2    0    0 -0.81681125208E+03  0.12732943738E+04 -0.34986217853E+03  0.15602097234E+04  0.15294330000E+03 0.  0.
<mgrwt>
<rscale>  0 0.16165686E+04</rscale>
<asrwt>0</asrwt>
<pdfrwt beam="1">  1        2 0.36766420E+00 0.16499301E+04</pdfrwt>
<pdfrwt beam="2">  1       -2 0.20559728E+00 0.16499301E+04</pdfrwt>
<totfact> 0.45540913E-01</totfact>
</mgrwt>
</event>
<event>
 4    5  0.6615028E-008  0.7978120E+03  0.7818608E-02  0.9715547E-01
         -2   -1    0    0    0  501 -0.00000000000E+00  0.00000000000E+00  0.55200390383E+03  0.55200390384E+03  0.25500000000E-02 0.  1.
          2   -1    0    0  501    0  0.00000000000E+00 -0.00000000000E+00 -0.10957294828E+04  0.10957294828E+04  0.25500000000E-02 0. -1.
    8880023    1    1    2    0    0  0.10244758121E+03  0.43840429520E+03 -0.78089759088E+03  0.11163803504E+04  0.65864270000E+03 0. -1.
    8880022    1    1    2    0    0 -0.10244758121E+03 -0.43840429520E+03  0.23717201189E+03  0.53135303630E+03  0.15294330000E+03 0.  1.
<mgrwt>
<rscale>  0 0.70098629E+03</rscale>
<asrwt>0</asrwt>
<pdfrwt beam="1">  1        2 0.16857377E+00 0.79781203E+03</pdfrwt>
<pdfrwt beam="2">  1       -2 0.84923678E-01 0.79781203E+03</pdfrwt>
<totfact> 0.26797986E+01</totfact>
</mgrwt>
</event>
<event>
 4    5  0.6615028E-008  0.1113659E+04  0.7818608E-02  0.9245999E-01
         -2   -1    0    0    0  501 -0.00000000000E+00  0.00000000000E+00  0.88917307859E+03  0.88917307860E+03  0.25500000000E-02 0.  1.
          2   -1    0    0  501    0  0.00000000000E+00 -0.00000000000E+00 -0.12079498514E+04  0.12079498514E+04  0.25500000000E-02 0. -1.
    8880023    1    1    2    0    0  0.81592740703E+03 -0.37508369132E+03  0.49008781184E+02  0.11147364603E+04  0.65864270000E+03 0.  0.
    8880022    1    1    2    0    0 -0.81592740703E+03  0.37508369132E+03 -0.36778555395E+03  0.98238646965E+03  0.15294330000E+03 0.  0.
<mgrwt>
<rscale>  0 0.10590997E+04</rscale>
<asrwt>0</asrwt>
<pdfrwt beam="1">  1        2 0.18583844E+00 0.11136586E+04</pdfrwt>
<pdfrwt beam="2">  1       -2 0.13679586E+00 0.11136586E+04</pdfrwt>
<totfact> 0.70115324E+00</totfact>
</mgrwt>
</event>
<event>
 4    5  0.6615028E-008  0.8948119E+03  0.7818608E-02  0.9534412E-01
         -2   -1    0    0    0  501 -0.00000000000E+00  0.00000000000E+00  0.24540477726E+04  0.24540477726E+04  0.25500000000E-02 0.  1.
          2   -1    0    0  501    0  0.00000000000E+00 -0.00000000000E+00 -0.47528143057E+03  0.47528143058E+03  0.25500000000E-02 0. -1.
    8880023    1    1    2    0    0 -0.20092707090E+03 -0.57140735133E+03  0.43653406372E+02  0.89587603781E+03  0.65864270000E+03 0. -1.
    8880022    1    1    2    0    0  0.20092707090E+03  0.57140735133E+03  0.19351129356E+04  0.20334531653E+04  0.15294330000E+03 0.  0.
<mgrwt>
<rscale>  0 0.81793615E+03</rscale>
<asrwt>0</asrwt>
<pdfrwt beam="1">  1        2 0.73120218E-01 0.89481185E+03</pdfrwt>
<pdfrwt beam="2">  1       -2 0.37754582E+00 0.89481185E+03</pdfrwt>
<totfact> 0.70129254E-01</totfact>
</mgrwt>
</event>
<event>
 4    5  0.6615028E-008  0.1784056E+04  0.7818608E-02  0.8731408E-01
          2   -1    0    0  501    0  0.00000000000E+00  0.00000000000E+00  0.27302251795E+04  0.27302251795E+04  0.25500000000E-02 0. -1.
         -2   -1    0    0    0  501 -0.00000000000E+00 -0.00000000000E+00 -0.18984541178E+04  0.18984541178E+04  0.25500000000E-02 0.  1.
    8880023    1    1    2    0    0 -0.21380526168E+03  0.16441814655E+04  0.19345016827E+04  0.26315684198E+04  0.65864270000E+03 0.  0.
    8880022    1    1    2    0    0  0.21380526168E+03 -0.16441814655E+04 -0.11027306210E+04  0.19971108775E+04  0.15294330000E+03 0.  0.
<mgrwt>
<rscale>  0 0.17535335E+04</rscale>
<asrwt>0</asrwt>
<pdfrwt beam="1">  1        2 0.42003464E+00 0.17840559E+04</pdfrwt>
<pdfrwt beam="2">  1       -2 0.29206986E+00 0.17840559E+04</pdfrwt>
<totfact> 0.82064891E-02</totfact>
</mgrwt>
</event>
<event>
 4    5  0.6615028E-008  0.6667158E+03  0.7818608E-02  0.1018135E+00
         -2   -1    0    0    0  501 -0.00000000000E+00  0.00000000000E+00  0.16888686365E+04  0.16888686365E+04  0.25500000000E-02 0.  1.
          2   -1    0    0  501    0  0.00000000000E+00 -0.00000000000E+00 -0.36683079507E+03  0.36683079508E+03  0.25500000000E-02 0. -1.
    8880023    1    1    2    0    0  0.19600083282E+01  0.10342099207E+03 -0.52533991308E+02  0.66878230370E+03  0.65864270000E+03 0.  0.
    8880022    1    1    2    0    0 -0.19600083282E+01 -0.10342099207E+03  0.13745718328E+04  0.13869171279E+04  0.15294330000E+03 0.  1.
<mgrwt>
<rscale>  0 0.48365553E+03</rscale>
<asrwt>0</asrwt>
<pdfrwt beam="1">  1        2 0.56435507E-01 0.66671579E+03</pdfrwt>
<pdfrwt beam="2">  1       -2 0.25982595E+00 0.66671579E+03</pdfrwt>
<totfact> 0.51081585E+00</totfact>
</mgrwt>
</event>
<event>
 4    5  0.6615028E-008  0.7789264E+03  0.7818608E-02  0.9758365E-01
         -2   -1    0    0    0  501 -0.00000000000E+00  0.00000000000E+00  0.34204418433E+03  0.34204418434E+03  0.25500000000E-02 0.  1.
          2   -1    0    0  501    0  0.00000000000E+00 -0.00000000000E+00 -0.12597831156E+04  0.12597831156E+04  0.25500000000E-02 0. -1.
    8880023    1    1    2    0    0  0.87147607888E+02 -0.40659731346E+03 -0.85117753344E+03  0.11537891838E+04  0.65864270000E+03 0.  0.
    8880022    1    1    2    0    0 -0.87147607888E+02  0.40659731346E+03 -0.66561397866E+02  0.44803811621E+03  0.15294330000E+03 0.  0.
<mgrwt>
<rscale>  0 0.67645589E+03</rscale>
<asrwt>0</asrwt>
<pdfrwt beam="1">  1        2 0.19381278E+00 0.77892637E+03</pdfrwt>
<pdfrwt beam="2">  1       -2 0.52622183E-01 0.77892637E+03</pdfrwt>
<totfact> 0.60372801E+01</totfact>
</mgrwt>
</event>
<event>
 4    5  0.6615028E-008  0.8721316E+03  0.7818608E-02  0.9572338E-01
          2   -1    0    0  501    0  0.00000000000E+00  0.00000000000E+00  0.18493389295E+04  0.18493389295E+04  0.25500000000E-02 0. -1.
         -2   -1    0    0    0  501 -0.00000000000E+00 -0.00000000000E+00 -0.39585272639E+03  0.39585272640E+03  0.25500000000E-02 0.  1.
    8880023    1    1    2    0    0 -0.40207403191E+03 -0.40637390642E+03  0.14020751637E+04  0.16511899497E+04  0.65864270000E+03 0. -1.
    8880022    1    1    2    0    0  0.40207403191E+03  0.40637390642E+03  0.51411039338E+02  0.59400170617E+03  0.15294330000E+03 0.  0.
<mgrwt>
<rscale>  0 0.79154433E+03</rscale>
<asrwt>0</asrwt>
<pdfrwt beam="1">  1        2 0.28451368E+00 0.87213158E+03</pdfrwt>
<pdfrwt beam="2">  1       -2 0.60900420E-01 0.87213158E+03</pdfrwt>
<totfact> 0.20641270E+01</totfact>
</mgrwt>
</event>
<event>
 4    5  0.6615028E-008  0.1222104E+04  0.7818608E-02  0.9135930E-01
          2   -1    0    0  501    0  0.00000000000E+00  0.00000000000E+00  0.10648659878E+04  0.10648659878E+04  0.25500000000E-02 0. -1.
         -2   -1    0    0    0  501 -0.00000000000E+00 -0.00000000000E+00 -0.12727300636E+04  0.12727300636E+04  0.25500000000E-02 0.  1.
    8880023    1    1    2    0    0 -0.92414924745E+03  0.45351499546E+03  0.16264777452E+03  0.12328796322E+04  0.65864270000E+03 0. -1.
    8880022    1    1    2    0    0  0.92414924745E+03 -0.45351499546E+03 -0.37051185037E+03  0.11047164192E+04  0.15294330000E+03 0.  0.
<mgrwt>
<rscale>  0 0.11739933E+04</rscale>
<asrwt>0</asrwt>
<pdfrwt beam="1">  1        2 0.16382554E+00 0.12221039E+04</pdfrwt>
<pdfrwt beam="2">  1       -2 0.19580462E+00 0.12221039E+04</pdfrwt>
<totfact> 0.31506964E+00</totfact>
</mgrwt>
</event>
<event>
 4    5  0.6615028E-008  0.1117072E+04  0.7818608E-02  0.9242282E-01
          2   -1    0    0  501    0  0.00000000000E+00  0.00000000000E+00  0.27719327864E+04  0.27719327864E+04  0.25500000000E-02 0. -1.
         -2   -1    0    0    0  501 -0.00000000000E+00 -0.00000000000E+00 -0.42932149772E+03  0.42932149773E+03  0.25500000000E-02 0.  1.
    8880023    1    1    2    0    0  0.11128031401E+03  0.89535323963E+03  0.18522896532E+04  0.21630598460E+04  0.65864270000E+03 0.  0.
    8880022    1    1    2    0    0 -0.11128031401E+03 -0.89535323963E+03  0.49032163547E+03  0.10381944381E+04  0.15294330000E+03 0.  0.
<mgrwt>
<rscale>  0 0.10627466E+04</rscale>
<asrwt>0</asrwt>
<pdfrwt beam="1">  1        2 0.42645121E+00 0.11170725E+04</pdfrwt>
<pdfrwt beam="2">  1       -2 0.66049459E-01 0.11170725E+04</pdfrwt>
<totfact> 0.50799908E+00</totfact>
</mgrwt>
</event>
<event>
 4    5  0.6615028E-008  0.1519198E+04  0.7818608E-02  0.8896197E-01
          2   -1    0    0  501    0  0.00000000000E+00  0.00000000000E+00  0.22008392427E+04  0.22008392427E+04  0.25500000000E-02 0. -1.
         -2   -1    0    0    0  501 -0.00000000000E+00 -0.00000000000E+00 -0.15820159429E+04  0.15820159429E+04  0.25500000000E-02 0.  1.
    8880023    1    1    2    0    0 -0.72769511704E+03 -0.11595745314E+04  0.15101811273E+04  0.21421042274E+04  0.65864270000E+03 0.  0.
    8880022    1    1    2    0    0  0.72769511704E+03  0.11595745314E+04 -0.89135782755E+03  0.16407509583E+04  0.15294330000E+03 0.  0.
<mgrwt>
<rscale>  0 0.14824664E+04</rscale>
<asrwt>0</asrwt>
<pdfrwt beam="1">  1        2 0.33859065E+00 0.15191983E+04</pdfrwt>
<pdfrwt beam="2">  1       -2 0.24338707E+00 0.15191983E+04</pdfrwt>
<totfact> 0.34055714E-01</totfact>
</mgrwt>
</event>
<event>
 4    5  0.6615028E-008  0.7631553E+03  0.7818608E-02  0.9797006E-01
         -2   -1    0    0    0  501 -0.00000000000E+00  0.00000000000E+00  0.79129243238E+03  0.79129243239E+03  0.25500000000E-02 0.  1.
          2   -1    0    0  501    0  0.00000000000E+00 -0.00000000000E+00 -0.71500368163E+03  0.71500368164E+03  0.25500000000E-02 0. -1.
    8880023    1    1    2    0    0  0.28851437206E+03  0.25564680753E+03 -0.41070181707E+03  0.86664988426E+03  0.65864270000E+03 0. -1.
    8880022    1    1    2    0    0 -0.28851437206E+03 -0.25564680753E+03  0.48699056782E+03  0.63964622976E+03  0.15294330000E+03 0.  0.
<mgrwt>
<rscale>  0 0.65523458E+03</rscale>
<asrwt>0</asrwt>
<pdfrwt beam="1">  1        2 0.11000057E+00 0.76315532E+03</pdfrwt>
<pdfrwt beam="2">  1       -2 0.12173730E+00 0.76315532E+03</pdfrwt>
<totfact> 0.20691549E+01</totfact>
</mgrwt>
</event>
<event>
 4    5  0.6615028E-008  0.7187221E+03  0.7818608E-02  0.9926934E-01
         -2   -1    0    0    0  501 -0.00000000000E+00  0.00000000000E+00  0.21668477265E+04  0.21668477265E+04  0.25500000000E-02 0.  1.
          2   -1    0    0  501    0  0.00000000000E+00 -0.00000000000E+00 -0.20913456702E+03  0.20913456703E+03  0.25500000000E-02 0. -1.
    8880023    1    1    2    0    0 -0.69092324257E+02  0.27924442210E+03  0.48354681082E+03  0.86624414634E+03  0.65864270000E+03 0. -1.
    8880022    1    1    2    0    0  0.69092324257E+02 -0.27924442210E+03  0.14741663486E+04  0.15097381472E+04  0.15294330000E+03 0.  0.
<mgrwt>
<rscale>  0 0.58973523E+03</rscale>
<asrwt>0</asrwt>
<pdfrwt beam="1">  1        2 0.32174549E-01 0.71872206E+03</pdfrwt>
<pdfrwt beam="2">  1       -2 0.33336119E+00 0.71872206E+03</pdfrwt>
<totfact> 0.34210396E+00</totfact>
</mgrwt>
</event>
<event>
 4    5  0.6615028E-008  0.1562765E+04  0.7818608E-02  0.8866541E-01
          2   -1    0    0  501    0  0.00000000000E+00  0.00000000000E+00  0.29960568898E+04  0.29960568898E+04  0.25500000000E-02 0. -1.
         -2   -1    0    0    0  501 -0.00000000000E+00 -0.00000000000E+00 -0.12044005278E+04  0.12044005278E+04  0.25500000000E-02 0.  1.
    8880023    1    1    2    0    0 -0.12770293341E+04  0.61450884611E+03  0.22174463400E+04  0.27128036271E+04  0.65864270000E+03 0.  0.
    8880022    1    1    2    0    0  0.12770293341E+04 -0.61450884611E+03 -0.42578997809E+03  0.14876537905E+04  0.15294330000E+03 0.  0.
<mgrwt>
<rscale>  0 0.15272350E+04</rscale>
<asrwt>0</asrwt>
<pdfrwt beam="1">  1        2 0.46093183E+00 0.15627653E+04</pdfrwt>
<pdfrwt beam="2">  1       -2 0.18529239E+00 0.15627653E+04</pdfrwt>
<totfact> 0.27357017E-01</totfact>
</mgrwt>
</event>
<event>
 4    5  0.6615028E-008  0.7977307E+03  0.7818608E-02  0.9715724E-01
         -2   -1    0    0    0  501 -0.00000000000E+00  0.00000000000E+00  0.77172036482E+03  0.77172036483E+03  0.25500000000E-02 0.  1.
          2   -1    0    0  501    0  0.00000000000E+00 -0.00000000000E+00 -0.24994769104E+04  0.24994769104E+04  0.25500000000E-02 0. -1.
    8880023    1    1    2    0    0  0.32501146543E+03  0.31133838708E+03 -0.23537044454E+04  0.24852160603E+04  0.65864270000E+03 0.  0.
    8880022    1    1    2    0    0 -0.32501146543E+03 -0.31133838708E+03  0.62594789980E+03  0.78598121492E+03  0.15294330000E+03 0.  0.
<mgrwt>
<rscale>  0 0.70088237E+03</rscale>
<asrwt>0</asrwt>
<pdfrwt beam="1">  1        2 0.38453491E+00 0.79773069E+03</pdfrwt>
<pdfrwt beam="2">  1       -2 0.11872621E+00 0.79773069E+03</pdfrwt>
<totfact> 0.19778061E+00</totfact>
</mgrwt>
</event>
<event>
 4    5  0.6615028E-008  0.7571802E+03  0.7818608E-02  0.9812463E-01
         -2   -1    0    0    0  501 -0.00000000000E+00  0.00000000000E+00  0.12153475792E+04  0.12153475792E+04  0.25500000000E-02 0.  1.
          2   -1    0    0  501    0  0.00000000000E+00 -0.00000000000E+00 -0.53785380428E+03  0.53785380428E+03  0.25500000000E-02 0. -1.
    8880023    1    1    2    0    0  0.94950426672E+02 -0.36124244092E+03 -0.20358888976E+03  0.78407290920E+03  0.65864270000E+03 0. -1.
    8880022    1    1    2    0    0 -0.94950426672E+02  0.36124244092E+03  0.88108266473E+03  0.96912847433E+03  0.15294330000E+03 0.  0.
<mgrwt>
<rscale>  0 0.64697976E+03</rscale>
<asrwt>0</asrwt>
<pdfrwt beam="1">  1        2 0.82746739E-01 0.75718022E+03</pdfrwt>
<pdfrwt beam="2">  1       -2 0.18697655E+00 0.75718022E+03</pdfrwt>
<totfact> 0.93387935E+00</totfact>
</mgrwt>
</event>
<event>
 4    5  0.6615028E-008  0.1513837E+04  0.7818608E-02  0.8899927E-01
         -2   -1    0    0    0  501 -0.00000000000E+00  0.00000000000E+00  0.75784910606E+03  0.75784910606E+03  0.25500000000E-02 0.  1.
          2   -1    0    0  501    0  0.00000000000E+00 -0.00000000000E+00 -0.42093467716E+04  0.42093467716E+04  0.25500000000E-02 0. -1.
    8880023    1    1    2    0    0  0.99164175250E+03 -0.93516749998E+03 -0.32442020574E+04  0.35800207840E+04  0.65864270000E+03 0.  0.
    8880022    1    1    2    0    0 -0.99164175250E+03  0.93516749998E+03 -0.20729560814E+03  0.13871750937E+04  0.15294330000E+03 0.  0.
<mgrwt>
<rscale>  0 0.14769509E+04</rscale>
<asrwt>0</asrwt>
<pdfrwt beam="1">  1        2 0.64759179E+00 0.15138368E+04</pdfrwt>
<pdfrwt beam="2">  1       -2 0.11659217E+00 0.15138368E+04</pdfrwt>
<totfact> 0.12605818E-01</totfact>
</mgrwt>
</event>
<event>
 4    5  0.6615028E-008  0.1114777E+04  0.7818608E-02  0.9244779E-01
          2   -1    0    0  501    0  0.00000000000E+00  0.00000000000E+00  0.29174433742E+04  0.29174433742E+04  0.25500000000E-02 0. -1.
         -2   -1    0    0    0  501 -0.00000000000E+00 -0.00000000000E+00 -0.10744035174E+04  0.10744035174E+04  0.25500000000E-02 0.  1.
    8880023    1    1    2    0    0  0.26872939237E+02  0.89899727583E+03  0.25855073475E+04  0.28155952669E+04  0.65864270000E+03 0. -1.
    8880022    1    1    2    0    0 -0.26872939237E+02 -0.89899727583E+03 -0.74246749073E+03  0.11762516247E+04  0.15294330000E+03 0.  0.
<mgrwt>
<rscale>  0 0.10602950E+04</rscale>
<asrwt>0</asrwt>
<pdfrwt beam="1">  1        2 0.44883744E+00 0.11147773E+04</pdfrwt>
<pdfrwt beam="2">  1       -2 0.16529285E+00 0.11147773E+04</pdfrwt>
<totfact> 0.44942384E-01</totfact>
</mgrwt>
</event>
<event>
 4    5  0.6615028E-008  0.6911624E+03  0.7818608E-02  0.1003605E+00
         -2   -1    0    0    0  501 -0.00000000000E+00  0.00000000000E+00  0.12257188000E+03  0.12257188003E+03  0.25500000000E-02 0.  1.
          2   -1    0    0  501    0  0.00000000000E+00 -0.00000000000E+00 -0.36898662683E+04  0.36898662683E+04  0.25500000000E-02 0. -1.
    8880023    1    1    2    0    0  0.19909220686E+03 -0.65250244402E+02 -0.34655510296E+04  0.35338009913E+04  0.65864270000E+03 0. -1.
    8880022    1    1    2    0    0 -0.19909220686E+03  0.65250244402E+02 -0.10174335873E+03  0.27863715704E+03  0.15294330000E+03 0.  0.
<mgrwt>
<rscale>  0 0.54097407E+03</rscale>
<asrwt>0</asrwt>
<pdfrwt beam="1">  1        2 0.56767165E+00 0.69116243E+03</pdfrwt>
<pdfrwt beam="2">  1       -2 0.18857215E-01 0.69116243E+03</pdfrwt>
<totfact> 0.15425297E+01</totfact>
</mgrwt>
</event>
<event>
 4    5  0.6615028E-008  0.9190337E+03  0.7818608E-02  0.9496142E-01
          2   -1    0    0  501    0  0.00000000000E+00  0.00000000000E+00  0.45628617466E+04  0.45628617467E+04  0.25500000000E-02 0. -1.
         -2   -1    0    0    0  501 -0.00000000000E+00 -0.00000000000E+00 -0.22287886081E+03  0.22287886082E+03  0.25500000000E-02 0.  1.
    8880023    1    1    2    0    0 -0.64020517510E+03 -0.30821904459E+02  0.38667707779E+04  0.39744860185E+04  0.65864270000E+03 0.  0.
    8880022    1    1    2    0    0  0.64020517510E+03  0.30821904459E+02  0.47321210791E+03  0.81125458895E+03  0.15294330000E+03 0.  0.
<mgrwt>
<rscale>  0 0.84568831E+03</rscale>
<asrwt>0</asrwt>
<pdfrwt beam="1">  1        2 0.70197869E+00 0.91903366E+03</pdfrwt>
<pdfrwt beam="2">  1       -2 0.34289058E-01 0.91903366E+03</pdfrwt>
<totfact> 0.93181480E-01</totfact>
</mgrwt>
</event>
<event>
 4    5  0.6615028E-008  0.8833466E+03  0.7818608E-02  0.9553312E-01
         -2   -1    0    0    0  501 -0.00000000000E+00  0.00000000000E+00  0.13774742951E+04  0.13774742951E+04  0.25500000000E-02 0.  1.
          2   -1    0    0  501    0  0.00000000000E+00 -0.00000000000E+00 -0.51900561264E+03  0.51900561264E+03  0.25500000000E-02 0. -1.
    8880023    1    1    2    0    0  0.13916247865E+03  0.57194829188E+03  0.93172356080E+03  0.12839042192E+04  0.65864270000E+03 0.  0.
    8880022    1    1    2    0    0 -0.13916247865E+03 -0.57194829188E+03 -0.73254878302E+02  0.61257568859E+03  0.15294330000E+03 0.  0.
<mgrwt>
<rscale>  0 0.80464880E+03</rscale>
<asrwt>0</asrwt>
<pdfrwt beam="1">  1        2 0.79847020E-01 0.88334662E+03</pdfrwt>
<pdfrwt beam="2">  1       -2 0.21191912E+00 0.88334662E+03</pdfrwt>
<totfact> 0.66063331E+00</totfact>
</mgrwt>
</event>
<event>
 4    5  0.6615028E-008  0.1103611E+04  0.7818608E-02  0.9257047E-01
          2   -1    0    0  501    0  0.00000000000E+00  0.00000000000E+00  0.32313250793E+04  0.32313250793E+04  0.25500000000E-02 0. -1.
         -2   -1    0    0    0  501 -0.00000000000E+00 -0.00000000000E+00 -0.94106907963E+03  0.94106907963E+03  0.25500000000E-02 0.  1.
    8880023    1    1    2    0    0 -0.88248975820E+03 -0.73202262500E+02  0.28889647328E+04  0.30925837383E+04  0.65864270000E+03 0. -1.
    8880022    1    1    2    0    0  0.88248975820E+03  0.73202262500E+02 -0.59870873309E+03  0.10798104207E+04  0.15294330000E+03 0.  0.
<mgrwt>
<rscale>  0 0.10483526E+04</rscale>
<asrwt>0</asrwt>
<pdfrwt beam="1">  1        2 0.49712694E+00 0.11036109E+04</pdfrwt>
<pdfrwt beam="2">  1       -2 0.14477986E+00 0.11036109E+04</pdfrwt>
<totfact> 0.40882806E-01</totfact>
</mgrwt>
</event>
<event>
 4    5  0.6615028E-008  0.1043037E+04  0.7818608E-02  0.9327299E-01
          2   -1    0    0  501    0  0.00000000000E+00  0.00000000000E+00  0.12595022014E+04  0.12595022014E+04  0.25500000000E-02 0. -1.
         -2   -1    0    0    0  501 -0.00000000000E+00 -0.00000000000E+00 -0.98951155914E+03  0.98951155915E+03  0.25500000000E-02 0.  1.
    8880023    1    1    2    0    0  0.79780699684E+03 -0.13274065838E+03  0.76048860270E+03  0.12908405044E+04  0.65864270000E+03 0. -1.
    8880022    1    1    2    0    0 -0.79780699684E+03  0.13274065838E+03 -0.49049796047E+03  0.95817325617E+03  0.15294330000E+03 0.  0.
<mgrwt>
<rscale>  0 0.98308051E+03</rscale>
<asrwt>0</asrwt>
<pdfrwt beam="1">  1        2 0.19376957E+00 0.10430371E+04</pdfrwt>
<pdfrwt beam="2">  1       -2 0.15223255E+00 0.10430371E+04</pdfrwt>
<totfact> 0.49647866E+00</totfact>
</mgrwt>
</event>
<event>
 4    5  0.6615028E-008  0.9315610E+03  0.7818608E-02  0.9477155E-01
          2   -1    0    0  501    0  0.00000000000E+00  0.00000000000E+00  0.28320772493E+04  0.28320772493E+04  0.25500000000E-02 0. -1.
         -2   -1    0    0    0  501 -0.00000000000E+00 -0.00000000000E+00 -0.24265863455E+03  0.24265863457E+03  0.25500000000E-02 0.  1.
    8880023    1    1    2    0    0 -0.21565332416E+03 -0.62248638779E+03  0.18586831685E+04  0.20790644498E+04  0.65864270000E+03 0. -1.
    8880022    1    1    2    0    0  0.21565332416E+03  0.62248638779E+03  0.73073544615E+03  0.99567143400E+03  0.15294330000E+03 0.  1.
<mgrwt>
<rscale>  0 0.85989215E+03</rscale>
<asrwt>0</asrwt>
<pdfrwt beam="1">  1        2 0.43570419E+00 0.93156098E+03</pdfrwt>
<pdfrwt beam="2">  1       -2 0.37332098E-01 0.93156098E+03</pdfrwt>
<totfact> 0.15375215E+01</totfact>
</mgrwt>
</event>
<event>
 4    5  0.6615028E-008  0.8502637E+03  0.7818608E-02  0.9611123E-01
          2   -1    0    0  501    0  0.00000000000E+00  0.00000000000E+00  0.82840602801E+03  0.82840602801E+03  0.25500000000E-02 0. -1.
         -2   -1    0    0    0  501 -0.00000000000E+00 -0.00000000000E+00 -0.83446535909E+03  0.83446535909E+03  0.25500000000E-02 0.  1.
    8880023    1    1    2    0    0  0.34102910040E+03 -0.41573704809E+03  0.43099614418E+03  0.95326073193E+03  0.65864270000E+03 0. -1.
    8880022    1    1    2    0    0 -0.34102910040E+03  0.41573704809E+03 -0.43705547526E+03  0.70961065518E+03  0.15294330000E+03 0.  0.
<mgrwt>
<rscale>  0 0.76564360E+03</rscale>
<asrwt>0</asrwt>
<pdfrwt beam="1">  1        2 0.12744708E+00 0.85026369E+03</pdfrwt>
<pdfrwt beam="2">  1       -2 0.12837929E+00 0.85026369E+03</pdfrwt>
<totfact> 0.14814229E+01</totfact>
</mgrwt>
</event>
<event>
 4    5  0.6615028E-008  0.9226312E+03  0.7818608E-02  0.9490636E-01
         -2   -1    0    0    0  501 -0.00000000000E+00  0.00000000000E+00  0.76971235477E+03  0.76971235478E+03  0.25500000000E-02 0.  1.
          2   -1    0    0  501    0  0.00000000000E+00 -0.00000000000E+00 -0.10034977063E+04  0.10034977063E+04  0.25500000000E-02 0. -1.
    8880023    1    1    2    0    0 -0.41397185189E+03  0.49604983456E+03 -0.50987487689E+03  0.10541445484E+04  0.65864270000E+03 0.  0.
    8880022    1    1    2    0    0  0.41397185189E+03 -0.49604983456E+03  0.27608952536E+03  0.71906551270E+03  0.15294330000E+03 0.  0.
<mgrwt>
<rscale>  0 0.84977700E+03</rscale>
<asrwt>0</asrwt>
<pdfrwt beam="1">  1        2 0.15438426E+00 0.92263120E+03</pdfrwt>
<pdfrwt beam="2">  1       -2 0.11841728E+00 0.92263120E+03</pdfrwt>
<totfact> 0.13743945E+01</totfact>
</mgrwt>
</event>
<event>
 4    5  0.8917088E-008  0.1166938E+04  0.7818608E-02  0.9189950E-01
         -2   -1    0    0    0  501 -0.00000000000E+00  0.00000000000E+00  0.23450050425E+04  0.23450050425E+04  0.25500000000E-02 0.  1.
          2   -1    0    0  501    0  0.00000000000E+00 -0.00000000000E+00 -0.16959886628E+04  0.16959886628E+04  0.25500000000E-02 0. -1.
    8880023    1    1    2    0    0  0.45892248700E+03 -0.84695030331E+03 -0.13694613194E+04  0.17992134885E+04  0.65864270000E+03 0.  0.
    8880022    1    1    2    0    0 -0.45892248700E+03  0.84695030331E+03  0.20184776992E+04  0.22417802168E+04  0.15294330000E+03 0.  0.
<mgrwt>
<rscale>  0 0.11157762E+04</rscale>
<asrwt>0</asrwt>
<pdfrwt beam="1">  1        2 0.26092133E+00 0.11669382E+04</pdfrwt>
<pdfrwt beam="2">  1       -2 0.36077000E+00 0.11669382E+04</pdfrwt>
<totfact> 0.12929293E-01</totfact>
</mgrwt>
</event>
<event>
 4    5  0.6615028E-008  0.1231117E+04  0.7818608E-02  0.9127452E-01
          2   -1    0    0  501    0  0.00000000000E+00  0.00000000000E+00  0.37284237809E+04  0.37284237809E+04  0.25500000000E-02 0. -1.
         -2   -1    0    0    0  501 -0.00000000000E+00 -0.00000000000E+00 -0.43921290496E+03  0.43921290496E+03  0.25500000000E-02 0.  1.
    8880023    1    1    2    0    0  0.53148260610E+03  0.89407205347E+03  0.26881261307E+04  0.29566316812E+04  0.65864270000E+03 0.  0.
    8880022    1    1    2    0    0 -0.53148260610E+03 -0.89407205347E+03  0.60108474524E+03  0.12110050047E+04  0.15294330000E+03 0.  0.
<mgrwt>
<rscale>  0 0.11834668E+04</rscale>
<asrwt>0</asrwt>
<pdfrwt beam="1">  1        2 0.57360368E+00 0.12311169E+04</pdfrwt>
<pdfrwt beam="2">  1       -2 0.67571214E-01 0.12311169E+04</pdfrwt>
<totfact> 0.11234434E+00</totfact>
</mgrwt>
</event>
<event>
 4    5  0.6651237E-008  0.7039102E+03  0.7818608E-02  0.9981351E-01
         -2   -1    0    0    0  501 -0.00000000000E+00  0.00000000000E+00  0.10269604960E+04  0.10269604960E+04  0.25500000000E-02 0.  1.
          2   -1    0    0  501    0  0.00000000000E+00 -0.00000000000E+00 -0.21080518049E+04  0.21080518049E+04  0.25500000000E-02 0. -1.
    8880023    1    1    2    0    0 -0.24654810838E+03 -0.29890852299E+02 -0.20266907112E+04  0.21454521383E+04  0.65864270000E+03 0. -1.
    8880022    1    1    2    0    0  0.24654810838E+03  0.29890852299E+02  0.94559940232E+03  0.98956016263E+03  0.15294330000E+03 0.  0.
<mgrwt>
<rscale>  0 0.56475582E+03</rscale>
<asrwt>0</asrwt>
<pdfrwt beam="1">  1        2 0.32431566E+00 0.70391025E+03</pdfrwt>
<pdfrwt beam="2">  1       -2 0.15799392E+00 0.70391025E+03</pdfrwt>
<totfact> 0.15934709E+00</totfact>
</mgrwt>
</event>
<event>
 4    5  0.6615028E-008  0.1024570E+04  0.7818608E-02  0.9350095E-01
          2   -1    0    0  501    0  0.00000000000E+00  0.00000000000E+00  0.16778955546E+04  0.16778955546E+04  0.25500000000E-02 0. -1.
         -2   -1    0    0    0  501 -0.00000000000E+00 -0.00000000000E+00 -0.55355239605E+03  0.55355239606E+03  0.25500000000E-02 0.  1.
    8880023    1    1    2    0    0 -0.69686282245E+03 -0.36099348804E+03  0.98223100240E+03  0.14193385925E+04  0.65864270000E+03 0.  0.
    8880022    1    1    2    0    0  0.69686282245E+03  0.36099348804E+03  0.14211215614E+03  0.81210935819E+03  0.15294330000E+03 0.  0.
<mgrwt>
<rscale>  0 0.96298960E+03</rscale>
<asrwt>0</asrwt>
<pdfrwt beam="1">  1        2 0.25813778E+00 0.10245703E+04</pdfrwt>
<pdfrwt beam="2">  1       -2 0.85161908E-01 0.10245703E+04</pdfrwt>
<totfact> 0.12050676E+01</totfact>
</mgrwt>
</event>
<event>
 4    5  0.6615028E-008  0.7294060E+03  0.7818608E-02  0.9891956E-01
         -2   -1    0    0    0  501 -0.00000000000E+00  0.00000000000E+00  0.10762701232E+04  0.10762701232E+04  0.25500000000E-02 0.  1.
          2   -1    0    0  501    0  0.00000000000E+00 -0.00000000000E+00 -0.25013699028E+04  0.25013699028E+04  0.25500000000E-02 0. -1.
    8880023    1    1    2    0    0  0.27750447907E+03 -0.14565092980E+03 -0.24178201054E+04  0.25254479202E+04  0.65864270000E+03 0. -1.
    8880022    1    1    2    0    0 -0.27750447907E+03  0.14565092980E+03  0.99272032581E+03  0.10521921058E+04  0.15294330000E+03 0.  0.
<mgrwt>
<rscale>  0 0.60652710E+03</rscale>
<asrwt>0</asrwt>
<pdfrwt beam="1">  1        2 0.38482614E+00 0.72940602E+03</pdfrwt>
<pdfrwt beam="2">  1       -2 0.16558002E+00 0.72940602E+03</pdfrwt>
<totfact> 0.84340216E-01</totfact>
</mgrwt>
</event>
<event>
 4    5  0.6615028E-008  0.1017733E+04  0.7818608E-02  0.9358717E-01
          2   -1    0    0  501    0  0.00000000000E+00  0.00000000000E+00  0.37871114137E+03  0.37871114138E+03  0.25500000000E-02 0. -1.
         -2   -1    0    0    0  501 -0.00000000000E+00 -0.00000000000E+00 -0.30273620047E+04  0.30273620047E+04  0.25500000000E-02 0.  1.
    8880023    1    1    2    0    0 -0.45147662025E+03 -0.63098209156E+03 -0.53596143881E+03  0.11502323281E+04  0.65864270000E+03 0. -1.
    8880022    1    1    2    0    0  0.45147662025E+03  0.63098209156E+03 -0.21126894245E+04  0.22558408179E+04  0.15294330000E+03 0.  0.
<mgrwt>
<rscale>  0 0.95552410E+03</rscale>
<asrwt>0</asrwt>
<pdfrwt beam="1">  1        2 0.58263254E-01 0.10177326E+04</pdfrwt>
<pdfrwt beam="2">  1       -2 0.46574799E+00 0.10177326E+04</pdfrwt>
<totfact> 0.23541562E-01</totfact>
</mgrwt>
</event>
<event>
 4    5  0.6615028E-008  0.1023515E+04  0.7818608E-02  0.9351420E-01
         -2   -1    0    0    0  501 -0.00000000000E+00  0.00000000000E+00  0.64204827706E+03  0.64204827707E+03  0.25500000000E-02 0.  1.
          2   -1    0    0  501    0  0.00000000000E+00 -0.00000000000E+00 -0.32682744907E+04  0.32682744907E+04  0.25500000000E-02 0. -1.
    8880023    1    1    2    0    0  0.73881119846E+02  0.77994489588E+03 -0.28929838737E+04  0.30687030421E+04  0.65864270000E+03 0.  0.
    8880022    1    1    2    0    0 -0.73881119846E+02 -0.77994489588E+03  0.26675766007E+03  0.84161972571E+03  0.15294330000E+03 0.  0.
<mgrwt>
<rscale>  0 0.96183821E+03</rscale>
<asrwt>0</asrwt>
<pdfrwt beam="1">  1        2 0.50281145E+00 0.10235149E+04</pdfrwt>
<pdfrwt beam="2">  1       -2 0.98776660E-01 0.10235149E+04</pdfrwt>
<totfact> 0.10169475E+00</totfact>
</mgrwt>
</event>
<event>
 4    5  0.6615028E-008  0.9215900E+03  0.7818608E-02  0.9492225E-01
          2   -1    0    0  501    0  0.00000000000E+00  0.00000000000E+00  0.34792673553E+04  0.34792673553E+04  0.25500000000E-02 0. -1.
         -2   -1    0    0    0  501 -0.00000000000E+00 -0.00000000000E+00 -0.48419950319E+03  0.48419950319E+03  0.25500000000E-02 0.  1.
    8880023    1    1    2    0    0  0.56588347260E+03 -0.30869685542E+03  0.26605318877E+02  0.92197391631E+03  0.65864270000E+03 0.  0.
    8880022    1    1    2    0    0 -0.56588347260E+03  0.30869685542E+03  0.29684625332E+04  0.30414929422E+04  0.15294330000E+03 0.  0.
<mgrwt>
<rscale>  0 0.84859443E+03</rscale>
<asrwt>0</asrwt>
<pdfrwt beam="1">  1        2 0.53527192E+00 0.92158996E+03</pdfrwt>
<pdfrwt beam="2">  1       -2 0.74492228E-01 0.92158996E+03</pdfrwt>
<totfact> 0.14299857E+00</totfact>
</mgrwt>
</event>
<event>
 4    5  0.6615028E-008  0.8009113E+03  0.7818608E-02  0.9708829E-01
          2   -1    0    0  501    0  0.00000000000E+00  0.00000000000E+00  0.79304570215E+03  0.79304570216E+03  0.25500000000E-02 0. -1.
         -2   -1    0    0    0  501 -0.00000000000E+00 -0.00000000000E+00 -0.95713486164E+03  0.95713486164E+03  0.25500000000E-02 0.  1.
    8880023    1    1    2    0    0  0.36620508867E+03  0.27118739684E+03  0.48966620255E+03  0.93873956312E+03  0.65864270000E+03 0. -1.
    8880022    1    1    2    0    0 -0.36620508867E+03 -0.27118739684E+03 -0.65375536204E+03  0.81144100068E+03  0.15294330000E+03 0.  0.
<mgrwt>
<rscale>  0 0.70493542E+03</rscale>
<asrwt>0</asrwt>
<pdfrwt beam="1">  1        2 0.12200703E+00 0.80091134E+03</pdfrwt>
<pdfrwt beam="2">  1       -2 0.14725152E+00 0.80091134E+03</pdfrwt>
<totfact> 0.11079330E+01</totfact>
</mgrwt>
</event>
<event>
 4    5  0.9987368E-008  0.1069413E+04  0.7818608E-02  0.9295900E-01
          2   -1    0    0  501    0  0.00000000000E+00  0.00000000000E+00  0.27839659410E+04  0.27839659410E+04  0.25500000000E-02 0. -1.
         -2   -1    0    0    0  501 -0.00000000000E+00 -0.00000000000E+00 -0.20809786308E+04  0.20809786308E+04  0.25500000000E-02 0.  1.
    8880023    1    1    2    0    0 -0.67617334263E+03  0.50261683916E+03  0.25848985861E+04  0.27973818086E+04  0.65864270000E+03 0. -1.
    8880022    1    1    2    0    0  0.67617334263E+03 -0.50261683916E+03 -0.18819112760E+04  0.20675627632E+04  0.15294330000E+03 0.  0.
<mgrwt>
<rscale>  0 0.10116117E+04</rscale>
<asrwt>0</asrwt>
<pdfrwt beam="1">  1        2 0.42830245E+00 0.10694131E+04</pdfrwt>
<pdfrwt beam="2">  1       -2 0.32015056E+00 0.10694131E+04</pdfrwt>
<totfact> 0.57196149E-02</totfact>
</mgrwt>
</event>
<event>
 4    5  0.6615028E-008  0.1060434E+04  0.7818608E-02  0.9306442E-01
         -2   -1    0    0    0  501 -0.00000000000E+00  0.00000000000E+00  0.43550271050E+03  0.43550271051E+03  0.25500000000E-02 0.  1.
          2   -1    0    0  501    0  0.00000000000E+00 -0.00000000000E+00 -0.21072949938E+04  0.21072949938E+04  0.25500000000E-02 0. -1.
    8880023    1    1    2    0    0  0.37039760530E+03 -0.74398657901E+03 -0.10613539378E+04  0.15003308979E+04  0.65864270000E+03 0.  0.
    8880022    1    1    2    0    0 -0.37039760530E+03  0.74398657901E+03 -0.61043834553E+03  0.10424668064E+04  0.15294330000E+03 0.  0.
<mgrwt>
<rscale>  0 0.10019195E+04</rscale>
<asrwt>0</asrwt>
<pdfrwt beam="1">  1        2 0.32419922E+00 0.10604342E+04</pdfrwt>
<pdfrwt beam="2">  1       -2 0.67000418E-01 0.10604342E+04</pdfrwt>
<totfact> 0.11880062E+01</totfact>
</mgrwt>
</event>
<event>
 4    5  0.6615028E-008  0.1688418E+04  0.7818608E-02  0.8786908E-01
         -2   -1    0    0    0  501 -0.00000000000E+00  0.00000000000E+00  0.25858583489E+04  0.25858583489E+04  0.25500000000E-02 0.  1.
          2   -1    0    0  501    0  0.00000000000E+00 -0.00000000000E+00 -0.23327570546E+04  0.23327570546E+04  0.25500000000E-02 0. -1.
    8880023    1    1    2    0    0 -0.69722785961E+03  0.13895383897E+04 -0.17144939925E+04  0.24062924763E+04  0.65864270000E+03 0. -1.
    8880022    1    1    2    0    0  0.69722785961E+03 -0.13895383897E+04  0.19675952869E+04  0.25123229272E+04  0.15294330000E+03 0.  0.
<mgrwt>
<rscale>  0 0.16559266E+04</rscale>
<asrwt>0</asrwt>
<pdfrwt beam="1">  1        2 0.35888570E+00 0.16884176E+04</pdfrwt>
<pdfrwt beam="2">  1       -2 0.39782436E+00 0.16884176E+04</pdfrwt>
<totfact> 0.30508303E-02</totfact>
</mgrwt>
</event>
<event>
 4    5  0.6615028E-008  0.6697803E+03  0.7818608E-02  0.1015821E+00
          2   -1    0    0  501    0  0.00000000000E+00  0.00000000000E+00  0.80806601574E+03  0.80806601574E+03  0.25500000000E-02 0. -1.
         -2   -1    0    0    0  501 -0.00000000000E+00 -0.00000000000E+00 -0.29570166390E+03  0.29570166391E+03  0.25500000000E-02 0.  1.
    8880023    1    1    2    0    0  0.91275138223E+02  0.80401169487E+02  0.59088311158E+03  0.89316770919E+03  0.65864270000E+03 0. -1.
    8880022    1    1    2    0    0 -0.91275138223E+02 -0.80401169487E+02 -0.78518759748E+02  0.21059997046E+03  0.15294330000E+03 0.  0.
<mgrwt>
<rscale>  0 0.49225366E+03</rscale>
<asrwt>0</asrwt>
<pdfrwt beam="1">  1        2 0.12431785E+00 0.66978034E+03</pdfrwt>
<pdfrwt beam="2">  1       -2 0.45492564E-01 0.66978034E+03</pdfrwt>
<totfact> 0.15816099E+02</totfact>
</mgrwt>
</event>
<event>
 4    5  0.6615028E-008  0.7580003E+03  0.7818608E-02  0.9810312E-01
          2   -1    0    0  501    0  0.00000000000E+00  0.00000000000E+00  0.20003280450E+04  0.20003280450E+04  0.25500000000E-02 0. -1.
         -2   -1    0    0    0  501 -0.00000000000E+00 -0.00000000000E+00 -0.20908365501E+03  0.20908365502E+03  0.25500000000E-02 0.  1.
    8880023    1    1    2    0    0  0.23604364733E+03 -0.29161206060E+03  0.15801851452E+04  0.17525836633E+04  0.65864270000E+03 0.  0.
    8880022    1    1    2    0    0 -0.23604364733E+03  0.29161206060E+03  0.21105924476E+03  0.45682803673E+03  0.15294330000E+03 0.  0.
<mgrwt>
<rscale>  0 0.64812050E+03</rscale>
<asrwt>0</asrwt>
<pdfrwt beam="1">  1        2 0.30774277E+00 0.75800027E+03</pdfrwt>
<pdfrwt beam="2">  1       -2 0.32166717E-01 0.75800027E+03</pdfrwt>
<totfact> 0.61733675E+01</totfact>
</mgrwt>
</event>
<event>
 4    5  0.6615028E-008  0.9239366E+03  0.7818608E-02  0.9488649E-01
          2   -1    0    0  501    0  0.00000000000E+00  0.00000000000E+00  0.15203354494E+04  0.15203354494E+04  0.25500000000E-02 0. -1.
         -2   -1    0    0    0  501 -0.00000000000E+00 -0.00000000000E+00 -0.62100738202E+03  0.62100738202E+03  0.25500000000E-02 0.  1.
    8880023    1    1    2    0    0  0.79962950243E+02 -0.64300438666E+03  0.11089031798E+04  0.14433728496E+04  0.65864270000E+03 0.  0.
    8880022    1    1    2    0    0 -0.79962950243E+02  0.64300438666E+03 -0.20957511242E+03  0.69796998176E+03  0.15294330000E+03 0.  0.
<mgrwt>
<rscale>  0 0.85125869E+03</rscale>
<asrwt>0</asrwt>
<pdfrwt beam="1">  1        2 0.23389776E+00 0.92393664E+03</pdfrwt>
<pdfrwt beam="2">  1       -2 0.95539598E-01 0.92393664E+03</pdfrwt>
<totfact> 0.11413789E+01</totfact>
</mgrwt>
</event>
<event>
 4    5  0.6615028E-008  0.9249287E+03  0.7818608E-02  0.9487143E-01
          2   -1    0    0  501    0  0.00000000000E+00  0.00000000000E+00  0.29667257082E+04  0.29667257082E+04  0.25500000000E-02 0. -1.
         -2   -1    0    0    0  501 -0.00000000000E+00 -0.00000000000E+00 -0.64648070837E+03  0.64648070838E+03  0.25500000000E-02 0.  1.
    8880023    1    1    2    0    0 -0.59125857834E+03  0.26850731725E+03  0.26941046221E+04  0.28484544594E+04  0.65864270000E+03 0.  0.
    8880022    1    1    2    0    0  0.59125857834E+03 -0.26850731725E+03 -0.37385962229E+03  0.76475195722E+03  0.15294330000E+03 0.  0.
<mgrwt>
<rscale>  0 0.85238399E+03</rscale>
<asrwt>0</asrwt>
<pdfrwt beam="1">  1        2 0.45641934E+00 0.92492870E+03</pdfrwt>
<pdfrwt beam="2">  1       -2 0.99458570E-01 0.92492870E+03</pdfrwt>
<totfact> 0.15763808E+00</totfact>
</mgrwt>
</event>
<event>
 4    5  0.6615028E-008  0.1048212E+04  0.7818608E-02  0.9321033E-01
          2   -1    0    0  501    0  0.00000000000E+00  0.00000000000E+00  0.11612563267E+04  0.11612563267E+04  0.25500000000E-02 0. -1.
         -2   -1    0    0    0  501 -0.00000000000E+00 -0.00000000000E+00 -0.16499316970E+04  0.16499316970E+04  0.25500000000E-02 0.  1.
    8880023    1    1    2    0    0  0.80731804185E+03  0.11478862022E+03  0.77213024087E+03  0.13018963719E+04  0.65864270000E+03 0.  0.
    8880022    1    1    2    0    0 -0.80731804185E+03 -0.11478862022E+03 -0.12608056111E+04  0.15092916518E+04  0.15294330000E+03 0.  0.
<mgrwt>
<rscale>  0 0.98869325E+03</rscale>
<asrwt>0</asrwt>
<pdfrwt beam="1">  1        2 0.17865482E+00 0.10482123E+04</pdfrwt>
<pdfrwt beam="2">  1       -2 0.25383565E+00 0.10482123E+04</pdfrwt>
<totfact> 0.12054299E+00</totfact>
</mgrwt>
</event>
<event>
 4    5  0.6615028E-008  0.6844753E+03  0.7818608E-02  0.1006898E+00
         -2   -1    0    0    0  501 -0.00000000000E+00  0.00000000000E+00  0.23576368972E+03  0.23576368973E+03  0.25500000000E-02 0.  1.
          2   -1    0    0  501    0  0.00000000000E+00 -0.00000000000E+00 -0.37900166258E+04  0.37900166258E+04  0.25500000000E-02 0. -1.
    8880023    1    1    2    0    0 -0.88209461846E+02 -0.16405875393E+03 -0.36874295219E+04  0.37504190258E+04  0.65864270000E+03 0. -1.
    8880022    1    1    2    0    0  0.88209461846E+02  0.16405875393E+03  0.13317658576E+03  0.27536128978E+03  0.15294330000E+03 0.  0.
<mgrwt>
<rscale>  0 0.52726503E+03</rscale>
<asrwt>0</asrwt>
<pdfrwt beam="1">  1        2 0.58307944E+00 0.68447527E+03</pdfrwt>
<pdfrwt beam="2">  1       -2 0.36271340E-01 0.68447527E+03</pdfrwt>
<totfact> 0.39796080E+00</totfact>
</mgrwt>
</event>
<event>
 4    5  0.6615028E-008  0.1243311E+04  0.7818608E-02  0.9116129E-01
          2   -1    0    0  501    0  0.00000000000E+00  0.00000000000E+00  0.23645174257E+04  0.23645174258E+04  0.25500000000E-02 0. -1.
         -2   -1    0    0    0  501 -0.00000000000E+00 -0.00000000000E+00 -0.22282791442E+04  0.22282791442E+04  0.25500000000E-02 0.  1.
    8880023    1    1    2    0    0 -0.98068247268E+03  0.38765209940E+03  0.20527891064E+04  0.23999511628E+04  0.65864270000E+03 0.  0.
    8880022    1    1    2    0    0  0.98068247268E+03 -0.38765209940E+03 -0.19165508248E+04  0.21928454071E+04  0.15294330000E+03 0.  0.
<mgrwt>
<rscale>  0 0.11962685E+04</rscale>
<asrwt>0</asrwt>
<pdfrwt beam="1">  1        2 0.36377191E+00 0.12433111E+04</pdfrwt>
<pdfrwt beam="2">  1       -2 0.34281218E+00 0.12433111E+04</pdfrwt>
<totfact> 0.70232841E-02</totfact>
</mgrwt>
</event>
<event>
 4    5  0.6615028E-008  0.8632546E+03  0.7818608E-02  0.9587800E-01
          2   -1    0    0  501    0  0.00000000000E+00  0.00000000000E+00  0.23019781960E+04  0.23019781960E+04  0.25500000000E-02 0. -1.
         -2   -1    0    0    0  501 -0.00000000000E+00 -0.00000000000E+00 -0.27217771741E+03  0.27217771742E+03  0.25500000000E-02 0.  1.
    8880023    1    1    2    0    0  0.50116519931E+03  0.24542142498E+03  0.17038412267E+04  0.19100480007E+04  0.65864270000E+03 0. -1.
    8880022    1    1    2    0    0 -0.50116519931E+03 -0.24542142498E+03  0.32595925186E+03  0.66410791271E+03  0.15294330000E+03 0.  1.
<mgrwt>
<rscale>  0 0.78108933E+03</rscale>
<asrwt>0</asrwt>
<pdfrwt beam="1">  1        2 0.35415050E+00 0.86325456E+03</pdfrwt>
<pdfrwt beam="2">  1       -2 0.41873494E-01 0.86325456E+03</pdfrwt>
<totfact> 0.25033409E+01</totfact>
</mgrwt>
</event>
<event>
 4    5  0.6615028E-008  0.7922900E+03  0.7818608E-02  0.9727721E-01
          2   -1    0    0  501    0  0.00000000000E+00  0.00000000000E+00  0.38160769626E+03  0.38160769627E+03  0.25500000000E-02 0. -1.
         -2   -1    0    0    0  501 -0.00000000000E+00 -0.00000000000E+00 -0.19443218398E+04  0.19443218398E+04  0.25500000000E-02 0.  1.
    8880023    1    1    2    0    0 -0.20505549156E+03 -0.38969928019E+03 -0.10955193085E+03  0.79982817868E+03  0.65864270000E+03 0.  0.
    8880022    1    1    2    0    0  0.20505549156E+03  0.38969928019E+03 -0.14531622127E+04  0.15261013574E+04  0.15294330000E+03 0.  0.
<mgrwt>
<rscale>  0 0.69389993E+03</rscale>
<asrwt>0</asrwt>
<pdfrwt beam="1">  1        2 0.58708877E-01 0.79229003E+03</pdfrwt>
<pdfrwt beam="2">  1       -2 0.29912643E+00 0.79229003E+03</pdfrwt>
<totfact> 0.27902985E+00</totfact>
</mgrwt>
</event>
<event>
 4    5  0.6615028E-008  0.1070010E+04  0.7818608E-02  0.9295205E-01
         -2   -1    0    0    0  501 -0.00000000000E+00  0.00000000000E+00  0.19981880566E+04  0.19981880566E+04  0.25500000000E-02 0.  1.
          2   -1    0    0  501    0  0.00000000000E+00 -0.00000000000E+00 -0.67417381743E+03  0.67417381744E+03  0.25500000000E-02 0. -1.
    8880023    1    1    2    0    0  0.84131754090E+03  0.57403104128E+02 -0.29402424567E+02  0.10704134854E+04  0.65864270000E+03 0. -1.
    8880022    1    1    2    0    0 -0.84131754090E+03 -0.57403104128E+02  0.13534166637E+04  0.16019483885E+04  0.15294330000E+03 0.  0.
<mgrwt>
<rscale>  0 0.10122549E+04</rscale>
<asrwt>0</asrwt>
<pdfrwt beam="1">  1        2 0.10371905E+00 0.10700096E+04</pdfrwt>
<pdfrwt beam="2">  1       -2 0.30741354E+00 0.10700096E+04</pdfrwt>
<totfact> 0.12270475E+00</totfact>
</mgrwt>
</event>
<event>
 4    5  0.6615028E-008  0.9588577E+03  0.7818608E-02  0.9437483E-01
         -2   -1    0    0    0  501 -0.00000000000E+00  0.00000000000E+00  0.18050211557E+04  0.18050211557E+04  0.25500000000E-02 0.  1.
          2   -1    0    0  501    0  0.00000000000E+00 -0.00000000000E+00 -0.80500689411E+03  0.80500689412E+03  0.25500000000E-02 0. -1.
    8880023    1    1    2    0    0 -0.65633139858E+03 -0.23415155779E+03 -0.39981804355E+03  0.10388756090E+04  0.65864270000E+03 0.  0.
    8880022    1    1    2    0    0  0.65633139858E+03  0.23415155779E+03  0.13998323052E+04  0.15711524409E+04  0.15294330000E+03 0.  0.
<mgrwt>
<rscale>  0 0.89054162E+03</rscale>
<asrwt>0</asrwt>
<pdfrwt beam="1">  1        2 0.12384722E+00 0.95885769E+03</pdfrwt>
<pdfrwt beam="2">  1       -2 0.27769556E+00 0.95885769E+03</pdfrwt>
<totfact> 0.14956349E+00</totfact>
</mgrwt>
</event>
<event>
 4    5  0.6615028E-008  0.8607470E+03  0.7818608E-02  0.9592236E-01
          2   -1    0    0  501    0  0.00000000000E+00  0.00000000000E+00  0.11005191623E+04  0.11005191623E+04  0.25500000000E-02 0. -1.
         -2   -1    0    0    0  501 -0.00000000000E+00 -0.00000000000E+00 -0.77690905597E+03  0.77690905597E+03  0.25500000000E-02 0.  1.
    8880023    1    1    2    0    0  0.27019213236E+02 -0.55348453263E+03  0.76585513360E+03  0.11521369093E+04  0.65864270000E+03 0. -1.
    8880022    1    1    2    0    0 -0.27019213236E+02  0.55348453263E+03 -0.44224502729E+03  0.72529130900E+03  0.15294330000E+03 0.  0.
<mgrwt>
<rscale>  0 0.77812186E+03</rscale>
<asrwt>0</asrwt>
<pdfrwt beam="1">  1        2 0.16931064E+00 0.86074698E+03</pdfrwt>
<pdfrwt beam="2">  1       -2 0.11952447E+00 0.86074698E+03</pdfrwt>
<totfact> 0.11743035E+01</totfact>
</mgrwt>
</event>
<event>
 4    5  0.6615028E-008  0.9805804E+03  0.7818608E-02  0.9407417E-01
          2   -1    0    0  501    0  0.00000000000E+00  0.00000000000E+00  0.39994464179E+04  0.39994464179E+04  0.25500000000E-02 0. -1.
         -2   -1    0    0    0  501 -0.00000000000E+00 -0.00000000000E+00 -0.65826613949E+03  0.65826613950E+03  0.25500000000E-02 0.  1.
    8880023    1    1    2    0    0 -0.58314456994E+03 -0.43320911969E+03  0.37038731807E+04  0.38314768009E+04  0.65864270000E+03 0. -1.
    8880022    1    1    2    0    0  0.58314456994E+03  0.43320911969E+03 -0.36269290233E+03  0.82623575646E+03  0.15294330000E+03 0.  0.
<mgrwt>
<rscale>  0 0.91467776E+03</rscale>
<asrwt>0</asrwt>
<pdfrwt beam="1">  1        2 0.61529945E+00 0.98058041E+03</pdfrwt>
<pdfrwt beam="2">  1       -2 0.10127171E+00 0.98058041E+03</pdfrwt>
<totfact> 0.28965638E-01</totfact>
</mgrwt>
</event>
<event>
 4    5  0.6615028E-008  0.2215271E+04  0.7818608E-02  0.8522092E-01
         -2   -1    0    0    0  501 -0.00000000000E+00  0.00000000000E+00  0.13694963147E+04  0.13694963147E+04  0.25500000000E-02 0.  1.
          2   -1    0    0  501    0  0.00000000000E+00 -0.00000000000E+00 -0.40270488999E+04  0.40270488999E+04  0.25500000000E-02 0. -1.
    8880023    1    1    2    0    0 -0.90401334011E+03 -0.19121649673E+04 -0.31640730481E+03  0.22377530628E+04  0.65864270000E+03 0.  1.
    8880022    1    1    2    0    0  0.90401334011E+03  0.19121649673E+04 -0.23411452804E+04  0.31587921518E+04  0.15294330000E+03 0.  0.
<mgrwt>
<rscale>  0 0.21912179E+04</rscale>
<asrwt>0</asrwt>
<pdfrwt beam="1">  1        2 0.61954598E+00 0.22152709E+04</pdfrwt>
<pdfrwt beam="2">  1       -2 0.21069174E+00 0.22152709E+04</pdfrwt>
<totfact> 0.32234651E-02</totfact>
</mgrwt>
</event>
<event>
 4    5  0.6615028E-008  0.7125429E+03  0.7818608E-02  0.9948677E-01
         -2   -1    0    0    0  501 -0.00000000000E+00  0.00000000000E+00  0.58538253792E+03  0.58538253793E+03  0.25500000000E-02 0.  1.
          2   -1    0    0  501    0  0.00000000000E+00 -0.00000000000E+00 -0.64921850227E+03  0.64921850227E+03  0.25500000000E-02 0. -1.
    8880023    1    1    2    0    0  0.91933119882E+02 -0.25584276523E+03 -0.36536852123E+03  0.80075688047E+03  0.65864270000E+03 0. -1.
    8880022    1    1    2    0    0 -0.91933119882E+02  0.25584276523E+03  0.30153255689E+03  0.43384415973E+03  0.15294330000E+03 0.  0.
<mgrwt>
<rscale>  0 0.57959116E+03</rscale>
<asrwt>0</asrwt>
<pdfrwt beam="1">  1        2 0.99879769E-01 0.71254293E+03</pdfrwt>
<pdfrwt beam="2">  1       -2 0.90058852E-01 0.71254293E+03</pdfrwt>
<totfact> 0.48252290E+01</totfact>
</mgrwt>
</event>
<event>
 4    5  0.6615028E-008  0.7931505E+03  0.7818608E-02  0.9725806E-01
         -2   -1    0    0    0  501 -0.00000000000E+00  0.00000000000E+00  0.28331725152E+03  0.28331725153E+03  0.25500000000E-02 0.  1.
          2   -1    0    0  501    0  0.00000000000E+00 -0.00000000000E+00 -0.31548174197E+04  0.31548174197E+04  0.25500000000E-02 0. -1.
    8880023    1    1    2    0    0  0.28817266430E+03  0.33501350023E+03 -0.28625791897E+04  0.29704288164E+04  0.65864270000E+03 0. -1.
    8880022    1    1    2    0    0 -0.28817266430E+03 -0.33501350023E+03 -0.89209785016E+01  0.46770585485E+03  0.15294330000E+03 0.  0.
<mgrwt>
<rscale>  0 0.69500856E+03</rscale>
<asrwt>0</asrwt>
<pdfrwt beam="1">  1        2 0.48535650E+00 0.79315051E+03</pdfrwt>
<pdfrwt beam="2">  1       -2 0.43587272E-01 0.79315051E+03</pdfrwt>
<totfact> 0.73494040E+00</totfact>
</mgrwt>
</event>
<event>
 4    5  0.6615028E-008  0.8812225E+03  0.7818608E-02  0.9556874E-01
         -2   -1    0    0    0  501 -0.00000000000E+00  0.00000000000E+00  0.12233779375E+04  0.12233779375E+04  0.25500000000E-02 0.  1.
          2   -1    0    0  501    0  0.00000000000E+00 -0.00000000000E+00 -0.78218982551E+03  0.78218982552E+03  0.25500000000E-02 0. -1.
    8880023    1    1    2    0    0 -0.68527726646E+02 -0.58141795808E+03 -0.40130568662E+03  0.96829714018E+03  0.65864270000E+03 0. -1.
    8880022    1    1    2    0    0  0.68527726646E+02  0.58141795808E+03  0.84249379858E+03  0.10372706228E+04  0.15294330000E+03 0.  0.
<mgrwt>
<rscale>  0 0.80217528E+03</rscale>
<asrwt>0</asrwt>
<pdfrwt beam="1">  1        2 0.12033690E+00 0.88122250E+03</pdfrwt>
<pdfrwt beam="2">  1       -2 0.18821199E+00 0.88122250E+03</pdfrwt>
<totfact> 0.56805261E+00</totfact>
</mgrwt>
</event>
<event>
 4    5  0.6615028E-008  0.1146434E+04  0.7818608E-02  0.9211037E-01
         -2   -1    0    0    0  501 -0.00000000000E+00  0.00000000000E+00  0.19668028439E+04  0.19668028439E+04  0.25500000000E-02 0.  1.
          2   -1    0    0  501    0  0.00000000000E+00 -0.00000000000E+00 -0.15135070237E+04  0.15135070237E+04  0.25500000000E-02 0. -1.
    8880023    1    1    2    0    0 -0.92108553377E+03 -0.17917183014E+03 -0.11452120784E+04  0.16204388344E+04  0.65864270000E+03 0.  0.
    8880022    1    1    2    0    0  0.92108553377E+03  0.17917183014E+03  0.15985078986E+04  0.18598710332E+04  0.15294330000E+03 0.  0.
<mgrwt>
<rscale>  0 0.10940230E+04</rscale>
<asrwt>0</asrwt>
<pdfrwt beam="1">  1        2 0.23284723E+00 0.11464342E+04</pdfrwt>
<pdfrwt beam="2">  1       -2 0.30258505E+00 0.11464342E+04</pdfrwt>
<totfact> 0.37583518E-01</totfact>
</mgrwt>
</event>
<event>
 4    5  0.6615028E-008  0.1546242E+04  0.7818608E-02  0.8877655E-01
         -2   -1    0    0    0  501 -0.00000000000E+00  0.00000000000E+00  0.16983918580E+04  0.16983918580E+04  0.25500000000E-02 0.  1.
          2   -1    0    0  501    0  0.00000000000E+00 -0.00000000000E+00 -0.21178249886E+04  0.21178249886E+04  0.25500000000E-02 0. -1.
    8880023    1    1    2    0    0 -0.62573204570E+03 -0.12512049506E+04  0.98073745630E+03  0.18310408477E+04  0.65864270000E+03 0.  1.
    8880022    1    1    2    0    0  0.62573204570E+03  0.12512049506E+04 -0.14001705869E+04  0.19851759989E+04  0.15294330000E+03 0.  0.
<mgrwt>
<rscale>  0 0.15102662E+04</rscale>
<asrwt>0</asrwt>
<pdfrwt beam="1">  1        2 0.32581923E+00 0.15462421E+04</pdfrwt>
<pdfrwt beam="2">  1       -2 0.26129105E+00 0.15462421E+04</pdfrwt>
<totfact> 0.29334151E-01</totfact>
</mgrwt>
</event>
<event>
 4    5  0.6615028E-008  0.8272510E+03  0.7818608E-02  0.9654705E-01
          2   -1    0    0  501    0  0.00000000000E+00  0.00000000000E+00  0.68841325976E+03  0.68841325977E+03  0.25500000000E-02 0. -1.
         -2   -1    0    0    0  501 -0.00000000000E+00 -0.00000000000E+00 -0.79870926200E+03  0.79870926200E+03  0.25500000000E-02 0.  1.
    8880023    1    1    2    0    0  0.27217511621E+03  0.42006514615E+03  0.23514521956E+03  0.86002180289E+03  0.65864270000E+03 0.  1.
    8880022    1    1    2    0    0 -0.27217511621E+03 -0.42006514615E+03 -0.34544122180E+03  0.62710071888E+03  0.15294330000E+03 0.  0.
<mgrwt>
<rscale>  0 0.73778882E+03</rscale>
<asrwt>0</asrwt>
<pdfrwt beam="1">  1        2 0.10590973E+00 0.82725101E+03</pdfrwt>
<pdfrwt beam="2">  1       -2 0.12287835E+00 0.82725101E+03</pdfrwt>
<totfact> 0.21089850E+01</totfact>
</mgrwt>
</event>
<event>
 4    5  0.6615028E-008  0.1355136E+04  0.7818608E-02  0.9019351E-01
          2   -1    0    0  501    0  0.00000000000E+00  0.00000000000E+00  0.23412647448E+04  0.23412647448E+04  0.25500000000E-02 0. -1.
         -2   -1    0    0    0  501 -0.00000000000E+00 -0.00000000000E+00 -0.10778338805E+04  0.10778338805E+04  0.25500000000E-02 0.  1.
    8880023    1    1    2    0    0  0.96252420207E+03 -0.69002217336E+03  0.16763469758E+04  0.21555817843E+04  0.65864270000E+03 0.  0.
    8880022    1    1    2    0    0 -0.96252420207E+03  0.69002217336E+03 -0.41291611145E+03  0.12635168410E+04  0.15294330000E+03 0.  0.
<mgrwt>
<rscale>  0 0.13129590E+04</rscale>
<asrwt>0</asrwt>
<pdfrwt beam="1">  1        2 0.36019457E+00 0.13551360E+04</pdfrwt>
<pdfrwt beam="2">  1       -2 0.16582060E+00 0.13551360E+04</pdfrwt>
<totfact> 0.93879584E-01</totfact>
</mgrwt>
</event>
<event>
 4    5  0.6615028E-008  0.9968750E+03  0.7818608E-02  0.9385658E-01
          2   -1    0    0  501    0  0.00000000000E+00  0.00000000000E+00  0.51431342787E+03  0.51431342788E+03  0.25500000000E-02 0. -1.
         -2   -1    0    0    0  501 -0.00000000000E+00 -0.00000000000E+00 -0.23125371152E+04  0.23125371152E+04  0.25500000000E-02 0.  1.
    8880023    1    1    2    0    0  0.71314729262E+03  0.22665051765E+03 -0.14714745595E+03  0.10076765841E+04  0.65864270000E+03 0. -1.
    8880022    1    1    2    0    0 -0.71314729262E+03 -0.22665051765E+03 -0.16510762314E+04  0.18191739589E+04  0.15294330000E+03 0.  0.
<mgrwt>
<rscale>  0 0.93265463E+03</rscale>
<asrwt>0</asrwt>
<pdfrwt beam="1">  1        2 0.79125144E-01 0.99687498E+03</pdfrwt>
<pdfrwt beam="2">  1       -2 0.35577493E+00 0.99687498E+03</pdfrwt>
<totfact> 0.86565263E-01</totfact>
</mgrwt>
</event>
<event>
 4    5  0.6615028E-008  0.1246164E+04  0.7818608E-02  0.9113503E-01
          2   -1    0    0  501    0  0.00000000000E+00  0.00000000000E+00  0.26916914371E+04  0.26916914371E+04  0.25500000000E-02 0. -1.
         -2   -1    0    0    0  501 -0.00000000000E+00 -0.00000000000E+00 -0.57409636662E+03  0.57409636663E+03  0.25500000000E-02 0.  1.
    8880023    1    1    2    0    0 -0.84504001877E+03 -0.63641377789E+03  0.53524606788E+03  0.13562498625E+04  0.65864270000E+03 0.  0.
    8880022    1    1    2    0    0  0.84504001877E+03  0.63641377789E+03  0.15823490026E+04  0.19095379412E+04  0.15294330000E+03 0.  0.
<mgrwt>
<rscale>  0 0.11992613E+04</rscale>
<asrwt>0</asrwt>
<pdfrwt beam="1">  1        2 0.41410637E+00 0.12461642E+04</pdfrwt>
<pdfrwt beam="2">  1       -2 0.88322519E-01 0.12461642E+04</pdfrwt>
<totfact> 0.29115559E+00</totfact>
</mgrwt>
</event>
<event>
 4    5  0.6615028E-008  0.1644524E+04  0.7818608E-02  0.8813796E-01
         -2   -1    0    0    0  501 -0.00000000000E+00  0.00000000000E+00  0.14127824791E+04  0.14127824791E+04  0.25500000000E-02 0.  1.
          2   -1    0    0  501    0  0.00000000000E+00 -0.00000000000E+00 -0.37126510918E+04  0.37126510918E+04  0.25500000000E-02 0. -1.
    8880023    1    1    2    0    0  0.14673412990E+04 -0.34286907589E+03 -0.30273410911E+04  0.34451783668E+04  0.65864270000E+03 0.  0.
    8880022    1    1    2    0    0 -0.14673412990E+04  0.34286907589E+03  0.72747247845E+03  0.16802552041E+04  0.15294330000E+03 0.  0.
<mgrwt>
<rscale>  0 0.16110364E+04</rscale>
<asrwt>0</asrwt>
<pdfrwt beam="1">  1        2 0.57117709E+00 0.16445242E+04</pdfrwt>
<pdfrwt beam="2">  1       -2 0.21735115E+00 0.16445242E+04</pdfrwt>
<totfact> 0.54645425E-02</totfact>
</mgrwt>
</event>
<event>
 4    5  0.6615028E-008  0.7134930E+03  0.7818608E-02  0.9945252E-01
         -2   -1    0    0    0  501 -0.00000000000E+00  0.00000000000E+00  0.31621489504E+03  0.31621489505E+03  0.25500000000E-02 0.  1.
          2   -1    0    0  501    0  0.00000000000E+00 -0.00000000000E+00 -0.24891685407E+04  0.24891685407E+04  0.25500000000E-02 0. -1.
    8880023    1    1    2    0    0  0.25072962158E+03 -0.11134056853E+03 -0.23422918890E+04  0.24485513197E+04  0.65864270000E+03 0. -1.
    8880022    1    1    2    0    0 -0.25072962158E+03  0.11134056853E+03  0.16933824342E+03  0.35683211604E+03  0.15294330000E+03 0.  0.
<mgrwt>
<rscale>  0 0.58117440E+03</rscale>
<asrwt>0</asrwt>
<pdfrwt beam="1">  1        2 0.38294899E+00 0.71349301E+03</pdfrwt>
<pdfrwt beam="2">  1       -2 0.48648447E-01 0.71349301E+03</pdfrwt>
<totfact> 0.14883023E+01</totfact>
</mgrwt>
</event>
<event>
 4    5  0.6615028E-008  0.1254889E+04  0.7818608E-02  0.9105529E-01
          2   -1    0    0  501    0  0.00000000000E+00  0.00000000000E+00  0.41989333485E+04  0.41989333485E+04  0.25500000000E-02 0. -1.
         -2   -1    0    0    0  501 -0.00000000000E+00 -0.00000000000E+00 -0.69551450018E+03  0.69551450018E+03  0.25500000000E-02 0.  1.
    8880023    1    1    2    0    0  0.10637178375E+04  0.97166746267E+02  0.35986901434E+04  0.38112095152E+04  0.65864270000E+03 0. -1.
    8880022    1    1    2    0    0 -0.10637178375E+04 -0.97166746267E+02 -0.95271295065E+02  0.10832383335E+04  0.15294330000E+03 0.  0.
<mgrwt>
<rscale>  0 0.12084078E+04</rscale>
<asrwt>0</asrwt>
<pdfrwt beam="1">  1        2 0.64598974E+00 0.12548893E+04</pdfrwt>
<pdfrwt beam="2">  1       -2 0.10700223E+00 0.12548893E+04</pdfrwt>
<totfact> 0.16516018E-01</totfact>
</mgrwt>
</event>
<event>
 4    5  0.6615028E-008  0.6990984E+03  0.7818608E-02  0.1000096E+00
          2   -1    0    0  501    0  0.00000000000E+00  0.00000000000E+00  0.13812399742E+04  0.13812399742E+04  0.25500000000E-02 0. -1.
         -2   -1    0    0    0  501 -0.00000000000E+00 -0.00000000000E+00 -0.36148762429E+03  0.36148762430E+03  0.25500000000E-02 0.  1.
    8880023    1    1    2    0    0  0.22822150976E+03  0.53323241708E+02  0.12148056690E+04  0.14016031697E+04  0.65864270000E+03 0. -1.
    8880022    1    1    2    0    0 -0.22822150976E+03 -0.53323241708E+02 -0.19505331908E+03  0.34112442880E+03  0.15294330000E+03 0.  0.
<mgrwt>
<rscale>  0 0.55608079E+03</rscale>
<asrwt>0</asrwt>
<pdfrwt beam="1">  1        2 0.21249845E+00 0.69909844E+03</pdfrwt>
<pdfrwt beam="2">  1       -2 0.55613482E-01 0.69909844E+03</pdfrwt>
<totfact> 0.46227969E+01</totfact>
</mgrwt>
</event>
<event>
 4    5  0.6615028E-008  0.1799238E+04  0.7818608E-02  0.8722958E-01
          2   -1    0    0  501    0  0.00000000000E+00  0.00000000000E+00  0.30056697381E+04  0.30056697381E+04  0.25500000000E-02 0. -1.
         -2   -1    0    0    0  501 -0.00000000000E+00 -0.00000000000E+00 -0.14924001320E+04  0.14924001320E+04  0.25500000000E-02 0.  1.
    8880023    1    1    2    0    0  0.16258264386E+04  0.40016969744E+03  0.20552623934E+04  0.27315492137E+04  0.65864270000E+03 0.  0.
    8880022    1    1    2    0    0 -0.16258264386E+04 -0.40016969744E+03 -0.54199278722E+03  0.17665206564E+04  0.15294330000E+03 0.  0.
<mgrwt>
<rscale>  0 0.17690052E+04</rscale>
<asrwt>0</asrwt>
<pdfrwt beam="1">  1        2 0.46241072E+00 0.17992381E+04</pdfrwt>
<pdfrwt beam="2">  1       -2 0.22960002E+00 0.17992381E+04</pdfrwt>
<totfact> 0.13490566E-01</totfact>
</mgrwt>
</event>
<event>
 4    5  0.6615028E-008  0.1168874E+04  0.7818608E-02  0.9187989E-01
         -2   -1    0    0    0  501 -0.00000000000E+00  0.00000000000E+00  0.11927396910E+04  0.11927396910E+04  0.25500000000E-02 0.  1.
          2   -1    0    0  501    0  0.00000000000E+00 -0.00000000000E+00 -0.40178886504E+04  0.40178886504E+04  0.25500000000E-02 0. -1.
    8880023    1    1    2    0    0 -0.45168093916E+03 -0.85348715859E+03 -0.37113612098E+04  0.38910754601E+04  0.65864270000E+03 0. -1.
    8880022    1    1    2    0    0  0.45168093916E+03  0.85348715859E+03  0.88621225041E+03  0.13195528813E+04  0.15294330000E+03 0.  0.
<mgrwt>
<rscale>  0 0.11178263E+04</rscale>
<asrwt>0</asrwt>
<pdfrwt beam="1">  1        2 0.61813671E+00 0.11688739E+04</pdfrwt>
<pdfrwt beam="2">  1       -2 0.18349842E+00 0.11688739E+04</pdfrwt>
<totfact> 0.57473683E-02</totfact>
</mgrwt>
</event>
<event>
 4    5  0.6615028E-008  0.1023139E+04  0.7818608E-02  0.9351892E-01
         -2   -1    0    0    0  501 -0.00000000000E+00  0.00000000000E+00  0.70900829901E+03  0.70900829901E+03  0.25500000000E-02 0.  1.
          2   -1    0    0  501    0  0.00000000000E+00 -0.00000000000E+00 -0.14008720998E+04  0.14008720998E+04  0.25500000000E-02 0. -1.
    8880023    1    1    2    0    0  0.23565862533E+03 -0.74663803909E+03 -0.80801387814E+03  0.13037254246E+04  0.65864270000E+03 0.  0.
    8880022    1    1    2    0    0 -0.23565862533E+03  0.74663803909E+03  0.11615007732E+03  0.80615497429E+03  0.15294330000E+03 0.  0.
<mgrwt>
<rscale>  0 0.96142818E+03</rscale>
<asrwt>0</asrwt>
<pdfrwt beam="1">  1        2 0.21551878E+00 0.10231391E+04</pdfrwt>
<pdfrwt beam="2">  1       -2 0.10907820E+00 0.10231391E+04</pdfrwt>
<totfact> 0.96141187E+00</totfact>
</mgrwt>
</event>
<event>
 4    5  0.6615028E-008  0.7583615E+03  0.7818608E-02  0.9809368E-01
         -2   -1    0    0    0  501 -0.00000000000E+00  0.00000000000E+00  0.27348964242E+03  0.27348964244E+03  0.25500000000E-02 0.  1.
          2   -1    0    0  501    0  0.00000000000E+00 -0.00000000000E+00 -0.14127488050E+04  0.14127488050E+04  0.25500000000E-02 0. -1.
    8880023    1    1    2    0    0 -0.30962330796E+03  0.21315566675E+03 -0.10045028433E+04  0.12586254803E+04  0.65864270000E+03 0.  1.
    8880022    1    1    2    0    0  0.30962330796E+03 -0.21315566675E+03 -0.13475631928E+03  0.42761296718E+03  0.15294330000E+03 0.  0.
<mgrwt>
<rscale>  0 0.64862216E+03</rscale>
<asrwt>0</asrwt>
<pdfrwt beam="1">  1        2 0.21734597E+00 0.75836148E+03</pdfrwt>
<pdfrwt beam="2">  1       -2 0.42075330E-01 0.75836148E+03</pdfrwt>
<totfact> 0.77534097E+01</totfact>
</mgrwt>
</event>
<event>
 4    5  0.6615028E-008  0.8085307E+03  0.7818608E-02  0.9692646E-01
         -2   -1    0    0    0  501 -0.00000000000E+00  0.00000000000E+00  0.94429131111E+03  0.94429131112E+03  0.25500000000E-02 0.  1.
          2   -1    0    0  501    0  0.00000000000E+00 -0.00000000000E+00 -0.13176760447E+04  0.13176760447E+04  0.25500000000E-02 0. -1.
    8880023    1    1    2    0    0 -0.36622157594E+03 -0.29290515882E+03 -0.11113430032E+04  0.13743380777E+04  0.65864270000E+03 0. -1.
    8880022    1    1    2    0    0  0.36622157594E+03  0.29290515882E+03  0.73795826960E+03  0.88762927815E+03  0.15294330000E+03 0.  0.
<mgrwt>
<rscale>  0 0.71456360E+03</rscale>
<asrwt>0</asrwt>
<pdfrwt beam="1">  1        2 0.20271939E+00 0.80853069E+03</pdfrwt>
<pdfrwt beam="2">  1       -2 0.14527559E+00 0.80853069E+03</pdfrwt>
<totfact> 0.53409743E+00</totfact>
</mgrwt>
</event>
<event>
 4    5  0.6615028E-008  0.7198521E+03  0.7818608E-02  0.9923087E-01
          2   -1    0    0  501    0  0.00000000000E+00  0.00000000000E+00  0.15751005133E+04  0.15751005133E+04  0.25500000000E-02 0. -1.
         -2   -1    0    0    0  501 -0.00000000000E+00 -0.00000000000E+00 -0.23809820598E+03  0.23809820600E+03  0.25500000000E-02 0.  1.
    8880023    1    1    2    0    0 -0.13065164294E+03 -0.25943599266E+03  0.12958238783E+04  0.14823449720E+04  0.65864270000E+03 0.  1.
    8880022    1    1    2    0    0  0.13065164294E+03  0.25943599266E+03  0.41178429018E+02  0.33085374733E+03  0.15294330000E+03 0.  0.
<mgrwt>
<rscale>  0 0.59155342E+03</rscale>
<asrwt>0</asrwt>
<pdfrwt beam="1">  1        2 0.24232316E+00 0.71985213E+03</pdfrwt>
<pdfrwt beam="2">  1       -2 0.36630493E-01 0.71985213E+03</pdfrwt>
<totfact> 0.82709756E+01</totfact>
</mgrwt>
</event>
<event>
 4    5  0.6615028E-008  0.1902345E+04  0.7818608E-02  0.8667940E-01
         -2   -1    0    0    0  501 -0.00000000000E+00  0.00000000000E+00  0.99704505413E+03  0.99704505413E+03  0.25500000000E-02 0.  1.
          2   -1    0    0  501    0  0.00000000000E+00 -0.00000000000E+00 -0.52220325191E+04  0.52220325191E+04  0.25500000000E-02 0. -1.
    8880023    1    1    2    0    0 -0.11195651466E+04 -0.13898489437E+04 -0.39798723060E+04  0.44111563089E+04  0.65864270000E+03 0.  0.
    8880022    1    1    2    0    0  0.11195651466E+04  0.13898489437E+04 -0.24511515900E+03  0.18079212643E+04  0.15294330000E+03 0.  0.
<mgrwt>
<rscale>  0 0.18739357E+04</rscale>
<asrwt>0</asrwt>
<pdfrwt beam="1">  1        2 0.80338960E+00 0.19023450E+04</pdfrwt>
<pdfrwt beam="2">  1       -2 0.15339155E+00 0.19023450E+04</pdfrwt>
<totfact> 0.45007250E-03</totfact>
</mgrwt>
</event>
<event>
 4    5  0.6615028E-008  0.1270167E+04  0.7818608E-02  0.9091760E-01
          2   -1    0    0  501    0  0.00000000000E+00  0.00000000000E+00  0.24073390294E+04  0.24073390294E+04  0.25500000000E-02 0. -1.
         -2   -1    0    0    0  501 -0.00000000000E+00 -0.00000000000E+00 -0.97941834717E+03  0.97941834717E+03  0.25500000000E-02 0.  1.
    8880023    1    1    2    0    0  0.60909130181E+03 -0.89917853290E+03  0.18222584220E+04  0.22212496957E+04  0.65864270000E+03 0. -1.
    8880022    1    1    2    0    0 -0.60909130181E+03  0.89917853290E+03 -0.39433773981E+03  0.11655076808E+04  0.15294330000E+03 0.  0.
<mgrwt>
<rscale>  0 0.12244036E+04</rscale>
<asrwt>0</asrwt>
<pdfrwt beam="1">  1        2 0.37035985E+00 0.12701671E+04</pdfrwt>
<pdfrwt beam="2">  1       -2 0.15067975E+00 0.12701671E+04</pdfrwt>
<totfact> 0.11285925E+00</totfact>
</mgrwt>
</event>
<event>
 4    5  0.6615028E-008  0.1507988E+04  0.7818608E-02  0.8904016E-01
         -2   -1    0    0    0  501 -0.00000000000E+00  0.00000000000E+00  0.36348873085E+04  0.36348873085E+04  0.25500000000E-02 0.  1.
          2   -1    0    0  501    0  0.00000000000E+00 -0.00000000000E+00 -0.87953584733E+03  0.87953584733E+03  0.25500000000E-02 0. -1.
    8880023    1    1    2    0    0  0.95002387608E+03 -0.96833518394E+03  0.79048853057E+02  0.15100587144E+04  0.65864270000E+03 0. -1.
    8880022    1    1    2    0    0 -0.95002387608E+03  0.96833518394E+03  0.26763026081E+04  0.30043644414E+04  0.15294330000E+03 0.  0.
<mgrwt>
<rscale>  0 0.14709329E+04</rscale>
<asrwt>0</asrwt>
<pdfrwt beam="1">  1        2 0.13531321E+00 0.15079883E+04</pdfrwt>
<pdfrwt beam="2">  1       -2 0.55921343E+00 0.15079883E+04</pdfrwt>
<totfact> 0.21535555E-02</totfact>
</mgrwt>
</event>
<event>
 4    5  0.6840341E-008  0.1232527E+04  0.7818608E-02  0.9126134E-01
          2   -1    0    0  501    0  0.00000000000E+00  0.00000000000E+00  0.20759294136E+04  0.20759294136E+04  0.25500000000E-02 0. -1.
         -2   -1    0    0    0  501 -0.00000000000E+00 -0.00000000000E+00 -0.19162198350E+04  0.19162198350E+04  0.25500000000E-02 0.  1.
    8880023    1    1    2    0    0 -0.15974254190E+03  0.10294639847E+04  0.17162167277E+04  0.21129419865E+04  0.65864270000E+03 0.  0.
    8880022    1    1    2    0    0  0.15974254190E+03 -0.10294639847E+04 -0.15565071492E+04  0.18792072621E+04  0.15294330000E+03 0.  0.
<mgrwt>
<rscale>  0 0.11849485E+04</rscale>
<asrwt>0</asrwt>
<pdfrwt beam="1">  1        2 0.31937376E+00 0.12325275E+04</pdfrwt>
<pdfrwt beam="2">  1       -2 0.29480305E+00 0.12325275E+04</pdfrwt>
<totfact> 0.20148091E-01</totfact>
</mgrwt>
</event>
<event>
 4    5  0.6615028E-008  0.1059530E+04  0.7818608E-02  0.9307512E-01
         -2   -1    0    0    0  501 -0.00000000000E+00  0.00000000000E+00  0.86586540845E+03  0.86586540846E+03  0.25500000000E-02 0.  1.
          2   -1    0    0  501    0  0.00000000000E+00 -0.00000000000E+00 -0.18206192869E+04  0.18206192869E+04  0.25500000000E-02 0. -1.
    8880023    1    1    2    0    0 -0.75730389224E+03  0.33953650113E+03 -0.13813332591E+04  0.17408865557E+04  0.65864270000E+03 0.  0.
    8880022    1    1    2    0    0  0.75730389224E+03 -0.33953650113E+03  0.42657938063E+03  0.94559813969E+03  0.15294330000E+03 0.  0.
<mgrwt>
<rscale>  0 0.10009427E+04</rscale>
<asrwt>0</asrwt>
<pdfrwt beam="1">  1        2 0.28009527E+00 0.10595303E+04</pdfrwt>
<pdfrwt beam="2">  1       -2 0.13321006E+00 0.10595303E+04</pdfrwt>
<totfact> 0.33928599E+00</totfact>
</mgrwt>
</event>
<event>
 4    5  0.6615028E-008  0.9955453E+03  0.7818608E-02  0.9387409E-01
          2   -1    0    0  501    0  0.00000000000E+00  0.00000000000E+00  0.32404536557E+04  0.32404536557E+04  0.25500000000E-02 0. -1.
         -2   -1    0    0    0  501 -0.00000000000E+00 -0.00000000000E+00 -0.59053019617E+03  0.59053019618E+03  0.25500000000E-02 0.  1.
    8880023    1    1    2    0    0  0.55940934386E+03  0.49432934747E+03  0.28700371191E+04  0.30377991357E+04  0.65864270000E+03 0.  0.
    8880022    1    1    2    0    0 -0.55940934386E+03 -0.49432934747E+03 -0.22011365958E+03  0.79318471614E+03  0.15294330000E+03 0.  0.
<mgrwt>
<rscale>  0 0.93119152E+03</rscale>
<asrwt>0</asrwt>
<pdfrwt beam="1">  1        2 0.49853132E+00 0.99554534E+03</pdfrwt>
<pdfrwt beam="2">  1       -2 0.90850801E-01 0.99554534E+03</pdfrwt>
<totfact> 0.12960116E+00</totfact>
</mgrwt>
</event>
<event>
 4    5  0.6615028E-008  0.8952050E+03  0.7818608E-02  0.9533773E-01
         -2   -1    0    0    0  501 -0.00000000000E+00  0.00000000000E+00  0.23063675030E+04  0.23063675030E+04  0.25500000000E-02 0.  1.
          2   -1    0    0  501    0  0.00000000000E+00 -0.00000000000E+00 -0.83772224469E+03  0.83772224469E+03  0.25500000000E-02 0. -1.
    8880023    1    1    2    0    0  0.54490659778E+03  0.26581699487E+03 -0.53653692825E+03  0.10436780906E+04  0.65864270000E+03 0.  0.
    8880022    1    1    2    0    0 -0.54490659778E+03 -0.26581699487E+03  0.20051821865E+04  0.21004116571E+04  0.15294330000E+03 0.  1.
<mgrwt>
<rscale>  0 0.81839000E+03</rscale>
<asrwt>0</asrwt>
<pdfrwt beam="1">  1        2 0.12888035E+00 0.89520505E+03</pdfrwt>
<pdfrwt beam="2">  1       -2 0.35482577E+00 0.89520505E+03</pdfrwt>
<totfact> 0.48350505E-01</totfact>
</mgrwt>
</event>
<event>
 4    5  0.6615028E-008  0.7310422E+03  0.7818608E-02  0.9886853E-01
         -2   -1    0    0    0  501 -0.00000000000E+00  0.00000000000E+00  0.44130170612E+03  0.44130170612E+03  0.25500000000E-02 0.  1.
          2   -1    0    0  501    0  0.00000000000E+00 -0.00000000000E+00 -0.21280250875E+04  0.21280250875E+04  0.25500000000E-02 0. -1.
    8880023    1    1    2    0    0 -0.80679568947E+02 -0.30676260942E+03 -0.19802581487E+04  0.21108872621E+04  0.65864270000E+03 0. -1.
    8880022    1    1    2    0    0  0.80679568947E+02  0.30676260942E+03  0.29353476737E+03  0.45843953151E+03  0.15294330000E+03 0.  0.
<mgrwt>
<rscale>  0 0.60902674E+03</rscale>
<asrwt>0</asrwt>
<pdfrwt beam="1">  1        2 0.32738847E+00 0.73104220E+03</pdfrwt>
<pdfrwt beam="2">  1       -2 0.67892571E-01 0.73104220E+03</pdfrwt>
<totfact> 0.11726543E+01</totfact>
</mgrwt>
</event>
<event>
 4    5  0.6615028E-008  0.8338568E+03  0.7818608E-02  0.9641874E-01
         -2   -1    0    0    0  501 -0.00000000000E+00  0.00000000000E+00  0.51678532604E+03  0.51678532605E+03  0.25500000000E-02 0.  1.
          2   -1    0    0  501    0  0.00000000000E+00 -0.00000000000E+00 -0.13435769886E+04  0.13435769886E+04  0.25500000000E-02 0. -1.
    8880023    1    1    2    0    0  0.22898502648E+03 -0.45724482981E+03 -0.99735559058E+03  0.13000135988E+04  0.65864270000E+03 0.  0.
    8880022    1    1    2    0    0 -0.22898502648E+03  0.45724482981E+03  0.17056392807E+03  0.56034871581E+03  0.15294330000E+03 0.  0.
<mgrwt>
<rscale>  0 0.74585586E+03</rscale>
<asrwt>0</asrwt>
<pdfrwt beam="1">  1        2 0.20670415E+00 0.83385681E+03</pdfrwt>
<pdfrwt beam="2">  1       -2 0.79505435E-01 0.83385681E+03</pdfrwt>
<totfact> 0.22119861E+01</totfact>
</mgrwt>
</event>
<event>
 4    5  0.6615028E-008  0.1350091E+04  0.7818608E-02  0.9023467E-01
          2   -1    0    0  501    0  0.00000000000E+00  0.00000000000E+00  0.33305760678E+04  0.33305760678E+04  0.25500000000E-02 0. -1.
         -2   -1    0    0    0  501 -0.00000000000E+00 -0.00000000000E+00 -0.80708247471E+03  0.80708247471E+03  0.25500000000E-02 0.  1.
    8880023    1    1    2    0    0 -0.35240026515E+02  0.11780041138E+04  0.19469108389E+01  0.13500924221E+04  0.65864270000E+03 0.  0.
    8880022    1    1    2    0    0  0.35240026515E+02 -0.11780041138E+04  0.25215466823E+04  0.27875661204E+04  0.15294330000E+03 0.  0.
<mgrwt>
<rscale>  0 0.13077183E+04</rscale>
<asrwt>0</asrwt>
<pdfrwt beam="1">  1        2 0.51239632E+00 0.13500910E+04</pdfrwt>
<pdfrwt beam="2">  1       -2 0.12416653E+00 0.13500910E+04</pdfrwt>
<totfact> 0.50415714E-01</totfact>
</mgrwt>
</event>
<event>
 4    5  0.6615028E-008  0.9664600E+03  0.7818608E-02  0.9426817E-01
          2   -1    0    0  501    0  0.00000000000E+00  0.00000000000E+00  0.16797908382E+04  0.16797908382E+04  0.25500000000E-02 0. -1.
         -2   -1    0    0    0  501 -0.00000000000E+00 -0.00000000000E+00 -0.64315764947E+03  0.64315764948E+03  0.25500000000E-02 0.  1.
    8880023    1    1    2    0    0  0.66837225560E+03 -0.23132915681E+03  0.12391947582E+04  0.15715115354E+04  0.65864270000E+03 0.  0.
    8880022    1    1    2    0    0 -0.66837225560E+03  0.23132915681E+03 -0.20256156946E+03  0.75143695230E+03  0.15294330000E+03 0.  0.
<mgrwt>
<rscale>  0 0.89901219E+03</rscale>
<asrwt>0</asrwt>
<pdfrwt beam="1">  1        2 0.25842935E+00 0.96645996E+03</pdfrwt>
<pdfrwt beam="2">  1       -2 0.98947333E-01 0.96645996E+03</pdfrwt>
<totfact> 0.85295912E+00</totfact>
</mgrwt>
</event>
<event>
 4    5  0.6615028E-008  0.1319127E+04  0.7818608E-02  0.9049216E-01
          2   -1    0    0  501    0  0.00000000000E+00  0.00000000000E+00  0.20453962451E+04  0.20453962451E+04  0.25500000000E-02 0. -1.
         -2   -1    0    0    0  501 -0.00000000000E+00 -0.00000000000E+00 -0.87246511524E+03  0.87246511524E+03  0.25500000000E-02 0.  1.
    8880023    1    1    2    0    0  0.26516416820E+03  0.11117439576E+04  0.11722738122E+04  0.17647443895E+04  0.65864270000E+03 0.  0.
    8880022    1    1    2    0    0 -0.26516416820E+03 -0.11117439576E+04  0.65731769684E+00  0.11531169708E+04  0.15294330000E+03 0.  0.
<mgrwt>
<rscale>  0 0.12755085E+04</rscale>
<asrwt>0</asrwt>
<pdfrwt beam="1">  1        2 0.31467634E+00 0.13191273E+04</pdfrwt>
<pdfrwt beam="2">  1       -2 0.13422540E+00 0.13191273E+04</pdfrwt>
<totfact> 0.24300927E+00</totfact>
</mgrwt>
</event>
<event>
 4    5  0.6615028E-008  0.1137100E+04  0.7818608E-02  0.9220833E-01
         -2   -1    0    0    0  501 -0.00000000000E+00  0.00000000000E+00  0.85543080779E+03  0.85543080779E+03  0.25500000000E-02 0.  1.
          2   -1    0    0  501    0  0.00000000000E+00 -0.00000000000E+00 -0.16458392751E+04  0.16458392751E+04  0.25500000000E-02 0. -1.
    8880023    1    1    2    0    0  0.61520706694E+03  0.69332918176E+03 -0.10272760105E+04  0.15324135530E+04  0.65864270000E+03 0.  0.
    8880022    1    1    2    0    0 -0.61520706694E+03 -0.69332918176E+03  0.23686754317E+03  0.96885652989E+03  0.15294330000E+03 0.  0.
<mgrwt>
<rscale>  0 0.10840964E+04</rscale>
<asrwt>0</asrwt>
<pdfrwt beam="1">  1        2 0.25320604E+00 0.11370995E+04</pdfrwt>
<pdfrwt beam="2">  1       -2 0.13160474E+00 0.11370995E+04</pdfrwt>
<totfact> 0.43364595E+00</totfact>
</mgrwt>
</event>
<event>
 4    5  0.6615028E-008  0.6665819E+03  0.7818608E-02  0.1018242E+00
         -2   -1    0    0    0  501 -0.00000000000E+00  0.00000000000E+00  0.20270191690E+04  0.20270191690E+04  0.25500000000E-02 0.  1.
          2   -1    0    0  501    0  0.00000000000E+00 -0.00000000000E+00 -0.23400068109E+03  0.23400068111E+03  0.25500000000E-02 0. -1.
    8880023    1    1    2    0    0  0.68280868703E+02 -0.76544180836E+02  0.25764429277E+03  0.71464122223E+03  0.65864270000E+03 0. -1.
    8880022    1    1    2    0    0 -0.68280868703E+02  0.76544180836E+02  0.15353741951E+04  0.15463786279E+04  0.15294330000E+03 0.  0.
<mgrwt>
<rscale>  0 0.48326556E+03</rscale>
<asrwt>0</asrwt>
<pdfrwt beam="1">  1        2 0.36000105E-01 0.66658195E+03</pdfrwt>
<pdfrwt beam="2">  1       -2 0.31184910E+00 0.66658195E+03</pdfrwt>
<totfact> 0.41068837E+00</totfact>
</mgrwt>
</event>
<event>
 4    5  0.6615028E-008  0.6655657E+03  0.7818608E-02  0.1019063E+00
         -2   -1    0    0    0  501 -0.00000000000E+00  0.00000000000E+00  0.24894674051E+03  0.24894674052E+03  0.25500000000E-02 0.  1.
          2   -1    0    0  501    0  0.00000000000E+00 -0.00000000000E+00 -0.80798303607E+03  0.80798303608E+03  0.25500000000E-02 0. -1.
    8880023    1    1    2    0    0  0.61283085940E+02 -0.73565255748E+02 -0.56981600297E+03  0.87616662056E+03  0.65864270000E+03 0. -1.
    8880022    1    1    2    0    0 -0.61283085940E+02  0.73565255748E+02  0.10779707411E+02  0.18076315604E+03  0.15294330000E+03 0.  1.
<mgrwt>
<rscale>  0 0.48026094E+03</rscale>
<asrwt>0</asrwt>
<pdfrwt beam="1">  1        2 0.12430508E+00 0.66556568E+03</pdfrwt>
<pdfrwt beam="2">  1       -2 0.38299499E-01 0.66556568E+03</pdfrwt>
<totfact> 0.22179778E+02</totfact>
</mgrwt>
</event>
<event>
 4    5  0.6615028E-008  0.8666827E+03  0.7818608E-02  0.9581785E-01
          2   -1    0    0  501    0  0.00000000000E+00  0.00000000000E+00  0.22757841811E+04  0.22757841811E+04  0.25500000000E-02 0. -1.
         -2   -1    0    0    0  501 -0.00000000000E+00 -0.00000000000E+00 -0.47058368410E+03  0.47058368410E+03  0.25500000000E-02 0.  1.
    8880023    1    1    2    0    0  0.54516871901E+03  0.14184408977E+03  0.19594960814E+04  0.21426067715E+04  0.65864270000E+03 0.  0.
    8880022    1    1    2    0    0 -0.54516871901E+03 -0.14184408977E+03 -0.15429558433E+03  0.60376109377E+03  0.15294330000E+03 0.  0.
<mgrwt>
<rscale>  0 0.78513592E+03</rscale>
<asrwt>0</asrwt>
<pdfrwt beam="1">  1        2 0.35012064E+00 0.86668269E+03</pdfrwt>
<pdfrwt beam="2">  1       -2 0.72397490E-01 0.86668269E+03</pdfrwt>
<totfact> 0.82760440E+00</totfact>
</mgrwt>
</event>
<event>
 4    5  0.6615028E-008  0.1414250E+04  0.7818608E-02  0.8972689E-01
         -2   -1    0    0    0  501 -0.00000000000E+00  0.00000000000E+00  0.15903502342E+04  0.15903502342E+04  0.25500000000E-02 0.  1.
          2   -1    0    0  501    0  0.00000000000E+00 -0.00000000000E+00 -0.19381745165E+04  0.19381745165E+04  0.25500000000E-02 0. -1.
    8880023    1    1    2    0    0  0.44632511461E+03  0.11692243374E+04 -0.13214393694E+04  0.19355371018E+04  0.65864270000E+03 0.  0.
    8880022    1    1    2    0    0 -0.44632511461E+03 -0.11692243374E+04  0.97361508704E+03  0.15929876490E+04  0.15294330000E+03 0.  0.
<mgrwt>
<rscale>  0 0.13742267E+04</rscale>
<asrwt>0</asrwt>
<pdfrwt beam="1">  1        2 0.29818070E+00 0.14142496E+04</pdfrwt>
<pdfrwt beam="2">  1       -2 0.24466927E+00 0.14142496E+04</pdfrwt>
<totfact> 0.47456436E-01</totfact>
</mgrwt>
</event>
<event>
 4    5  0.6615028E-008  0.7457435E+03  0.7818608E-02  0.9843522E-01
          2   -1    0    0  501    0  0.00000000000E+00  0.00000000000E+00  0.24930357326E+04  0.24930357326E+04  0.25500000000E-02 0. -1.
         -2   -1    0    0    0  501 -0.00000000000E+00 -0.00000000000E+00 -0.24903255302E+03  0.24903255303E+03  0.25500000000E-02 0.  1.
    8880023    1    1    2    0    0 -0.12310136077E+01 -0.34974517514E+03  0.22394086384E+04  0.23603144831E+04  0.65864270000E+03 0. -1.
    8880022    1    1    2    0    0  0.12310136077E+01  0.34974517514E+03  0.45945411331E+01  0.38175380253E+03  0.15294330000E+03 0.  0.
<mgrwt>
<rscale>  0 0.63078317E+03</rscale>
<asrwt>0</asrwt>
<pdfrwt beam="1">  1        2 0.38354395E+00 0.74574353E+03</pdfrwt>
<pdfrwt beam="2">  1       -2 0.38312702E-01 0.74574353E+03</pdfrwt>
<totfact> 0.23629990E+01</totfact>
</mgrwt>
</event>
<event>
 4    5  0.6615028E-008  0.7259219E+03  0.7818608E-02  0.9903035E-01
          2   -1    0    0  501    0  0.00000000000E+00  0.00000000000E+00  0.35512291918E+04  0.35512291918E+04  0.25500000000E-02 0. -1.
         -2   -1    0    0    0  501 -0.00000000000E+00 -0.00000000000E+00 -0.94367782518E+02  0.94367782553E+02  0.25500000000E-02 0.  1.
    8880023    1    1    2    0    0  0.10368802048E+03  0.28705607589E+03  0.29239630482E+04  0.30127267566E+04  0.65864270000E+03 0.  0.
    8880022    1    1    2    0    0 -0.10368802048E+03 -0.28705607589E+03  0.53289836111E+03  0.63287021780E+03  0.15294330000E+03 0.  0.
<mgrwt>
<rscale>  0 0.60114423E+03</rscale>
<asrwt>0</asrwt>
<pdfrwt beam="1">  1        2 0.54634290E+00 0.72592190E+03</pdfrwt>
<pdfrwt beam="2">  1       -2 0.14518122E-01 0.72592190E+03</pdfrwt>
<totfact> 0.29983461E+01</totfact>
</mgrwt>
</event>
<event>
 4    5  0.6615028E-008  0.7011555E+03  0.7818608E-02  0.9992441E-01
         -2   -1    0    0    0  501 -0.00000000000E+00  0.00000000000E+00  0.28826785476E+04  0.28826785476E+04  0.25500000000E-02 0.  1.
          2   -1    0    0  501    0  0.00000000000E+00 -0.00000000000E+00 -0.76538344390E+03  0.76538344391E+03  0.25500000000E-02 0. -1.
    8880023    1    1    2    0    0 -0.95414035582E+01 -0.24024525203E+03 -0.59576133386E+03  0.92008184021E+03  0.65864270000E+03 0. -1.
    8880022    1    1    2    0    0  0.95414035582E+01  0.24024525203E+03  0.27130564376E+04  0.27279801513E+04  0.15294330000E+03 0.  0.
<mgrwt>
<rscale>  0 0.55982924E+03</rscale>
<asrwt>0</asrwt>
<pdfrwt beam="1">  1        2 0.11775130E+00 0.70115549E+03</pdfrwt>
<pdfrwt beam="2">  1       -2 0.44348900E+00 0.70115549E+03</pdfrwt>
<totfact> 0.15138316E-01</totfact>
</mgrwt>
</event>
<event>
 4    5  0.6615028E-008  0.8075394E+03  0.7818608E-02  0.9694725E-01
          2   -1    0    0  501    0  0.00000000000E+00  0.00000000000E+00  0.23082498969E+04  0.23082498969E+04  0.25500000000E-02 0. -1.
         -2   -1    0    0    0  501 -0.00000000000E+00 -0.00000000000E+00 -0.34130790481E+03  0.34130790482E+03  0.25500000000E-02 0.  1.
    8880023    1    1    2    0    0  0.65816737812E+02 -0.46257731114E+03  0.19999387121E+04  0.21568205002E+04  0.65864270000E+03 0.  0.
    8880022    1    1    2    0    0 -0.65816737812E+02  0.46257731114E+03 -0.32996719988E+02  0.49273730152E+03  0.15294330000E+03 0.  0.
<mgrwt>
<rscale>  0 0.71331711E+03</rscale>
<asrwt>0</asrwt>
<pdfrwt beam="1">  1        2 0.35511537E+00 0.80753936E+03</pdfrwt>
<pdfrwt beam="2">  1       -2 0.52508908E-01 0.80753936E+03</pdfrwt>
<totfact> 0.15859941E+01</totfact>
</mgrwt>
</event>
<event>
 4    5  0.6615028E-008  0.1063956E+04  0.7818608E-02  0.9302289E-01
          2   -1    0    0  501    0  0.00000000000E+00  0.00000000000E+00  0.19439792658E+04  0.19439792658E+04  0.25500000000E-02 0. -1.
         -2   -1    0    0    0  501 -0.00000000000E+00 -0.00000000000E+00 -0.59182227136E+03  0.59182227137E+03  0.25500000000E-02 0.  1.
    8880023    1    1    2    0    0 -0.33817273327E+03 -0.76408865308E+03  0.13067737698E+04  0.16851291223E+04  0.65864270000E+03 0.  0.
    8880022    1    1    2    0    0  0.33817273327E+03  0.76408865308E+03  0.45383224667E+02  0.85067241485E+03  0.15294330000E+03 0.  0.
<mgrwt>
<rscale>  0 0.10057236E+04</rscale>
<asrwt>0</asrwt>
<pdfrwt beam="1">  1        2 0.29907373E+00 0.10639560E+04</pdfrwt>
<pdfrwt beam="2">  1       -2 0.91049581E-01 0.10639560E+04</pdfrwt>
<totfact> 0.73364801E+00</totfact>
</mgrwt>
</event>
<event>
 4    5  0.6615028E-008  0.1133558E+04  0.7818608E-02  0.9224582E-01
         -2   -1    0    0    0  501 -0.00000000000E+00  0.00000000000E+00  0.73246881899E+03  0.73246881900E+03  0.25500000000E-02 0.  1.
          2   -1    0    0  501    0  0.00000000000E+00 -0.00000000000E+00 -0.21027615422E+04  0.21027615422E+04  0.25500000000E-02 0. -1.
    8880023    1    1    2    0    0 -0.81786076760E+03 -0.42690427362E+03 -0.15116357434E+04  0.18894433892E+04  0.65864270000E+03 0.  0.
    8880022    1    1    2    0    0  0.81786076760E+03  0.42690427362E+03  0.14134302019E+03  0.94578697199E+03  0.15294330000E+03 0.  0.
<mgrwt>
<rscale>  0 0.10803263E+04</rscale>
<asrwt>0</asrwt>
<pdfrwt beam="1">  1        2 0.32350177E+00 0.11335580E+04</pdfrwt>
<pdfrwt beam="2">  1       -2 0.11268751E+00 0.11335580E+04</pdfrwt>
<totfact> 0.35735082E+00</totfact>
</mgrwt>
</event>
<event>
 4    5  0.6615028E-008  0.7067097E+03  0.7818608E-02  0.9970428E-01
          2   -1    0    0  501    0  0.00000000000E+00  0.00000000000E+00  0.12962630188E+04  0.12962630188E+04  0.25500000000E-02 0. -1.
         -2   -1    0    0    0  501 -0.00000000000E+00 -0.00000000000E+00 -0.61095920854E+03  0.61095920854E+03  0.25500000000E-02 0.  1.
    8880023    1    1    2    0    0 -0.16404708022E+03 -0.19676605493E+03  0.11530662807E+04  0.13524054047E+04  0.65864270000E+03 0. -1.
    8880022    1    1    2    0    0  0.16404708022E+03  0.19676605493E+03 -0.46776247041E+03  0.55481682260E+03  0.15294330000E+03 0.  0.
<mgrwt>
<rscale>  0 0.56966128E+03</rscale>
<asrwt>0</asrwt>
<pdfrwt beam="1">  1        2 0.19942508E+00 0.70670965E+03</pdfrwt>
<pdfrwt beam="2">  1       -2 0.93993726E-01 0.70670965E+03</pdfrwt>
<totfact> 0.16290947E+01</totfact>
</mgrwt>
</event>
<event>
 4    5  0.6615028E-008  0.8729406E+03  0.7818608E-02  0.9570947E-01
          2   -1    0    0  501    0  0.00000000000E+00  0.00000000000E+00  0.11704723243E+04  0.11704723243E+04  0.25500000000E-02 0. -1.
         -2   -1    0    0    0  501 -0.00000000000E+00 -0.00000000000E+00 -0.49753194513E+03  0.49753194513E+03  0.25500000000E-02 0.  1.
    8880023    1    1    2    0    0 -0.39117936473E+03 -0.41856148772E+03  0.16752658441E+03  0.88887028139E+03  0.65864270000E+03 0.  1.
    8880022    1    1    2    0    0  0.39117936473E+03  0.41856148772E+03  0.50541379479E+03  0.77913398807E+03  0.15294330000E+03 0.  0.
<mgrwt>
<rscale>  0 0.79249338E+03</rscale>
<asrwt>0</asrwt>
<pdfrwt beam="1">  1        2 0.18007266E+00 0.87294056E+03</pdfrwt>
<pdfrwt beam="2">  1       -2 0.76543378E-01 0.87294056E+03</pdfrwt>
<totfact> 0.30304265E+01</totfact>
</mgrwt>
</event>
<event>
 4    5  0.7508481E-008  0.1070303E+04  0.7818608E-02  0.9294864E-01
         -2   -1    0    0    0  501 -0.00000000000E+00  0.00000000000E+00  0.14605484046E+04  0.14605484046E+04  0.25500000000E-02 0.  1.
          2   -1    0    0  501    0  0.00000000000E+00 -0.00000000000E+00 -0.22257790565E+04  0.22257790565E+04  0.25500000000E-02 0. -1.
    8880023    1    1    2    0    0 -0.39139546763E+03  0.74736007308E+03 -0.19496682557E+04  0.22241299433E+04  0.65864270000E+03 0.  0.
    8880022    1    1    2    0    0  0.39139546763E+03 -0.74736007308E+03  0.11844376038E+04  0.14621975179E+04  0.15294330000E+03 0.  0.
<mgrwt>
<rscale>  0 0.10125708E+04</rscale>
<asrwt>0</asrwt>
<pdfrwt beam="1">  1        2 0.34242755E+00 0.10703026E+04</pdfrwt>
<pdfrwt beam="2">  1       -2 0.22469976E+00 0.10703026E+04</pdfrwt>
<totfact> 0.45741136E-01</totfact>
</mgrwt>
</event>
<event>
 4    5  0.6615028E-008  0.7175083E+03  0.7818608E-02  0.9931109E-01
         -2   -1    0    0    0  501 -0.00000000000E+00  0.00000000000E+00  0.63102355952E+03  0.63102355952E+03  0.25500000000E-02 0.  1.
          2   -1    0    0  501    0  0.00000000000E+00 -0.00000000000E+00 -0.31077587046E+04  0.31077587046E+04  0.25500000000E-02 0. -1.
    8880023    1    1    2    0    0 -0.22928007715E+02  0.28369392261E+03 -0.30214343063E+04  0.31054602571E+04  0.65864270000E+03 0. -1.
    8880022    1    1    2    0    0  0.22928007715E+02 -0.28369392261E+03  0.54469916122E+03  0.63332200697E+03  0.15294330000E+03 0.  0.
<mgrwt>
<rscale>  0 0.58777017E+03</rscale>
<asrwt>0</asrwt>
<pdfrwt beam="1">  1        2 0.47811671E+00 0.71750829E+03</pdfrwt>
<pdfrwt beam="2">  1       -2 0.97080550E-01 0.71750829E+03</pdfrwt>
<totfact> 0.14229821E+00</totfact>
</mgrwt>
</event>
<event>
 4    5  0.6615028E-008  0.8688219E+03  0.7818608E-02  0.9578060E-01
         -2   -1    0    0    0  501 -0.00000000000E+00  0.00000000000E+00  0.40324989553E+03  0.40324989554E+03  0.25500000000E-02 0.  1.
          2   -1    0    0  501    0  0.00000000000E+00 -0.00000000000E+00 -0.44805623461E+04  0.44805623461E+04  0.25500000000E-02 0. -1.
    8880023    1    1    2    0    0  0.54769593468E+03 -0.14515659916E+03 -0.41960358139E+04  0.42850400269E+04  0.65864270000E+03 0. -1.
    8880022    1    1    2    0    0 -0.54769593468E+03  0.14515659916E+03  0.11872336324E+03  0.59877221474E+03  0.15294330000E+03 0.  0.
<mgrwt>
<rscale>  0 0.78765521E+03</rscale>
<asrwt>0</asrwt>
<pdfrwt beam="1">  1        2 0.68931725E+00 0.86882189E+03</pdfrwt>
<pdfrwt beam="2">  1       -2 0.62038448E-01 0.86882189E+03</pdfrwt>
<totfact> 0.34334676E-01</totfact>
</mgrwt>
</event>
<event>
 4    5  0.6615028E-008  0.1036053E+04  0.7818608E-02  0.9335838E-01
         -2   -1    0    0    0  501 -0.00000000000E+00  0.00000000000E+00  0.14281039733E+04  0.14281039733E+04  0.25500000000E-02 0.  1.
          2   -1    0    0  501    0  0.00000000000E+00 -0.00000000000E+00 -0.60378951391E+03  0.60378951392E+03  0.25500000000E-02 0. -1.
    8880023    1    1    2    0    0 -0.47152965110E+03  0.64595309145E+03  0.54795051875E+03  0.11720305395E+04  0.65864270000E+03 0.  0.
    8880022    1    1    2    0    0  0.47152965110E+03 -0.64595309145E+03  0.27636394065E+03  0.85986294776E+03  0.15294330000E+03 0.  0.
<mgrwt>
<rscale>  0 0.97549405E+03</rscale>
<asrwt>0</asrwt>
<pdfrwt beam="1">  1        2 0.92890696E-01 0.10360530E+04</pdfrwt>
<pdfrwt beam="2">  1       -2 0.21970830E+00 0.10360530E+04</pdfrwt>
<totfact> 0.48480649E+00</totfact>
</mgrwt>
</event>
<event>
 4    5  0.6615028E-008  0.8519433E+03  0.7818608E-02  0.9608059E-01
          2   -1    0    0  501    0  0.00000000000E+00  0.00000000000E+00  0.31624752993E+03  0.31624752994E+03  0.25500000000E-02 0. -1.
         -2   -1    0    0    0  501 -0.00000000000E+00 -0.00000000000E+00 -0.17508890179E+04  0.17508890179E+04  0.25500000000E-02 0.  1.
    8880023    1    1    2    0    0  0.51118574151E+03 -0.17517494571E+03 -0.53311252692E+03  0.10049956699E+04  0.65864270000E+03 0.  1.
    8880022    1    1    2    0    0 -0.51118574151E+03  0.17517494571E+03 -0.90152896101E+03  0.10621408779E+04  0.15294330000E+03 0.  0.
<mgrwt>
<rscale>  0 0.76765094E+03</rscale>
<asrwt>0</asrwt>
<pdfrwt beam="1">  1        2 0.48653467E-01 0.85194327E+03</pdfrwt>
<pdfrwt beam="2">  1       -2 0.26936754E+00 0.85194327E+03</pdfrwt>
<totfact> 0.51622859E+00</totfact>
</mgrwt>
</event>
<event>
 4    5  0.6615028E-008  0.8075790E+03  0.7818608E-02  0.9694642E-01
         -2   -1    0    0    0  501 -0.00000000000E+00  0.00000000000E+00  0.10097340552E+04  0.10097340552E+04  0.25500000000E-02 0.  1.
          2   -1    0    0  501    0  0.00000000000E+00 -0.00000000000E+00 -0.14282303897E+04  0.14282303897E+04  0.25500000000E-02 0. -1.
    8880023    1    1    2    0    0  0.60577147970E+02  0.46336170312E+03 -0.12404497243E+04  0.14801687011E+04  0.65864270000E+03 0. -1.
    8880022    1    1    2    0    0 -0.60577147970E+02 -0.46336170312E+03  0.82195338983E+03  0.95779574380E+03  0.15294330000E+03 0.  0.
<mgrwt>
<rscale>  0 0.71336700E+03</rscale>
<asrwt>0</asrwt>
<pdfrwt beam="1">  1        2 0.21972775E+00 0.80757901E+03</pdfrwt>
<pdfrwt beam="2">  1       -2 0.15534370E+00 0.80757901E+03</pdfrwt>
<totfact> 0.38691120E+00</totfact>
</mgrwt>
</event>
<event>
 4    5  0.6615028E-008  0.1514496E+04  0.7818608E-02  0.8899467E-01
          2   -1    0    0  501    0  0.00000000000E+00  0.00000000000E+00  0.22309676731E+04  0.22309676731E+04  0.25500000000E-02 0. -1.
         -2   -1    0    0    0  501 -0.00000000000E+00 -0.00000000000E+00 -0.12810623501E+04  0.12810623501E+04  0.25500000000E-02 0.  1.
    8880023    1    1    2    0    0  0.12839218446E+04 -0.45981876602E+03  0.14053662479E+04  0.20660961008E+04  0.65864270000E+03 0.  0.
    8880022    1    1    2    0    0 -0.12839218446E+04  0.45981876602E+03 -0.45546092498E+03  0.14459339224E+04  0.15294330000E+03 0.  0.
<mgrwt>
<rscale>  0 0.14776294E+04</rscale>
<asrwt>0</asrwt>
<pdfrwt beam="1">  1        2 0.34322579E+00 0.15144962E+04</pdfrwt>
<pdfrwt beam="2">  1       -2 0.19708652E+00 0.15144962E+04</pdfrwt>
<totfact> 0.64677645E-01</totfact>
</mgrwt>
</event>
<event>
 4    5  0.6615028E-008  0.8052892E+03  0.7818608E-02  0.9699474E-01
          2   -1    0    0  501    0  0.00000000000E+00  0.00000000000E+00  0.83606742618E+03  0.83606742619E+03  0.25500000000E-02 0. -1.
         -2   -1    0    0    0  501 -0.00000000000E+00 -0.00000000000E+00 -0.67900709613E+03  0.67900709614E+03  0.25500000000E-02 0.  1.
    8880023    1    1    2    0    0 -0.17211473942E+03 -0.43018259474E+03  0.47287077489E+03  0.93386161949E+03  0.65864270000E+03 0. -1.
    8880022    1    1    2    0    0  0.17211473942E+03  0.43018259474E+03 -0.31581044484E+03  0.58121290284E+03  0.15294330000E+03 0.  0.
<mgrwt>
<rscale>  0 0.71048106E+03</rscale>
<asrwt>0</asrwt>
<pdfrwt beam="1">  1        2 0.12862576E+00 0.80528924E+03</pdfrwt>
<pdfrwt beam="2">  1       -2 0.10446263E+00 0.80528924E+03</pdfrwt>
<totfact> 0.24389331E+01</totfact>
</mgrwt>
</event>
<event>
 4    5  0.6615028E-008  0.9108533E+03  0.7818608E-02  0.9508828E-01
         -2   -1    0    0    0  501 -0.00000000000E+00  0.00000000000E+00  0.79976961756E+03  0.79976961756E+03  0.25500000000E-02 0.  1.
          2   -1    0    0  501    0  0.00000000000E+00 -0.00000000000E+00 -0.11887116536E+04  0.11887116536E+04  0.25500000000E-02 0. -1.
    8880023    1    1    2    0    0 -0.29537217488E+02  0.62846721075E+03 -0.80769560521E+03  0.12173848525E+04  0.65864270000E+03 0.  0.
    8880022    1    1    2    0    0  0.29537217488E+02 -0.62846721075E+03  0.41875356914E+03  0.77109641867E+03  0.15294330000E+03 0.  0.
<mgrwt>
<rscale>  0 0.83636053E+03</rscale>
<asrwt>0</asrwt>
<pdfrwt beam="1">  1        2 0.18287872E+00 0.91085327E+03</pdfrwt>
<pdfrwt beam="2">  1       -2 0.12304148E+00 0.91085327E+03</pdfrwt>
<totfact> 0.96086788E+00</totfact>
</mgrwt>
</event>
<event>
 4    5  0.6615028E-008  0.6668169E+03  0.7818608E-02  0.1018055E+00
          2   -1    0    0  501    0  0.00000000000E+00  0.00000000000E+00  0.12380040654E+04  0.12380040654E+04  0.25500000000E-02 0. -1.
         -2   -1    0    0    0  501 -0.00000000000E+00 -0.00000000000E+00 -0.38037797741E+03  0.38037797741E+03  0.25500000000E-02 0.  1.
    8880023    1    1    2    0    0 -0.68422782637E+02  0.78440121373E+02  0.11163377752E+04  0.13003287140E+04  0.65864270000E+03 0. -1.
    8880022    1    1    2    0    0  0.68422782637E+02 -0.78440121373E+02 -0.25871168724E+03  0.31805332879E+03  0.15294330000E+03 0.  0.
<mgrwt>
<rscale>  0 0.48394916E+03</rscale>
<asrwt>0</asrwt>
<pdfrwt beam="1">  1        2 0.19046217E+00 0.66681687E+03</pdfrwt>
<pdfrwt beam="2">  1       -2 0.58519688E-01 0.66681687E+03</pdfrwt>
<totfact> 0.50403134E+01</totfact>
</mgrwt>
</event>
<event>
 4    5  0.6615028E-008  0.7335082E+03  0.7818608E-02  0.9879277E-01
         -2   -1    0    0    0  501 -0.00000000000E+00  0.00000000000E+00  0.19732671025E+04  0.19732671025E+04  0.25500000000E-02 0.  1.
          2   -1    0    0  501    0  0.00000000000E+00 -0.00000000000E+00 -0.22660515741E+04  0.22660515741E+04  0.25500000000E-02 0. -1.
    8880023    1    1    2    0    0  0.31672311569E+02 -0.32128023988E+03 -0.21895801027E+04  0.23091763381E+04  0.65864270000E+03 0. -1.
    8880022    1    1    2    0    0 -0.31672311569E+02  0.32128023988E+03  0.18967956311E+04  0.19301423386E+04  0.15294330000E+03 0.  0.
<mgrwt>
<rscale>  0 0.61276196E+03</rscale>
<asrwt>0</asrwt>
<pdfrwt beam="1">  1        2 0.34862332E+00 0.73350824E+03</pdfrwt>
<pdfrwt beam="2">  1       -2 0.30357955E+00 0.73350824E+03</pdfrwt>
<totfact> 0.15461960E-01</totfact>
</mgrwt>
</event>
<event>
 4    5  0.6615028E-008  0.7495247E+03  0.7818608E-02  0.9833023E-01
          2   -1    0    0  501    0  0.00000000000E+00  0.00000000000E+00  0.33711018363E+04  0.33711018363E+04  0.25500000000E-02 0. -1.
         -2   -1    0    0    0  501 -0.00000000000E+00 -0.00000000000E+00 -0.56010797166E+03  0.56010797166E+03  0.25500000000E-02 0.  1.
    8880023    1    1    2    0    0 -0.27565782758E+02 -0.35667524799E+03  0.32553942649E+04  0.33405656903E+04  0.65864270000E+03 0.  0.
    8880022    1    1    2    0    0  0.27565782758E+02  0.35667524799E+03 -0.44440040029E+03  0.59064411764E+03  0.15294330000E+03 0.  0.
<mgrwt>
<rscale>  0 0.63620050E+03</rscale>
<asrwt>0</asrwt>
<pdfrwt beam="1">  1        2 0.51863105E+00 0.74952472E+03</pdfrwt>
<pdfrwt beam="2">  1       -2 0.86170457E-01 0.74952472E+03</pdfrwt>
<totfact> 0.12614965E+00</totfact>
</mgrwt>
</event>
<event>
 4    5  0.6615028E-008  0.7723958E+03  0.7818608E-02  0.9774012E-01
         -2   -1    0    0    0  501 -0.00000000000E+00  0.00000000000E+00  0.96743353787E+03  0.96743353788E+03  0.25500000000E-02 0.  1.
          2   -1    0    0  501    0  0.00000000000E+00 -0.00000000000E+00 -0.25338493053E+04  0.25338493053E+04  0.25500000000E-02 0. -1.
    8880023    1    1    2    0    0  0.34960152774E+03 -0.20140482909E+03 -0.24224739037E+04  0.25426315411E+04  0.65864270000E+03 0. -1.
    8880022    1    1    2    0    0 -0.34960152774E+03  0.20140482909E+03  0.85605813625E+03  0.95865130211E+03  0.15294330000E+03 0.  0.
<mgrwt>
<rscale>  0 0.66776036E+03</rscale>
<asrwt>0</asrwt>
<pdfrwt beam="1">  1        2 0.38982297E+00 0.77239584E+03</pdfrwt>
<pdfrwt beam="2">  1       -2 0.14883593E+00 0.77239584E+03</pdfrwt>
<totfact> 0.10669451E+00</totfact>
</mgrwt>
</event>
<event>
 4    5  0.6615028E-008  0.1002116E+04  0.7818608E-02  0.9378794E-01
          2   -1    0    0  501    0  0.00000000000E+00  0.00000000000E+00  0.10648985817E+04  0.10648985817E+04  0.25500000000E-02 0. -1.
         -2   -1    0    0    0  501 -0.00000000000E+00 -0.00000000000E+00 -0.91169360381E+03  0.91169360382E+03  0.25500000000E-02 0.  1.
    8880023    1    1    2    0    0  0.15175588570E+03 -0.73986292275E+03  0.51339513255E+03  0.11259714746E+04  0.65864270000E+03 0.  0.
    8880022    1    1    2    0    0 -0.15175588570E+03  0.73986292275E+03 -0.36019015464E+03  0.85062071090E+03  0.15294330000E+03 0.  0.
<mgrwt>
<rscale>  0 0.93841587E+03</rscale>
<asrwt>0</asrwt>
<pdfrwt beam="1">  1        2 0.16383055E+00 0.10021164E+04</pdfrwt>
<pdfrwt beam="2">  1       -2 0.14026055E+00 0.10021164E+04</pdfrwt>
<totfact> 0.81174787E+00</totfact>
</mgrwt>
</event>
<event>
 4    5  0.6615028E-008  0.7099951E+03  0.7818608E-02  0.9958019E-01
          2   -1    0    0  501    0  0.00000000000E+00  0.00000000000E+00  0.28697161076E+04  0.28697161076E+04  0.25500000000E-02 0. -1.
         -2   -1    0    0    0  501 -0.00000000000E+00 -0.00000000000E+00 -0.33751343009E+03  0.33751343010E+03  0.25500000000E-02 0.  1.
    8880023    1    1    2    0    0  0.14808124271E+03  0.21989710252E+03  0.27444319940E+04  0.28347839364E+04  0.65864270000E+03 0. -1.
    8880022    1    1    2    0    0 -0.14808124271E+03 -0.21989710252E+03 -0.21222931648E+03  0.37244560130E+03  0.15294330000E+03 0.  0.
<mgrwt>
<rscale>  0 0.57529969E+03</rscale>
<asrwt>0</asrwt>
<pdfrwt beam="1">  1        2 0.44149478E+00 0.70999507E+03</pdfrwt>
<pdfrwt beam="2">  1       -2 0.51925144E-01 0.70999507E+03</pdfrwt>
<totfact> 0.78449492E+00</totfact>
</mgrwt>
</event>
<event>
 4    5  0.6615028E-008  0.1580532E+04  0.7818608E-02  0.8854768E-01
          2   -1    0    0  501    0  0.00000000000E+00  0.00000000000E+00  0.17079845337E+04  0.17079845337E+04  0.25500000000E-02 0. -1.
         -2   -1    0    0    0  501 -0.00000000000E+00 -0.00000000000E+00 -0.21018720640E+04  0.21018720640E+04  0.25500000000E-02 0.  1.
    8880023    1    1    2    0    0  0.13498494912E+04  0.49211437537E+03  0.94375726620E+03  0.18408580040E+04  0.65864270000E+03 0.  0.
    8880022    1    1    2    0    0 -0.13498494912E+04 -0.49211437537E+03 -0.13376447964E+04  0.19689985936E+04  0.15294330000E+03 0.  0.
<mgrwt>
<rscale>  0 0.15454677E+04</rscale>
<asrwt>0</asrwt>
<pdfrwt beam="1">  1        2 0.26276685E+00 0.15805317E+04</pdfrwt>
<pdfrwt beam="2">  1       -2 0.32336493E+00 0.15805317E+04</pdfrwt>
<totfact> 0.20632042E-01</totfact>
</mgrwt>
</event>
<event>
 4    5  0.6615028E-008  0.1501713E+04  0.7818608E-02  0.8908428E-01
         -2   -1    0    0    0  501 -0.00000000000E+00  0.00000000000E+00  0.40575849654E+04  0.40575849654E+04  0.25500000000E-02 0.  1.
          2   -1    0    0  501    0  0.00000000000E+00 -0.00000000000E+00 -0.11917581133E+04  0.11917581133E+04  0.25500000000E-02 0. -1.
    8880023    1    1    2    0    0 -0.13201714307E+04  0.28013908865E+03 -0.52958532057E+03  0.15923571626E+04  0.65864270000E+03 0. -1.
    8880022    1    1    2    0    0  0.13201714307E+04 -0.28013908865E+03  0.33954121726E+04  0.36569859161E+04  0.15294330000E+03 0.  0.
<mgrwt>
<rscale>  0 0.14644734E+04</rscale>
<asrwt>0</asrwt>
<pdfrwt beam="1">  1        2 0.18334740E+00 0.15017126E+04</pdfrwt>
<pdfrwt beam="2">  1       -2 0.62424384E+00 0.15017126E+04</pdfrwt>
<totfact> 0.72130677E-03</totfact>
</mgrwt>
</event>
<event>
 4    5  0.6615028E-008  0.9243746E+03  0.7818608E-02  0.9487984E-01
         -2   -1    0    0    0  501 -0.00000000000E+00  0.00000000000E+00  0.17642612330E+04  0.17642612330E+04  0.25500000000E-02 0.  1.
          2   -1    0    0  501    0  0.00000000000E+00 -0.00000000000E+00 -0.17572076733E+04  0.17572076733E+04  0.25500000000E-02 0. -1.
    8880023    1    1    2    0    0 -0.62632175983E+03 -0.16846160655E+03 -0.15629834079E+04  0.18158704798E+04  0.65864270000E+03 0. -1.
    8880022    1    1    2    0    0  0.62632175983E+03  0.16846160655E+03  0.15700369676E+04  0.17055984265E+04  0.15294330000E+03 0.  0.
<mgrwt>
<rscale>  0 0.85175558E+03</rscale>
<asrwt>0</asrwt>
<pdfrwt beam="1">  1        2 0.27033964E+00 0.92437464E+03</pdfrwt>
<pdfrwt beam="2">  1       -2 0.27142480E+00 0.92437464E+03</pdfrwt>
<totfact> 0.44014793E-01</totfact>
</mgrwt>
</event>
<event>
 4    5  0.6615028E-008  0.8130808E+03  0.7818608E-02  0.9683195E-01
         -2   -1    0    0    0  501 -0.00000000000E+00  0.00000000000E+00  0.30640009337E+03  0.30640009338E+03  0.25500000000E-02 0.  1.
          2   -1    0    0  501    0  0.00000000000E+00 -0.00000000000E+00 -0.16030545869E+04  0.16030545869E+04  0.25500000000E-02 0. -1.
    8880023    1    1    2    0    0  0.57952176177E+02  0.47321432784E+03 -0.11081919018E+04  0.13744779926E+04  0.65864270000E+03 0. -1.
    8880022    1    1    2    0    0 -0.57952176177E+02 -0.47321432784E+03 -0.18846259173E+03  0.53497668762E+03  0.15294330000E+03 0.  0.
<mgrwt>
<rscale>  0 0.72026228E+03</rscale>
<asrwt>0</asrwt>
<pdfrwt beam="1">  1        2 0.24662378E+00 0.81308085E+03</pdfrwt>
<pdfrwt beam="2">  1       -2 0.47138477E-01 0.81308085E+03</pdfrwt>
<totfact> 0.48173568E+01</totfact>
</mgrwt>
</event>
<event>
 4    5  0.6615028E-008  0.8020711E+03  0.7818608E-02  0.9706336E-01
         -2   -1    0    0    0  501 -0.00000000000E+00  0.00000000000E+00  0.36124703447E+03  0.36124703448E+03  0.25500000000E-02 0.  1.
          2   -1    0    0  501    0  0.00000000000E+00 -0.00000000000E+00 -0.27279722395E+04  0.27279722395E+04  0.25500000000E-02 0. -1.
    8880023    1    1    2    0    0 -0.43181452579E+03  0.15180247774E+03 -0.24689069937E+04  0.25959236751E+04  0.65864270000E+03 0.  0.
    8880022    1    1    2    0    0  0.43181452579E+03 -0.15180247774E+03  0.10218178870E+03  0.49329559890E+03  0.15294330000E+03 0.  0.
<mgrwt>
<rscale>  0 0.70640813E+03</rscale>
<asrwt>0</asrwt>
<pdfrwt beam="1">  1        2 0.41968802E+00 0.80207106E+03</pdfrwt>
<pdfrwt beam="2">  1       -2 0.55576469E-01 0.80207106E+03</pdfrwt>
<totfact> 0.81348482E+00</totfact>
</mgrwt>
</event>
<event>
 4    5  0.6615028E-008  0.8217528E+03  0.7818608E-02  0.9665597E-01
          2   -1    0    0  501    0  0.00000000000E+00  0.00000000000E+00  0.11959228436E+04  0.11959228436E+04  0.25500000000E-02 0. -1.
         -2   -1    0    0    0  501 -0.00000000000E+00 -0.00000000000E+00 -0.45336871076E+03  0.45336871077E+03  0.25500000000E-02 0.  1.
    8880023    1    1    2    0    0 -0.37869936103E+03 -0.31313602862E+03  0.78038285229E+03  0.11332585675E+04  0.65864270000E+03 0.  0.
    8880022    1    1    2    0    0  0.37869936103E+03  0.31313602862E+03 -0.37828719464E+02  0.51603298683E+03  0.15294330000E+03 0.  0.
<mgrwt>
<rscale>  0 0.73102583E+03</rscale>
<asrwt>0</asrwt>
<pdfrwt beam="1">  1        2 0.18398813E+00 0.82175275E+03</pdfrwt>
<pdfrwt beam="2">  1       -2 0.69749033E-01 0.82175275E+03</pdfrwt>
<totfact> 0.36092784E+01</totfact>
</mgrwt>
</event>
<event>
 4    5  0.6615028E-008  0.7024696E+03  0.7818608E-02  0.9987106E-01
         -2   -1    0    0    0  501 -0.00000000000E+00  0.00000000000E+00  0.25738418474E+03  0.25738418475E+03  0.25500000000E-02 0.  1.
          2   -1    0    0  501    0  0.00000000000E+00 -0.00000000000E+00 -0.11166915215E+04  0.11166915215E+04  0.25500000000E-02 0. -1.
    8880023    1    1    2    0    0  0.22932374977E+03  0.84047454165E+02 -0.82548403422E+03  0.10839222545E+04  0.65864270000E+03 0. -1.
    8880022    1    1    2    0    0 -0.22932374977E+03 -0.84047454165E+02 -0.33823302548E+02  0.29015345177E+03  0.15294330000E+03 0.  0.
<mgrwt>
<rscale>  0 0.56219225E+03</rscale>
<asrwt>0</asrwt>
<pdfrwt beam="1">  1        2 0.17179869E+00 0.70246962E+03</pdfrwt>
<pdfrwt beam="2">  1       -2 0.39597567E-01 0.70246962E+03</pdfrwt>
<totfact> 0.13049556E+02</totfact>
</mgrwt>
</event>
<event>
 4    5  0.6615028E-008  0.6730227E+03  0.7818608E-02  0.1013583E+00
          2   -1    0    0  501    0  0.00000000000E+00  0.00000000000E+00  0.38682416310E+03  0.38682416311E+03  0.25500000000E-02 0. -1.
         -2   -1    0    0    0  501 -0.00000000000E+00 -0.00000000000E+00 -0.14935240376E+04  0.14935240376E+04  0.25500000000E-02 0.  1.
    8880023    1    1    2    0    0 -0.13776939580E+03 -0.12995999321E+02  0.78273091032E+02  0.67755899039E+03  0.65864270000E+03 0. -1.
    8880022    1    1    2    0    0  0.13776939580E+03  0.12995999321E+02 -0.11849729655E+04  0.12027892103E+04  0.15294330000E+03 0.  0.
<mgrwt>
<rscale>  0 0.50075255E+03</rscale>
<asrwt>0</asrwt>
<pdfrwt beam="1">  1        2 0.59511411E-01 0.67302267E+03</pdfrwt>
<pdfrwt beam="2">  1       -2 0.22977293E+00 0.67302267E+03</pdfrwt>
<totfact> 0.73202195E+00</totfact>
</mgrwt>
</event>
<event>
 4    5  0.6615028E-008  0.7430018E+03  0.7818608E-02  0.9851288E-01
         -2   -1    0    0    0  501 -0.00000000000E+00  0.00000000000E+00  0.18227580403E+04  0.18227580403E+04  0.25500000000E-02 0.  1.
          2   -1    0    0  501    0  0.00000000000E+00 -0.00000000000E+00 -0.78615830900E+03  0.78615830900E+03  0.25500000000E-02 0. -1.
    8880023    1    1    2    0    0 -0.33457215067E+03  0.79390966358E+02 -0.58409352873E+03  0.94510153217E+03  0.65864270000E+03 0.  0.
    8880022    1    1    2    0    0  0.33457215067E+03 -0.79390966358E+02  0.16206932600E+04  0.16638148171E+04  0.15294330000E+03 0.  0.
<mgrwt>
<rscale>  0 0.62681299E+03</rscale>
<asrwt>0</asrwt>
<pdfrwt beam="1">  1        2 0.12094743E+00 0.74300179E+03</pdfrwt>
<pdfrwt beam="2">  1       -2 0.28042431E+00 0.74300179E+03</pdfrwt>
<totfact> 0.15351154E+00</totfact>
</mgrwt>
</event>
<event>
 4    5  0.6615028E-008  0.7563746E+03  0.7818608E-02  0.9814585E-01
          2   -1    0    0  501    0  0.00000000000E+00  0.00000000000E+00  0.13909509561E+04  0.13909509561E+04  0.25500000000E-02 0. -1.
         -2   -1    0    0    0  501 -0.00000000000E+00 -0.00000000000E+00 -0.32972248672E+03  0.32972248673E+03  0.25500000000E-02 0.  1.
    8880023    1    1    2    0    0  0.23997299488E+03  0.28408665575E+03  0.10795530003E+04  0.13181567255E+04  0.65864270000E+03 0. -1.
    8880022    1    1    2    0    0 -0.23997299488E+03 -0.28408665575E+03 -0.18324530959E+02  0.40251671729E+03  0.15294330000E+03 0.  0.
<mgrwt>
<rscale>  0 0.64585650E+03</rscale>
<asrwt>0</asrwt>
<pdfrwt beam="1">  1        2 0.21399246E+00 0.75637456E+03</pdfrwt>
<pdfrwt beam="2">  1       -2 0.50726535E-01 0.75637456E+03</pdfrwt>
<totfact> 0.54840150E+01</totfact>
</mgrwt>
</event>
<event>
 4    5  0.6615028E-008  0.9194471E+03  0.7818608E-02  0.9495507E-01
         -2   -1    0    0    0  501 -0.00000000000E+00  0.00000000000E+00  0.55020575841E+03  0.55020575842E+03  0.25500000000E-02 0.  1.
          2   -1    0    0  501    0  0.00000000000E+00 -0.00000000000E+00 -0.11482397090E+04  0.11482397090E+04  0.25500000000E-02 0. -1.
    8880023    1    1    2    0    0 -0.37732874066E+03  0.51884083619E+03 -0.44467276637E+03  0.10213309293E+04  0.65864270000E+03 0. -1.
    8880022    1    1    2    0    0  0.37732874066E+03 -0.51884083619E+03 -0.15336118422E+03  0.67711453807E+03  0.15294330000E+03 0.  1.
<mgrwt>
<rscale>  0 0.84615863E+03</rscale>
<asrwt>0</asrwt>
<pdfrwt beam="1">  1        2 0.17665226E+00 0.91944712E+03</pdfrwt>
<pdfrwt beam="2">  1       -2 0.84647040E-01 0.91944712E+03</pdfrwt>
<totfact> 0.24803893E+01</totfact>
</mgrwt>
</event>
<event>
 4    5  0.6615028E-008  0.1259896E+04  0.7818608E-02  0.9100990E-01
         -2   -1    0    0    0  501 -0.00000000000E+00  0.00000000000E+00  0.23653620952E+04  0.23653620952E+04  0.25500000000E-02 0.  1.
          2   -1    0    0  501    0  0.00000000000E+00 -0.00000000000E+00 -0.12834041591E+04  0.12834041591E+04  0.25500000000E-02 0. -1.
    8880023    1    1    2    0    0  0.70954382714E+03  0.80627187488E+03 -0.78862522893E+03  0.14863602312E+04  0.65864270000E+03 0.  0.
    8880022    1    1    2    0    0 -0.70954382714E+03 -0.80627187488E+03  0.18705831650E+04  0.21624060231E+04  0.15294330000E+03 0.  0.
<mgrwt>
<rscale>  0 0.12136521E+04</rscale>
<asrwt>0</asrwt>
<pdfrwt beam="1">  1        2 0.19744679E+00 0.12598956E+04</pdfrwt>
<pdfrwt beam="2">  1       -2 0.36390186E+00 0.12598956E+04</pdfrwt>
<totfact> 0.20902133E-01</totfact>
</mgrwt>
</event>
<event>
 4    5  0.6615028E-008  0.7370150E+03  0.7818608E-02  0.9868729E-01
         -2   -1    0    0    0  501 -0.00000000000E+00  0.00000000000E+00  0.61824279247E+03  0.61824279248E+03  0.25500000000E-02 0.  1.
          2   -1    0    0  501    0  0.00000000000E+00 -0.00000000000E+00 -0.10703098650E+04  0.10703098650E+04  0.25500000000E-02 0. -1.
    8880023    1    1    2    0    0 -0.17133150142E+03 -0.28288950816E+03 -0.86594834103E+03  0.11371269466E+04  0.65864270000E+03 0. -1.
    8880022    1    1    2    0    0  0.17133150142E+03  0.28288950816E+03  0.41388126846E+03  0.55142571087E+03  0.15294330000E+03 0.  0.
<mgrwt>
<rscale>  0 0.61801046E+03</rscale>
<asrwt>0</asrwt>
<pdfrwt beam="1">  1        2 0.16466306E+00 0.73701504E+03</pdfrwt>
<pdfrwt beam="2">  1       -2 0.95114276E-01 0.73701504E+03</pdfrwt>
<totfact> 0.21521611E+01</totfact>
</mgrwt>
</event>
<event>
 4    5  0.6615028E-008  0.8322530E+03  0.7818608E-02  0.9644965E-01
         -2   -1    0    0    0  501 -0.00000000000E+00  0.00000000000E+00  0.97934001143E+03  0.97934001143E+03  0.25500000000E-02 0.  1.
          2   -1    0    0  501    0  0.00000000000E+00 -0.00000000000E+00 -0.12647452481E+04  0.12647452481E+04  0.25500000000E-02 0. -1.
    8880023    1    1    2    0    0  0.50232458974E+03 -0.80652509788E+02 -0.10332554939E+04  0.13267486358E+04  0.65864270000E+03 0. -1.
    8880022    1    1    2    0    0 -0.50232458974E+03  0.80652509788E+02  0.74785025725E+03  0.91733662365E+03  0.15294330000E+03 0.  0.
<mgrwt>
<rscale>  0 0.74390288E+03</rscale>
<asrwt>0</asrwt>
<pdfrwt beam="1">  1        2 0.19457619E+00 0.83225298E+03</pdfrwt>
<pdfrwt beam="2">  1       -2 0.15066769E+00 0.83225298E+03</pdfrwt>
<totfact> 0.51905094E+00</totfact>
</mgrwt>
</event>
<event>
 4    5  0.6615028E-008  0.7555813E+03  0.7818608E-02  0.9816684E-01
          2   -1    0    0  501    0  0.00000000000E+00  0.00000000000E+00  0.14371433908E+04  0.14371433908E+04  0.25500000000E-02 0. -1.
         -2   -1    0    0    0  501 -0.00000000000E+00 -0.00000000000E+00 -0.87015645888E+03  0.87015645888E+03  0.25500000000E-02 0.  1.
    8880023    1    1    2    0    0 -0.31663022300E+03  0.19193269725E+03  0.12817776481E+04  0.14879035600E+04  0.65864270000E+03 0. -1.
    8880022    1    1    2    0    0  0.31663022300E+03 -0.19193269725E+03 -0.71479071626E+03  0.81939628963E+03  0.15294330000E+03 0.  0.
<mgrwt>
<rscale>  0 0.64474804E+03</rscale>
<asrwt>0</asrwt>
<pdfrwt beam="1">  1        2 0.22109898E+00 0.75558128E+03</pdfrwt>
<pdfrwt beam="2">  1       -2 0.13387022E+00 0.75558128E+03</pdfrwt>
<totfact> 0.56856413E+00</totfact>
</mgrwt>
</event>
<event>
 4    5  0.6615028E-008  0.8527046E+03  0.7818608E-02  0.9606675E-01
         -2   -1    0    0    0  501 -0.00000000000E+00  0.00000000000E+00  0.44425297447E+03  0.44425297448E+03  0.25500000000E-02 0.  1.
          2   -1    0    0  501    0  0.00000000000E+00 -0.00000000000E+00 -0.21137017432E+04  0.21137017432E+04  0.25500000000E-02 0. -1.
    8880023    1    1    2    0    0 -0.49864673746E+03  0.21129698510E+03 -0.17897405800E+04  0.19824925056E+04  0.65864270000E+03 0.  1.
    8880022    1    1    2    0    0  0.49864673746E+03 -0.21129698510E+03  0.12029181127E+03  0.57546221211E+03  0.15294330000E+03 0.  0.
<mgrwt>
<rscale>  0 0.76855983E+03</rscale>
<asrwt>0</asrwt>
<pdfrwt beam="1">  1        2 0.32518488E+00 0.85270463E+03</pdfrwt>
<pdfrwt beam="2">  1       -2 0.68346612E-01 0.85270463E+03</pdfrwt>
<totfact> 0.11564733E+01</totfact>
</mgrwt>
</event>
<event>
 4    5  0.6615028E-008  0.7237420E+03  0.7818608E-02  0.9910122E-01
          2   -1    0    0  501    0  0.00000000000E+00  0.00000000000E+00  0.12428477366E+04  0.12428477366E+04  0.25500000000E-02 0. -1.
         -2   -1    0    0    0  501 -0.00000000000E+00 -0.00000000000E+00 -0.20650093467E+04  0.20650093467E+04  0.25500000000E-02 0.  1.
    8880023    1    1    2    0    0  0.16830029781E+03 -0.24832893071E+03  0.11217688579E+04  0.13349785859E+04  0.65864270000E+03 0. -1.
    8880022    1    1    2    0    0 -0.16830029781E+03  0.24832893071E+03 -0.19439304680E+04  0.19728784974E+04  0.15294330000E+03 0.  0.
<mgrwt>
<rscale>  0 0.59773233E+03</rscale>
<asrwt>0</asrwt>
<pdfrwt beam="1">  1        2 0.19120734E+00 0.72374198E+03</pdfrwt>
<pdfrwt beam="2">  1       -2 0.31769375E+00 0.72374198E+03</pdfrwt>
<totfact> 0.46875560E-01</totfact>
</mgrwt>
</event>
<event>
 4    5  0.6615028E-008  0.6830878E+03  0.7818608E-02  0.1007628E+00
         -2   -1    0    0    0  501 -0.00000000000E+00  0.00000000000E+00  0.12494071156E+04  0.12494071156E+04  0.25500000000E-02 0.  1.
          2   -1    0    0  501    0  0.00000000000E+00 -0.00000000000E+00 -0.76442004040E+03  0.76442004041E+03  0.25500000000E-02 0. -1.
    8880023    1    1    2    0    0 -0.45117396548E+02  0.17539412278E+03 -0.59637284738E+03  0.90679074606E+03  0.65864270000E+03 0. -1.
    8880022    1    1    2    0    0  0.45117396548E+02 -0.17539412278E+03  0.10813599226E+04  0.11070364099E+04  0.15294330000E+03 0.  0.
<mgrwt>
<rscale>  0 0.52428215E+03</rscale>
<asrwt>0</asrwt>
<pdfrwt beam="1">  1        2 0.11760308E+00 0.68308776E+03</pdfrwt>
<pdfrwt beam="2">  1       -2 0.19221648E+00 0.68308776E+03</pdfrwt>
<totfact> 0.56414976E+00</totfact>
</mgrwt>
</event>
<event>
 4    5  0.6615028E-008  0.1076249E+04  0.7818608E-02  0.9287972E-01
          2   -1    0    0  501    0  0.00000000000E+00  0.00000000000E+00  0.14862060467E+04  0.14862060467E+04  0.25500000000E-02 0. -1.
         -2   -1    0    0    0  501 -0.00000000000E+00 -0.00000000000E+00 -0.73282978288E+03  0.73282978289E+03  0.25500000000E-02 0.  1.
    8880023    1    1    2    0    0  0.80651329561E+03 -0.27209866460E+03  0.81798499505E+03  0.13518176791E+04  0.65864270000E+03 0.  0.
    8880022    1    1    2    0    0 -0.80651329561E+03  0.27209866460E+03 -0.64608731241E+02  0.86721815043E+03  0.15294330000E+03 0.  0.
<mgrwt>
<rscale>  0 0.10189772E+04</rscale>
<asrwt>0</asrwt>
<pdfrwt beam="1">  1        2 0.22864708E+00 0.10762488E+04</pdfrwt>
<pdfrwt beam="2">  1       -2 0.11274305E+00 0.10762488E+04</pdfrwt>
<totfact> 0.78933764E+00</totfact>
</mgrwt>
</event>
<event>
 4    5  0.6615028E-008  0.7547953E+03  0.7818608E-02  0.9818773E-01
          2   -1    0    0  501    0  0.00000000000E+00  0.00000000000E+00  0.64056155253E+03  0.64056155254E+03  0.25500000000E-02 0. -1.
         -2   -1    0    0    0  501 -0.00000000000E+00 -0.00000000000E+00 -0.55521689544E+03  0.55521689544E+03  0.25500000000E-02 0.  1.
    8880023    1    1    2    0    0 -0.36856833899E+03  0.79450272714E+01  0.19938341907E+03  0.78068540273E+03  0.65864270000E+03 0. -1.
    8880022    1    1    2    0    0  0.36856833899E+03 -0.79450272714E+01 -0.11403876198E+03  0.41509304525E+03  0.15294330000E+03 0.  1.
<mgrwt>
<rscale>  0 0.64364734E+03</rscale>
<asrwt>0</asrwt>
<pdfrwt beam="1">  1        2 0.98547931E-01 0.75479530E+03</pdfrwt>
<pdfrwt beam="2">  1       -2 0.85417984E-01 0.75479530E+03</pdfrwt>
<totfact> 0.55210594E+01</totfact>
</mgrwt>
</event>
<event>
 4    5  0.6615028E-008  0.7873559E+03  0.7818608E-02  0.9738833E-01
         -2   -1    0    0    0  501 -0.00000000000E+00  0.00000000000E+00  0.82077956293E+03  0.82077956294E+03  0.25500000000E-02 0.  1.
          2   -1    0    0  501    0  0.00000000000E+00 -0.00000000000E+00 -0.10952153322E+04  0.10952153322E+04  0.25500000000E-02 0. -1.
    8880023    1    1    2    0    0 -0.26656176404E+03  0.33921084573E+03 -0.86443403063E+03  0.11692628325E+04  0.65864270000E+03 0. -1.
    8880022    1    1    2    0    0  0.26656176404E+03 -0.33921084573E+03  0.58999826137E+03  0.74673206262E+03  0.15294330000E+03 0.  0.
<mgrwt>
<rscale>  0 0.68751019E+03</rscale>
<asrwt>0</asrwt>
<pdfrwt beam="1">  1        2 0.16849467E+00 0.78735594E+03</pdfrwt>
<pdfrwt beam="2">  1       -2 0.12627378E+00 0.78735594E+03</pdfrwt>
<totfact> 0.10395872E+01</totfact>
</mgrwt>
</event>
<event>
 4    5  0.6615028E-008  0.7413513E+03  0.7818608E-02  0.9856028E-01
         -2   -1    0    0    0  501 -0.00000000000E+00  0.00000000000E+00  0.46659285462E+03  0.46659285462E+03  0.25500000000E-02 0.  1.
          2   -1    0    0  501    0  0.00000000000E+00 -0.00000000000E+00 -0.22317458249E+04  0.22317458249E+04  0.25500000000E-02 0. -1.
    8880023    1    1    2    0    0  0.21553798154E+03  0.26331514447E+03 -0.20812595306E+04  0.22093535088E+04  0.65864270000E+03 0. -1.
    8880022    1    1    2    0    0 -0.21553798154E+03 -0.26331514447E+03  0.31610656027E+03  0.48898517079E+03  0.15294330000E+03 0.  0.
<mgrwt>
<rscale>  0 0.62440497E+03</rscale>
<asrwt>0</asrwt>
<pdfrwt beam="1">  1        2 0.34334550E+00 0.74135126E+03</pdfrwt>
<pdfrwt beam="2">  1       -2 0.71783518E-01 0.74135126E+03</pdfrwt>
<totfact> 0.90908299E+00</totfact>
</mgrwt>
</event>
<event>
 4    5  0.6615028E-008  0.7565636E+03  0.7818608E-02  0.9814087E-01
          2   -1    0    0  501    0  0.00000000000E+00  0.00000000000E+00  0.23378917050E+04  0.23378917050E+04  0.25500000000E-02 0. -1.
         -2   -1    0    0    0  501 -0.00000000000E+00 -0.00000000000E+00 -0.17188146722E+03  0.17188146724E+03  0.25500000000E-02 0.  1.
    8880023    1    1    2    0    0 -0.34490774454E+03  0.14006046786E+03  0.18478995191E+04  0.19967776857E+04  0.65864270000E+03 0. -1.
    8880022    1    1    2    0    0  0.34490774454E+03 -0.14006046786E+03  0.31811071859E+03  0.51299548653E+03  0.15294330000E+03 0.  0.
<mgrwt>
<rscale>  0 0.64612030E+03</rscale>
<asrwt>0</asrwt>
<pdfrwt beam="1">  1        2 0.35967561E+00 0.75656361E+03</pdfrwt>
<pdfrwt beam="2">  1       -2 0.26443305E-01 0.75656361E+03</pdfrwt>
<totfact> 0.57803183E+01</totfact>
</mgrwt>
</event>
<event>
 4    5  0.6615028E-008  0.6688400E+03  0.7818608E-02  0.1016508E+00
         -2   -1    0    0    0  501 -0.00000000000E+00  0.00000000000E+00  0.18040630368E+03  0.18040630370E+03  0.25500000000E-02 0.  1.
          2   -1    0    0  501    0  0.00000000000E+00 -0.00000000000E+00 -0.30033633697E+04  0.30033633697E+04  0.25500000000E-02 0. -1.
    8880023    1    1    2    0    0  0.98250966293E+02  0.62317313322E+02 -0.29004482502E+04  0.29765663034E+04  0.65864270000E+03 0. -1.
    8880022    1    1    2    0    0 -0.98250966293E+02 -0.62317313322E+02  0.77491184178E+02  0.20720337004E+03  0.15294330000E+03 0.  0.
<mgrwt>
<rscale>  0 0.48967920E+03</rscale>
<asrwt>0</asrwt>
<pdfrwt beam="1">  1        2 0.46205587E+00 0.66883997E+03</pdfrwt>
<pdfrwt beam="2">  1       -2 0.27754818E-01 0.66883997E+03</pdfrwt>
<totfact> 0.22036840E+01</totfact>
</mgrwt>
</event>
<event>
 4    5  0.6615028E-008  0.1253058E+04  0.7818608E-02  0.9107196E-01
          2   -1    0    0  501    0  0.00000000000E+00  0.00000000000E+00  0.39080344602E+04  0.39080344602E+04  0.25500000000E-02 0. -1.
         -2   -1    0    0    0  501 -0.00000000000E+00 -0.00000000000E+00 -0.82955590941E+03  0.82955590941E+03  0.25500000000E-02 0.  1.
    8880023    1    1    2    0    0  0.43288120767E+03 -0.97414524850E+03  0.33919340250E+04  0.36159883491E+04  0.65864270000E+03 0.  0.
    8880022    1    1    2    0    0 -0.43288120767E+03  0.97414524850E+03 -0.31345547413E+03  0.11216020205E+04  0.15294330000E+03 0.  0.
<mgrwt>
<rscale>  0 0.12064891E+04</rscale>
<asrwt>0</asrwt>
<pdfrwt beam="1">  1        2 0.60123607E+00 0.12530584E+04</pdfrwt>
<pdfrwt beam="2">  1       -2 0.12762399E+00 0.12530584E+04</pdfrwt>
<totfact> 0.18406616E-01</totfact>
</mgrwt>
</event>
<event>
 4    5  0.6615028E-008  0.6976689E+03  0.7818608E-02  0.1000701E+00
          2   -1    0    0  501    0  0.00000000000E+00  0.00000000000E+00  0.22582979496E+04  0.22582979496E+04  0.25500000000E-02 0. -1.
         -2   -1    0    0    0  501 -0.00000000000E+00 -0.00000000000E+00 -0.17648162224E+03  0.17648162226E+03  0.25500000000E-02 0.  1.
    8880023    1    1    2    0    0  0.20376837317E+03  0.10681811515E+03  0.20392009863E+04  0.21552453523E+04  0.65864270000E+03 0. -1.
    8880022    1    1    2    0    0 -0.20376837317E+03 -0.10681811515E+03  0.42615341071E+02  0.27953421962E+03  0.15294330000E+03 0.  0.
<mgrwt>
<rscale>  0 0.55343824E+03</rscale>
<asrwt>0</asrwt>
<pdfrwt beam="1">  1        2 0.34743045E+00 0.69766888E+03</pdfrwt>
<pdfrwt beam="2">  1       -2 0.27151019E-01 0.69766888E+03</pdfrwt>
<totfact> 0.61446183E+01</totfact>
</mgrwt>
</event>
<event>
 4    5  0.6615028E-008  0.7207564E+03  0.7818608E-02  0.9920035E-01
         -2   -1    0    0    0  501 -0.00000000000E+00  0.00000000000E+00  0.49402760985E+03  0.49402760986E+03  0.25500000000E-02 0.  1.
          2   -1    0    0  501    0  0.00000000000E+00 -0.00000000000E+00 -0.20115771984E+04  0.20115771984E+04  0.25500000000E-02 0. -1.
    8880023    1    1    2    0    0 -0.22095716014E+03  0.19198319414E+03 -0.18810929660E+04  0.20144479558E+04  0.65864270000E+03 0. -1.
    8880022    1    1    2    0    0  0.22095716014E+03 -0.19198319414E+03  0.36354337746E+03  0.49115685250E+03  0.15294330000E+03 0.  0.
<mgrwt>
<rscale>  0 0.59300067E+03</rscale>
<asrwt>0</asrwt>
<pdfrwt beam="1">  1        2 0.30947341E+00 0.72075642E+03</pdfrwt>
<pdfrwt beam="2">  1       -2 0.76004249E-01 0.72075642E+03</pdfrwt>
<totfact> 0.10615939E+01</totfact>
</mgrwt>
</event>
<event>
 4    5  0.6615028E-008  0.8949170E+03  0.7818608E-02  0.9534241E-01
         -2   -1    0    0    0  501 -0.00000000000E+00  0.00000000000E+00  0.54337568023E+03  0.54337568024E+03  0.25500000000E-02 0.  1.
          2   -1    0    0  501    0  0.00000000000E+00 -0.00000000000E+00 -0.24227682336E+04  0.24227682336E+04  0.25500000000E-02 0. -1.
    8880023    1    1    2    0    0 -0.44095894167E+03 -0.41547743647E+03 -0.21164071653E+04  0.22978371970E+04  0.65864270000E+03 0. -1.
    8880022    1    1    2    0    0  0.44095894167E+03  0.41547743647E+03  0.23701461193E+03  0.66830671681E+03  0.15294330000E+03 0.  0.
<mgrwt>
<rscale>  0 0.81805756E+03</rscale>
<asrwt>0</asrwt>
<pdfrwt beam="1">  1        2 0.37273357E+00 0.89491703E+03</pdfrwt>
<pdfrwt beam="2">  1       -2 0.83596260E-01 0.89491703E+03</pdfrwt>
<totfact> 0.49400618E+00</totfact>
</mgrwt>
</event>
<event>
 4    5  0.6615028E-008  0.7152255E+03  0.7818608E-02  0.9939085E-01
          2   -1    0    0  501    0  0.00000000000E+00  0.00000000000E+00  0.10091913115E+04  0.10091913115E+04  0.25500000000E-02 0. -1.
         -2   -1    0    0    0  501 -0.00000000000E+00 -0.00000000000E+00 -0.43990886963E+03  0.43990886963E+03  0.25500000000E-02 0.  1.
    8880023    1    1    2    0    0 -0.22158259141E+03  0.16922894125E+03  0.78719834769E+03  0.10635923675E+04  0.65864270000E+03 0.  0.
    8880022    1    1    2    0    0  0.22158259141E+03 -0.16922894125E+03 -0.21791590579E+03  0.38550781365E+03  0.15294330000E+03 0.  0.
<mgrwt>
<rscale>  0 0.58403875E+03</rscale>
<asrwt>0</asrwt>
<pdfrwt beam="1">  1        2 0.15526020E+00 0.71522548E+03</pdfrwt>
<pdfrwt beam="2">  1       -2 0.67678289E-01 0.71522548E+03</pdfrwt>
<totfact> 0.50642868E+01</totfact>
</mgrwt>
</event>
<event>
 4    5  0.6615028E-008  0.1084882E+04  0.7818608E-02  0.9278077E-01
         -2   -1    0    0    0  501 -0.00000000000E+00  0.00000000000E+00  0.23935912315E+04  0.23935912315E+04  0.25500000000E-02 0.  1.
          2   -1    0    0  501    0  0.00000000000E+00 -0.00000000000E+00 -0.85967364606E+03  0.85967364606E+03  0.25500000000E-02 0. -1.
    8880023    1    1    2    0    0 -0.39242228356E+03 -0.76757042002E+03  0.19896679520E+04  0.22662189576E+04  0.65864270000E+03 0.  0.
    8880022    1    1    2    0    0  0.39242228356E+03  0.76757042002E+03 -0.45575036662E+03  0.98704591991E+03  0.15294330000E+03 0.  0.
<mgrwt>
<rscale>  0 0.10282640E+04</rscale>
<asrwt>0</asrwt>
<pdfrwt beam="1">  1        2 0.13225749E+00 0.10848824E+04</pdfrwt>
<pdfrwt beam="2">  1       -2 0.36824480E+00 0.10848824E+04</pdfrwt>
<totfact> 0.37281711E-01</totfact>
</mgrwt>
</event>
<event>
 4    5  0.6615028E-008  0.1417126E+04  0.7818608E-02  0.8970489E-01
         -2   -1    0    0    0  501 -0.00000000000E+00  0.00000000000E+00  0.16439880388E+04  0.16439880388E+04  0.25500000000E-02 0.  1.
          2   -1    0    0  501    0  0.00000000000E+00 -0.00000000000E+00 -0.18572931359E+04  0.18572931359E+04  0.25500000000E-02 0. -1.
    8880023    1    1    2    0    0  0.72801494811E+03  0.10219731477E+04  0.10115703357E+04  0.17411259661E+04  0.65864270000E+03 0.  0.
    8880022    1    1    2    0    0 -0.72801494811E+03 -0.10219731477E+04 -0.12248754328E+04  0.17601552086E+04  0.15294330000E+03 0.  0.
<mgrwt>
<rscale>  0 0.13772014E+04</rscale>
<asrwt>0</asrwt>
<pdfrwt beam="1">  1        2 0.28573740E+00 0.14171256E+04</pdfrwt>
<pdfrwt beam="2">  1       -2 0.25292124E+00 0.14171256E+04</pdfrwt>
<totfact> 0.46809162E-01</totfact>
</mgrwt>
</event>
<event>
 4    5  0.6615028E-008  0.9210961E+03  0.7818608E-02  0.9492980E-01
          2   -1    0    0  501    0  0.00000000000E+00  0.00000000000E+00  0.28888531304E+04  0.28888531305E+04  0.25500000000E-02 0. -1.
         -2   -1    0    0    0  501 -0.00000000000E+00 -0.00000000000E+00 -0.48171954555E+03  0.48171954556E+03  0.25500000000E-02 0.  1.
    8880023    1    1    2    0    0  0.19078437174E+03  0.61498707433E+03  0.25344365099E+04  0.26966250031E+04  0.65864270000E+03 0. -1.
    8880022    1    1    2    0    0 -0.19078437174E+03 -0.61498707433E+03 -0.12730292505E+03  0.67394767292E+03  0.15294330000E+03 0.  0.
<mgrwt>
<rscale>  0 0.84803327E+03</rscale>
<asrwt>0</asrwt>
<pdfrwt beam="1">  1        2 0.44443895E+00 0.92109608E+03</pdfrwt>
<pdfrwt beam="2">  1       -2 0.74110698E-01 0.92109608E+03</pdfrwt>
<totfact> 0.34512858E+00</totfact>
</mgrwt>
</event>
<event>
 4    5  0.6615028E-008  0.9935528E+03  0.7818608E-02  0.9390042E-01
          2   -1    0    0  501    0  0.00000000000E+00  0.00000000000E+00  0.51363581902E+03  0.51363581902E+03  0.25500000000E-02 0. -1.
         -2   -1    0    0    0  501 -0.00000000000E+00 -0.00000000000E+00 -0.22516019780E+04  0.22516019780E+04  0.25500000000E-02 0.  1.
    8880023    1    1    2    0    0  0.18114462420E+03 -0.72147318517E+03 -0.14972316542E+03  0.10047707024E+04  0.65864270000E+03 0. -1.
    8880022    1    1    2    0    0 -0.18114462420E+03  0.72147318517E+03 -0.15882429936E+04  0.17604670947E+04  0.15294330000E+03 0.  0.
<mgrwt>
<rscale>  0 0.92899771E+03</rscale>
<asrwt>0</asrwt>
<pdfrwt beam="1">  1        2 0.79020896E-01 0.99355279E+03</pdfrwt>
<pdfrwt beam="2">  1       -2 0.34640030E+00 0.99355279E+03</pdfrwt>
<totfact> 0.99271705E-01</totfact>
</mgrwt>
</event>
<event>
 4    5  0.6615028E-008  0.7745263E+03  0.7818608E-02  0.9768855E-01
         -2   -1    0    0    0  501 -0.00000000000E+00  0.00000000000E+00  0.11216995935E+04  0.11216995935E+04  0.25500000000E-02 0.  1.
          2   -1    0    0  501    0  0.00000000000E+00 -0.00000000000E+00 -0.11554213539E+04  0.11554213539E+04  0.25500000000E-02 0. -1.
    8880023    1    1    2    0    0  0.69220412026E+02 -0.40160842841E+03 -0.97196532117E+03  0.12428224278E+04  0.65864270000E+03 0.  0.
    8880022    1    1    2    0    0 -0.69220412026E+02  0.40160842841E+03  0.93824356084E+03  0.10342985196E+04  0.15294330000E+03 0.  0.
<mgrwt>
<rscale>  0 0.67061056E+03</rscale>
<asrwt>0</asrwt>
<pdfrwt beam="1">  1        2 0.17775713E+00 0.77452631E+03</pdfrwt>
<pdfrwt beam="2">  1       -2 0.17256917E+00 0.77452631E+03</pdfrwt>
<totfact> 0.41967464E+00</totfact>
</mgrwt>
</event>
<event>
 4    5  0.6615028E-008  0.8229726E+03  0.7818608E-02  0.9663163E-01
          2   -1    0    0  501    0  0.00000000000E+00  0.00000000000E+00  0.18945559300E+04  0.18945559300E+04  0.25500000000E-02 0. -1.
         -2   -1    0    0    0  501 -0.00000000000E+00 -0.00000000000E+00 -0.44898379430E+03  0.44898379431E+03  0.25500000000E-02 0.  1.
    8880023    1    1    2    0    0  0.38570125272E+03 -0.30774695715E+03  0.16043370641E+04  0.18031032327E+04  0.65864270000E+03 0. -1.
    8880022    1    1    2    0    0 -0.38570125272E+03  0.30774695715E+03 -0.15876492845E+03  0.54043649165E+03  0.15294330000E+03 0.  0.
<mgrwt>
<rscale>  0 0.73253020E+03</rscale>
<asrwt>0</asrwt>
<pdfrwt beam="1">  1        2 0.29147015E+00 0.82297257E+03</pdfrwt>
<pdfrwt beam="2">  1       -2 0.69074429E-01 0.82297257E+03</pdfrwt>
<totfact> 0.14959931E+01</totfact>
</mgrwt>
</event>
<event>
 4    5  0.6615028E-008  0.6629867E+03  0.7818608E-02  0.1021286E+00
         -2   -1    0    0    0  501 -0.00000000000E+00  0.00000000000E+00  0.34285911161E+03  0.34285911162E+03  0.25500000000E-02 0.  1.
          2   -1    0    0  501    0  0.00000000000E+00 -0.00000000000E+00 -0.11558476628E+04  0.11558476628E+04  0.25500000000E-02 0. -1.
    8880023    1    1    2    0    0  0.64916728142E+01 -0.75492027032E+02 -0.10285763842E+04  0.12237323124E+04  0.65864270000E+03 0. -1.
    8880022    1    1    2    0    0 -0.64916728142E+01  0.75492027032E+02  0.21558783308E+03  0.27497446199E+03  0.15294330000E+03 0.  0.
<mgrwt>
<rscale>  0 0.47225491E+03</rscale>
<asrwt>0</asrwt>
<pdfrwt beam="1">  1        2 0.17782272E+00 0.66298672E+03</pdfrwt>
<pdfrwt beam="2">  1       -2 0.52747556E-01 0.66298672E+03</pdfrwt>
<totfact> 0.69939345E+01</totfact>
</mgrwt>
</event>
<event>
 4    5  0.6615028E-008  0.1052004E+04  0.7818608E-02  0.9316476E-01
         -2   -1    0    0    0  501 -0.00000000000E+00  0.00000000000E+00  0.56790044980E+03  0.56790044980E+03  0.25500000000E-02 0.  1.
          2   -1    0    0  501    0  0.00000000000E+00 -0.00000000000E+00 -0.37450760981E+04  0.37450760981E+04  0.25500000000E-02 0. -1.
    8880023    1    1    2    0    0 -0.81178633034E+03  0.11792218002E+03 -0.33053704060E+04  0.34687442128E+04  0.65864270000E+03 0.  0.
    8880022    1    1    2    0    0  0.81178633034E+03 -0.11792218002E+03  0.12819475773E+03  0.84423233508E+03  0.15294330000E+03 0.  0.
<mgrwt>
<rscale>  0 0.99280104E+03</rscale>
<asrwt>0</asrwt>
<pdfrwt beam="1">  1        2 0.57616554E+00 0.10520042E+04</pdfrwt>
<pdfrwt beam="2">  1       -2 0.87369302E-01 0.10520042E+04</pdfrwt>
<totfact> 0.63146992E-01</totfact>
</mgrwt>
</event>
<event>
 4    5  0.6615028E-008  0.8087584E+03  0.7818608E-02  0.9692169E-01
          2   -1    0    0  501    0  0.00000000000E+00  0.00000000000E+00  0.29035468131E+04  0.29035468131E+04  0.25500000000E-02 0. -1.
         -2   -1    0    0    0  501 -0.00000000000E+00 -0.00000000000E+00 -0.35269202574E+03  0.35269202575E+03  0.25500000000E-02 0.  1.
    8880023    1    1    2    0    0  0.46830138267E+03  0.31204908529E+02  0.26342563316E+04  0.27556118301E+04  0.65864270000E+03 0. -1.
    8880022    1    1    2    0    0 -0.46830138267E+03 -0.31204908529E+02 -0.83401544215E+02  0.50062700878E+03  0.15294330000E+03 0.  0.
<mgrwt>
<rscale>  0 0.71484965E+03</rscale>
<asrwt>0</asrwt>
<pdfrwt beam="1">  1        2 0.44669953E+00 0.80875839E+03</pdfrwt>
<pdfrwt beam="2">  1       -2 0.54260309E-01 0.80875839E+03</pdfrwt>
<totfact> 0.67173635E+00</totfact>
</mgrwt>
</event>
<event>
 4    5  0.6615028E-008  0.1488334E+04  0.7818608E-02  0.8917918E-01
         -2   -1    0    0    0  501 -0.00000000000E+00  0.00000000000E+00  0.13815632676E+04  0.13815632676E+04  0.25500000000E-02 0.  1.
          2   -1    0    0  501    0  0.00000000000E+00 -0.00000000000E+00 -0.21676732539E+04  0.21676732540E+04  0.25500000000E-02 0. -1.
    8880023    1    1    2    0    0 -0.10614340748E+04  0.80912611270E+03 -0.14260075667E+04  0.20612217610E+04  0.65864270000E+03 0.  0.
    8880022    1    1    2    0    0  0.10614340748E+04 -0.80912611270E+03  0.63989758039E+03  0.14880147606E+04  0.15294330000E+03 0.  0.
<mgrwt>
<rscale>  0 0.14506962E+04</rscale>
<asrwt>0</asrwt>
<pdfrwt beam="1">  1        2 0.33348819E+00 0.14883338E+04</pdfrwt>
<pdfrwt beam="2">  1       -2 0.21254820E+00 0.14883338E+04</pdfrwt>
<totfact> 0.55787305E-01</totfact>
</mgrwt>
</event>
<event>
 4    5  0.6615028E-008  0.6710216E+03  0.7818608E-02  0.1014941E+00
         -2   -1    0    0    0  501 -0.00000000000E+00  0.00000000000E+00  0.67946326105E+03  0.67946326105E+03  0.25500000000E-02 0.  1.
          2   -1    0    0  501    0  0.00000000000E+00 -0.00000000000E+00 -0.13147196297E+04  0.13147196297E+04  0.25500000000E-02 0. -1.
    8880023    1    1    2    0    0  0.12343401075E+03  0.34982863451E+02 -0.12111815900E+04  0.13846410387E+04  0.65864270000E+03 0. -1.
    8880022    1    1    2    0    0 -0.12343401075E+03 -0.34982863451E+02  0.57592522140E+03  0.60954185205E+03  0.15294330000E+03 0.  0.
<mgrwt>
<rscale>  0 0.49557322E+03</rscale>
<asrwt>0</asrwt>
<pdfrwt beam="1">  1        2 0.20226456E+00 0.67102158E+03</pdfrwt>
<pdfrwt beam="2">  1       -2 0.10453281E+00 0.67102158E+03</pdfrwt>
<totfact> 0.12428979E+01</totfact>
</mgrwt>
</event>
<event>
 4    5  0.6615028E-008  0.6799330E+03  0.7818608E-02  0.1009362E+00
         -2   -1    0    0    0  501 -0.00000000000E+00  0.00000000000E+00  0.87309144316E+02  0.87309144354E+02  0.25500000000E-02 0.  1.
          2   -1    0    0  501    0  0.00000000000E+00 -0.00000000000E+00 -0.34268331256E+04  0.34268331256E+04  0.25500000000E-02 0. -1.
    8880023    1    1    2    0    0 -0.16380713727E+03  0.40816093890E+02 -0.31353815578E+04  0.32082590998E+04  0.65864270000E+03 0. -1.
    8880022    1    1    2    0    0  0.16380713727E+03 -0.40816093890E+02 -0.20414242345E+03  0.30588317019E+03  0.15294330000E+03 0.  0.
<mgrwt>
<rscale>  0 0.51729165E+03</rscale>
<asrwt>0</asrwt>
<pdfrwt beam="1">  1        2 0.52720499E+00 0.67993304E+03</pdfrwt>
<pdfrwt beam="2">  1       -2 0.13432179E-01 0.67993304E+03</pdfrwt>
<totfact> 0.41834514E+01</totfact>
</mgrwt>
</event>
<event>
 4    5  0.6615028E-008  0.9058977E+03  0.7818608E-02  0.9516629E-01
         -2   -1    0    0    0  501 -0.00000000000E+00  0.00000000000E+00  0.10574912806E+04  0.10574912806E+04  0.25500000000E-02 0.  1.
          2   -1    0    0  501    0  0.00000000000E+00 -0.00000000000E+00 -0.13307929364E+04  0.13307929364E+04  0.25500000000E-02 0. -1.
    8880023    1    1    2    0    0 -0.81399454811E+02  0.61661540392E+03 -0.10465848607E+04  0.13841930879E+04  0.65864270000E+03 0.  0.
    8880022    1    1    2    0    0  0.81399454811E+02 -0.61661540392E+03  0.77328320487E+03  0.10040911291E+04  0.15294330000E+03 0.  0.
<mgrwt>
<rscale>  0 0.83068825E+03</rscale>
<asrwt>0</asrwt>
<pdfrwt beam="1">  1        2 0.20473737E+00 0.90589770E+03</pdfrwt>
<pdfrwt beam="2">  1       -2 0.16269097E+00 0.90589770E+03</pdfrwt>
<totfact> 0.38282488E+00</totfact>
</mgrwt>
</event>
<event>
 4    5  0.6615028E-008  0.9862614E+03  0.7818608E-02  0.9399757E-01
         -2   -1    0    0    0  501 -0.00000000000E+00  0.00000000000E+00  0.13824929248E+04  0.13824929248E+04  0.25500000000E-02 0.  1.
          2   -1    0    0  501    0  0.00000000000E+00 -0.00000000000E+00 -0.95000856142E+03  0.95000856142E+03  0.25500000000E-02 0. -1.
    8880023    1    1    2    0    0 -0.61498284110E+03  0.40087082603E+03 -0.52423755083E+03  0.11169317481E+04  0.65864270000E+03 0. -1.
    8880022    1    1    2    0    0  0.61498284110E+03 -0.40087082603E+03  0.95672191418E+03  0.12155697381E+04  0.15294330000E+03 0.  0.
<mgrwt>
<rscale>  0 0.92095700E+03</rscale>
<asrwt>0</asrwt>
<pdfrwt beam="1">  1        2 0.14615516E+00 0.98626139E+03</pdfrwt>
<pdfrwt beam="2">  1       -2 0.21269122E+00 0.98626139E+03</pdfrwt>
<totfact> 0.29714999E+00</totfact>
</mgrwt>
</event>
<event>
 4    5  0.6615028E-008  0.8043535E+03  0.7818608E-02  0.9701461E-01
          2   -1    0    0  501    0  0.00000000000E+00  0.00000000000E+00  0.20742165005E+04  0.20742165005E+04  0.25500000000E-02 0. -1.
         -2   -1    0    0    0  501 -0.00000000000E+00 -0.00000000000E+00 -0.51358227023E+03  0.51358227023E+03  0.25500000000E-02 0.  1.
    8880023    1    1    2    0    0 -0.30102688307E+03  0.35008155995E+03  0.18531828490E+04  0.20202156224E+04  0.65864270000E+03 0. -1.
    8880022    1    1    2    0    0  0.30102688307E+03 -0.35008155995E+03 -0.29254861871E+03  0.56758314833E+03  0.15294330000E+03 0.  0.
<mgrwt>
<rscale>  0 0.70929880E+03</rscale>
<asrwt>0</asrwt>
<pdfrwt beam="1">  1        2 0.31911024E+00 0.80435346E+03</pdfrwt>
<pdfrwt beam="2">  1       -2 0.79012656E-01 0.80435346E+03</pdfrwt>
<totfact> 0.88836842E+00</totfact>
</mgrwt>
</event>
<event>
 4    5  0.6615028E-008  0.9091965E+03  0.7818608E-02  0.9511427E-01
          2   -1    0    0  501    0  0.00000000000E+00  0.00000000000E+00  0.18054932444E+04  0.18054932444E+04  0.25500000000E-02 0. -1.
         -2   -1    0    0    0  501 -0.00000000000E+00 -0.00000000000E+00 -0.60824366085E+03  0.60824366085E+03  0.25500000000E-02 0.  1.
    8880023    1    1    2    0    0  0.34066046774E+03 -0.52609744648E+03  0.14576966173E+04  0.17179981699E+04  0.65864270000E+03 0. -1.
    8880022    1    1    2    0    0 -0.34066046774E+03  0.52609744648E+03 -0.26044703373E+03  0.69573873536E+03  0.15294330000E+03 0.  0.
<mgrwt>
<rscale>  0 0.83446601E+03</rscale>
<asrwt>0</asrwt>
<pdfrwt beam="1">  1        2 0.27776819E+00 0.90919650E+03</pdfrwt>
<pdfrwt beam="2">  1       -2 0.93575949E-01 0.90919650E+03</pdfrwt>
<totfact> 0.83488428E+00</totfact>
</mgrwt>
</event>
<event>
 4    5  0.6615028E-008  0.1058786E+04  0.7818608E-02  0.9308393E-01
          2   -1    0    0  501    0  0.00000000000E+00  0.00000000000E+00  0.30309437705E+04  0.30309437705E+04  0.25500000000E-02 0. -1.
         -2   -1    0    0    0  501 -0.00000000000E+00 -0.00000000000E+00 -0.37249563346E+03  0.37249563346E+03  0.25500000000E-02 0.  1.
    8880023    1    1    2    0    0 -0.81231478656E+03 -0.16541675450E+03  0.69454532779E+03  0.12662627823E+04  0.65864270000E+03 0.  0.
    8880022    1    1    2    0    0  0.81231478656E+03  0.16541675450E+03  0.19639028092E+04  0.21371766217E+04  0.15294330000E+03 0.  0.
<mgrwt>
<rscale>  0 0.10001384E+04</rscale>
<asrwt>0</asrwt>
<pdfrwt beam="1">  1        2 0.46629903E+00 0.10587862E+04</pdfrwt>
<pdfrwt beam="2">  1       -2 0.57307022E-01 0.10587862E+04</pdfrwt>
<totfact> 0.48225047E+00</totfact>
</mgrwt>
</event>
<event>
 4    5  0.6615028E-008  0.1020312E+04  0.7818608E-02  0.9355453E-01
          2   -1    0    0  501    0  0.00000000000E+00  0.00000000000E+00  0.10645850245E+04  0.10645850245E+04  0.25500000000E-02 0. -1.
         -2   -1    0    0    0  501 -0.00000000000E+00 -0.00000000000E+00 -0.17076322557E+04  0.17076322557E+04  0.25500000000E-02 0.  1.
    8880023    1    1    2    0    0  0.66426894117E+03  0.40739787167E+03  0.68212210923E+03  0.12273251526E+04  0.65864270000E+03 0. -1.
    8880022    1    1    2    0    0 -0.66426894117E+03 -0.40739787167E+03 -0.13251693404E+04  0.15448921276E+04  0.15294330000E+03 0.  0.
<mgrwt>
<rscale>  0 0.95834198E+03</rscale>
<asrwt>0</asrwt>
<pdfrwt beam="1">  1        2 0.16378231E+00 0.10203119E+04</pdfrwt>
<pdfrwt beam="2">  1       -2 0.26271265E+00 0.10203119E+04</pdfrwt>
<totfact> 0.12255505E+00</totfact>
</mgrwt>
</event>
<event>
 4    5  0.6615028E-008  0.8723551E+03  0.7818608E-02  0.9571953E-01
          2   -1    0    0  501    0  0.00000000000E+00  0.00000000000E+00  0.12821933310E+04  0.12821933310E+04  0.25500000000E-02 0. -1.
         -2   -1    0    0    0  501 -0.00000000000E+00 -0.00000000000E+00 -0.44161470075E+03  0.44161470076E+03  0.25500000000E-02 0.  1.
    8880023    1    1    2    0    0  0.92320526653E+02  0.56450882153E+03  0.69161703275E+03  0.11132554134E+04  0.65864270000E+03 0. -1.
    8880022    1    1    2    0    0 -0.92320526653E+02 -0.56450882153E+03  0.14896159749E+03  0.61055261834E+03  0.15294330000E+03 0.  0.
<mgrwt>
<rscale>  0 0.79180666E+03</rscale>
<asrwt>0</asrwt>
<pdfrwt beam="1">  1        2 0.19726051E+00 0.87235514E+03</pdfrwt>
<pdfrwt beam="2">  1       -2 0.67940725E-01 0.87235514E+03</pdfrwt>
<totfact> 0.33849580E+01</totfact>
</mgrwt>
</event>
<event>
 4    5  0.6615028E-008  0.9822848E+03  0.7818608E-02  0.9405110E-01
          2   -1    0    0  501    0  0.00000000000E+00  0.00000000000E+00  0.77560360434E+03  0.77560360435E+03  0.25500000000E-02 0. -1.
         -2   -1    0    0    0  501 -0.00000000000E+00 -0.00000000000E+00 -0.18077314824E+04  0.18077314824E+04  0.25500000000E-02 0.  1.
    8880023    1    1    2    0    0  0.63786430962E+03  0.35242358898E+03 -0.14332427848E+04  0.17375466468E+04  0.65864270000E+03 0.  0.
    8880022    1    1    2    0    0 -0.63786430962E+03 -0.35242358898E+03  0.40111490677E+03  0.84578843986E+03  0.15294330000E+03 0.  0.
<mgrwt>
<rscale>  0 0.91656303E+03</rscale>
<asrwt>0</asrwt>
<pdfrwt beam="1">  1        2 0.11932363E+00 0.98228482E+03</pdfrwt>
<pdfrwt beam="2">  1       -2 0.27811253E+00 0.98228482E+03</pdfrwt>
<totfact> 0.15576880E+00</totfact>
</mgrwt>
</event>
<event>
 4    5  0.6615028E-008  0.7611995E+03  0.7818608E-02  0.9802012E-01
          2   -1    0    0  501    0  0.00000000000E+00  0.00000000000E+00  0.15283370876E+04  0.15283370876E+04  0.25500000000E-02 0. -1.
         -2   -1    0    0    0  501 -0.00000000000E+00 -0.00000000000E+00 -0.11154024988E+04  0.11154024988E+04  0.25500000000E-02 0.  1.
    8880023    1    1    2    0    0  0.52486294859E+02  0.37796788053E+03  0.13894055782E+04  0.15842577432E+04  0.65864270000E+03 0. -1.
    8880022    1    1    2    0    0 -0.52486294859E+02 -0.37796788053E+03 -0.97647098945E+03  0.10594818432E+04  0.15294330000E+03 0.  0.
<mgrwt>
<rscale>  0 0.65254687E+03</rscale>
<asrwt>0</asrwt>
<pdfrwt beam="1">  1        2 0.23512878E+00 0.76119954E+03</pdfrwt>
<pdfrwt beam="2">  1       -2 0.17160038E+00 0.76119954E+03</pdfrwt>
<totfact> 0.26094595E+00</totfact>
</mgrwt>
</event>
<event>
 4    5  0.6615028E-008  0.6716061E+03  0.7818608E-02  0.1014537E+00
          2   -1    0    0  501    0  0.00000000000E+00  0.00000000000E+00  0.32902621570E+03  0.32902621571E+03  0.25500000000E-02 0. -1.
         -2   -1    0    0    0  501 -0.00000000000E+00 -0.00000000000E+00 -0.60578993828E+03  0.60578993829E+03  0.25500000000E-02 0.  1.
    8880023    1    1    2    0    0  0.58916061491E+02 -0.11736055683E+03 -0.12656398241E+03  0.68342757517E+03  0.65864270000E+03 0.  1.
    8880022    1    1    2    0    0 -0.58916061491E+02  0.11736055683E+03 -0.15019974017E+03  0.25138857883E+03  0.15294330000E+03 0. -1.
<mgrwt>
<rscale>  0 0.49710737E+03</rscale>
<asrwt>0</asrwt>
<pdfrwt beam="1">  1        2 0.50619418E-01 0.67160614E+03</pdfrwt>
<pdfrwt beam="2">  1       -2 0.93198452E-01 0.67160614E+03</pdfrwt>
<totfact> 0.97850765E+01</totfact>
</mgrwt>
</event>
<event>
 4    5  0.6615028E-008  0.1327551E+04  0.7818608E-02  0.9042125E-01
          2   -1    0    0  501    0  0.00000000000E+00  0.00000000000E+00  0.24086326968E+04  0.24086326968E+04  0.25500000000E-02 0. -1.
         -2   -1    0    0    0  501 -0.00000000000E+00 -0.00000000000E+00 -0.21982654418E+04  0.21982654419E+04  0.25500000000E-02 0.  1.
    8880023    1    1    2    0    0 -0.97797122815E+03  0.61004480346E+03  0.20430506740E+04  0.24364828438E+04  0.65864270000E+03 0.  0.
    8880022    1    1    2    0    0  0.97797122815E+03 -0.61004480346E+03 -0.18326834190E+04  0.21704152949E+04  0.15294330000E+03 0.  0.
<mgrwt>
<rscale>  0 0.12842795E+04</rscale>
<asrwt>0</asrwt>
<pdfrwt beam="1">  1        2 0.37055888E+00 0.13275514E+04</pdfrwt>
<pdfrwt beam="2">  1       -2 0.33819468E+00 0.13275514E+04</pdfrwt>
<totfact> 0.69868384E-02</totfact>
</mgrwt>
</event>
<event>
 4    5  0.6615028E-008  0.1213637E+04  0.7818608E-02  0.9143979E-01
         -2   -1    0    0    0  501 -0.00000000000E+00  0.00000000000E+00  0.82544716954E+03  0.82544716954E+03  0.25500000000E-02 0.  1.
          2   -1    0    0  501    0  0.00000000000E+00 -0.00000000000E+00 -0.21080122244E+04  0.21080122244E+04  0.25500000000E-02 0. -1.
    8880023    1    1    2    0    0  0.84846409168E+03 -0.56499005996E+03 -0.14481616995E+04  0.18894675432E+04  0.65864270000E+03 0.  0.
    8880022    1    1    2    0    0 -0.84846409168E+03  0.56499005996E+03  0.16559664461E+03  0.10439918508E+04  0.15294330000E+03 0.  0.
<mgrwt>
<rscale>  0 0.11650850E+04</rscale>
<asrwt>0</asrwt>
<pdfrwt beam="1">  1        2 0.32430957E+00 0.12136372E+04</pdfrwt>
<pdfrwt beam="2">  1       -2 0.12699187E+00 0.12136372E+04</pdfrwt>
<totfact> 0.26120551E+00</totfact>
</mgrwt>
</event>
<event>
 4    5  0.6615028E-008  0.8507737E+03  0.7818608E-02  0.9610191E-01
         -2   -1    0    0    0  501 -0.00000000000E+00  0.00000000000E+00  0.15883852815E+04  0.15883852815E+04  0.25500000000E-02 0.  1.
          2   -1    0    0  501    0  0.00000000000E+00 -0.00000000000E+00 -0.10111285512E+04  0.10111285512E+04  0.25500000000E-02 0. -1.
    8880023    1    1    2    0    0  0.44208732840E+03 -0.30751345862E+03 -0.76566544782E+03  0.11445783142E+04  0.65864270000E+03 0. -1.
    8880022    1    1    2    0    0 -0.44208732840E+03  0.30751345862E+03  0.13429221782E+04  0.14549355184E+04  0.15294330000E+03 0.  0.
<mgrwt>
<rscale>  0 0.76625351E+03</rscale>
<asrwt>0</asrwt>
<pdfrwt beam="1">  1        2 0.15555824E+00 0.85077373E+03</pdfrwt>
<pdfrwt beam="2">  1       -2 0.24436696E+00 0.85077373E+03</pdfrwt>
<totfact> 0.17532906E+00</totfact>
</mgrwt>
</event>
<event>
 4    5  0.6615028E-008  0.7359585E+03  0.7818608E-02  0.9871880E-01
         -2   -1    0    0    0  501 -0.00000000000E+00  0.00000000000E+00  0.14039980026E+04  0.14039980026E+04  0.25500000000E-02 0.  1.
          2   -1    0    0  501    0  0.00000000000E+00 -0.00000000000E+00 -0.22671168411E+03  0.22671168412E+03  0.25500000000E-02 0. -1.
    8880023    1    1    2    0    0  0.43565614957E+02  0.32546392357E+03  0.60167798173E+03  0.95060576914E+03  0.65864270000E+03 0.  0.
    8880022    1    1    2    0    0 -0.43565614957E+02 -0.32546392357E+03  0.57560833678E+03  0.68010391760E+03  0.15294330000E+03 0.  0.
<mgrwt>
<rscale>  0 0.61643673E+03</rscale>
<asrwt>0</asrwt>
<pdfrwt beam="1">  1        2 0.34878720E-01 0.73595851E+03</pdfrwt>
<pdfrwt beam="2">  1       -2 0.21599970E+00 0.73595851E+03</pdfrwt>
<totfact> 0.16061480E+01</totfact>
</mgrwt>
</event>
<event>
 4    5  0.6615028E-008  0.1302827E+04  0.7818608E-02  0.9063122E-01
          2   -1    0    0  501    0  0.00000000000E+00  0.00000000000E+00  0.29090069244E+04  0.29090069244E+04  0.25500000000E-02 0. -1.
         -2   -1    0    0    0  501 -0.00000000000E+00 -0.00000000000E+00 -0.69765368797E+03  0.69765368798E+03  0.25500000000E-02 0.  1.
    8880023    1    1    2    0    0 -0.74491849202E+03  0.84181080962E+03  0.20939492187E+04  0.24661675807E+04  0.65864270000E+03 0.  0.
    8880022    1    1    2    0    0  0.74491849202E+03 -0.84181080962E+03  0.11740401765E+03  0.11404930317E+04  0.15294330000E+03 0.  0.
<mgrwt>
<rscale>  0 0.12585196E+04</rscale>
<asrwt>0</asrwt>
<pdfrwt beam="1">  1        2 0.44753953E+00 0.13028274E+04</pdfrwt>
<pdfrwt beam="2">  1       -2 0.10733134E+00 0.13028274E+04</pdfrwt>
<totfact> 0.13490030E+00</totfact>
</mgrwt>
</event>
<event>
 4    5  0.6615028E-008  0.7389753E+03  0.7818608E-02  0.9862942E-01
          2   -1    0    0  501    0  0.00000000000E+00  0.00000000000E+00  0.15084983514E+04  0.15084983514E+04  0.25500000000E-02 0. -1.
         -2   -1    0    0    0  501 -0.00000000000E+00 -0.00000000000E+00 -0.40732938810E+03  0.40732938811E+03  0.25500000000E-02 0.  1.
    8880023    1    1    2    0    0 -0.30784345574E+03 -0.13231294283E+03  0.13014153180E+04  0.14965848938E+04  0.65864270000E+03 0.  0.
    8880022    1    1    2    0    0  0.30784345574E+03  0.13231294283E+03 -0.20024635474E+03  0.41924284571E+03  0.15294330000E+03 0.  0.
<mgrwt>
<rscale>  0 0.62091380E+03</rscale>
<asrwt>0</asrwt>
<pdfrwt beam="1">  1        2 0.23207667E+00 0.73897531E+03</pdfrwt>
<pdfrwt beam="2">  1       -2 0.62666060E-01 0.73897531E+03</pdfrwt>
<totfact> 0.30375009E+01</totfact>
</mgrwt>
</event>
<event>
 4    5  0.6615028E-008  0.7044018E+03  0.7818608E-02  0.9979408E-01
          2   -1    0    0  501    0  0.00000000000E+00  0.00000000000E+00  0.17879282634E+04  0.17879282634E+04  0.25500000000E-02 0. -1.
         -2   -1    0    0    0  501 -0.00000000000E+00 -0.00000000000E+00 -0.32365995225E+03  0.32365995226E+03  0.25500000000E-02 0.  1.
    8880023    1    1    2    0    0  0.34742124975E+02 -0.24731501363E+03  0.16295737783E+04  0.17753007171E+04  0.65864270000E+03 0. -1.
    8880022    1    1    2    0    0 -0.34742124975E+02  0.24731501363E+03 -0.16530546709E+03  0.33628749855E+03  0.15294330000E+03 0.  0.
<mgrwt>
<rscale>  0 0.56562435E+03</rscale>
<asrwt>0</asrwt>
<pdfrwt beam="1">  1        2 0.27506589E+00 0.70440183E+03</pdfrwt>
<pdfrwt beam="2">  1       -2 0.49793839E-01 0.70440183E+03</pdfrwt>
<totfact> 0.34571795E+01</totfact>
</mgrwt>
</event>
<event>
 4    5  0.6615028E-008  0.8270452E+03  0.7818608E-02  0.9655109E-01
         -2   -1    0    0    0  501 -0.00000000000E+00  0.00000000000E+00  0.19201636883E+03  0.19201636885E+03  0.25500000000E-02 0.  1.
          2   -1    0    0  501    0  0.00000000000E+00 -0.00000000000E+00 -0.34970179162E+04  0.34970179162E+04  0.25500000000E-02 0. -1.
    8880023    1    1    2    0    0 -0.42412032007E+03  0.26517084202E+03 -0.29325042650E+04  0.30468976176E+04  0.65864270000E+03 0. -1.
    8880022    1    1    2    0    0  0.42412032007E+03 -0.26517084202E+03 -0.37249728237E+03  0.64213666749E+03  0.15294330000E+03 0.  0.
<mgrwt>
<rscale>  0 0.73753654E+03</rscale>
<asrwt>0</asrwt>
<pdfrwt beam="1">  1        2 0.53800271E+00 0.82704524E+03</pdfrwt>
<pdfrwt beam="2">  1       -2 0.29540982E-01 0.82704524E+03</pdfrwt>
<totfact> 0.91785527E+00</totfact>
</mgrwt>
</event>
<event>
 4    5  0.6615028E-008  0.1240036E+04  0.7818608E-02  0.9119154E-01
         -2   -1    0    0    0  501 -0.00000000000E+00  0.00000000000E+00  0.56218368374E+03  0.56218368375E+03  0.25500000000E-02 0.  1.
          2   -1    0    0  501    0  0.00000000000E+00 -0.00000000000E+00 -0.36665427749E+04  0.36665427749E+04  0.25500000000E-02 0. -1.
    8880023    1    1    2    0    0 -0.49728498312E+03 -0.92551966347E+03 -0.28910669873E+04  0.31457840888E+04  0.65864270000E+03 0.  0.
    8880022    1    1    2    0    0  0.49728498312E+03  0.92551966347E+03 -0.21329210387E+03  0.10829423699E+04  0.15294330000E+03 0.  0.
<mgrwt>
<rscale>  0 0.11928319E+04</rscale>
<asrwt>0</asrwt>
<pdfrwt beam="1">  1        2 0.56408349E+00 0.12400360E+04</pdfrwt>
<pdfrwt beam="2">  1       -2 0.86489800E-01 0.12400360E+04</pdfrwt>
<totfact> 0.71572912E-01</totfact>
</mgrwt>
</event>
<event>
 4    5  0.6615028E-008  0.7895155E+03  0.7818608E-02  0.9733942E-01
          2   -1    0    0  501    0  0.00000000000E+00  0.00000000000E+00  0.13565515986E+04  0.13565515986E+04  0.25500000000E-02 0. -1.
         -2   -1    0    0    0  501 -0.00000000000E+00 -0.00000000000E+00 -0.45083379382E+03  0.45083379382E+03  0.25500000000E-02 0.  1.
    8880023    1    1    2    0    0 -0.41093158506E+03  0.14373498921E+03  0.10592227920E+04  0.13210933518E+04  0.65864270000E+03 0. -1.
    8880022    1    1    2    0    0  0.41093158506E+03 -0.14373498921E+03 -0.15350498720E+03  0.48629204069E+03  0.15294330000E+03 0.  0.
<mgrwt>
<rscale>  0 0.69031383E+03</rscale>
<asrwt>0</asrwt>
<pdfrwt beam="1">  1        2 0.20870024E+00 0.78951550E+03</pdfrwt>
<pdfrwt beam="2">  1       -2 0.69359047E-01 0.78951550E+03</pdfrwt>
<totfact> 0.29556403E+01</totfact>
</mgrwt>
</event>
<event>
 4    5  0.6615028E-008  0.1320693E+04  0.7818608E-02  0.9047893E-01
         -2   -1    0    0    0  501 -0.00000000000E+00  0.00000000000E+00  0.85688889652E+03  0.85688889653E+03  0.25500000000E-02 0.  1.
          2   -1    0    0  501    0  0.00000000000E+00 -0.00000000000E+00 -0.36329966840E+04  0.36329966840E+04  0.25500000000E-02 0. -1.
    8880023    1    1    2    0    0  0.10818152800E+04  0.37429211243E+03 -0.30318387599E+04  0.33070039852E+04  0.65864270000E+03 0. -1.
    8880022    1    1    2    0    0 -0.10818152800E+04 -0.37429211243E+03  0.25573097245E+03  0.11828815954E+04  0.15294330000E+03 0.  0.
<mgrwt>
<rscale>  0 0.12771388E+04</rscale>
<asrwt>0</asrwt>
<pdfrwt beam="1">  1        2 0.55892256E+00 0.13206927E+04</pdfrwt>
<pdfrwt beam="2">  1       -2 0.13182906E+00 0.13206927E+04</pdfrwt>
<totfact> 0.26883138E-01</totfact>
</mgrwt>
</event>
<event>
 4    5  0.6615028E-008  0.7885044E+03  0.7818608E-02  0.9736226E-01
          2   -1    0    0  501    0  0.00000000000E+00  0.00000000000E+00  0.15409567908E+04  0.15409567908E+04  0.25500000000E-02 0. -1.
         -2   -1    0    0    0  501 -0.00000000000E+00 -0.00000000000E+00 -0.15805942954E+04  0.15805942954E+04  0.25500000000E-02 0.  1.
    8880023    1    1    2    0    0 -0.85775493610E+02 -0.42493718075E+03  0.14019307006E+04  0.16084616683E+04  0.65864270000E+03 0.  0.
    8880022    1    1    2    0    0  0.85775493610E+02  0.42493718075E+03 -0.14415682052E+04  0.15130894178E+04  0.15294330000E+03 0.  0.
<mgrwt>
<rscale>  0 0.68900260E+03</rscale>
<asrwt>0</asrwt>
<pdfrwt beam="1">  1        2 0.23707027E+00 0.78850444E+03</pdfrwt>
<pdfrwt beam="2">  1       -2 0.24316835E+00 0.78850444E+03</pdfrwt>
<totfact> 0.88104227E-01</totfact>
</mgrwt>
</event>
<event>
 4    5  0.6615028E-008  0.7540892E+03  0.7818608E-02  0.9820657E-01
          2   -1    0    0  501    0  0.00000000000E+00  0.00000000000E+00  0.87493018251E+03  0.87493018251E+03  0.25500000000E-02 0. -1.
         -2   -1    0    0    0  501 -0.00000000000E+00 -0.00000000000E+00 -0.81404727571E+03  0.81404727571E+03  0.25500000000E-02 0.  1.
    8880023    1    1    2    0    0  0.28001792593E+03 -0.23755054546E+03  0.63819041701E+03  0.98789549808E+03  0.65864270000E+03 0.  0.
    8880022    1    1    2    0    0 -0.28001792593E+03  0.23755054546E+03 -0.57730751021E+03  0.70108196015E+03  0.15294330000E+03 0.  0.
<mgrwt>
<rscale>  0 0.64265636E+03</rscale>
<asrwt>0</asrwt>
<pdfrwt beam="1">  1        2 0.13460464E+00 0.75408919E+03</pdfrwt>
<pdfrwt beam="2">  1       -2 0.12523804E+00 0.75408919E+03</pdfrwt>
<totfact> 0.14775853E+01</totfact>
</mgrwt>
</event>
<event>
 4    5  0.6615028E-008  0.8377137E+03  0.7818608E-02  0.9634506E-01
          2   -1    0    0  501    0  0.00000000000E+00  0.00000000000E+00  0.24236007881E+04  0.24236007881E+04  0.25500000000E-02 0. -1.
         -2   -1    0    0    0  501 -0.00000000000E+00 -0.00000000000E+00 -0.58365396930E+03  0.58365396930E+03  0.25500000000E-02 0.  1.
    8880023    1    1    2    0    0 -0.51499337758E+03  0.52306200350E+02  0.22029016980E+04  0.23568072078E+04  0.65864270000E+03 0. -1.
    8880022    1    1    2    0    0  0.51499337758E+03 -0.52306200350E+02 -0.36295487912E+03  0.65044754965E+03  0.15294330000E+03 0.  0.
<mgrwt>
<rscale>  0 0.75053824E+03</rscale>
<asrwt>0</asrwt>
<pdfrwt beam="1">  1        2 0.37286165E+00 0.83771375E+03</pdfrwt>
<pdfrwt beam="2">  1       -2 0.89792920E-01 0.83771375E+03</pdfrwt>
<totfact> 0.42257597E+00</totfact>
</mgrwt>
</event>
<event>
 4    5  0.6615028E-008  0.9802508E+03  0.7818608E-02  0.9407864E-01
          2   -1    0    0  501    0  0.00000000000E+00  0.00000000000E+00  0.26527357913E+04  0.26527357913E+04  0.25500000000E-02 0. -1.
         -2   -1    0    0    0  501 -0.00000000000E+00 -0.00000000000E+00 -0.39188091784E+03  0.39188091785E+03  0.25500000000E-02 0.  1.
    8880023    1    1    2    0    0  0.66724242387E+03  0.28612742863E+03  0.20515689118E+04  0.22737252613E+04  0.65864270000E+03 0.  0.
    8880022    1    1    2    0    0 -0.66724242387E+03 -0.28612742863E+03  0.20928596164E+03  0.77089144786E+03  0.15294330000E+03 0.  0.
<mgrwt>
<rscale>  0 0.91431300E+03</rscale>
<asrwt>0</asrwt>
<pdfrwt beam="1">  1        2 0.40811321E+00 0.98025077E+03</pdfrwt>
<pdfrwt beam="2">  1       -2 0.60289370E-01 0.98025077E+03</pdfrwt>
<totfact> 0.73893194E+00</totfact>
</mgrwt>
</event>
<event>
 4    5  0.6615028E-008  0.9031188E+03  0.7818608E-02  0.9521043E-01
         -2   -1    0    0    0  501 -0.00000000000E+00  0.00000000000E+00  0.51784386979E+03  0.51784386980E+03  0.25500000000E-02 0.  1.
          2   -1    0    0  501    0  0.00000000000E+00 -0.00000000000E+00 -0.19112131647E+04  0.19112131647E+04  0.25500000000E-02 0. -1.
    8880023    1    1    2    0    0 -0.46623249922E+03  0.40551289442E+03 -0.15312507795E+04  0.17777380591E+04  0.65864270000E+03 0.  0.
    8880022    1    1    2    0    0  0.46623249922E+03 -0.40551289442E+03  0.13788148459E+03  0.65131897537E+03  0.15294330000E+03 0.  0.
<mgrwt>
<rscale>  0 0.82750008E+03</rscale>
<asrwt>0</asrwt>
<pdfrwt beam="1">  1        2 0.29403279E+00 0.90311885E+03</pdfrwt>
<pdfrwt beam="2">  1       -2 0.79668289E-01 0.90311885E+03</pdfrwt>
<totfact> 0.10572369E+01</totfact>
</mgrwt>
</event>
<event>
 4    5  0.6615028E-008  0.1507466E+04  0.7818608E-02  0.8904382E-01
          2   -1    0    0  501    0  0.00000000000E+00  0.00000000000E+00  0.20454120265E+04  0.20454120265E+04  0.25500000000E-02 0. -1.
         -2   -1    0    0    0  501 -0.00000000000E+00 -0.00000000000E+00 -0.10090898956E+04  0.10090898956E+04  0.25500000000E-02 0.  1.
    8880023    1    1    2    0    0  0.97930166469E+03  0.93787643712E+03  0.49806832813E+03  0.15876165241E+04  0.65864270000E+03 0.  0.
    8880022    1    1    2    0    0 -0.97930166469E+03 -0.93787643712E+03  0.53825380270E+03  0.14668853980E+04  0.15294330000E+03 0.  1.
<mgrwt>
<rscale>  0 0.14703955E+04</rscale>
<asrwt>0</asrwt>
<pdfrwt beam="1">  1        2 0.31467877E+00 0.15074661E+04</pdfrwt>
<pdfrwt beam="2">  1       -2 0.15524460E+00 0.15074661E+04</pdfrwt>
<totfact> 0.16250589E+00</totfact>
</mgrwt>
</event>
<event>
 4    5  0.6615028E-008  0.1030993E+04  0.7818608E-02  0.9342087E-01
          2   -1    0    0  501    0  0.00000000000E+00  0.00000000000E+00  0.14465471090E+04  0.14465471090E+04  0.25500000000E-02 0. -1.
         -2   -1    0    0    0  501 -0.00000000000E+00 -0.00000000000E+00 -0.70849220040E+03  0.70849220040E+03  0.25500000000E-02 0.  1.
    8880023    1    1    2    0    0  0.42028130576E+01 -0.79317055051E+03  0.85427396876E+03  0.13389292012E+04  0.65864270000E+03 0. -1.
    8880022    1    1    2    0    0 -0.42028130576E+01  0.79317055051E+03 -0.11621906012E+03  0.81611010825E+03  0.15294330000E+03 0.  0.
<mgrwt>
<rscale>  0 0.96998915E+03</rscale>
<asrwt>0</asrwt>
<pdfrwt beam="1">  1        2 0.22254571E+00 0.10309934E+04</pdfrwt>
<pdfrwt beam="2">  1       -2 0.10899880E+00 0.10309934E+04</pdfrwt>
<totfact> 0.90646870E+00</totfact>
</mgrwt>
</event>
<event>
 4    5  0.6615028E-008  0.8396727E+03  0.7818608E-02  0.9630798E-01
          2   -1    0    0  501    0  0.00000000000E+00  0.00000000000E+00  0.21011417432E+04  0.21011417432E+04  0.25500000000E-02 0. -1.
         -2   -1    0    0    0  501 -0.00000000000E+00 -0.00000000000E+00 -0.31375622038E+03  0.31375622039E+03  0.25500000000E-02 0.  1.
    8880023    1    1    2    0    0 -0.52051887074E+03  0.17323981533E+02  0.16555574646E+04  0.18563191374E+04  0.65864270000E+03 0.  0.
    8880022    1    1    2    0    0  0.52051887074E+03 -0.17323981533E+02  0.13182805828E+03  0.55857882621E+03  0.15294330000E+03 0.  0.
<mgrwt>
<rscale>  0 0.75290893E+03</rscale>
<asrwt>0</asrwt>
<pdfrwt beam="1">  1        2 0.32325258E+00 0.83967269E+03</pdfrwt>
<pdfrwt beam="2">  1       -2 0.48270187E-01 0.83967269E+03</pdfrwt>
<totfact> 0.24414861E+01</totfact>
</mgrwt>
</event>
<event>
 4    5  0.6615028E-008  0.1117066E+04  0.7818608E-02  0.9242289E-01
          2   -1    0    0  501    0  0.00000000000E+00  0.00000000000E+00  0.17769644002E+04  0.17769644002E+04  0.25500000000E-02 0. -1.
         -2   -1    0    0    0  501 -0.00000000000E+00 -0.00000000000E+00 -0.61925036065E+03  0.61925036065E+03  0.25500000000E-02 0.  1.
    8880023    1    1    2    0    0  0.87111402783E+03  0.23491659524E+03  0.92919038688E+03  0.14530073770E+04  0.65864270000E+03 0.  0.
    8880022    1    1    2    0    0 -0.87111402783E+03 -0.23491659524E+03  0.22852365271E+03  0.94320738391E+03  0.15294330000E+03 0.  0.
<mgrwt>
<rscale>  0 0.10627393E+04</rscale>
<asrwt>0</asrwt>
<pdfrwt beam="1">  1        2 0.27337914E+00 0.11170656E+04</pdfrwt>
<pdfrwt beam="2">  1       -2 0.95269285E-01 0.11170656E+04</pdfrwt>
<totfact> 0.81146959E+00</totfact>
</mgrwt>
</event>
<event>
 4    5  0.6615028E-008  0.7524010E+03  0.7818608E-02  0.9825193E-01
          2   -1    0    0  501    0  0.00000000000E+00  0.00000000000E+00  0.11740615850E+04  0.11740615850E+04  0.25500000000E-02 0. -1.
         -2   -1    0    0    0  501 -0.00000000000E+00 -0.00000000000E+00 -0.50468004314E+03  0.50468004315E+03  0.25500000000E-02 0.  1.
    8880023    1    1    2    0    0 -0.28608685497E+03  0.22461392577E+03  0.93720552983E+03  0.12018575272E+04  0.65864270000E+03 0. -1.
    8880022    1    1    2    0    0  0.28608685497E+03 -0.22461392577E+03 -0.26782398795E+03  0.47688410099E+03  0.15294330000E+03 0.  0.
<mgrwt>
<rscale>  0 0.64027890E+03</rscale>
<asrwt>0</asrwt>
<pdfrwt beam="1">  1        2 0.18062486E+00 0.75240103E+03</pdfrwt>
<pdfrwt beam="2">  1       -2 0.77643083E-01 0.75240103E+03</pdfrwt>
<totfact> 0.29546591E+01</totfact>
</mgrwt>
</event>
<event>
 4    5  0.6615028E-008  0.6815721E+03  0.7818608E-02  0.1008448E+00
         -2   -1    0    0    0  501 -0.00000000000E+00  0.00000000000E+00  0.56782299496E+03  0.56782299496E+03  0.25500000000E-02 0.  1.
          2   -1    0    0  501    0  0.00000000000E+00 -0.00000000000E+00 -0.12035074890E+04  0.12035074890E+04  0.25500000000E-02 0. -1.
    8880023    1    1    2    0    0  0.12121273823E+03  0.12664058691E+03 -0.10757876208E+04  0.12735225076E+04  0.65864270000E+03 0. -1.
    8880022    1    1    2    0    0 -0.12121273823E+03 -0.12664058691E+03  0.44010312671E+03  0.49780797635E+03  0.15294330000E+03 0.  0.
<mgrwt>
<rscale>  0 0.52096149E+03</rscale>
<asrwt>0</asrwt>
<pdfrwt beam="1">  1        2 0.18515500E+00 0.68157213E+03</pdfrwt>
<pdfrwt beam="2">  1       -2 0.87357384E-01 0.68157213E+03</pdfrwt>
<totfact> 0.21914969E+01</totfact>
</mgrwt>
</event>
<event>
 4    5  0.6615028E-008  0.8846266E+03  0.7818608E-02  0.9551176E-01
          2   -1    0    0  501    0  0.00000000000E+00  0.00000000000E+00  0.99636596782E+03  0.99636596783E+03  0.25500000000E-02 0. -1.
         -2   -1    0    0    0  501 -0.00000000000E+00 -0.00000000000E+00 -0.29558740704E+04  0.29558740704E+04  0.25500000000E-02 0.  1.
    8880023    1    1    2    0    0  0.86018330908E+01  0.59049129173E+03  0.75931749737E+03  0.11658161198E+04  0.65864270000E+03 0. -1.
    8880022    1    1    2    0    0 -0.86018330908E+01 -0.59049129173E+03 -0.27188256000E+04  0.27864239184E+04  0.15294330000E+03 0.  0.
<mgrwt>
<rscale>  0 0.80613745E+03</rscale>
<asrwt>0</asrwt>
<pdfrwt beam="1">  1        2 0.15328707E+00 0.88462657E+03</pdfrwt>
<pdfrwt beam="2">  1       -2 0.45474985E+00 0.88462657E+03</pdfrwt>
<totfact> 0.85021483E-02</totfact>
</mgrwt>
</event>
<event>
 4    5  0.6615028E-008  0.6594529E+03  0.7818608E-02  0.1024724E+00
          2   -1    0    0  501    0  0.00000000000E+00  0.00000000000E+00  0.17847829394E+04  0.17847829394E+04  0.25500000000E-02 0. -1.
         -2   -1    0    0    0  501 -0.00000000000E+00 -0.00000000000E+00 -0.62632809235E+03  0.62632809235E+03  0.25500000000E-02 0.  1.
    8880023    1    1    2    0    0 -0.17215729152E+02  0.27776614372E+02  0.17126746015E+04  0.18352472364E+04  0.65864270000E+03 0. -1.
    8880022    1    1    2    0    0  0.17215729152E+02 -0.27776614372E+02 -0.55421975444E+03  0.57586379541E+03  0.15294330000E+03 0.  0.
<mgrwt>
<rscale>  0 0.46019718E+03</rscale>
<asrwt>0</asrwt>
<pdfrwt beam="1">  1        2 0.27458199E+00 0.65945290E+03</pdfrwt>
<pdfrwt beam="2">  1       -2 0.96358169E-01 0.65945290E+03</pdfrwt>
<totfact> 0.82935044E+00</totfact>
</mgrwt>
</event>
<event>
 4    5  0.6615028E-008  0.9476112E+03  0.7818608E-02  0.9453559E-01
         -2   -1    0    0    0  501 -0.00000000000E+00  0.00000000000E+00  0.84803409894E+03  0.84803409894E+03  0.25500000000E-02 0.  1.
          2   -1    0    0  501    0  0.00000000000E+00 -0.00000000000E+00 -0.10919345486E+04  0.10919345486E+04  0.25500000000E-02 0. -1.
    8880023    1    1    2    0    0  0.30733326251E+03  0.60803217024E+03 -0.63399820602E+03  0.11401406868E+04  0.65864270000E+03 0.  0.
    8880022    1    1    2    0    0 -0.30733326251E+03 -0.60803217024E+03  0.39009775631E+03  0.79982796075E+03  0.15294330000E+03 0.  0.
<mgrwt>
<rscale>  0 0.87796031E+03</rscale>
<asrwt>0</asrwt>
<pdfrwt beam="1">  1        2 0.16798993E+00 0.94761124E+03</pdfrwt>
<pdfrwt beam="2">  1       -2 0.13046678E+00 0.94761124E+03</pdfrwt>
<totfact> 0.94549630E+00</totfact>
</mgrwt>
</event>
<event>
 4    5  0.6615028E-008  0.7795432E+03  0.7818608E-02  0.9756911E-01
          2   -1    0    0  501    0  0.00000000000E+00  0.00000000000E+00  0.31798502347E+04  0.31798502347E+04  0.25500000000E-02 0. -1.
         -2   -1    0    0    0  501 -0.00000000000E+00 -0.00000000000E+00 -0.15993235544E+04  0.15993235544E+04  0.25500000000E-02 0.  1.
    8880023    1    1    2    0    0  0.43950582751E+02 -0.41466333696E+03  0.30997955180E+04  0.31963134697E+04  0.65864270000E+03 0. -1.
    8880022    1    1    2    0    0 -0.43950582751E+02  0.41466333696E+03 -0.15192688377E+04  0.15828603195E+04  0.15294330000E+03 0.  0.
<mgrwt>
<rscale>  0 0.67727100E+03</rscale>
<asrwt>0</asrwt>
<pdfrwt beam="1">  1        2 0.48920772E+00 0.77954316E+03</pdfrwt>
<pdfrwt beam="2">  1       -2 0.24604978E+00 0.77954316E+03</pdfrwt>
<totfact> 0.98417732E-02</totfact>
</mgrwt>
</event>
<event>
 4    5  0.8275307E-008  0.8407663E+03  0.7818608E-02  0.9628737E-01
          2   -1    0    0  501    0  0.00000000000E+00  0.00000000000E+00  0.22172149743E+04  0.22172149743E+04  0.25500000000E-02 0. -1.
         -2   -1    0    0    0  501 -0.00000000000E+00 -0.00000000000E+00 -0.12294825615E+04  0.12294825615E+04  0.25500000000E-02 0.  1.
    8880023    1    1    2    0    0 -0.49419101208E+02  0.52022637054E+03  0.20705220004E+04  0.22347145869E+04  0.65864270000E+03 0. -1.
    8880022    1    1    2    0    0  0.49419101208E+02 -0.52022637054E+03 -0.10827895877E+04  0.12119829489E+04  0.15294330000E+03 0.  0.
<mgrwt>
<rscale>  0 0.75423024E+03</rscale>
<asrwt>0</asrwt>
<pdfrwt beam="1">  1        2 0.34110999E+00 0.84076628E+03</pdfrwt>
<pdfrwt beam="2">  1       -2 0.18915116E+00 0.84076628E+03</pdfrwt>
<totfact> 0.81616263E-01</totfact>
</mgrwt>
</event>
<event>
 4    5  0.6615028E-008  0.1199072E+04  0.7818608E-02  0.9158025E-01
         -2   -1    0    0    0  501 -0.00000000000E+00  0.00000000000E+00  0.20952650497E+04  0.20952650497E+04  0.25500000000E-02 0.  1.
          2   -1    0    0  501    0  0.00000000000E+00 -0.00000000000E+00 -0.82528019421E+03  0.82528019421E+03  0.25500000000E-02 0. -1.
    8880023    1    1    2    0    0 -0.99737954976E+03 -0.95899469591E+02 -0.11468382290E+03  0.12045435899E+04  0.65864270000E+03 0.  0.
    8880022    1    1    2    0    0  0.99737954976E+03  0.95899469591E+02  0.13846686784E+04  0.17160016540E+04  0.15294330000E+03 0.  0.
<mgrwt>
<rscale>  0 0.11497380E+04</rscale>
<asrwt>0</asrwt>
<pdfrwt beam="1">  1        2 0.12696619E+00 0.11990717E+04</pdfrwt>
<pdfrwt beam="2">  1       -2 0.32234846E+00 0.11990717E+04</pdfrwt>
<totfact> 0.75160847E-01</totfact>
</mgrwt>
</event>
<event>
 4    5  0.6615028E-008  0.1415546E+04  0.7818608E-02  0.8971696E-01
         -2   -1    0    0    0  501 -0.00000000000E+00  0.00000000000E+00  0.11845734057E+04  0.11845734057E+04  0.25500000000E-02 0.  1.
          2   -1    0    0  501    0  0.00000000000E+00 -0.00000000000E+00 -0.35685999990E+04  0.35685999990E+04  0.25500000000E-02 0. -1.
    8880023    1    1    2    0    0 -0.75142786516E+03 -0.10026547069E+04 -0.30232741995E+04  0.33382566393E+04  0.65864270000E+03 0.  0.
    8880022    1    1    2    0    0  0.75142786516E+03  0.10026547069E+04  0.63924760627E+03  0.14149167654E+04  0.15294330000E+03 0.  0.
<mgrwt>
<rscale>  0 0.13755677E+04</rscale>
<asrwt>0</asrwt>
<pdfrwt beam="1">  1        2 0.54901538E+00 0.14155460E+04</pdfrwt>
<pdfrwt beam="2">  1       -2 0.18224206E+00 0.14155460E+04</pdfrwt>
<totfact> 0.12234584E-01</totfact>
</mgrwt>
</event>
<event>
 4    5  0.6615028E-008  0.1055160E+04  0.7818608E-02  0.9312704E-01
         -2   -1    0    0    0  501 -0.00000000000E+00  0.00000000000E+00  0.11026463120E+04  0.11026463120E+04  0.25500000000E-02 0.  1.
          2   -1    0    0  501    0  0.00000000000E+00 -0.00000000000E+00 -0.22568639983E+04  0.22568639983E+04  0.25500000000E-02 0. -1.
    8880023    1    1    2    0    0 -0.72830495682E+03 -0.38616652368E+03 -0.19413053422E+04  0.22095314734E+04  0.65864270000E+03 0. -1.
    8880022    1    1    2    0    0  0.72830495682E+03  0.38616652368E+03  0.78708765588E+03  0.11499788368E+04  0.15294330000E+03 0.  0.
<mgrwt>
<rscale>  0 0.99621688E+03</rscale>
<asrwt>0</asrwt>
<pdfrwt beam="1">  1        2 0.34720984E+00 0.10551601E+04</pdfrwt>
<pdfrwt beam="2">  1       -2 0.16963789E+00 0.10551601E+04</pdfrwt>
<totfact> 0.10212555E+00</totfact>
</mgrwt>
</event>
<event>
 4    5  0.6615028E-008  0.9781605E+03  0.7818608E-02  0.9410705E-01
         -2   -1    0    0    0  501 -0.00000000000E+00  0.00000000000E+00  0.13198753290E+04  0.13198753290E+04  0.25500000000E-02 0.  1.
          2   -1    0    0  501    0  0.00000000000E+00 -0.00000000000E+00 -0.66564831259E+03  0.66564831259E+03  0.25500000000E-02 0. -1.
    8880023    1    1    2    0    0 -0.58750571070E+03 -0.42169286564E+03  0.76014703751E+03  0.12387984331E+04  0.65864270000E+03 0. -1.
    8880022    1    1    2    0    0  0.58750571070E+03  0.42169286564E+03 -0.10592002111E+03  0.74672520845E+03  0.15294330000E+03 0.  0.
<mgrwt>
<rscale>  0 0.91199908E+03</rscale>
<asrwt>0</asrwt>
<pdfrwt beam="1">  1        2 0.10240743E+00 0.97816054E+03</pdfrwt>
<pdfrwt beam="2">  1       -2 0.20305774E+00 0.97816054E+03</pdfrwt>
<totfact> 0.55219308E+00</totfact>
</mgrwt>
</event>
<event>
 4    5  0.6615028E-008  0.1704539E+04  0.7818608E-02  0.8777265E-01
          2   -1    0    0  501    0  0.00000000000E+00  0.00000000000E+00  0.19375006900E+04  0.19375006900E+04  0.25500000000E-02 0. -1.
         -2   -1    0    0    0  501 -0.00000000000E+00 -0.00000000000E+00 -0.18497707418E+04  0.18497707418E+04  0.25500000000E-02 0.  1.
    8880023    1    1    2    0    0 -0.10779970460E+04 -0.11443627296E+04  0.98698115719E+03  0.19696663928E+04  0.65864270000E+03 0.  0.
    8880022    1    1    2    0    0  0.10779970460E+04  0.11443627296E+04 -0.89925120901E+03  0.18176050390E+04  0.15294330000E+03 0.  0.
<mgrwt>
<rscale>  0 0.16723987E+04</rscale>
<asrwt>0</asrwt>
<pdfrwt beam="1">  1        2 0.29807703E+00 0.17045392E+04</pdfrwt>
<pdfrwt beam="2">  1       -2 0.28458011E+00 0.17045392E+04</pdfrwt>
<totfact> 0.26222191E-01</totfact>
</mgrwt>
</event>
<event>
 4    5  0.6615028E-008  0.6632658E+03  0.7818608E-02  0.1021035E+00
         -2   -1    0    0    0  501 -0.00000000000E+00  0.00000000000E+00  0.29704260342E+03  0.29704260343E+03  0.25500000000E-02 0.  1.
          2   -1    0    0  501    0  0.00000000000E+00 -0.00000000000E+00 -0.76411810521E+03  0.76411810522E+03  0.25500000000E-02 0. -1.
    8880023    1    1    2    0    0 -0.20306041348E+02  0.75491846156E+02 -0.55804286276E+03  0.86679489909E+03  0.65864270000E+03 0. -1.
    8880022    1    1    2    0    0  0.20306041348E+02 -0.75491846156E+02  0.90967360963E+02  0.19436580956E+03  0.15294330000E+03 0.  0.
<mgrwt>
<rscale>  0 0.47315017E+03</rscale>
<asrwt>0</asrwt>
<pdfrwt beam="1">  1        2 0.11755663E+00 0.66326583E+03</pdfrwt>
<pdfrwt beam="2">  1       -2 0.45698862E-01 0.66326583E+03</pdfrwt>
<totfact> 0.16873129E+02</totfact>
</mgrwt>
</event>
<event>
 4    5  0.6615028E-008  0.8202018E+03  0.7818608E-02  0.9668706E-01
         -2   -1    0    0    0  501 -0.00000000000E+00  0.00000000000E+00  0.25359684171E+04  0.25359684172E+04  0.25500000000E-02 0.  1.
          2   -1    0    0  501    0  0.00000000000E+00 -0.00000000000E+00 -0.58982868164E+03  0.58982868164E+03  0.25500000000E-02 0. -1.
    8880023    1    1    2    0    0  0.38253349893E+03 -0.30428414636E+03 -0.26044035838E+03  0.86055802017E+03  0.65864270000E+03 0. -1.
    8880022    1    1    2    0    0 -0.38253349893E+03  0.30428414636E+03  0.22065800939E+04  0.22652390786E+04  0.15294330000E+03 0.  0.
<mgrwt>
<rscale>  0 0.72910969E+03</rscale>
<asrwt>0</asrwt>
<pdfrwt beam="1">  1        2 0.90742874E-01 0.82020176E+03</pdfrwt>
<pdfrwt beam="2">  1       -2 0.39014899E+00 0.82020176E+03</pdfrwt>
<totfact> 0.45701548E-01</totfact>
</mgrwt>
</event>
<event>
 4    5  0.6615028E-008  0.9370689E+03  0.7818608E-02  0.9468968E-01
          2   -1    0    0  501    0  0.00000000000E+00  0.00000000000E+00  0.23082863619E+04  0.23082863619E+04  0.25500000000E-02 0. -1.
         -2   -1    0    0    0  501 -0.00000000000E+00 -0.00000000000E+00 -0.31905909929E+03  0.31905909930E+03  0.25500000000E-02 0.  1.
    8880023    1    1    2    0    0 -0.59629500402E+03 -0.29785946079E+03  0.70597714022E+03  0.11732441856E+04  0.65864270000E+03 0.  1.
    8880022    1    1    2    0    0  0.59629500402E+03  0.29785946079E+03  0.12832501224E+04  0.14541012757E+04  0.15294330000E+03 0.  0.
<mgrwt>
<rscale>  0 0.86610833E+03</rscale>
<asrwt>0</asrwt>
<pdfrwt beam="1">  1        2 0.35512099E+00 0.93706894E+03</pdfrwt>
<pdfrwt beam="2">  1       -2 0.49086013E-01 0.93706894E+03</pdfrwt>
<totfact> 0.17903916E+01</totfact>
</mgrwt>
</event>
<event>
 4    5  0.6615028E-008  0.7455058E+03  0.7818608E-02  0.9844190E-01
         -2   -1    0    0    0  501 -0.00000000000E+00  0.00000000000E+00  0.10156923960E+04  0.10156923960E+04  0.25500000000E-02 0.  1.
          2   -1    0    0  501    0  0.00000000000E+00 -0.00000000000E+00 -0.70136542639E+03  0.70136542639E+03  0.25500000000E-02 0. -1.
    8880023    1    1    2    0    0  0.33050389077E+03  0.11285336612E+03 -0.44440946970E+03  0.86791629036E+03  0.65864270000E+03 0. -1.
    8880022    1    1    2    0    0 -0.33050389077E+03 -0.11285336612E+03  0.75873643935E+03  0.84914153206E+03  0.15294330000E+03 0.  0.
<mgrwt>
<rscale>  0 0.63044038E+03</rscale>
<asrwt>0</asrwt>
<pdfrwt beam="1">  1        2 0.10790237E+00 0.74550581E+03</pdfrwt>
<pdfrwt beam="2">  1       -2 0.15626037E+00 0.74550581E+03</pdfrwt>
<totfact> 0.11156012E+01</totfact>
</mgrwt>
</event>
<event>
 4    5  0.6615028E-008  0.9697904E+03  0.7818608E-02  0.9422194E-01
         -2   -1    0    0    0  501 -0.00000000000E+00  0.00000000000E+00  0.76415479472E+03  0.76415479472E+03  0.25500000000E-02 0.  1.
          2   -1    0    0  501    0  0.00000000000E+00 -0.00000000000E+00 -0.14127369537E+04  0.14127369537E+04  0.25500000000E-02 0. -1.
    8880023    1    1    2    0    0 -0.29419887783E+03 -0.64817446806E+03 -0.97841415477E+03  0.13776021143E+04  0.65864270000E+03 0.  0.
    8880022    1    1    2    0    0  0.29419887783E+03  0.64817446806E+03  0.32983199580E+03  0.79928963413E+03  0.15294330000E+03 0.  0.
<mgrwt>
<rscale>  0 0.90271475E+03</rscale>
<asrwt>0</asrwt>
<pdfrwt beam="1">  1        2 0.21734415E+00 0.96979035E+03</pdfrwt>
<pdfrwt beam="2">  1       -2 0.11756228E+00 0.96979035E+03</pdfrwt>
<totfact> 0.79239692E+00</totfact>
</mgrwt>
</event>
<event>
 4    5  0.6615028E-008  0.1232919E+04  0.7818608E-02  0.9125769E-01
          2   -1    0    0  501    0  0.00000000000E+00  0.00000000000E+00  0.13840161587E+04  0.13840161587E+04  0.25500000000E-02 0. -1.
         -2   -1    0    0    0  501 -0.00000000000E+00 -0.00000000000E+00 -0.11429081906E+04  0.11429081906E+04  0.25500000000E-02 0.  1.
    8880023    1    1    2    0    0  0.95778800970E+00 -0.10422465336E+04  0.65381914357E+03  0.13955530921E+04  0.65864270000E+03 0. -1.
    8880022    1    1    2    0    0 -0.95778800970E+00  0.10422465336E+04 -0.41271117545E+03  0.11313712572E+04  0.15294330000E+03 0.  0.
<mgrwt>
<rscale>  0 0.11853596E+04</rscale>
<asrwt>0</asrwt>
<pdfrwt beam="1">  1        2 0.21292556E+00 0.12329189E+04</pdfrwt>
<pdfrwt beam="2">  1       -2 0.17583203E+00 0.12329189E+04</pdfrwt>
<totfact> 0.27723867E+00</totfact>
</mgrwt>
</event>
<event>
 4    5  0.6615028E-008  0.6782839E+03  0.7818608E-02  0.1010312E+00
          2   -1    0    0  501    0  0.00000000000E+00  0.00000000000E+00  0.14096965561E+04  0.14096965561E+04  0.25500000000E-02 0. -1.
         -2   -1    0    0    0  501 -0.00000000000E+00 -0.00000000000E+00 -0.15755761055E+04  0.15755761055E+04  0.25500000000E-02 0.  1.
    8880023    1    1    2    0    0 -0.69825908041E+02 -0.14622974055E+03  0.13193115227E+04  0.14834594348E+04  0.65864270000E+03 0.  0.
    8880022    1    1    2    0    0  0.69825908041E+02  0.14622974055E+03 -0.14851910721E+04  0.15018132268E+04  0.15294330000E+03 0.  1.
<mgrwt>
<rscale>  0 0.51351012E+03</rscale>
<asrwt>0</asrwt>
<pdfrwt beam="1">  1        2 0.21687639E+00 0.67828386E+03</pdfrwt>
<pdfrwt beam="2">  1       -2 0.24239633E+00 0.67828386E+03</pdfrwt>
<totfact> 0.10781377E+00</totfact>
</mgrwt>
</event>
<event>
 4    5  0.6615028E-008  0.7967663E+03  0.7818608E-02  0.9717832E-01
         -2   -1    0    0    0  501 -0.00000000000E+00  0.00000000000E+00  0.25830795251E+03  0.25830795252E+03  0.25500000000E-02 0.  1.
          2   -1    0    0  501    0  0.00000000000E+00 -0.00000000000E+00 -0.22096475396E+04  0.22096475396E+04  0.25500000000E-02 0. -1.
    8880023    1    1    2    0    0  0.17711758987E+01  0.44835604542E+03 -0.18035544433E+04  0.19717112153E+04  0.65864270000E+03 0.  0.
    8880022    1    1    2    0    0 -0.17711758987E+01 -0.44835604542E+03 -0.14778514385E+03  0.49624427683E+03  0.15294330000E+03 0.  0.
<mgrwt>
<rscale>  0 0.69964929E+03</rscale>
<asrwt>0</asrwt>
<pdfrwt beam="1">  1        2 0.33994576E+00 0.79676627E+03</pdfrwt>
<pdfrwt beam="2">  1       -2 0.39739687E-01 0.79676627E+03</pdfrwt>
<totfact> 0.31474012E+01</totfact>
</mgrwt>
</event>
<event>
 4    5  0.6615028E-008  0.1425738E+04  0.7818608E-02  0.8963937E-01
          2   -1    0    0  501    0  0.00000000000E+00  0.00000000000E+00  0.93059996964E+03  0.93059996965E+03  0.25500000000E-02 0. -1.
         -2   -1    0    0    0  501 -0.00000000000E+00 -0.00000000000E+00 -0.45580425952E+04  0.45580425952E+04  0.25500000000E-02 0.  1.
    8880023    1    1    2    0    0 -0.12505233289E+04 -0.18737602180E+03  0.21385147626E+03  0.14416868696E+04  0.65864270000E+03 0.  0.
    8880022    1    1    2    0    0  0.12505233289E+04  0.18737602180E+03 -0.38412941018E+04  0.40469556952E+04  0.15294330000E+03 0.  0.
<mgrwt>
<rscale>  0 0.13861062E+04</rscale>
<asrwt>0</asrwt>
<pdfrwt beam="1">  1        2 0.14316923E+00 0.14257379E+04</pdfrwt>
<pdfrwt beam="2">  1       -2 0.70123731E+00 0.14257379E+04</pdfrwt>
<totfact> 0.59505128E-03</totfact>
</mgrwt>
</event>
<event>
 4    5  0.6615028E-008  0.8157355E+03  0.7818608E-02  0.9677752E-01
         -2   -1    0    0    0  501 -0.00000000000E+00  0.00000000000E+00  0.21526387568E+04  0.21526387568E+04  0.25500000000E-02 0.  1.
          2   -1    0    0  501    0  0.00000000000E+00 -0.00000000000E+00 -0.65915687462E+03  0.65915687462E+03  0.25500000000E-02 0. -1.
    8880023    1    1    2    0    0  0.40656401503E+03  0.25752648016E+03 -0.35935144329E+03  0.89137974644E+03  0.65864270000E+03 0.  0.
    8880022    1    1    2    0    0 -0.40656401503E+03 -0.25752648016E+03  0.18528333255E+04  0.19204158850E+04  0.15294330000E+03 0.  0.
<mgrwt>
<rscale>  0 0.72357039E+03</rscale>
<asrwt>0</asrwt>
<pdfrwt beam="1">  1        2 0.10140875E+00 0.81573549E+03</pdfrwt>
<pdfrwt beam="2">  1       -2 0.33117519E+00 0.81573549E+03</pdfrwt>
<totfact> 0.93689995E-01</totfact>
</mgrwt>
</event>
<event>
 4    5  0.6615028E-008  0.1287503E+04  0.7818608E-02  0.9076428E-01
         -2   -1    0    0    0  501 -0.00000000000E+00  0.00000000000E+00  0.16061602927E+04  0.16061602927E+04  0.25500000000E-02 0.  1.
          2   -1    0    0  501    0  0.00000000000E+00 -0.00000000000E+00 -0.16251697863E+04  0.16251697863E+04  0.25500000000E-02 0. -1.
    8880023    1    1    2    0    0 -0.10649862708E+04 -0.29942868899E+03 -0.10877940936E+04  0.16855146078E+04  0.65864270000E+03 0. -1.
    8880022    1    1    2    0    0  0.10649862708E+04  0.29942868899E+03  0.10687846000E+04  0.15458154712E+04  0.15294330000E+03 0.  0.
<mgrwt>
<rscale>  0 0.12425249E+04</rscale>
<asrwt>0</asrwt>
<pdfrwt beam="1">  1        2 0.25002612E+00 0.12875028E+04</pdfrwt>
<pdfrwt beam="2">  1       -2 0.24710158E+00 0.12875028E+04</pdfrwt>
<totfact> 0.69485595E-01</totfact>
</mgrwt>
</event>
<event>
 4    5  0.6615028E-008  0.8563034E+03  0.7818608E-02  0.9600173E-01
         -2   -1    0    0    0  501 -0.00000000000E+00  0.00000000000E+00  0.45470148354E+03  0.45470148355E+03  0.25500000000E-02 0.  1.
          2   -1    0    0  501    0  0.00000000000E+00 -0.00000000000E+00 -0.22475497901E+04  0.22475497901E+04  0.25500000000E-02 0. -1.
    8880023    1    1    2    0    0 -0.42946558751E+03  0.33912325876E+03 -0.19354715776E+04  0.21164370318E+04  0.65864270000E+03 0.  0.
    8880022    1    1    2    0    0  0.42946558751E+03 -0.33912325876E+03  0.14262327106E+03  0.58581424185E+03  0.15294330000E+03 0.  0.
<mgrwt>
<rscale>  0 0.77284721E+03</rscale>
<asrwt>0</asrwt>
<pdfrwt beam="1">  1        2 0.34577688E+00 0.85630338E+03</pdfrwt>
<pdfrwt beam="2">  1       -2 0.69954076E-01 0.85630338E+03</pdfrwt>
<totfact> 0.92661016E+00</totfact>
</mgrwt>
</event>
<event>
 4    5  0.6615028E-008  0.9103461E+03  0.7818608E-02  0.9509623E-01
         -2   -1    0    0    0  501 -0.00000000000E+00  0.00000000000E+00  0.38370855179E+03  0.38370855180E+03  0.25500000000E-02 0.  1.
          2   -1    0    0  501    0  0.00000000000E+00 -0.00000000000E+00 -0.16563453998E+04  0.16563453998E+04  0.25500000000E-02 0. -1.
    8880023    1    1    2    0    0  0.16083889104E+03  0.60749538155E+03 -0.95541885535E+03  0.13196799547E+04  0.65864270000E+03 0.  0.
    8880022    1    1    2    0    0 -0.16083889104E+03 -0.60749538155E+03 -0.31721799263E+03  0.72037399685E+03  0.15294330000E+03 0.  0.
<mgrwt>
<rscale>  0 0.83578075E+03</rscale>
<asrwt>0</asrwt>
<pdfrwt beam="1">  1        2 0.25482237E+00 0.91034608E+03</pdfrwt>
<pdfrwt beam="2">  1       -2 0.59032086E-01 0.91034608E+03</pdfrwt>
<totfact> 0.28033973E+01</totfact>
</mgrwt>
</event>
<event>
 4    5  0.7872954E-008  0.2154153E+04  0.7818608E-02  0.8548419E-01
          2   -1    0    0  501    0  0.00000000000E+00  0.00000000000E+00  0.41696260032E+04  0.41696260032E+04  0.25500000000E-02 0. -1.
         -2   -1    0    0    0  501 -0.00000000000E+00 -0.00000000000E+00 -0.17723672983E+04  0.17723672983E+04  0.25500000000E-02 0.  1.
    8880023    1    1    2    0    0 -0.34806722674E+03 -0.20212407293E+04  0.30943974300E+04  0.37703674279E+04  0.65864270000E+03 0.  0.
    8880022    1    1    2    0    0  0.34806722674E+03  0.20212407293E+04 -0.69713872508E+03  0.21716258736E+04  0.15294330000E+03 0.  0.
<mgrwt>
<rscale>  0 0.21293615E+04</rscale>
<asrwt>0</asrwt>
<pdfrwt beam="1">  1        2 0.64148091E+00 0.21541530E+04</pdfrwt>
<pdfrwt beam="2">  1       -2 0.27267190E+00 0.21541530E+04</pdfrwt>
<totfact> 0.10070063E-02</totfact>
</mgrwt>
</event>
<event>
 4    5  0.6615028E-008  0.1101349E+04  0.7818608E-02  0.9259556E-01
          2   -1    0    0  501    0  0.00000000000E+00  0.00000000000E+00  0.34250402734E+04  0.34250402734E+04  0.25500000000E-02 0. -1.
         -2   -1    0    0    0  501 -0.00000000000E+00 -0.00000000000E+00 -0.32610521277E+03  0.32610521278E+03  0.25500000000E-02 0.  1.
    8880023    1    1    2    0    0 -0.86106470377E+03 -0.19423216622E+03  0.23029540612E+04  0.25527565831E+04  0.65864270000E+03 0.  0.
    8880022    1    1    2    0    0  0.86106470377E+03  0.19423216622E+03  0.79598099942E+03  0.11983889030E+04  0.15294330000E+03 0.  0.
<mgrwt>
<rscale>  0 0.10459300E+04</rscale>
<asrwt>0</asrwt>
<pdfrwt beam="1">  1        2 0.52692926E+00 0.11013486E+04</pdfrwt>
<pdfrwt beam="2">  1       -2 0.50170034E-01 0.11013486E+04</pdfrwt>
<totfact> 0.35113656E+00</totfact>
</mgrwt>
</event>
<event>
 4    5  0.6615028E-008  0.7688968E+03  0.7818608E-02  0.9782596E-01
         -2   -1    0    0    0  501 -0.00000000000E+00  0.00000000000E+00  0.33583515078E+03  0.33583515078E+03  0.25500000000E-02 0.  1.
          2   -1    0    0  501    0  0.00000000000E+00 -0.00000000000E+00 -0.16245287210E+04  0.16245287210E+04  0.25500000000E-02 0. -1.
    8880023    1    1    2    0    0  0.31231428615E+02  0.39549552946E+03 -0.13267790558E+04  0.15334748075E+04  0.65864270000E+03 0. -1.
    8880022    1    1    2    0    0 -0.31231428615E+02 -0.39549552946E+03  0.38085485633E+02  0.42688906427E+03  0.15294330000E+03 0.  0.
<mgrwt>
<rscale>  0 0.66304954E+03</rscale>
<asrwt>0</asrwt>
<pdfrwt beam="1">  1        2 0.24992749E+00 0.76889682E+03</pdfrwt>
<pdfrwt beam="2">  1       -2 0.51666947E-01 0.76889682E+03</pdfrwt>
<totfact> 0.39087471E+01</totfact>
</mgrwt>
</event>
<event>
 4    5  0.6615028E-008  0.2029327E+04  0.7818608E-02  0.8605280E-01
         -2   -1    0    0    0  501 -0.00000000000E+00  0.00000000000E+00  0.13988733966E+04  0.13988733966E+04  0.25500000000E-02 0.  1.
          2   -1    0    0  501    0  0.00000000000E+00 -0.00000000000E+00 -0.31281155561E+04  0.31281155561E+04  0.25500000000E-02 0. -1.
    8880023    1    1    2    0    0  0.18997396302E+04  0.27449549904E+03 -0.16229824039E+04  0.25985073660E+04  0.65864270000E+03 0.  0.
    8880022    1    1    2    0    0 -0.18997396302E+04 -0.27449549904E+03 -0.10625975558E+03  0.19284815867E+04  0.15294330000E+03 0.  0.
<mgrwt>
<rscale>  0 0.20028704E+04</rscale>
<asrwt>0</asrwt>
<pdfrwt beam="1">  1        2 0.48124855E+00 0.20293271E+04</pdfrwt>
<pdfrwt beam="2">  1       -2 0.21521129E+00 0.20293271E+04</pdfrwt>
<totfact> 0.13610051E-01</totfact>
</mgrwt>
</event>
<event>
 4    5  0.6615028E-008  0.1045789E+04  0.7818608E-02  0.9323960E-01
         -2   -1    0    0    0  501 -0.00000000000E+00  0.00000000000E+00  0.96487656479E+03  0.96487656479E+03  0.25500000000E-02 0.  1.
          2   -1    0    0  501    0  0.00000000000E+00 -0.00000000000E+00 -0.12952135256E+04  0.12952135256E+04  0.25500000000E-02 0. -1.
    8880023    1    1    2    0    0 -0.60184160576E+03  0.54557476987E+03 -0.79334204245E+03  0.13126564480E+04  0.65864270000E+03 0.  0.
    8880022    1    1    2    0    0  0.60184160576E+03 -0.54557476987E+03  0.46300508168E+03  0.94743364233E+03  0.15294330000E+03 0.  0.
<mgrwt>
<rscale>  0 0.98606639E+03</rscale>
<asrwt>0</asrwt>
<pdfrwt beam="1">  1        2 0.19926362E+00 0.10457893E+04</pdfrwt>
<pdfrwt beam="2">  1       -2 0.14844255E+00 0.10457893E+04</pdfrwt>
<totfact> 0.50580013E+00</totfact>
</mgrwt>
</event>
<event>
 4    5  0.6615028E-008  0.1180730E+04  0.7818608E-02  0.9176085E-01
         -2   -1    0    0    0  501 -0.00000000000E+00  0.00000000000E+00  0.82207639676E+03  0.82207639677E+03  0.25500000000E-02 0.  1.
          2   -1    0    0  501    0  0.00000000000E+00 -0.00000000000E+00 -0.22226220678E+04  0.22226220678E+04  0.25500000000E-02 0. -1.
    8880023    1    1    2    0    0 -0.97934505296E+03 -0.34590934275E+02 -0.16433973029E+04  0.20235805313E+04  0.65864270000E+03 0. -1.
    8880022    1    1    2    0    0  0.97934505296E+03  0.34590934275E+02  0.24285163182E+03  0.10211179332E+04  0.15294330000E+03 0.  0.
<mgrwt>
<rscale>  0 0.11303712E+04</rscale>
<asrwt>0</asrwt>
<pdfrwt beam="1">  1        2 0.34194185E+00 0.11807301E+04</pdfrwt>
<pdfrwt beam="2">  1       -2 0.12647329E+00 0.11807301E+04</pdfrwt>
<totfact> 0.22863134E+00</totfact>
</mgrwt>
</event>
<event>
 4    5  0.6615028E-008  0.7016112E+03  0.7818608E-02  0.9990582E-01
         -2   -1    0    0    0  501 -0.00000000000E+00  0.00000000000E+00  0.38587237329E+03  0.38587237330E+03  0.25500000000E-02 0.  1.
          2   -1    0    0  501    0  0.00000000000E+00 -0.00000000000E+00 -0.29623064035E+04  0.29623064035E+04  0.25500000000E-02 0. -1.
    8880023    1    1    2    0    0 -0.22988710503E+03  0.74833400700E+02 -0.28603431324E+04  0.29451351684E+04  0.65864270000E+03 0. -1.
    8880022    1    1    2    0    0  0.22988710503E+03 -0.74833400700E+02  0.28390910220E+03  0.40304360837E+03  0.15294330000E+03 0.  0.
<mgrwt>
<rscale>  0 0.56065145E+03</rscale>
<asrwt>0</asrwt>
<pdfrwt beam="1">  1        2 0.45573943E+00 0.70161124E+03</pdfrwt>
<pdfrwt beam="2">  1       -2 0.59364982E-01 0.70161124E+03</pdfrwt>
<totfact> 0.52339065E+00</totfact>
</mgrwt>
</event>
<event>
 4    5  0.6615028E-008  0.1142366E+04  0.7818608E-02  0.9215290E-01
         -2   -1    0    0    0  501 -0.00000000000E+00  0.00000000000E+00  0.50589281328E+03  0.50589281329E+03  0.25500000000E-02 0.  1.
          2   -1    0    0  501    0  0.00000000000E+00 -0.00000000000E+00 -0.24240149088E+04  0.24240149088E+04  0.25500000000E-02 0. -1.
    8880023    1    1    2    0    0  0.90584324466E+03 -0.22503059689E+03 -0.15255239139E+04  0.19058394926E+04  0.65864270000E+03 0. -1.
    8880022    1    1    2    0    0 -0.90584324466E+03  0.22503059689E+03 -0.39259818161E+03  0.10240682295E+04  0.15294330000E+03 0.  1.
<mgrwt>
<rscale>  0 0.10896991E+04</rscale>
<asrwt>0</asrwt>
<pdfrwt beam="1">  1        2 0.37292537E+00 0.11423664E+04</pdfrwt>
<pdfrwt beam="2">  1       -2 0.77829665E-01 0.11423664E+04</pdfrwt>
<totfact> 0.56171607E+00</totfact>
</mgrwt>
</event>
<event>
 4    5  0.6615028E-008  0.6995669E+03  0.7818608E-02  0.9999003E-01
         -2   -1    0    0    0  501 -0.00000000000E+00  0.00000000000E+00  0.17345688346E+03  0.17345688348E+03  0.25500000000E-02 0.  1.
          2   -1    0    0  501    0  0.00000000000E+00 -0.00000000000E+00 -0.24019981362E+04  0.24019981362E+04  0.25500000000E-02 0. -1.
    8880023    1    1    2    0    0 -0.14399936131E+03 -0.18667565349E+03 -0.21809848463E+04  0.22904341775E+04  0.65864270000E+03 0.  0.
    8880022    1    1    2    0    0  0.14399936131E+03  0.18667565349E+03 -0.47556406491E+02  0.28502084218E+03  0.15294330000E+03 0.  0.
<mgrwt>
<rscale>  0 0.55693988E+03</rscale>
<asrwt>0</asrwt>
<pdfrwt beam="1">  1        2 0.36953815E+00 0.69956688E+03</pdfrwt>
<pdfrwt beam="2">  1       -2 0.26685676E-01 0.69956688E+03</pdfrwt>
<totfact> 0.52745731E+01</totfact>
</mgrwt>
</event>
<event>
 4    5  0.6615028E-008  0.1235328E+04  0.7818608E-02  0.9123524E-01
         -2   -1    0    0    0  501 -0.00000000000E+00  0.00000000000E+00  0.17148631726E+04  0.17148631726E+04  0.25500000000E-02 0.  1.
          2   -1    0    0  501    0  0.00000000000E+00 -0.00000000000E+00 -0.85420062725E+03  0.85420062726E+03  0.25500000000E-02 0. -1.
    8880023    1    1    2    0    0 -0.78966388934E+02 -0.10421077435E+04  0.47783198570E+02  0.12362514631E+04  0.65864270000E+03 0.  0.
    8880022    1    1    2    0    0  0.78966388934E+02  0.10421077435E+04  0.81287934682E+03  0.13328123368E+04  0.15294330000E+03 0.  0.
<mgrwt>
<rscale>  0 0.11878893E+04</rscale>
<asrwt>0</asrwt>
<pdfrwt beam="1">  1        2 0.13141548E+00 0.12353277E+04</pdfrwt>
<pdfrwt beam="2">  1       -2 0.26382510E+00 0.12353277E+04</pdfrwt>
<totfact> 0.16221960E+00</totfact>
</mgrwt>
</event>
<event>
 4    5  0.6615028E-008  0.8130531E+03  0.7818608E-02  0.9683252E-01
         -2   -1    0    0    0  501 -0.00000000000E+00  0.00000000000E+00  0.35247603685E+03  0.35247603686E+03  0.25500000000E-02 0.  1.
          2   -1    0    0  501    0  0.00000000000E+00 -0.00000000000E+00 -0.15262669280E+04  0.15262669280E+04  0.25500000000E-02 0. -1.
    8880023    1    1    2    0    0 -0.46373320398E+03 -0.11043863782E+03 -0.11072523139E+04  0.13737041421E+04  0.65864270000E+03 0.  0.
    8880022    1    1    2    0    0  0.46373320398E+03  0.11043863782E+03 -0.66538577256E+02  0.50503882274E+03  0.15294330000E+03 0.  0.
<mgrwt>
<rscale>  0 0.72022767E+03</rscale>
<asrwt>0</asrwt>
<pdfrwt beam="1">  1        2 0.23481029E+00 0.81305312E+03</pdfrwt>
<pdfrwt beam="2">  1       -2 0.54227084E-01 0.81305312E+03</pdfrwt>
<totfact> 0.39912736E+01</totfact>
</mgrwt>
</event>
<event>
 4    5  0.6615028E-008  0.8925784E+03  0.7818608E-02  0.9538052E-01
         -2   -1    0    0    0  501 -0.00000000000E+00  0.00000000000E+00  0.43420507012E+03  0.43420507012E+03  0.25500000000E-02 0.  1.
          2   -1    0    0  501    0  0.00000000000E+00 -0.00000000000E+00 -0.14227414043E+04  0.14227414043E+04  0.25500000000E-02 0. -1.
    8880023    1    1    2    0    0  0.13752501715E+03  0.58649206601E+03 -0.82221965109E+03  0.12135655873E+04  0.65864270000E+03 0. -1.
    8880022    1    1    2    0    0 -0.13752501715E+03 -0.58649206601E+03 -0.16631668313E+03  0.64338088714E+03  0.15294330000E+03 0.  1.
<mgrwt>
<rscale>  0 0.81535597E+03</rscale>
<asrwt>0</asrwt>
<pdfrwt beam="1">  1        2 0.21888329E+00 0.89257844E+03</pdfrwt>
<pdfrwt beam="2">  1       -2 0.66800781E-01 0.89257844E+03</pdfrwt>
<totfact> 0.29111102E+01</totfact>
</mgrwt>
</event>
<event>
 4    5  0.6615028E-008  0.1285385E+04  0.7818608E-02  0.9078284E-01
          2   -1    0    0  501    0  0.00000000000E+00  0.00000000000E+00  0.13803498755E+04  0.13803498755E+04  0.25500000000E-02 0. -1.
         -2   -1    0    0    0  501 -0.00000000000E+00 -0.00000000000E+00 -0.23391110836E+04  0.23391110836E+04  0.25500000000E-02 0.  1.
    8880023    1    1    2    0    0 -0.93622613251E+03 -0.58471011716E+03  0.88817077439E+03  0.15623900995E+04  0.65864270000E+03 0.  0.
    8880022    1    1    2    0    0  0.93622613251E+03  0.58471011716E+03 -0.18469319825E+04  0.21570708596E+04  0.15294330000E+03 0.  0.
<mgrwt>
<rscale>  0 0.12403131E+04</rscale>
<asrwt>0</asrwt>
<pdfrwt beam="1">  1        2 0.21236152E+00 0.12853854E+04</pdfrwt>
<pdfrwt beam="2">  1       -2 0.35986324E+00 0.12853854E+04</pdfrwt>
<totfact> 0.19399012E-01</totfact>
</mgrwt>
</event>
<event>
 4    5  0.6615028E-008  0.9206698E+03  0.7818608E-02  0.9493633E-01
          2   -1    0    0  501    0  0.00000000000E+00  0.00000000000E+00  0.29698961820E+04  0.29698961820E+04  0.25500000000E-02 0. -1.
         -2   -1    0    0    0  501 -0.00000000000E+00 -0.00000000000E+00 -0.31648964164E+03  0.31648964166E+03  0.25500000000E-02 0.  1.
    8880023    1    1    2    0    0 -0.26179799157E+02 -0.64275755504E+03  0.24132416349E+04  0.25828991562E+04  0.65864270000E+03 0. -1.
    8880022    1    1    2    0    0  0.26179799157E+02  0.64275755504E+03  0.24016490544E+03  0.70348666744E+03  0.15294330000E+03 0.  0.
<mgrwt>
<rscale>  0 0.84754880E+03</rscale>
<asrwt>0</asrwt>
<pdfrwt beam="1">  1        2 0.45690712E+00 0.92066979E+03</pdfrwt>
<pdfrwt beam="2">  1       -2 0.48690712E-01 0.92066979E+03</pdfrwt>
<totfact> 0.75102488E+00</totfact>
</mgrwt>
</event>
<event>
 4    5  0.6615028E-008  0.6655525E+03  0.7818608E-02  0.1019074E+00
         -2   -1    0    0    0  501 -0.00000000000E+00  0.00000000000E+00  0.19869477752E+03  0.19869477753E+03  0.25500000000E-02 0.  1.
          2   -1    0    0  501    0  0.00000000000E+00 -0.00000000000E+00 -0.92327189007E+03  0.92327189008E+03  0.25500000000E-02 0. -1.
    8880023    1    1    2    0    0 -0.35836411496E+02 -0.88688669642E+02 -0.63767923384E+03  0.92173474495E+03  0.65864270000E+03 0.  0.
    8880022    1    1    2    0    0  0.35836411496E+02  0.88688669642E+02 -0.86897878720E+02  0.20023192266E+03  0.15294330000E+03 0. -1.
<mgrwt>
<rscale>  0 0.48022147E+03</rscale>
<asrwt>0</asrwt>
<pdfrwt beam="1">  1        2 0.14204183E+00 0.66555250E+03</pdfrwt>
<pdfrwt beam="2">  1       -2 0.30568428E-01 0.66555250E+03</pdfrwt>
<totfact> 0.28339272E+02</totfact>
</mgrwt>
</event>
<event>
 4    5  0.6615028E-008  0.9730079E+03  0.7818608E-02  0.9417756E-01
         -2   -1    0    0    0  501 -0.00000000000E+00  0.00000000000E+00  0.46128413850E+03  0.46128413850E+03  0.25500000000E-02 0.  1.
          2   -1    0    0  501    0  0.00000000000E+00 -0.00000000000E+00 -0.18107622571E+04  0.18107622571E+04  0.25500000000E-02 0. -1.
    8880023    1    1    2    0    0 -0.66021394951E+03 -0.27758191020E+03 -0.11629734025E+04  0.15163283013E+04  0.65864270000E+03 0.  0.
    8880022    1    1    2    0    0  0.66021394951E+03  0.27758191020E+03 -0.18650471611E+03  0.75571809436E+03  0.15294330000E+03 0.  0.
<mgrwt>
<rscale>  0 0.90628724E+03</rscale>
<asrwt>0</asrwt>
<pdfrwt beam="1">  1        2 0.27857881E+00 0.97300790E+03</pdfrwt>
<pdfrwt beam="2">  1       -2 0.70966791E-01 0.97300790E+03</pdfrwt>
<totfact> 0.15405029E+01</totfact>
</mgrwt>
</event>
<event>
 4    5  0.6615028E-008  0.7016174E+03  0.7818608E-02  0.9990557E-01
         -2   -1    0    0    0  501 -0.00000000000E+00  0.00000000000E+00  0.38961626973E+03  0.38961626974E+03  0.25500000000E-02 0.  1.
          2   -1    0    0  501    0  0.00000000000E+00 -0.00000000000E+00 -0.16534110861E+04  0.16534110861E+04  0.25500000000E-02 0. -1.
    8880023    1    1    2    0    0 -0.23840986577E+03  0.40217489661E+02 -0.15103455732E+04  0.16653560182E+04  0.65864270000E+03 0. -1.
    8880022    1    1    2    0    0  0.23840986577E+03 -0.40217489661E+02  0.24655075683E+03  0.37767133765E+03  0.15294330000E+03 0.  0.
<mgrwt>
<rscale>  0 0.56066248E+03</rscale>
<asrwt>0</asrwt>
<pdfrwt beam="1">  1        2 0.25437093E+00 0.70161736E+03</pdfrwt>
<pdfrwt beam="2">  1       -2 0.59940965E-01 0.70161736E+03</pdfrwt>
<totfact> 0.27895108E+01</totfact>
</mgrwt>
</event>
<event>
 4    5  0.6615028E-008  0.1407297E+04  0.7818608E-02  0.8978033E-01
         -2   -1    0    0    0  501 -0.00000000000E+00  0.00000000000E+00  0.18772454250E+04  0.18772454250E+04  0.25500000000E-02 0.  1.
          2   -1    0    0  501    0  0.00000000000E+00 -0.00000000000E+00 -0.18326188200E+04  0.18326188200E+04  0.25500000000E-02 0. -1.
    8880023    1    1    2    0    0 -0.11670036273E+04  0.42985744941E+03  0.13146060603E+04  0.19257918353E+04  0.65864270000E+03 0.  0.
    8880022    1    1    2    0    0  0.11670036273E+04 -0.42985744941E+03 -0.12699794553E+04  0.17840724097E+04  0.15294330000E+03 0.  0.
<mgrwt>
<rscale>  0 0.13670333E+04</rscale>
<asrwt>0</asrwt>
<pdfrwt beam="1">  1        2 0.28194136E+00 0.14072971E+04</pdfrwt>
<pdfrwt beam="2">  1       -2 0.28880699E+00 0.14072971E+04</pdfrwt>
<totfact> 0.29216627E-01</totfact>
</mgrwt>
</event>
<event>
 4    5  0.6615028E-008  0.2244421E+04  0.7818608E-02  0.8509860E-01
         -2   -1    0    0    0  501 -0.00000000000E+00  0.00000000000E+00  0.25794725453E+04  0.25794725453E+04  0.25500000000E-02 0.  1.
          2   -1    0    0  501    0  0.00000000000E+00 -0.00000000000E+00 -0.26503001744E+04  0.26503001744E+04  0.25500000000E-02 0. -1.
    8880023    1    1    2    0    0  0.40676364605E+03  0.21066932807E+04 -0.14523034270E+04  0.26733141778E+04  0.65864270000E+03 0.  0.
    8880022    1    1    2    0    0 -0.40676364605E+03 -0.21066932807E+04  0.13814757980E+04  0.25564585419E+04  0.15294330000E+03 0.  0.
<mgrwt>
<rscale>  0 0.22207040E+04</rscale>
<asrwt>0</asrwt>
<pdfrwt beam="1">  1        2 0.40773849E+00 0.22444205E+04</pdfrwt>
<pdfrwt beam="2">  1       -2 0.39684193E+00 0.22444205E+04</pdfrwt>
<totfact> 0.18993628E-02</totfact>
</mgrwt>
</event>
<event>
 4    5  0.6615028E-008  0.1479982E+04  0.7818608E-02  0.8923902E-01
         -2   -1    0    0    0  501 -0.00000000000E+00  0.00000000000E+00  0.88907555842E+03  0.88907555842E+03  0.25500000000E-02 0.  1.
          2   -1    0    0  501    0  0.00000000000E+00 -0.00000000000E+00 -0.29328273573E+04  0.29328273573E+04  0.25500000000E-02 0. -1.
    8880023    1    1    2    0    0 -0.13041779540E+04  0.23591868035E+03 -0.19987083193E+04  0.24870027968E+04  0.65864270000E+03 0.  0.
    8880022    1    1    2    0    0  0.13041779540E+04 -0.23591868035E+03 -0.45043479546E+02  0.13349001189E+04  0.15294330000E+03 0.  0.
<mgrwt>
<rscale>  0 0.14420913E+04</rscale>
<asrwt>0</asrwt>
<pdfrwt beam="1">  1        2 0.45120421E+00 0.14799824E+04</pdfrwt>
<pdfrwt beam="2">  1       -2 0.13678086E+00 0.14799824E+04</pdfrwt>
<totfact> 0.69586708E-01</totfact>
</mgrwt>
</event>
<event>
 4    5  0.6615028E-008  0.9383720E+03  0.7818608E-02  0.9467045E-01
         -2   -1    0    0    0  501 -0.00000000000E+00  0.00000000000E+00  0.21275539066E+03  0.21275539067E+03  0.25500000000E-02 0.  1.
          2   -1    0    0  501    0  0.00000000000E+00 -0.00000000000E+00 -0.31826199657E+04  0.31826199657E+04  0.25500000000E-02 0. -1.
    8880023    1    1    2    0    0 -0.63645812896E+03  0.20409034836E+03 -0.14383130056E+04  0.17173486334E+04  0.65864270000E+03 0.  1.
    8880022    1    1    2    0    0  0.63645812896E+03 -0.20409034836E+03 -0.15315515694E+04  0.16780267230E+04  0.15294330000E+03 0.  0.
<mgrwt>
<rscale>  0 0.86757649E+03</rscale>
<asrwt>0</asrwt>
<pdfrwt beam="1">  1        2 0.48963380E+00 0.93837201E+03</pdfrwt>
<pdfrwt beam="2">  1       -2 0.32731601E-01 0.93837201E+03</pdfrwt>
<totfact> 0.12002392E+01</totfact>
</mgrwt>
</event>
<event>
 4    5  0.6657424E-008  0.1179830E+04  0.7818608E-02  0.9176983E-01
         -2   -1    0    0    0  501 -0.00000000000E+00  0.00000000000E+00  0.20579816603E+04  0.20579816603E+04  0.25500000000E-02 0.  1.
          2   -1    0    0  501    0  0.00000000000E+00 -0.00000000000E+00 -0.14545223595E+04  0.14545223595E+04  0.25500000000E-02 0. -1.
    8880023    1    1    2    0    0  0.41455341437E+03 -0.88675481660E+03 -0.10536366821E+04  0.15818182899E+04  0.65864270000E+03 0.  0.
    8880022    1    1    2    0    0 -0.41455341437E+03  0.88675481660E+03  0.16570959829E+04  0.19306857299E+04  0.15294330000E+03 0.  0.
<mgrwt>
<rscale>  0 0.11294196E+04</rscale>
<asrwt>0</asrwt>
<pdfrwt beam="1">  1        2 0.22377267E+00 0.11798300E+04</pdfrwt>
<pdfrwt beam="2">  1       -2 0.31661257E+00 0.11798300E+04</pdfrwt>
<totfact> 0.33167392E-01</totfact>
</mgrwt>
</event>
<event>
 4    5  0.6615028E-008  0.6836872E+03  0.7818608E-02  0.1007310E+00
         -2   -1    0    0    0  501 -0.00000000000E+00  0.00000000000E+00  0.65725151883E+03  0.65725151883E+03  0.25500000000E-02 0.  1.
          2   -1    0    0  501    0  0.00000000000E+00 -0.00000000000E+00 -0.10247119771E+04  0.10247119771E+04  0.25500000000E-02 0. -1.
    8880023    1    1    2    0    0 -0.13896639598E+02 -0.18282477082E+03 -0.88127559659E+03  0.11153810545E+04  0.65864270000E+03 0. -1.
    8880022    1    1    2    0    0  0.13896639598E+02  0.18282477082E+03  0.51381513837E+03  0.56658244135E+03  0.15294330000E+03 0.  0.
<mgrwt>
<rscale>  0 0.52557737E+03</rscale>
<asrwt>0</asrwt>
<pdfrwt beam="1">  1        2 0.15764800E+00 0.68368722E+03</pdfrwt>
<pdfrwt beam="2">  1       -2 0.10111562E+00 0.68368722E+03</pdfrwt>
<totfact> 0.20013993E+01</totfact>
</mgrwt>
</event>
<event>
 4    5  0.6615028E-008  0.1164267E+04  0.7818608E-02  0.9192665E-01
          2   -1    0    0  501    0  0.00000000000E+00  0.00000000000E+00  0.70426810327E+03  0.70426810328E+03  0.25500000000E-02 0. -1.
         -2   -1    0    0    0  501 -0.00000000000E+00 -0.00000000000E+00 -0.18475886681E+04  0.18475886681E+04  0.25500000000E-02 0.  1.
    8880023    1    1    2    0    0 -0.30767236302E+03  0.90941999012E+03 -0.17074631572E+03  0.11767206601E+04  0.65864270000E+03 0.  0.
    8880022    1    1    2    0    0  0.30767236302E+03 -0.90941999012E+03 -0.97257424906E+03  0.13751361112E+04  0.15294330000E+03 0.  0.
<mgrwt>
<rscale>  0 0.11129458E+04</rscale>
<asrwt>0</asrwt>
<pdfrwt beam="1">  1        2 0.10834894E+00 0.11642668E+04</pdfrwt>
<pdfrwt beam="2">  1       -2 0.28424441E+00 0.11642668E+04</pdfrwt>
<totfact> 0.15878336E+00</totfact>
</mgrwt>
</event>
<event>
 4    5  0.6615028E-008  0.1314387E+04  0.7818608E-02  0.9053235E-01
          2   -1    0    0  501    0  0.00000000000E+00  0.00000000000E+00  0.68789276958E+03  0.68789276959E+03  0.25500000000E-02 0. -1.
         -2   -1    0    0    0  501 -0.00000000000E+00 -0.00000000000E+00 -0.31120461171E+04  0.31120461171E+04  0.25500000000E-02 0.  1.
    8880023    1    1    2    0    0 -0.95494578149E+03 -0.61796495712E+03 -0.24498872283E+03  0.13370234906E+04  0.65864270000E+03 0. -1.
    8880022    1    1    2    0    0  0.95494578149E+03  0.61796495712E+03 -0.21791646247E+04  0.24629153961E+04  0.15294330000E+03 0.  0.
<mgrwt>
<rscale>  0 0.12705699E+04</rscale>
<asrwt>0</asrwt>
<pdfrwt beam="1">  1        2 0.10582966E+00 0.13143867E+04</pdfrwt>
<pdfrwt beam="2">  1       -2 0.47877632E+00 0.13143867E+04</pdfrwt>
<totfact> 0.91540732E-02</totfact>
</mgrwt>
</event>
<event>
 4    5  0.6615028E-008  0.6674380E+03  0.7818608E-02  0.1017570E+00
          2   -1    0    0  501    0  0.00000000000E+00  0.00000000000E+00  0.13143350944E+04  0.13143350944E+04  0.25500000000E-02 0. -1.
         -2   -1    0    0    0  501 -0.00000000000E+00 -0.00000000000E+00 -0.18952111824E+03  0.18952111825E+03  0.25500000000E-02 0.  1.
    8880023    1    1    2    0    0 -0.47487090143E+02  0.96995906047E+02  0.11346176205E+04  0.13163702292E+04  0.65864270000E+03 0. -1.
    8880022    1    1    2    0    0  0.47487090143E+02 -0.96995906047E+02 -0.98036442907E+01  0.18748598341E+03  0.15294330000E+03 0.  0.
<mgrwt>
<rscale>  0 0.48573762E+03</rscale>
<asrwt>0</asrwt>
<pdfrwt beam="1">  1        2 0.20220541E+00 0.66743796E+03</pdfrwt>
<pdfrwt beam="2">  1       -2 0.29157094E-01 0.66743796E+03</pdfrwt>
<totfact> 0.17871189E+02</totfact>
</mgrwt>
</event>
<event>
 4    5  0.6615028E-008  0.8240405E+03  0.7818608E-02  0.9661041E-01
         -2   -1    0    0    0  501 -0.00000000000E+00  0.00000000000E+00  0.21408593888E+03  0.21408593890E+03  0.25500000000E-02 0.  1.
          2   -1    0    0  501    0  0.00000000000E+00 -0.00000000000E+00 -0.35043595386E+04  0.35043595386E+04  0.25500000000E-02 0. -1.
    8880023    1    1    2    0    0  0.42556951617E+03  0.25322555485E+03 -0.30269256842E+04  0.31370881241E+04  0.65864270000E+03 0. -1.
    8880022    1    1    2    0    0 -0.42556951617E+03 -0.25322555485E+03 -0.26334791560E+03  0.58135735343E+03  0.15294330000E+03 0.  0.
<mgrwt>
<rscale>  0 0.73384541E+03</rscale>
<asrwt>0</asrwt>
<pdfrwt beam="1">  1        2 0.53913220E+00 0.82404053E+03</pdfrwt>
<pdfrwt beam="2">  1       -2 0.32936301E-01 0.82404053E+03</pdfrwt>
<totfact> 0.74059797E+00</totfact>
</mgrwt>
</event>
<event>
 4    5  0.6615028E-008  0.1348790E+04  0.7818608E-02  0.9024532E-01
         -2   -1    0    0    0  501 -0.00000000000E+00  0.00000000000E+00  0.12167213103E+04  0.12167213103E+04  0.25500000000E-02 0.  1.
          2   -1    0    0  501    0  0.00000000000E+00 -0.00000000000E+00 -0.23554790068E+04  0.23554790068E+04  0.25500000000E-02 0. -1.
    8880023    1    1    2    0    0  0.63379360798E+03  0.99183172365E+03 -0.17719822017E+04  0.22269161715E+04  0.65864270000E+03 0. -1.
    8880022    1    1    2    0    0 -0.63379360798E+03 -0.99183172365E+03  0.63322450520E+03  0.13452841457E+04  0.15294330000E+03 0.  0.
<mgrwt>
<rscale>  0 0.13063666E+04</rscale>
<asrwt>0</asrwt>
<pdfrwt beam="1">  1        2 0.36238138E+00 0.13487901E+04</pdfrwt>
<pdfrwt beam="2">  1       -2 0.18718789E+00 0.13487901E+04</pdfrwt>
<totfact> 0.65278000E-01</totfact>
</mgrwt>
</event>
<event>
 4    5  0.6615028E-008  0.8184387E+03  0.7818608E-02  0.9672260E-01
          2   -1    0    0  501    0  0.00000000000E+00  0.00000000000E+00  0.12133591371E+04  0.12133591371E+04  0.25500000000E-02 0. -1.
         -2   -1    0    0    0  501 -0.00000000000E+00 -0.00000000000E+00 -0.12289616845E+04  0.12289616845E+04  0.25500000000E-02 0.  1.
    8880023    1    1    2    0    0  0.12337618260E+03  0.46990425697E+03  0.10083435362E+04  0.12986911051E+04  0.65864270000E+03 0. -1.
    8880022    1    1    2    0    0 -0.12337618260E+03 -0.46990425697E+03 -0.10239460837E+04  0.11436297165E+04  0.15294330000E+03 0.  0.
<mgrwt>
<rscale>  0 0.72692691E+03</rscale>
<asrwt>0</asrwt>
<pdfrwt beam="1">  1        2 0.18667064E+00 0.81843870E+03</pdfrwt>
<pdfrwt beam="2">  1       -2 0.18907103E+00 0.81843870E+03</pdfrwt>
<totfact> 0.29685870E+00</totfact>
</mgrwt>
</event>
<event>
 4    5  0.6615028E-008  0.8201800E+03  0.7818608E-02  0.9668750E-01
         -2   -1    0    0    0  501 -0.00000000000E+00  0.00000000000E+00  0.54041608739E+03  0.54041608740E+03  0.25500000000E-02 0.  1.
          2   -1    0    0  501    0  0.00000000000E+00 -0.00000000000E+00 -0.20224926924E+04  0.20224926924E+04  0.25500000000E-02 0. -1.
    8880023    1    1    2    0    0  0.40786931591E+03 -0.26930964969E+03 -0.17874540498E+04  0.19666436517E+04  0.65864270000E+03 0. -1.
    8880022    1    1    2    0    0 -0.40786931591E+03  0.26930964969E+03  0.30537744476E+03  0.59626512816E+03  0.15294330000E+03 0.  0.
<mgrwt>
<rscale>  0 0.72908281E+03</rscale>
<asrwt>0</asrwt>
<pdfrwt beam="1">  1        2 0.31115272E+00 0.82018002E+03</pdfrwt>
<pdfrwt beam="2">  1       -2 0.83140938E-01 0.82018002E+03</pdfrwt>
<totfact> 0.84337516E+00</totfact>
</mgrwt>
</event>
<event>
 4    5  0.6615028E-008  0.7074072E+03  0.7818608E-02  0.9967758E-01
          2   -1    0    0  501    0  0.00000000000E+00  0.00000000000E+00  0.16661789914E+04  0.16661789914E+04  0.25500000000E-02 0. -1.
         -2   -1    0    0    0  501 -0.00000000000E+00 -0.00000000000E+00 -0.45690159126E+03  0.45690159126E+03  0.25500000000E-02 0.  1.
    8880023    1    1    2    0    0 -0.11545464530E+03  0.23083539751E+03  0.15289547693E+04  0.16846743450E+04  0.65864270000E+03 0. -1.
    8880022    1    1    2    0    0  0.11545464530E+03 -0.23083539751E+03 -0.31967736915E+03  0.43840623767E+03  0.15294330000E+03 0.  0.
<mgrwt>
<rscale>  0 0.57086878E+03</rscale>
<asrwt>0</asrwt>
<pdfrwt beam="1">  1        2 0.25633524E+00 0.70740721E+03</pdfrwt>
<pdfrwt beam="2">  1       -2 0.70292551E-01 0.70740721E+03</pdfrwt>
<totfact> 0.19486911E+01</totfact>
</mgrwt>
</event>
<event>
 4    5  0.6615028E-008  0.1142308E+04  0.7818608E-02  0.9215351E-01
         -2   -1    0    0    0  501 -0.00000000000E+00  0.00000000000E+00  0.16480214085E+04  0.16480214085E+04  0.25500000000E-02 0.  1.
          2   -1    0    0  501    0  0.00000000000E+00 -0.00000000000E+00 -0.19614626668E+04  0.19614626668E+04  0.25500000000E-02 0. -1.
    8880023    1    1    2    0    0  0.10790446121E+03  0.92704624810E+03 -0.16287878130E+04  0.19894265669E+04  0.65864270000E+03 0.  0.
    8880022    1    1    2    0    0 -0.10790446121E+03 -0.92704624810E+03  0.13153465547E+04  0.16200575085E+04  0.15294330000E+03 0.  0.
<mgrwt>
<rscale>  0 0.10896374E+04</rscale>
<asrwt>0</asrwt>
<pdfrwt beam="1">  1        2 0.30176349E+00 0.11423083E+04</pdfrwt>
<pdfrwt beam="2">  1       -2 0.25354176E+00 0.11423083E+04</pdfrwt>
<totfact> 0.42088640E-01</totfact>
</mgrwt>
</event>
<event>
 4    5  0.6615028E-008  0.8472666E+03  0.7818608E-02  0.9616628E-01
          2   -1    0    0  501    0  0.00000000000E+00  0.00000000000E+00  0.14030972865E+04  0.14030972865E+04  0.25500000000E-02 0. -1.
         -2   -1    0    0    0  501 -0.00000000000E+00 -0.00000000000E+00 -0.37732969682E+03  0.37732969683E+03  0.25500000000E-02 0.  1.
    8880023    1    1    2    0    0 -0.28876983867E+03 -0.44795364967E+03  0.84654740543E+03  0.11977074801E+04  0.65864270000E+03 0.  0.
    8880022    1    1    2    0    0  0.28876983867E+03  0.44795364967E+03  0.17922018422E+03  0.58271950321E+03  0.15294330000E+03 0.  0.
<mgrwt>
<rscale>  0 0.76205355E+03</rscale>
<asrwt>0</asrwt>
<pdfrwt beam="1">  1        2 0.21586112E+00 0.84726660E+03</pdfrwt>
<pdfrwt beam="2">  1       -2 0.58050723E-01 0.84726660E+03</pdfrwt>
<totfact> 0.40467346E+01</totfact>
</mgrwt>
</event>
<event>
 4    5  0.6615028E-008  0.2582597E+04  0.7818608E-02  0.8381164E-01
         -2   -1    0    0    0  501 -0.00000000000E+00  0.00000000000E+00  0.15894027397E+04  0.15894027397E+04  0.25500000000E-02 0.  1.
          2   -1    0    0  501    0  0.00000000000E+00 -0.00000000000E+00 -0.49964561283E+04  0.49964561283E+04  0.25500000000E-02 0. -1.
    8880023    1    1    2    0    0  0.86502698985E+03  0.23425890880E+04 -0.31461891683E+04  0.40704191206E+04  0.65864270000E+03 0.  0.
    8880022    1    1    2    0    0 -0.86502698985E+03 -0.23425890880E+04 -0.26086422028E+03  0.25154397474E+04  0.15294330000E+03 0.  0.
<mgrwt>
<rscale>  0 0.25621757E+04</rscale>
<asrwt>0</asrwt>
<pdfrwt beam="1">  1        2 0.76868555E+00 0.25825967E+04</pdfrwt>
<pdfrwt beam="2">  1       -2 0.24452350E+00 0.25825967E+04</pdfrwt>
<totfact> 0.20195450E-03</totfact>
</mgrwt>
</event>
<event>
 4    5  0.6615028E-008  0.1310252E+04  0.7818608E-02  0.9056757E-01
         -2   -1    0    0    0  501 -0.00000000000E+00  0.00000000000E+00  0.17283187966E+04  0.17283187966E+04  0.25500000000E-02 0.  1.
          2   -1    0    0  501    0  0.00000000000E+00 -0.00000000000E+00 -0.16891412469E+04  0.16891412469E+04  0.25500000000E-02 0. -1.
    8880023    1    1    2    0    0 -0.13679971996E+03 -0.11243823241E+04 -0.11678370323E+04  0.17551647542E+04  0.65864270000E+03 0.  0.
    8880022    1    1    2    0    0  0.13679971996E+03  0.11243823241E+04  0.12070145821E+04  0.16622952892E+04  0.15294330000E+03 0.  0.
<mgrwt>
<rscale>  0 0.12662609E+04</rscale>
<asrwt>0</asrwt>
<pdfrwt beam="1">  1        2 0.25986788E+00 0.13102519E+04</pdfrwt>
<pdfrwt beam="2">  1       -2 0.26589520E+00 0.13102519E+04</pdfrwt>
<totfact> 0.48983906E-01</totfact>
</mgrwt>
</event>
<event>
 4    5  0.6615028E-008  0.7610665E+03  0.7818608E-02  0.9802354E-01
          2   -1    0    0  501    0  0.00000000000E+00  0.00000000000E+00  0.20516103074E+04  0.20516103074E+04  0.25500000000E-02 0. -1.
         -2   -1    0    0    0  501 -0.00000000000E+00 -0.00000000000E+00 -0.50636982793E+03  0.50636982793E+03  0.25500000000E-02 0.  1.
    8880023    1    1    2    0    0 -0.28231436285E+03  0.25634091669E+03  0.18798742304E+04  0.20280900851E+04  0.65864270000E+03 0. -1.
    8880022    1    1    2    0    0  0.28231436285E+03 -0.25634091669E+03 -0.33463375092E+03  0.52989005021E+03  0.15294330000E+03 0.  0.
<mgrwt>
<rscale>  0 0.65236360E+03</rscale>
<asrwt>0</asrwt>
<pdfrwt beam="1">  1        2 0.31563235E+00 0.76106654E+03</pdfrwt>
<pdfrwt beam="2">  1       -2 0.77903051E-01 0.76106654E+03</pdfrwt>
<totfact> 0.94956111E+00</totfact>
</mgrwt>
</event>
<event>
 4    5  0.6615028E-008  0.9224788E+03  0.7818608E-02  0.9490869E-01
          2   -1    0    0  501    0  0.00000000000E+00  0.00000000000E+00  0.26996243806E+04  0.26996243806E+04  0.25500000000E-02 0. -1.
         -2   -1    0    0    0  501 -0.00000000000E+00 -0.00000000000E+00 -0.52234590665E+03  0.52234590666E+03  0.25500000000E-02 0.  1.
    8880023    1    1    2    0    0  0.45086761510E+03 -0.46246650150E+03  0.23597130420E+04  0.25336165294E+04  0.65864270000E+03 0.  0.
    8880022    1    1    2    0    0 -0.45086761510E+03  0.46246650150E+03 -0.18243456801E+03  0.68835375787E+03  0.15294330000E+03 0.  0.
<mgrwt>
<rscale>  0 0.84960391E+03</rscale>
<asrwt>0</asrwt>
<pdfrwt beam="1">  1        2 0.41532682E+00 0.92247877E+03</pdfrwt>
<pdfrwt beam="2">  1       -2 0.80360911E-01 0.92247877E+03</pdfrwt>
<totfact> 0.37296011E+00</totfact>
</mgrwt>
</event>
<event>
 4    5  0.6615028E-008  0.7806682E+03  0.7818608E-02  0.9754270E-01
          2   -1    0    0  501    0  0.00000000000E+00  0.00000000000E+00  0.66875127979E+03  0.66875127979E+03  0.25500000000E-02 0. -1.
         -2   -1    0    0    0  501 -0.00000000000E+00 -0.00000000000E+00 -0.20131190231E+04  0.20131190231E+04  0.25500000000E-02 0.  1.
    8880023    1    1    2    0    0  0.33626636702E+03  0.25011522007E+03  0.40293048136E+03  0.87851913580E+03  0.65864270000E+03 0. -1.
    8880022    1    1    2    0    0 -0.33626636702E+03 -0.25011522007E+03 -0.17472982247E+04  0.18033511671E+04  0.15294330000E+03 0.  0.
<mgrwt>
<rscale>  0 0.67875518E+03</rscale>
<asrwt>0</asrwt>
<pdfrwt beam="1">  1        2 0.10288481E+00 0.78066824E+03</pdfrwt>
<pdfrwt beam="2">  1       -2 0.30971062E+00 0.78066824E+03</pdfrwt>
<totfact> 0.12505061E+00</totfact>
</mgrwt>
</event>
<event>
 4    5  0.6615028E-008  0.8833869E+03  0.7818608E-02  0.9553245E-01
          2   -1    0    0  501    0  0.00000000000E+00  0.00000000000E+00  0.13447178560E+04  0.13447178560E+04  0.25500000000E-02 0. -1.
         -2   -1    0    0    0  501 -0.00000000000E+00 -0.00000000000E+00 -0.57565549513E+03  0.57565549514E+03  0.25500000000E-02 0.  1.
    8880023    1    1    2    0    0 -0.53988129058E+03 -0.23471341193E+03  0.93861823979E+03  0.12889439864E+04  0.65864270000E+03 0.  0.
    8880022    1    1    2    0    0  0.53988129058E+03  0.23471341193E+03 -0.16955587890E+03  0.63142936480E+03  0.15294330000E+03 0.  0.
<mgrwt>
<rscale>  0 0.80469565E+03</rscale>
<asrwt>0</asrwt>
<pdfrwt beam="1">  1        2 0.20687967E+00 0.88338689E+03</pdfrwt>
<pdfrwt beam="2">  1       -2 0.88562384E-01 0.88338689E+03</pdfrwt>
<totfact> 0.17190582E+01</totfact>
</mgrwt>
</event>
<event>
 4    5  0.6615028E-008  0.8939043E+03  0.7818608E-02  0.9535889E-01
         -2   -1    0    0    0  501 -0.00000000000E+00  0.00000000000E+00  0.70228594680E+03  0.70228594681E+03  0.25500000000E-02 0.  1.
          2   -1    0    0  501    0  0.00000000000E+00 -0.00000000000E+00 -0.15894249762E+04  0.15894249762E+04  0.25500000000E-02 0. -1.
    8880023    1    1    2    0    0  0.47797683793E+03  0.36985513183E+03 -0.12752575647E+04  0.15573524774E+04  0.65864270000E+03 0. -1.
    8880022    1    1    2    0    0 -0.47797683793E+03 -0.36985513183E+03  0.38811853535E+03  0.73435844561E+03  0.15294330000E+03 0.  0.
<mgrwt>
<rscale>  0 0.81688813E+03</rscale>
<asrwt>0</asrwt>
<pdfrwt beam="1">  1        2 0.24452692E+00 0.89390429E+03</pdfrwt>
<pdfrwt beam="2">  1       -2 0.10804399E+00 0.89390429E+03</pdfrwt>
<totfact> 0.78152192E+00</totfact>
</mgrwt>
</event>
<event>
 4    5  0.6615028E-008  0.9859599E+03  0.7818608E-02  0.9400161E-01
          2   -1    0    0  501    0  0.00000000000E+00  0.00000000000E+00  0.88469215386E+03  0.88469215387E+03  0.25500000000E-02 0. -1.
         -2   -1    0    0    0  501 -0.00000000000E+00 -0.00000000000E+00 -0.16733631656E+04  0.16733631656E+04  0.25500000000E-02 0.  1.
    8880023    1    1    2    0    0  0.64677949133E+03 -0.34638550845E+03  0.47069445560E+03  0.10925521075E+04  0.65864270000E+03 0. -1.
    8880022    1    1    2    0    0 -0.64677949133E+03  0.34638550845E+03 -0.12593654673E+04  0.14655032119E+04  0.15294330000E+03 0.  0.
<mgrwt>
<rscale>  0 0.92062404E+03</rscale>
<asrwt>0</asrwt>
<pdfrwt beam="1">  1        2 0.13610649E+00 0.98595986E+03</pdfrwt>
<pdfrwt beam="2">  1       -2 0.25744049E+00 0.98595986E+03</pdfrwt>
<totfact> 0.17369365E+00</totfact>
</mgrwt>
</event>
<event>
 4    5  0.6615028E-008  0.9793593E+03  0.7818608E-02  0.9409074E-01
          2   -1    0    0  501    0  0.00000000000E+00  0.00000000000E+00  0.10739193466E+04  0.10739193466E+04  0.25500000000E-02 0. -1.
         -2   -1    0    0    0  501 -0.00000000000E+00 -0.00000000000E+00 -0.10093556468E+04  0.10093556468E+04  0.25500000000E-02 0.  1.
    8880023    1    1    2    0    0  0.96281492545E+02  0.71837616151E+03  0.61849277781E+03  0.11583082309E+04  0.65864270000E+03 0. -1.
    8880022    1    1    2    0    0 -0.96281492545E+02 -0.71837616151E+03 -0.55392907799E+03  0.92496676248E+03  0.15294330000E+03 0.  0.
<mgrwt>
<rscale>  0 0.91332636E+03</rscale>
<asrwt>0</asrwt>
<pdfrwt beam="1">  1        2 0.16521836E+00 0.97935930E+03</pdfrwt>
<pdfrwt beam="2">  1       -2 0.15528548E+00 0.97935930E+03</pdfrwt>
<totfact> 0.61353695E+00</totfact>
</mgrwt>
</event>
<event>
 4    5  0.6615028E-008  0.1129090E+04  0.7818608E-02  0.9229339E-01
          2   -1    0    0  501    0  0.00000000000E+00  0.00000000000E+00  0.12738892635E+04  0.12738892635E+04  0.25500000000E-02 0. -1.
         -2   -1    0    0    0  501 -0.00000000000E+00 -0.00000000000E+00 -0.17642441765E+04  0.17642441765E+04  0.25500000000E-02 0.  1.
    8880023    1    1    2    0    0  0.53866374704E+03 -0.74220941708E+03  0.84550479465E+03  0.14105750654E+04  0.65864270000E+03 0.  0.
    8880022    1    1    2    0    0 -0.53866374704E+03  0.74220941708E+03 -0.13358597077E+04  0.16275583746E+04  0.15294330000E+03 0.  0.
<mgrwt>
<rscale>  0 0.10755665E+04</rscale>
<asrwt>0</asrwt>
<pdfrwt beam="1">  1        2 0.19598296E+00 0.11290897E+04</pdfrwt>
<pdfrwt beam="2">  1       -2 0.27142218E+00 0.11290897E+04</pdfrwt>
<totfact> 0.79921727E-01</totfact>
</mgrwt>
</event>
<event>
 4    5  0.6615028E-008  0.1079581E+04  0.7818608E-02  0.9284138E-01
         -2   -1    0    0    0  501 -0.00000000000E+00  0.00000000000E+00  0.82286622562E+03  0.82286622563E+03  0.25500000000E-02 0.  1.
          2   -1    0    0  501    0  0.00000000000E+00 -0.00000000000E+00 -0.35379652781E+04  0.35379652781E+04  0.25500000000E-02 0. -1.
    8880023    1    1    2    0    0  0.35602236365E+03  0.77777486826E+03 -0.31919937325E+04  0.33696171687E+04  0.65864270000E+03 0. -1.
    8880022    1    1    2    0    0 -0.35602236365E+03 -0.77777486826E+03  0.47689468002E+03  0.99121433502E+03  0.15294330000E+03 0.  0.
<mgrwt>
<rscale>  0 0.10225639E+04</rscale>
<asrwt>0</asrwt>
<pdfrwt beam="1">  1        2 0.54430234E+00 0.10795813E+04</pdfrwt>
<pdfrwt beam="2">  1       -2 0.12659481E+00 0.10795813E+04</pdfrwt>
<totfact> 0.36139149E-01</totfact>
</mgrwt>
</event>
<event>
 4    5  0.6615028E-008  0.1756938E+04  0.7818608E-02  0.8746738E-01
         -2   -1    0    0    0  501 -0.00000000000E+00  0.00000000000E+00  0.13035594033E+04  0.13035594034E+04  0.25500000000E-02 0.  1.
          2   -1    0    0  501    0  0.00000000000E+00 -0.00000000000E+00 -0.23126007527E+04  0.23126007527E+04  0.25500000000E-02 0. -1.
    8880023    1    1    2    0    0 -0.15223838774E+04 -0.57910907005E+03 -0.13697449682E+03  0.17622690499E+04  0.65864270000E+03 0.  0.
    8880022    1    1    2    0    0  0.15223838774E+04  0.57910907005E+03 -0.87206685256E+03  0.18538911062E+04  0.15294330000E+03 0.  0.
<mgrwt>
<rscale>  0 0.17258832E+04</rscale>
<asrwt>0</asrwt>
<pdfrwt beam="1">  1        2 0.35578473E+00 0.17569377E+04</pdfrwt>
<pdfrwt beam="2">  1       -2 0.20054760E+00 0.17569377E+04</pdfrwt>
<totfact> 0.53867609E-01</totfact>
</mgrwt>
</event>
<event>
 4    5  0.6615028E-008  0.9679266E+03  0.7818608E-02  0.9424778E-01
         -2   -1    0    0    0  501 -0.00000000000E+00  0.00000000000E+00  0.40408485332E+03  0.40408485333E+03  0.25500000000E-02 0.  1.
          2   -1    0    0  501    0  0.00000000000E+00 -0.00000000000E+00 -0.23257228124E+04  0.23257228124E+04  0.25500000000E-02 0. -1.
    8880023    1    1    2    0    0  0.70588744137E+03 -0.69243261068E+02 -0.17250830120E+04  0.19780781869E+04  0.65864270000E+03 0. -1.
    8880022    1    1    2    0    0 -0.70588744137E+03  0.69243261068E+02 -0.19655494711E+03  0.75172947882E+03  0.15294330000E+03 0.  0.
<mgrwt>
<rscale>  0 0.90064334E+03</rscale>
<asrwt>0</asrwt>
<pdfrwt beam="1">  1        2 0.35780350E+00 0.96792661E+03</pdfrwt>
<pdfrwt beam="2">  1       -2 0.62166902E-01 0.96792661E+03</pdfrwt>
<totfact> 0.10658873E+01</totfact>
</mgrwt>
</event>
<event>
 4    5  0.6615028E-008  0.6912551E+03  0.7818608E-02  0.1003562E+00
         -2   -1    0    0    0  501 -0.00000000000E+00  0.00000000000E+00  0.58060198142E+03  0.58060198143E+03  0.25500000000E-02 0.  1.
          2   -1    0    0  501    0  0.00000000000E+00 -0.00000000000E+00 -0.12242973400E+04  0.12242973400E+04  0.25500000000E-02 0. -1.
    8880023    1    1    2    0    0  0.67659352363E+02  0.19860914057E+03 -0.10887431786E+04  0.12896492910E+04  0.65864270000E+03 0. -1.
    8880022    1    1    2    0    0 -0.67659352363E+02 -0.19860914057E+03  0.44504782003E+03  0.51525003038E+03  0.15294330000E+03 0.  0.
<mgrwt>
<rscale>  0 0.54115708E+03</rscale>
<asrwt>0</asrwt>
<pdfrwt beam="1">  1        2 0.18835344E+00 0.69125508E+03</pdfrwt>
<pdfrwt beam="2">  1       -2 0.89323382E-01 0.69125508E+03</pdfrwt>
<totfact> 0.20222243E+01</totfact>
</mgrwt>
</event>
<event>
 4    5  0.6615028E-008  0.7966364E+03  0.7818608E-02  0.9718117E-01
         -2   -1    0    0    0  501 -0.00000000000E+00  0.00000000000E+00  0.81249000412E+03  0.81249000412E+03  0.25500000000E-02 0.  1.
          2   -1    0    0  501    0  0.00000000000E+00 -0.00000000000E+00 -0.72016418439E+03  0.72016418440E+03  0.25500000000E-02 0. -1.
    8880023    1    1    2    0    0  0.41498133003E+03 -0.16914452201E+03 -0.36327149737E+03  0.87555454466E+03  0.65864270000E+03 0.  0.
    8880022    1    1    2    0    0 -0.41498133003E+03  0.16914452201E+03  0.45559731710E+03  0.65709964386E+03  0.15294330000E+03 0.  0.
<mgrwt>
<rscale>  0 0.69948312E+03</rscale>
<asrwt>0</asrwt>
<pdfrwt beam="1">  1        2 0.11079449E+00 0.79663642E+03</pdfrwt>
<pdfrwt beam="2">  1       -2 0.12499846E+00 0.79663642E+03</pdfrwt>
<totfact> 0.19132559E+01</totfact>
</mgrwt>
</event>
<event>
 4    5  0.6615028E-008  0.6719969E+03  0.7818608E-02  0.1014270E+00
         -2   -1    0    0    0  501 -0.00000000000E+00  0.00000000000E+00  0.48633712763E+03  0.48633712764E+03  0.25500000000E-02 0.  1.
          2   -1    0    0  501    0  0.00000000000E+00 -0.00000000000E+00 -0.45375638755E+03  0.45375638756E+03  0.25500000000E-02 0. -1.
    8880023    1    1    2    0    0  0.13324685011E+03 -0.38525221312E+01 -0.12459633403E+03  0.68345008428E+03  0.65864270000E+03 0.  0.
    8880022    1    1    2    0    0 -0.13324685011E+03  0.38525221312E+01  0.15717707411E+03  0.25664343092E+03  0.15294330000E+03 0.  0.
<mgrwt>
<rscale>  0 0.49812284E+03</rscale>
<asrwt>0</asrwt>
<pdfrwt beam="1">  1        2 0.69808675E-01 0.67199685E+03</pdfrwt>
<pdfrwt beam="2">  1       -2 0.74821097E-01 0.67199685E+03</pdfrwt>
<totfact> 0.11221555E+02</totfact>
</mgrwt>
</event>
<event>
 4    5  0.6615028E-008  0.1097186E+04  0.7818608E-02  0.9264196E-01
         -2   -1    0    0    0  501 -0.00000000000E+00  0.00000000000E+00  0.12900613404E+04  0.12900613404E+04  0.25500000000E-02 0.  1.
          2   -1    0    0  501    0  0.00000000000E+00 -0.00000000000E+00 -0.19760365756E+04  0.19760365756E+04  0.25500000000E-02 0. -1.
    8880023    1    1    2    0    0  0.19539666193E+03  0.85546862463E+03 -0.16321273317E+04  0.19666357711E+04  0.65864270000E+03 0.  0.
    8880022    1    1    2    0    0 -0.19539666193E+03 -0.85546862463E+03  0.94615209647E+03  0.12994621449E+04  0.15294330000E+03 0.  0.
<mgrwt>
<rscale>  0 0.10414694E+04</rscale>
<asrwt>0</asrwt>
<pdfrwt beam="1">  1        2 0.30400563E+00 0.10971858E+04</pdfrwt>
<pdfrwt beam="2">  1       -2 0.19847097E+00 0.10971858E+04</pdfrwt>
<totfact> 0.92313705E-01</totfact>
</mgrwt>
</event>
<event>
 4    5  0.6615028E-008  0.6982147E+03  0.7818608E-02  0.1000469E+00
         -2   -1    0    0    0  501 -0.00000000000E+00  0.00000000000E+00  0.61230777361E+03  0.61230777361E+03  0.25500000000E-02 0.  1.
          2   -1    0    0  501    0  0.00000000000E+00 -0.00000000000E+00 -0.11609999487E+04  0.11609999487E+04  0.25500000000E-02 0. -1.
    8880023    1    1    2    0    0  0.22575293874E+03 -0.52240820162E+02 -0.10141929841E+04  0.12312965150E+04  0.65864270000E+03 0. -1.
    8880022    1    1    2    0    0 -0.22575293874E+03  0.52240820162E+02  0.46550080900E+03  0.54201120730E+03  0.15294330000E+03 0.  0.
<mgrwt>
<rscale>  0 0.55445085E+03</rscale>
<asrwt>0</asrwt>
<pdfrwt beam="1">  1        2 0.17861538E+00 0.69821465E+03</pdfrwt>
<pdfrwt beam="2">  1       -2 0.94201196E-01 0.69821465E+03</pdfrwt>
<totfact> 0.19473962E+01</totfact>
</mgrwt>
</event>
<event>
 4    5  0.6615028E-008  0.8114488E+03  0.7818608E-02  0.9686567E-01
          2   -1    0    0  501    0  0.00000000000E+00  0.00000000000E+00  0.14251550884E+04  0.14251550884E+04  0.25500000000E-02 0. -1.
         -2   -1    0    0    0  501 -0.00000000000E+00 -0.00000000000E+00 -0.67937304353E+03  0.67937304354E+03  0.25500000000E-02 0.  1.
    8880023    1    1    2    0    0  0.18970694287E+03  0.43433890038E+03  0.11878838561E+04  0.14385816857E+04  0.65864270000E+03 0. -1.
    8880022    1    1    2    0    0 -0.18970694287E+03 -0.43433890038E+03 -0.44210181133E+03  0.66594644616E+03  0.15294330000E+03 0.  0.
<mgrwt>
<rscale>  0 0.71822253E+03</rscale>
<asrwt>0</asrwt>
<pdfrwt beam="1">  1        2 0.21925462E+00 0.81144883E+03</pdfrwt>
<pdfrwt beam="2">  1       -2 0.10451893E+00 0.81144883E+03</pdfrwt>
<totfact> 0.10564359E+01</totfact>
</mgrwt>
</event>
<event>
 4    5  0.6615028E-008  0.9821897E+03  0.7818608E-02  0.9405239E-01
          2   -1    0    0  501    0  0.00000000000E+00  0.00000000000E+00  0.26102142494E+04  0.26102142494E+04  0.25500000000E-02 0. -1.
         -2   -1    0    0    0  501 -0.00000000000E+00 -0.00000000000E+00 -0.97250964371E+03  0.97250964371E+03  0.25500000000E-02 0.  1.
    8880023    1    1    2    0    0  0.50719335028E+02  0.72685205233E+03  0.23533227128E+04  0.25500635980E+04  0.65864270000E+03 0.  0.
    8880022    1    1    2    0    0 -0.50719335028E+02 -0.72685205233E+03 -0.71561810710E+03  0.10326602951E+04  0.15294330000E+03 0.  0.
<mgrwt>
<rscale>  0 0.91645782E+03</rscale>
<asrwt>0</asrwt>
<pdfrwt beam="1">  1        2 0.40157142E+00 0.98218968E+03</pdfrwt>
<pdfrwt beam="2">  1       -2 0.14961687E+00 0.98218968E+03</pdfrwt>
<totfact> 0.91527981E-01</totfact>
</mgrwt>
</event>
<event>
 4    5  0.6615028E-008  0.9193329E+03  0.7818608E-02  0.9495683E-01
         -2   -1    0    0    0  501 -0.00000000000E+00  0.00000000000E+00  0.56077524203E+03  0.56077524204E+03  0.25500000000E-02 0.  1.
          2   -1    0    0  501    0  0.00000000000E+00 -0.00000000000E+00 -0.18351908667E+04  0.18351908667E+04  0.25500000000E-02 0. -1.
    8880023    1    1    2    0    0  0.45488603288E+03 -0.45215195470E+03 -0.14470443783E+04  0.17143833679E+04  0.65864270000E+03 0. -1.
    8880022    1    1    2    0    0 -0.45488603288E+03  0.45215195470E+03  0.17262875362E+03  0.68158274086E+03  0.15294330000E+03 0.  0.
<mgrwt>
<rscale>  0 0.84602866E+03</rscale>
<asrwt>0</asrwt>
<pdfrwt beam="1">  1        2 0.28233705E+00 0.91933286E+03</pdfrwt>
<pdfrwt beam="2">  1       -2 0.86273115E-01 0.91933286E+03</pdfrwt>
<totfact> 0.96925283E+00</totfact>
</mgrwt>
</event>
<event>
 4    5  0.6615028E-008  0.7991349E+03  0.7818608E-02  0.9712670E-01
         -2   -1    0    0    0  501 -0.00000000000E+00  0.00000000000E+00  0.82188026450E+03  0.82188026451E+03  0.25500000000E-02 0.  1.
          2   -1    0    0  501    0  0.00000000000E+00 -0.00000000000E+00 -0.83829711667E+03  0.83829711667E+03  0.25500000000E-02 0. -1.
    8880023    1    1    2    0    0  0.27953307865E+03  0.35590390932E+03 -0.52989143419E+03  0.95885425014E+03  0.65864270000E+03 0. -1.
    8880022    1    1    2    0    0 -0.27953307865E+03 -0.35590390932E+03  0.51347458202E+03  0.70132313104E+03  0.15294330000E+03 0.  0.
<mgrwt>
<rscale>  0 0.70267425E+03</rscale>
<asrwt>0</asrwt>
<pdfrwt beam="1">  1        2 0.12896879E+00 0.79913487E+03</pdfrwt>
<pdfrwt beam="2">  1       -2 0.12644312E+00 0.79913487E+03</pdfrwt>
<totfact> 0.15221936E+01</totfact>
</mgrwt>
</event>
<event>
 4    5  0.6615028E-008  0.1359474E+04  0.7818608E-02  0.9015830E-01
          2   -1    0    0  501    0  0.00000000000E+00  0.00000000000E+00  0.12839644888E+04  0.12839644888E+04  0.25500000000E-02 0. -1.
         -2   -1    0    0    0  501 -0.00000000000E+00 -0.00000000000E+00 -0.16196489623E+04  0.16196489623E+04  0.25500000000E-02 0.  1.
    8880023    1    1    2    0    0 -0.11650475208E+04  0.23879683285E+03  0.49294811130E+03  0.14460870305E+04  0.65864270000E+03 0. -1.
    8880022    1    1    2    0    0  0.11650475208E+04 -0.23879683285E+03 -0.82863258475E+03  0.14575264206E+04  0.15294330000E+03 0.  0.
<mgrwt>
<rscale>  0 0.13174638E+04</rscale>
<asrwt>0</asrwt>
<pdfrwt beam="1">  1        2 0.19753300E+00 0.13594741E+04</pdfrwt>
<pdfrwt beam="2">  1       -2 0.24917676E+00 0.13594741E+04</pdfrwt>
<totfact> 0.10496298E+00</totfact>
</mgrwt>
</event>
<event>
 4    5  0.6615028E-008  0.6890204E+03  0.7818608E-02  0.1004622E+00
          2   -1    0    0  501    0  0.00000000000E+00  0.00000000000E+00  0.19150866740E+04  0.19150866740E+04  0.25500000000E-02 0. -1.
         -2   -1    0    0    0  501 -0.00000000000E+00 -0.00000000000E+00 -0.36141477089E+03  0.36141477090E+03  0.25500000000E-02 0.  1.
    8880023    1    1    2    0    0 -0.20128736615E+03  0.20550612962E+02  0.17972786107E+04  0.19248271461E+04  0.65864270000E+03 0.  0.
    8880022    1    1    2    0    0  0.20128736615E+03 -0.20550612962E+02 -0.24360670760E+03  0.35167429884E+03  0.15294330000E+03 0.  0.
<mgrwt>
<rscale>  0 0.53669340E+03</rscale>
<asrwt>0</asrwt>
<pdfrwt beam="1">  1        2 0.29462873E+00 0.68902042E+03</pdfrwt>
<pdfrwt beam="2">  1       -2 0.55602271E-01 0.68902042E+03</pdfrwt>
<totfact> 0.23553943E+01</totfact>
</mgrwt>
</event>
<event>
 4    5  0.6615028E-008  0.1131167E+04  0.7818608E-02  0.9227124E-01
         -2   -1    0    0    0  501 -0.00000000000E+00  0.00000000000E+00  0.20708168543E+04  0.20708168543E+04  0.25500000000E-02 0.  1.
          2   -1    0    0  501    0  0.00000000000E+00 -0.00000000000E+00 -0.66147516294E+03  0.66147516295E+03  0.25500000000E-02 0. -1.
    8880023    1    1    2    0    0  0.67421097934E+03  0.62543463139E+03  0.14001391759E+04  0.17999802335E+04  0.65864270000E+03 0.  0.
    8880022    1    1    2    0    0 -0.67421097934E+03 -0.62543463139E+03  0.92025154540E+01  0.93231178374E+03  0.15294330000E+03 0.  0.
<mgrwt>
<rscale>  0 0.10777799E+04</rscale>
<asrwt>0</asrwt>
<pdfrwt beam="1">  1        2 0.10176541E+00 0.11311672E+04</pdfrwt>
<pdfrwt beam="2">  1       -2 0.31858721E+00 0.11311672E+04</pdfrwt>
<totfact> 0.10664534E+00</totfact>
</mgrwt>
</event>
<event>
 4    5  0.6615028E-008  0.6847452E+03  0.7818608E-02  0.1006757E+00
         -2   -1    0    0    0  501 -0.00000000000E+00  0.00000000000E+00  0.32590158745E+03  0.32590158746E+03  0.25500000000E-02 0.  1.
          2   -1    0    0  501    0  0.00000000000E+00 -0.00000000000E+00 -0.99369366059E+03  0.99369366060E+03  0.25500000000E-02 0. -1.
    8880023    1    1    2    0    0 -0.18043419802E+03 -0.50093357903E+02 -0.79266694682E+03  0.10474716890E+04  0.65864270000E+03 0.  0.
    8880022    1    1    2    0    0  0.18043419802E+03  0.50093357903E+02  0.12487487368E+03  0.27212355909E+03  0.15294330000E+03 0.  0.
<mgrwt>
<rscale>  0 0.52783939E+03</rscale>
<asrwt>0</asrwt>
<pdfrwt beam="1">  1        2 0.15287595E+00 0.68474525E+03</pdfrwt>
<pdfrwt beam="2">  1       -2 0.50138706E-01 0.68474525E+03</pdfrwt>
<totfact> 0.97463482E+01</totfact>
</mgrwt>
</event>
<event>
 4    5  0.6615028E-008  0.9955742E+03  0.7818608E-02  0.9387371E-01
         -2   -1    0    0    0  501 -0.00000000000E+00  0.00000000000E+00  0.76195137068E+03  0.76195137069E+03  0.25500000000E-02 0.  1.
          2   -1    0    0  501    0  0.00000000000E+00 -0.00000000000E+00 -0.20421502780E+04  0.20421502780E+04  0.25500000000E-02 0. -1.
    8880023    1    1    2    0    0 -0.56468206412E+03 -0.48835629244E+03 -0.16729533890E+04  0.19467770673E+04  0.65864270000E+03 0. -1.
    8880022    1    1    2    0    0  0.56468206412E+03  0.48835629244E+03  0.39275448167E+03  0.85732458135E+03  0.15294330000E+03 0.  0.
<mgrwt>
<rscale>  0 0.93122324E+03</rscale>
<asrwt>0</asrwt>
<pdfrwt beam="1">  1        2 0.31417696E+00 0.99557416E+03</pdfrwt>
<pdfrwt beam="2">  1       -2 0.11722329E+00 0.99557416E+03</pdfrwt>
<totfact> 0.35625464E+00</totfact>
</mgrwt>
</event>
<event>
 4    5  0.6615028E-008  0.1092098E+04  0.7818608E-02  0.9269906E-01
         -2   -1    0    0    0  501 -0.00000000000E+00  0.00000000000E+00  0.91947885450E+03  0.91947885451E+03  0.25500000000E-02 0.  1.
          2   -1    0    0  501    0  0.00000000000E+00 -0.00000000000E+00 -0.29167671042E+04  0.29167671042E+04  0.25500000000E-02 0. -1.
    8880023    1    1    2    0    0 -0.82422241698E+03  0.28200105994E+03 -0.25632559944E+04  0.27862086586E+04  0.65864270000E+03 0.  0.
    8880022    1    1    2    0    0  0.82422241698E+03 -0.28200105994E+03  0.56596774470E+03  0.10500373001E+04  0.15294330000E+03 0.  0.
<mgrwt>
<rscale>  0 0.10360123E+04</rscale>
<asrwt>0</asrwt>
<pdfrwt beam="1">  1        2 0.44873340E+00 0.10920977E+04</pdfrwt>
<pdfrwt beam="2">  1       -2 0.14145829E+00 0.10920977E+04</pdfrwt>
<totfact> 0.68578944E-01</totfact>
</mgrwt>
</event>
<event>
 4    5  0.6615028E-008  0.7260131E+03  0.7818608E-02  0.9902741E-01
         -2   -1    0    0    0  501 -0.00000000000E+00  0.00000000000E+00  0.28089394976E+03  0.28089394977E+03  0.25500000000E-02 0.  1.
          2   -1    0    0  501    0  0.00000000000E+00 -0.00000000000E+00 -0.13041802511E+04  0.13041802511E+04  0.25500000000E-02 0. -1.
    8880023    1    1    2    0    0 -0.24732131140E+03 -0.17921219855E+03 -0.10091883286E+04  0.12432039784E+04  0.65864270000E+03 0. -1.
    8880022    1    1    2    0    0  0.24732131140E+03  0.17921219855E+03 -0.14097972827E+02  0.34187022250E+03  0.15294330000E+03 0.  0.
<mgrwt>
<rscale>  0 0.60128625E+03</rscale>
<asrwt>0</asrwt>
<pdfrwt beam="1">  1        2 0.20064311E+00 0.72601312E+03</pdfrwt>
<pdfrwt beam="2">  1       -2 0.43214455E-01 0.72601312E+03</pdfrwt>
<totfact> 0.85057686E+01</totfact>
</mgrwt>
</event>
<event>
 4    5  0.6615028E-008  0.7729385E+03  0.7818608E-02  0.9772694E-01
         -2   -1    0    0    0  501 -0.00000000000E+00  0.00000000000E+00  0.44525321979E+03  0.44525321980E+03  0.25500000000E-02 0.  1.
          2   -1    0    0  501    0  0.00000000000E+00 -0.00000000000E+00 -0.27711089840E+04  0.27711089840E+04  0.25500000000E-02 0. -1.
    8880023    1    1    2    0    0 -0.25812329079E+03  0.31144199773E+03 -0.25945487298E+04  0.27072342101E+04  0.65864270000E+03 0. -1.
    8880022    1    1    2    0    0  0.25812329079E+03 -0.31144199773E+03  0.26869296553E+03  0.50912799367E+03  0.15294330000E+03 0.  0.
<mgrwt>
<rscale>  0 0.66848765E+03</rscale>
<asrwt>0</asrwt>
<pdfrwt beam="1">  1        2 0.42632445E+00 0.77293852E+03</pdfrwt>
<pdfrwt beam="2">  1       -2 0.68500497E-01 0.77293852E+03</pdfrwt>
<totfact> 0.49444195E+00</totfact>
</mgrwt>
</event>
<event>
 4    5  0.6615028E-008  0.7475643E+03  0.7818608E-02  0.9838437E-01
          2   -1    0    0  501    0  0.00000000000E+00  0.00000000000E+00  0.38368170278E+04  0.38368170278E+04  0.25500000000E-02 0. -1.
         -2   -1    0    0    0  501 -0.00000000000E+00 -0.00000000000E+00 -0.39883942550E+03  0.39883942551E+03  0.25500000000E-02 0.  1.
    8880023    1    1    2    0    0  0.30665929971E+03  0.17607442522E+03  0.36967292351E+04  0.37715592761E+04  0.65864270000E+03 0. -1.
    8880022    1    1    2    0    0 -0.30665929971E+03 -0.17607442522E+03 -0.25875163285E+03  0.46409717714E+03  0.15294330000E+03 0.  0.
<mgrwt>
<rscale>  0 0.63339991E+03</rscale>
<asrwt>0</asrwt>
<pdfrwt beam="1">  1        2 0.59027953E+00 0.74756427E+03</pdfrwt>
<pdfrwt beam="2">  1       -2 0.61359913E-01 0.74756427E+03</pdfrwt>
<totfact> 0.12554222E+00</totfact>
</mgrwt>
</event>
<event>
 4    5  0.6615028E-008  0.8195830E+03  0.7818608E-02  0.9669951E-01
          2   -1    0    0  501    0  0.00000000000E+00  0.00000000000E+00  0.10588657719E+04  0.10588657719E+04  0.25500000000E-02 0. -1.
         -2   -1    0    0    0  501 -0.00000000000E+00 -0.00000000000E+00 -0.16105188784E+04  0.16105188784E+04  0.25500000000E-02 0.  1.
    8880023    1    1    2    0    0 -0.41812860624E+03  0.25114659520E+03  0.84798681840E+03  0.11793209886E+04  0.65864270000E+03 0. -1.
    8880022    1    1    2    0    0  0.41812860624E+03 -0.25114659520E+03 -0.13996399249E+04  0.14900636618E+04  0.15294330000E+03 0.  0.
<mgrwt>
<rscale>  0 0.72834424E+03</rscale>
<asrwt>0</asrwt>
<pdfrwt beam="1">  1        2 0.16290243E+00 0.81958303E+03</pdfrwt>
<pdfrwt beam="2">  1       -2 0.24777214E+00 0.81958303E+03</pdfrwt>
<totfact> 0.15671770E+00</totfact>
</mgrwt>
</event>
<event>
 4    5  0.6615028E-008  0.1421123E+04  0.7818608E-02  0.8967441E-01
          2   -1    0    0  501    0  0.00000000000E+00  0.00000000000E+00  0.37573633544E+04  0.37573633544E+04  0.25500000000E-02 0. -1.
         -2   -1    0    0    0  501 -0.00000000000E+00 -0.00000000000E+00 -0.84386223133E+03  0.84386223134E+03  0.25500000000E-02 0.  1.
    8880023    1    1    2    0    0 -0.12026769560E+04 -0.37329231466E+03  0.30104211523E+04  0.33289975568E+04  0.65864270000E+03 0.  0.
    8880022    1    1    2    0    0  0.12026769560E+04  0.37329231466E+03 -0.96920029203E+02  0.12722280290E+04  0.15294330000E+03 0.  0.
<mgrwt>
<rscale>  0 0.13813346E+04</rscale>
<asrwt>0</asrwt>
<pdfrwt beam="1">  1        2 0.57805590E+00 0.14211225E+04</pdfrwt>
<pdfrwt beam="2">  1       -2 0.12982496E+00 0.14211225E+04</pdfrwt>
<totfact> 0.22367110E-01</totfact>
</mgrwt>
</event>
<event>
 4    5  0.6615028E-008  0.7408498E+03  0.7818608E-02  0.9857479E-01
         -2   -1    0    0    0  501 -0.00000000000E+00  0.00000000000E+00  0.32886855103E+03  0.32886855104E+03  0.25500000000E-02 0.  1.
          2   -1    0    0  501    0  0.00000000000E+00 -0.00000000000E+00 -0.18485831080E+04  0.18485831080E+04  0.25500000000E-02 0. -1.
    8880023    1    1    2    0    0 -0.21937904820E+03  0.25869100800E+03 -0.16290890141E+04  0.17896338806E+04  0.65864270000E+03 0. -1.
    8880022    1    1    2    0    0  0.21937904820E+03 -0.25869100800E+03  0.10937445712E+03  0.38781777847E+03  0.15294330000E+03 0.  0.
<mgrwt>
<rscale>  0 0.62367059E+03</rscale>
<asrwt>0</asrwt>
<pdfrwt beam="1">  1        2 0.28439740E+00 0.74084979E+03</pdfrwt>
<pdfrwt beam="2">  1       -2 0.50595163E-01 0.74084979E+03</pdfrwt>
<totfact> 0.30871085E+01</totfact>
</mgrwt>
</event>
<event>
 4    5  0.6615028E-008  0.1685839E+04  0.7818608E-02  0.8788462E-01
         -2   -1    0    0    0  501 -0.00000000000E+00  0.00000000000E+00  0.20187051469E+04  0.20187051469E+04  0.25500000000E-02 0.  1.
          2   -1    0    0  501    0  0.00000000000E+00 -0.00000000000E+00 -0.13992587997E+04  0.13992587997E+04  0.25500000000E-02 0. -1.
    8880023    1    1    2    0    0 -0.13568265642E+03  0.15459089649E+04  0.76603392267E+03  0.18517187929E+04  0.65864270000E+03 0.  0.
    8880022    1    1    2    0    0  0.13568265642E+03 -0.15459089649E+04 -0.14658757539E+03  0.15662451537E+04  0.15294330000E+03 0.  0.
<mgrwt>
<rscale>  0 0.16532916E+04</rscale>
<asrwt>0</asrwt>
<pdfrwt beam="1">  1        2 0.21527058E+00 0.16858394E+04</pdfrwt>
<pdfrwt beam="2">  1       -2 0.31057002E+00 0.16858394E+04</pdfrwt>
<totfact> 0.36671450E-01</totfact>
</mgrwt>
</event>
<event>
 4    5  0.6615028E-008  0.1056790E+04  0.7818608E-02  0.9310763E-01
         -2   -1    0    0    0  501 -0.00000000000E+00  0.00000000000E+00  0.73177800385E+03  0.73177800386E+03  0.25500000000E-02 0.  1.
          2   -1    0    0  501    0  0.00000000000E+00 -0.00000000000E+00 -0.15899148201E+04  0.15899148201E+04  0.25500000000E-02 0. -1.
    8880023    1    1    2    0    0 -0.82263908598E+03 -0.79125714330E+02 -0.10166367266E+04  0.14664093510E+04  0.65864270000E+03 0.  0.
    8880022    1    1    2    0    0  0.82263908598E+03  0.79125714330E+02  0.15849991043E+03  0.85528347293E+03  0.15294330000E+03 0.  0.
<mgrwt>
<rscale>  0 0.99798050E+03</rscale>
<asrwt>0</asrwt>
<pdfrwt beam="1">  1        2 0.24460228E+00 0.10567905E+04</pdfrwt>
<pdfrwt beam="2">  1       -2 0.11258123E+00 0.10567905E+04</pdfrwt>
<totfact> 0.69410227E+00</totfact>
</mgrwt>
</event>
<event>
 4    5  0.6615028E-008  0.8974338E+03  0.7818608E-02  0.9530164E-01
          2   -1    0    0  501    0  0.00000000000E+00  0.00000000000E+00  0.30146168277E+04  0.30146168277E+04  0.25500000000E-02 0. -1.
         -2   -1    0    0    0  501 -0.00000000000E+00 -0.00000000000E+00 -0.47528257115E+03  0.47528257115E+03  0.25500000000E-02 0.  1.
    8880023    1    1    2    0    0  0.52352205668E+03  0.31225296468E+03  0.26966356882E+04  0.28420470614E+04  0.65864270000E+03 0.  0.
    8880022    1    1    2    0    0 -0.52352205668E+03 -0.31225296468E+03 -0.15730143165E+03  0.64785233750E+03  0.15294330000E+03 0.  0.
<mgrwt>
<rscale>  0 0.82096036E+03</rscale>
<asrwt>0</asrwt>
<pdfrwt beam="1">  1        2 0.46378721E+00 0.89743382E+03</pdfrwt>
<pdfrwt beam="2">  1       -2 0.73120395E-01 0.89743382E+03</pdfrwt>
<totfact> 0.29914195E+00</totfact>
</mgrwt>
</event>
<event>
 4    5  0.6615028E-008  0.7669602E+03  0.7818608E-02  0.9787411E-01
         -2   -1    0    0    0  501 -0.00000000000E+00  0.00000000000E+00  0.81624555862E+03  0.81624555862E+03  0.25500000000E-02 0.  1.
          2   -1    0    0  501    0  0.00000000000E+00 -0.00000000000E+00 -0.12401572471E+04  0.12401572471E+04  0.25500000000E-02 0. -1.
    8880023    1    1    2    0    0  0.37172878622E+03 -0.12741820103E+03 -0.10507785234E+04  0.13009086824E+04  0.65864270000E+03 0. -1.
    8880022    1    1    2    0    0 -0.37172878622E+03  0.12741820103E+03  0.62686683498E+03  0.75549412326E+03  0.15294330000E+03 0.  0.
<mgrwt>
<rscale>  0 0.66042564E+03</rscale>
<asrwt>0</asrwt>
<pdfrwt beam="1">  1        2 0.19079342E+00 0.76696017E+03</pdfrwt>
<pdfrwt beam="2">  1       -2 0.12557624E+00 0.76696017E+03</pdfrwt>
<totfact> 0.86530343E+00</totfact>
</mgrwt>
</event>
<event>
 4    5  0.6615028E-008  0.1202527E+04  0.7818608E-02  0.9154670E-01
          2   -1    0    0  501    0  0.00000000000E+00  0.00000000000E+00  0.20318498991E+04  0.20318498991E+04  0.25500000000E-02 0. -1.
         -2   -1    0    0    0  501 -0.00000000000E+00 -0.00000000000E+00 -0.92577594746E+03  0.92577594747E+03  0.25500000000E-02 0.  1.
    8880023    1    1    2    0    0  0.10050398333E+04  0.46429369444E+02  0.14496750569E+04  0.18835149932E+04  0.65864270000E+03 0.  0.
    8880022    1    1    2    0    0 -0.10050398333E+04 -0.46429369444E+02 -0.34360110524E+03  0.10741108534E+04  0.15294330000E+03 0.  0.
<mgrwt>
<rscale>  0 0.11533812E+04</rscale>
<asrwt>0</asrwt>
<pdfrwt beam="1">  1        2 0.31259229E+00 0.12025269E+04</pdfrwt>
<pdfrwt beam="2">  1       -2 0.14242707E+00 0.12025269E+04</pdfrwt>
<totfact> 0.21451232E+00</totfact>
</mgrwt>
</event>
<event>
 4    5  0.6615028E-008  0.1118638E+04  0.7818608E-02  0.9240583E-01
         -2   -1    0    0    0  501 -0.00000000000E+00  0.00000000000E+00  0.17854195582E+04  0.17854195582E+04  0.25500000000E-02 0.  1.
          2   -1    0    0  501    0  0.00000000000E+00 -0.00000000000E+00 -0.19568258021E+04  0.19568258021E+04  0.25500000000E-02 0. -1.
    8880023    1    1    2    0    0  0.90184486544E+03 -0.64941904914E+02 -0.16553122112E+04  0.19978514297E+04  0.65864270000E+03 0.  0.
    8880022    1    1    2    0    0 -0.90184486544E+03  0.64941904914E+02  0.14839059673E+04  0.17443939306E+04  0.15294330000E+03 0.  0.
<mgrwt>
<rscale>  0 0.10644187E+04</rscale>
<asrwt>0</asrwt>
<pdfrwt beam="1">  1        2 0.30105013E+00 0.11186384E+04</pdfrwt>
<pdfrwt beam="2">  1       -2 0.27467993E+00 0.11186384E+04</pdfrwt>
<totfact> 0.31610958E-01</totfact>
</mgrwt>
</event>
<event>
 4    5  0.6615028E-008  0.7863761E+03  0.7818608E-02  0.9741067E-01
         -2   -1    0    0    0  501 -0.00000000000E+00  0.00000000000E+00  0.26536533832E+03  0.26536533833E+03  0.25500000000E-02 0.  1.
          2   -1    0    0  501    0  0.00000000000E+00 -0.00000000000E+00 -0.19567440034E+04  0.19567440034E+04  0.25500000000E-02 0. -1.
    8880023    1    1    2    0    0  0.42897564707E+03  0.23601390321E+02 -0.15608628877E+04  0.17477643696E+04  0.65864270000E+03 0.  0.
    8880022    1    1    2    0    0 -0.42897564707E+03 -0.23601390321E+02 -0.13051577744E+03  0.47434497212E+03  0.15294330000E+03 0.  0.
<mgrwt>
<rscale>  0 0.68623441E+03</rscale>
<asrwt>0</asrwt>
<pdfrwt beam="1">  1        2 0.30103753E+00 0.78637608E+03</pdfrwt>
<pdfrwt beam="2">  1       -2 0.40825438E-01 0.78637608E+03</pdfrwt>
<totfact> 0.41153942E+01</totfact>
</mgrwt>
</event>
<event>
 4    5  0.6615028E-008  0.6678673E+03  0.7818608E-02  0.1017240E+00
          2   -1    0    0  501    0  0.00000000000E+00  0.00000000000E+00  0.15577952692E+04  0.15577952692E+04  0.25500000000E-02 0. -1.
         -2   -1    0    0    0  501 -0.00000000000E+00 -0.00000000000E+00 -0.93668854950E+03  0.93668854950E+03  0.25500000000E-02 0.  1.
    8880023    1    1    2    0    0 -0.88451492919E+02 -0.66428951747E+02  0.14754341747E+04  0.16195532354E+04  0.65864270000E+03 0. -1.
    8880022    1    1    2    0    0  0.88451492919E+02  0.66428951747E+02 -0.85432745498E+03  0.87493058329E+03  0.15294330000E+03 0.  0.
<mgrwt>
<rscale>  0 0.48695826E+03</rscale>
<asrwt>0</asrwt>
<pdfrwt beam="1">  1        2 0.23966081E+00 0.66786726E+03</pdfrwt>
<pdfrwt beam="2">  1       -2 0.14410593E+00 0.66786726E+03</pdfrwt>
<totfact> 0.40852018E+00</totfact>
</mgrwt>
</event>
<event>
 4    5  0.6615028E-008  0.7313616E+03  0.7818608E-02  0.9885864E-01
         -2   -1    0    0    0  501 -0.00000000000E+00  0.00000000000E+00  0.21789432113E+03  0.21789432114E+03  0.25500000000E-02 0.  1.
          2   -1    0    0  501    0  0.00000000000E+00 -0.00000000000E+00 -0.15423974125E+04  0.15423974125E+04  0.25500000000E-02 0. -1.
    8880023    1    1    2    0    0 -0.76117935897E+02 -0.30868382989E+03 -0.11593144766E+04  0.13707296995E+04  0.65864270000E+03 0. -1.
    8880022    1    1    2    0    0  0.76117935897E+02  0.30868382989E+03 -0.16518861470E+03  0.38956203414E+03  0.15294330000E+03 0.  0.
<mgrwt>
<rscale>  0 0.60951274E+03</rscale>
<asrwt>0</asrwt>
<pdfrwt beam="1">  1        2 0.23729190E+00 0.73136164E+03</pdfrwt>
<pdfrwt beam="2">  1       -2 0.33522204E-01 0.73136164E+03</pdfrwt>
<totfact> 0.10196867E+02</totfact>
</mgrwt>
</event>
<event>
 4    5  0.6615028E-008  0.1082304E+04  0.7818608E-02  0.9281019E-01
          2   -1    0    0  501    0  0.00000000000E+00  0.00000000000E+00  0.17719856091E+04  0.17719856091E+04  0.25500000000E-02 0. -1.
         -2   -1    0    0    0  501 -0.00000000000E+00 -0.00000000000E+00 -0.81906131825E+03  0.81906131825E+03  0.25500000000E-02 0.  1.
    8880023    1    1    2    0    0 -0.43181201106E+03  0.74236734135E+03  0.12647801776E+04  0.16646471057E+04  0.65864270000E+03 0.  0.
    8880022    1    1    2    0    0  0.43181201106E+03 -0.74236734135E+03 -0.31185588681E+03  0.92639982165E+03  0.15294330000E+03 0.  0.
<mgrwt>
<rscale>  0 0.10254919E+04</rscale>
<asrwt>0</asrwt>
<pdfrwt beam="1">  1        2 0.27261317E+00 0.10823036E+04</pdfrwt>
<pdfrwt beam="2">  1       -2 0.12600943E+00 0.10823036E+04</pdfrwt>
<totfact> 0.41461911E+00</totfact>
</mgrwt>
</event>
<event>
 4    5  0.6615028E-008  0.1482398E+04  0.7818608E-02  0.8922166E-01
         -2   -1    0    0    0  501 -0.00000000000E+00  0.00000000000E+00  0.22364426946E+04  0.22364426946E+04  0.25500000000E-02 0.  1.
          2   -1    0    0  501    0  0.00000000000E+00 -0.00000000000E+00 -0.16215033114E+04  0.16215033114E+04  0.25500000000E-02 0. -1.
    8880023    1    1    2    0    0 -0.27628534370E+03  0.12989844950E+04 -0.97985653976E+03  0.17769702738E+04  0.65864270000E+03 0.  0.
    8880022    1    1    2    0    0  0.27628534370E+03 -0.12989844950E+04  0.15947959229E+04  0.20809757322E+04  0.15294330000E+03 0.  0.
<mgrwt>
<rscale>  0 0.14445808E+04</rscale>
<asrwt>0</asrwt>
<pdfrwt beam="1">  1        2 0.24946205E+00 0.14823982E+04</pdfrwt>
<pdfrwt beam="2">  1       -2 0.34406811E+00 0.14823982E+04</pdfrwt>
<totfact> 0.17343413E-01</totfact>
</mgrwt>
</event>
<event>
 4    5  0.6615028E-008  0.8747386E+03  0.7818608E-02  0.9567866E-01
         -2   -1    0    0    0  501 -0.00000000000E+00  0.00000000000E+00  0.10121910978E+04  0.10121910978E+04  0.25500000000E-02 0.  1.
          2   -1    0    0  501    0  0.00000000000E+00 -0.00000000000E+00 -0.83815269756E+03  0.83815269757E+03  0.25500000000E-02 0. -1.
    8880023    1    1    2    0    0  0.12765981335E+03 -0.56130238562E+03 -0.45337089958E+03  0.98524757036E+03  0.65864270000E+03 0.  0.
    8880022    1    1    2    0    0 -0.12765981335E+03  0.56130238562E+03  0.62740929985E+03  0.86509622505E+03  0.15294330000E+03 0.  0.
<mgrwt>
<rscale>  0 0.79460057E+03</rscale>
<asrwt>0</asrwt>
<pdfrwt beam="1">  1        2 0.12894657E+00 0.87473859E+03</pdfrwt>
<pdfrwt beam="2">  1       -2 0.15572171E+00 0.87473859E+03</pdfrwt>
<totfact> 0.88002088E+00</totfact>
</mgrwt>
</event>
<event>
 4    5  0.6615028E-008  0.9533293E+03  0.7818608E-02  0.9445340E-01
          2   -1    0    0  501    0  0.00000000000E+00  0.00000000000E+00  0.32125162252E+04  0.32125162252E+04  0.25500000000E-02 0. -1.
         -2   -1    0    0    0  501 -0.00000000000E+00 -0.00000000000E+00 -0.10683152326E+04  0.10683152326E+04  0.25500000000E-02 0.  1.
    8880023    1    1    2    0    0  0.10548837999E+03  0.68110114679E+03  0.30136541938E+04  0.31608461488E+04  0.65864270000E+03 0. -1.
    8880022    1    1    2    0    0 -0.10548837999E+03 -0.68110114679E+03 -0.86945320119E+03  0.11199853091E+04  0.15294330000E+03 0.  0.
<mgrwt>
<rscale>  0 0.88436480E+03</rscale>
<asrwt>0</asrwt>
<pdfrwt beam="1">  1        2 0.49423326E+00 0.95332931E+03</pdfrwt>
<pdfrwt beam="2">  1       -2 0.16435619E+00 0.95332931E+03</pdfrwt>
<totfact> 0.30715685E-01</totfact>
</mgrwt>
</event>
<event>
 4    5  0.6615028E-008  0.1527397E+04  0.7818608E-02  0.8890528E-01
         -2   -1    0    0    0  501 -0.00000000000E+00  0.00000000000E+00  0.25673861992E+04  0.25673861992E+04  0.25500000000E-02 0.  1.
          2   -1    0    0  501    0  0.00000000000E+00 -0.00000000000E+00 -0.13777278992E+04  0.13777278992E+04  0.25500000000E-02 0. -1.
    8880023    1    1    2    0    0  0.45892720565E+03  0.12994300579E+04 -0.63438519102E+03  0.16539006719E+04  0.65864270000E+03 0. -1.
    8880022    1    1    2    0    0 -0.45892720565E+03 -0.12994300579E+04  0.18240434911E+04  0.22912134265E+04  0.15294330000E+03 0.  0.
<mgrwt>
<rscale>  0 0.14908983E+04</rscale>
<asrwt>0</asrwt>
<pdfrwt beam="1">  1        2 0.21195814E+00 0.15273974E+04</pdfrwt>
<pdfrwt beam="2">  1       -2 0.39498249E+00 0.15273974E+04</pdfrwt>
<totfact> 0.11223873E-01</totfact>
</mgrwt>
</event>
<event>
 4    5  0.6615028E-008  0.1408325E+04  0.7818608E-02  0.8977241E-01
         -2   -1    0    0    0  501 -0.00000000000E+00  0.00000000000E+00  0.98704233892E+03  0.98704233893E+03  0.25500000000E-02 0.  1.
          2   -1    0    0  501    0  0.00000000000E+00 -0.00000000000E+00 -0.23769920667E+04  0.23769920667E+04  0.25500000000E-02 0. -1.
    8880023    1    1    2    0    0 -0.11261010568E+04  0.53053213245E+03 -0.15562515158E+04  0.20988799205E+04  0.65864270000E+03 0.  0.
    8880022    1    1    2    0    0  0.11261010568E+04 -0.53053213245E+03  0.16630178800E+03  0.12651544852E+04  0.15294330000E+03 0.  0.
<mgrwt>
<rscale>  0 0.13680966E+04</rscale>
<asrwt>0</asrwt>
<pdfrwt beam="1">  1        2 0.36569109E+00 0.14083246E+04</pdfrwt>
<pdfrwt beam="2">  1       -2 0.15185267E+00 0.14083246E+04</pdfrwt>
<totfact> 0.11328007E+00</totfact>
</mgrwt>
</event>
<event>
 4    5  0.6615028E-008  0.1306871E+04  0.7818608E-02  0.9059649E-01
          2   -1    0    0  501    0  0.00000000000E+00  0.00000000000E+00  0.32488212643E+04  0.32488212643E+04  0.25500000000E-02 0. -1.
         -2   -1    0    0    0  501 -0.00000000000E+00 -0.00000000000E+00 -0.84883238718E+03  0.84883238718E+03  0.25500000000E-02 0.  1.
    8880023    1    1    2    0    0 -0.10788746783E+04 -0.33186182405E+03  0.26288869676E+04  0.29358064883E+04  0.65864270000E+03 0.  0.
    8880022    1    1    2    0    0  0.10788746783E+04  0.33186182405E+03 -0.22889809049E+03  0.11618471632E+04  0.15294330000E+03 0.  1.
<mgrwt>
<rscale>  0 0.12627368E+04</rscale>
<asrwt>0</asrwt>
<pdfrwt beam="1">  1        2 0.49981865E+00 0.13068715E+04</pdfrwt>
<pdfrwt beam="2">  1       -2 0.13058960E+00 0.13068715E+04</pdfrwt>
<totfact> 0.50496270E-01</totfact>
</mgrwt>
</event>
<event>
 4    5  0.6615028E-008  0.6617346E+03  0.7818608E-02  0.1022446E+00
         -2   -1    0    0    0  501 -0.00000000000E+00  0.00000000000E+00  0.31960417101E+03  0.31960417102E+03  0.25500000000E-02 0.  1.
          2   -1    0    0  501    0  0.00000000000E+00 -0.00000000000E+00 -0.13219802997E+04  0.13219802997E+04  0.25500000000E-02 0. -1.
    8880023    1    1    2    0    0 -0.37482014152E+02 -0.51745398557E+02 -0.12080598190E+04  0.13774255770E+04  0.65864270000E+03 0. -1.
    8880022    1    1    2    0    0  0.37482014152E+02  0.51745398557E+02  0.20568369031E+03  0.26415889372E+03  0.15294330000E+03 0.  0.
<mgrwt>
<rscale>  0 0.46814286E+03</rscale>
<asrwt>0</asrwt>
<pdfrwt beam="1">  1        2 0.20338158E+00 0.66173461E+03</pdfrwt>
<pdfrwt beam="2">  1       -2 0.49169873E-01 0.66173461E+03</pdfrwt>
<totfact> 0.64572771E+01</totfact>
</mgrwt>
</event>
<event>
 4    5  0.6615028E-008  0.6684237E+03  0.7818608E-02  0.1016819E+00
          2   -1    0    0  501    0  0.00000000000E+00  0.00000000000E+00  0.11666425115E+04  0.11666425115E+04  0.25500000000E-02 0. -1.
         -2   -1    0    0    0  501 -0.00000000000E+00 -0.00000000000E+00 -0.23086082292E+03  0.23086082293E+03  0.25500000000E-02 0.  1.
    8880023    1    1    2    0    0 -0.37222741634E+02 -0.10767756796E+03  0.99423110487E+03  0.11980340927E+04  0.65864270000E+03 0. -1.
    8880022    1    1    2    0    0  0.37222741634E+02  0.10767756796E+03 -0.58449416247E+02  0.19946924176E+03  0.15294330000E+03 0.  0.
<mgrwt>
<rscale>  0 0.48852212E+03</rscale>
<asrwt>0</asrwt>
<pdfrwt beam="1">  1        2 0.17948346E+00 0.66842367E+03</pdfrwt>
<pdfrwt beam="2">  1       -2 0.35517049E-01 0.66842367E+03</pdfrwt>
<totfact> 0.15053778E+02</totfact>
</mgrwt>
</event>
<event>
 4    5  0.6615028E-008  0.8451088E+03  0.7818608E-02  0.9620621E-01
          2   -1    0    0  501    0  0.00000000000E+00  0.00000000000E+00  0.17358469168E+04  0.17358469168E+04  0.25500000000E-02 0. -1.
         -2   -1    0    0    0  501 -0.00000000000E+00 -0.00000000000E+00 -0.41416355801E+03  0.41416355802E+03  0.25500000000E-02 0.  1.
    8880023    1    1    2    0    0 -0.41257271643E+03 -0.33193747257E+03  0.13559754155E+04  0.15977729080E+04  0.65864270000E+03 0. -1.
    8880022    1    1    2    0    0  0.41257271643E+03  0.33193747257E+03 -0.34292056639E+02  0.55223756682E+03  0.15294330000E+03 0.  0.
<mgrwt>
<rscale>  0 0.75946232E+03</rscale>
<asrwt>0</asrwt>
<pdfrwt beam="1">  1        2 0.26705337E+00 0.84510883E+03</pdfrwt>
<pdfrwt beam="2">  1       -2 0.63717471E-01 0.84510883E+03</pdfrwt>
<totfact> 0.21696326E+01</totfact>
</mgrwt>
</event>
<event>
 4    5  0.6615028E-008  0.1076914E+04  0.7818608E-02  0.9287206E-01
         -2   -1    0    0    0  501 -0.00000000000E+00  0.00000000000E+00  0.10558700461E+04  0.10558700461E+04  0.25500000000E-02 0.  1.
          2   -1    0    0  501    0  0.00000000000E+00 -0.00000000000E+00 -0.24070951469E+04  0.24070951469E+04  0.25500000000E-02 0. -1.
    8880023    1    1    2    0    0  0.72496717820E+03 -0.44761124398E+03 -0.20729075191E+04  0.23359556983E+04  0.65864270000E+03 0. -1.
    8880022    1    1    2    0    0 -0.72496717820E+03  0.44761124398E+03  0.72168241834E+03  0.11270094947E+04  0.15294330000E+03 0.  0.
<mgrwt>
<rscale>  0 0.10196931E+04</rscale>
<asrwt>0</asrwt>
<pdfrwt beam="1">  1        2 0.37032233E+00 0.10769139E+04</pdfrwt>
<pdfrwt beam="2">  1       -2 0.16244155E+00 0.10769139E+04</pdfrwt>
<totfact> 0.94456479E-01</totfact>
</mgrwt>
</event>
<event>
 4    5  0.6615028E-008  0.7096422E+03  0.7818608E-02  0.9959332E-01
         -2   -1    0    0    0  501 -0.00000000000E+00  0.00000000000E+00  0.64785804357E+03  0.64785804357E+03  0.25500000000E-02 0.  1.
          2   -1    0    0  501    0  0.00000000000E+00 -0.00000000000E+00 -0.12286347398E+04  0.12286347398E+04  0.25500000000E-02 0. -1.
    8880023    1    1    2    0    0 -0.11531024436E+03 -0.23766651761E+03 -0.10794455767E+04  0.12918184027E+04  0.65864270000E+03 0. -1.
    8880022    1    1    2    0    0  0.11531024436E+03  0.23766651761E+03  0.49866888051E+03  0.58467438071E+03  0.15294330000E+03 0.  0.
<mgrwt>
<rscale>  0 0.57469988E+03</rscale>
<asrwt>0</asrwt>
<pdfrwt beam="1">  1        2 0.18902073E+00 0.70964219E+03</pdfrwt>
<pdfrwt beam="2">  1       -2 0.99670468E-01 0.70964219E+03</pdfrwt>
<totfact> 0.15535616E+01</totfact>
</mgrwt>
</event>
<event>
 4    5  0.6615028E-008  0.8295325E+03  0.7818608E-02  0.9650243E-01
          2   -1    0    0  501    0  0.00000000000E+00  0.00000000000E+00  0.30890348018E+04  0.30890348018E+04  0.25500000000E-02 0. -1.
         -2   -1    0    0    0  501 -0.00000000000E+00 -0.00000000000E+00 -0.73045466723E+03  0.73045466724E+03  0.25500000000E-02 0.  1.
    8880023    1    1    2    0    0  0.38765801083E+03 -0.32254501001E+03  0.29282351165E+04  0.30434659717E+04  0.65864270000E+03 0. -1.
    8880022    1    1    2    0    0 -0.38765801083E+03  0.32254501001E+03 -0.56965498200E+03  0.77602349731E+03  0.15294330000E+03 0.  0.
<mgrwt>
<rscale>  0 0.74058201E+03</rscale>
<asrwt>0</asrwt>
<pdfrwt beam="1">  1        2 0.47523612E+00 0.82953253E+03</pdfrwt>
<pdfrwt beam="2">  1       -2 0.11237764E+00 0.82953253E+03</pdfrwt>
<totfact> 0.10048935E+00</totfact>
</mgrwt>
</event>
<event>
 4    5  0.6615028E-008  0.1238852E+04  0.7818608E-02  0.9120250E-01
         -2   -1    0    0    0  501 -0.00000000000E+00  0.00000000000E+00  0.10704299904E+04  0.10704299904E+04  0.25500000000E-02 0.  1.
          2   -1    0    0  501    0  0.00000000000E+00 -0.00000000000E+00 -0.22803882212E+04  0.22803882212E+04  0.25500000000E-02 0. -1.
    8880023    1    1    2    0    0  0.86504807773E+03 -0.59383158465E+03 -0.17631311084E+04  0.21548516513E+04  0.65864270000E+03 0. -1.
    8880022    1    1    2    0    0 -0.86504807773E+03  0.59383158465E+03  0.55317287759E+03  0.11959665602E+04  0.15294330000E+03 0.  0.
<mgrwt>
<rscale>  0 0.11915893E+04</rscale>
<asrwt>0</asrwt>
<pdfrwt beam="1">  1        2 0.35082896E+00 0.12388520E+04</pdfrwt>
<pdfrwt beam="2">  1       -2 0.16468154E+00 0.12388520E+04</pdfrwt>
<totfact> 0.10498974E+00</totfact>
</mgrwt>
</event>
<event>
 4    5  0.6615028E-008  0.1045827E+04  0.7818608E-02  0.9323915E-01
         -2   -1    0    0    0  501 -0.00000000000E+00  0.00000000000E+00  0.59393312084E+03  0.59393312085E+03  0.25500000000E-02 0.  1.
          2   -1    0    0  501    0  0.00000000000E+00 -0.00000000000E+00 -0.34085249892E+04  0.34085249892E+04  0.25500000000E-02 0. -1.
    8880023    1    1    2    0    0 -0.69193109674E+03  0.42564711877E+03 -0.29810890727E+04  0.31592161018E+04  0.65864270000E+03 0.  0.
    8880022    1    1    2    0    0  0.69193109674E+03 -0.42564711877E+03  0.16649720436E+03  0.84324200822E+03  0.15294330000E+03 0.  0.
<mgrwt>
<rscale>  0 0.98610733E+03</rscale>
<asrwt>0</asrwt>
<pdfrwt beam="1">  1        2 0.52438845E+00 0.10458271E+04</pdfrwt>
<pdfrwt beam="2">  1       -2 0.91374328E-01 0.10458271E+04</pdfrwt>
<totfact> 0.98233096E-01</totfact>
</mgrwt>
</event>
<event>
 4    5  0.6615028E-008  0.7469912E+03  0.7818608E-02  0.9840031E-01
          2   -1    0    0  501    0  0.00000000000E+00  0.00000000000E+00  0.59657132008E+03  0.59657132008E+03  0.25500000000E-02 0. -1.
         -2   -1    0    0    0  501 -0.00000000000E+00 -0.00000000000E+00 -0.13065968406E+04  0.13065968406E+04  0.25500000000E-02 0.  1.
    8880023    1    1    2    0    0 -0.41715361957E+02  0.34992218081E+03  0.31335977574E+03  0.81005571374E+03  0.65864270000E+03 0. -1.
    8880022    1    1    2    0    0  0.41715361957E+02 -0.34992218081E+03 -0.10233852963E+04  0.10931124470E+04  0.15294330000E+03 0.  0.
<mgrwt>
<rscale>  0 0.63257802E+03</rscale>
<asrwt>0</asrwt>
<pdfrwt beam="1">  1        2 0.91780203E-01 0.74699124E+03</pdfrwt>
<pdfrwt beam="2">  1       -2 0.20101490E+00 0.74699124E+03</pdfrwt>
<totfact> 0.66761780E+00</totfact>
</mgrwt>
</event>
<event>
 4    5  0.6615028E-008  0.1239468E+04  0.7818608E-02  0.9119680E-01
          2   -1    0    0  501    0  0.00000000000E+00  0.00000000000E+00  0.40308505134E+04  0.40308505134E+04  0.25500000000E-02 0. -1.
         -2   -1    0    0    0  501 -0.00000000000E+00 -0.00000000000E+00 -0.47983383430E+03  0.47983383430E+03  0.25500000000E-02 0.  1.
    8880023    1    1    2    0    0  0.27261817148E+03 -0.10139768739E+04  0.60466193072E+03  0.13790924642E+04  0.65864270000E+03 0.  0.
    8880022    1    1    2    0    0 -0.27261817148E+03  0.10139768739E+04  0.29463547483E+04  0.31315918834E+04  0.15294330000E+03 0.  0.
<mgrwt>
<rscale>  0 0.11922354E+04</rscale>
<asrwt>0</asrwt>
<pdfrwt beam="1">  1        2 0.62013083E+00 0.12394676E+04</pdfrwt>
<pdfrwt beam="2">  1       -2 0.73820592E-01 0.12394676E+04</pdfrwt>
<totfact> 0.54053470E-01</totfact>
</mgrwt>
</event>
<event>
 4    5  0.6615028E-008  0.9302105E+03  0.7818608E-02  0.9479178E-01
          2   -1    0    0  501    0  0.00000000000E+00  0.00000000000E+00  0.19619220857E+04  0.19619220857E+04  0.25500000000E-02 0. -1.
         -2   -1    0    0    0  501 -0.00000000000E+00 -0.00000000000E+00 -0.40548988239E+03  0.40548988240E+03  0.25500000000E-02 0.  1.
    8880023    1    1    2    0    0  0.19326058566E+03  0.62779903806E+03  0.13903330298E+04  0.16728172124E+04  0.65864270000E+03 0.  0.
    8880022    1    1    2    0    0 -0.19326058566E+03 -0.62779903806E+03  0.16609917351E+03  0.69459475568E+03  0.15294330000E+03 0.  0.
<mgrwt>
<rscale>  0 0.85836534E+03</rscale>
<asrwt>0</asrwt>
<pdfrwt beam="1">  1        2 0.30183417E+00 0.93021046E+03</pdfrwt>
<pdfrwt beam="2">  1       -2 0.62383058E-01 0.93021046E+03</pdfrwt>
<totfact> 0.16902033E+01</totfact>
</mgrwt>
</event>
<event>
 4    5  0.6615028E-008  0.8266492E+03  0.7818608E-02  0.9655888E-01
         -2   -1    0    0    0  501 -0.00000000000E+00  0.00000000000E+00  0.98511314011E+03  0.98511314011E+03  0.25500000000E-02 0.  1.
          2   -1    0    0  501    0  0.00000000000E+00 -0.00000000000E+00 -0.65501100105E+03  0.65501100105E+03  0.25500000000E-02 0. -1.
    8880023    1    1    2    0    0 -0.46771377325E+03 -0.17544924460E+03 -0.24594530528E+03  0.86246038203E+03  0.65864270000E+03 0. -1.
    8880022    1    1    2    0    0  0.46771377325E+03  0.17544924460E+03  0.57604744435E+03  0.77766375913E+03  0.15294330000E+03 0.  0.
<mgrwt>
<rscale>  0 0.73705073E+03</rscale>
<asrwt>0</asrwt>
<pdfrwt beam="1">  1        2 0.10077092E+00 0.82664915E+03</pdfrwt>
<pdfrwt beam="2">  1       -2 0.15155587E+00 0.82664915E+03</pdfrwt>
<totfact> 0.13079678E+01</totfact>
</mgrwt>
</event>
<event>
 4    5  0.6615028E-008  0.9397124E+03  0.7818608E-02  0.9465073E-01
          2   -1    0    0  501    0  0.00000000000E+00  0.00000000000E+00  0.16900635387E+04  0.16900635387E+04  0.25500000000E-02 0. -1.
         -2   -1    0    0    0  501 -0.00000000000E+00 -0.00000000000E+00 -0.49747171103E+03  0.49747171104E+03  0.25500000000E-02 0.  1.
    8880023    1    1    2    0    0  0.46479458402E+02 -0.66864698152E+03  0.11686890512E+04  0.14996310982E+04  0.65864270000E+03 0.  0.
    8880022    1    1    2    0    0 -0.46479458402E+02  0.66864698152E+03  0.23902776420E+02  0.68790415153E+03  0.15294330000E+03 0.  0.
<mgrwt>
<rscale>  0 0.86908570E+03</rscale>
<asrwt>0</asrwt>
<pdfrwt beam="1">  1        2 0.26000978E+00 0.93971237E+03</pdfrwt>
<pdfrwt beam="2">  1       -2 0.76534109E-01 0.93971237E+03</pdfrwt>
<totfact> 0.15239561E+01</totfact>
</mgrwt>
</event>
<event>
 4    5  0.6615028E-008  0.7284308E+03  0.7818608E-02  0.9895027E-01
         -2   -1    0    0    0  501 -0.00000000000E+00  0.00000000000E+00  0.12717894557E+04  0.12717894557E+04  0.25500000000E-02 0.  1.
          2   -1    0    0  501    0  0.00000000000E+00 -0.00000000000E+00 -0.15574640342E+04  0.15574640342E+04  0.25500000000E-02 0. -1.
    8880023    1    1    2    0    0 -0.94348686664E+02 -0.29647862018E+03 -0.14455295871E+04  0.16186930656E+04  0.65864270000E+03 0. -1.
    8880022    1    1    2    0    0  0.94348686664E+02  0.29647862018E+03  0.11598550086E+04  0.12105604243E+04  0.15294330000E+03 0.  0.
<mgrwt>
<rscale>  0 0.60502885E+03</rscale>
<asrwt>0</asrwt>
<pdfrwt beam="1">  1        2 0.23960985E+00 0.72843082E+03</pdfrwt>
<pdfrwt beam="2">  1       -2 0.19565992E+00 0.72843082E+03</pdfrwt>
<totfact> 0.17356965E+00</totfact>
</mgrwt>
</event>
<event>
 4    5  0.6615028E-008  0.8103159E+03  0.7818608E-02  0.9688919E-01
          2   -1    0    0  501    0  0.00000000000E+00  0.00000000000E+00  0.19086517646E+04  0.19086517646E+04  0.25500000000E-02 0. -1.
         -2   -1    0    0    0  501 -0.00000000000E+00 -0.00000000000E+00 -0.28476258790E+03  0.28476258791E+03  0.25500000000E-02 0.  1.
    8880023    1    1    2    0    0 -0.46975720746E+03 -0.46150557917E+02  0.14619121858E+04  0.16714661687E+04  0.65864270000E+03 0.  0.
    8880022    1    1    2    0    0  0.46975720746E+03  0.46150557917E+02  0.16197699090E+03  0.52194818378E+03  0.15294330000E+03 0.  0.
<mgrwt>
<rscale>  0 0.71680385E+03</rscale>
<asrwt>0</asrwt>
<pdfrwt beam="1">  1        2 0.29363872E+00 0.81031593E+03</pdfrwt>
<pdfrwt beam="2">  1       -2 0.43809630E-01 0.81031593E+03</pdfrwt>
<totfact> 0.37935713E+01</totfact>
</mgrwt>
</event>
<event>
 4    5  0.6615028E-008  0.6626787E+03  0.7818608E-02  0.1021566E+00
         -2   -1    0    0    0  501 -0.00000000000E+00  0.00000000000E+00  0.18883287108E+04  0.18883287108E+04  0.25500000000E-02 0.  1.
          2   -1    0    0  501    0  0.00000000000E+00 -0.00000000000E+00 -0.71794124172E+03  0.71794124173E+03  0.25500000000E-02 0. -1.
    8880023    1    1    2    0    0 -0.33823124850E+02  0.64721250709E+02 -0.55999671879E+03  0.86760554135E+03  0.65864270000E+03 0. -1.
    8880022    1    1    2    0    0  0.33823124850E+02 -0.64721250709E+02  0.17303841878E+04  0.17386644111E+04  0.15294330000E+03 0.  0.
<mgrwt>
<rscale>  0 0.47125808E+03</rscale>
<asrwt>0</asrwt>
<pdfrwt beam="1">  1        2 0.11045250E+00 0.66267869E+03</pdfrwt>
<pdfrwt beam="2">  1       -2 0.29051211E+00 0.66267869E+03</pdfrwt>
<totfact> 0.15240840E+00</totfact>
</mgrwt>
</event>
<event>
 4    5  0.6615028E-008  0.6700509E+03  0.7818608E-02  0.1015626E+00
          2   -1    0    0  501    0  0.00000000000E+00  0.00000000000E+00  0.30648823707E+04  0.30648823707E+04  0.25500000000E-02 0. -1.
         -2   -1    0    0    0  501 -0.00000000000E+00 -0.00000000000E+00 -0.19852449079E+03  0.19852449081E+03  0.25500000000E-02 0.  1.
    8880023    1    1    2    0    0  0.13624346601E+01 -0.12311027681E+03  0.29677365398E+04  0.30424378995E+04  0.65864270000E+03 0. -1.
    8880022    1    1    2    0    0 -0.13624346601E+01  0.12311027681E+03 -0.10137865986E+03  0.22096896202E+03  0.15294330000E+03 0.  0.
<mgrwt>
<rscale>  0 0.49298465E+03</rscale>
<asrwt>0</asrwt>
<pdfrwt beam="1">  1        2 0.47152035E+00 0.67005090E+03</pdfrwt>
<pdfrwt beam="2">  1       -2 0.30542230E-01 0.67005090E+03</pdfrwt>
<totfact> 0.16929806E+01</totfact>
</mgrwt>
</event>
<event>
 4    5  0.6615028E-008  0.6844290E+03  0.7818608E-02  0.1006922E+00
          2   -1    0    0  501    0  0.00000000000E+00  0.00000000000E+00  0.49109344937E+03  0.49109344938E+03  0.25500000000E-02 0. -1.
         -2   -1    0    0    0  501 -0.00000000000E+00 -0.00000000000E+00 -0.70653039726E+03  0.70653039727E+03  0.25500000000E-02 0.  1.
    8880023    1    1    2    0    0  0.72991887802E+02 -0.17118694224E+03  0.20378663373E+03  0.71412322692E+03  0.65864270000E+03 0. -1.
    8880022    1    1    2    0    0 -0.72991887802E+02  0.17118694224E+03 -0.41922358162E+03  0.48350061973E+03  0.15294330000E+03 0.  0.
<mgrwt>
<rscale>  0 0.52716631E+03</rscale>
<asrwt>0</asrwt>
<pdfrwt beam="1">  1        2 0.75552839E-01 0.68442895E+03</pdfrwt>
<pdfrwt beam="2">  1       -2 0.10869698E+00 0.68442895E+03</pdfrwt>
<totfact> 0.43231904E+01</totfact>
</mgrwt>
</event>
<event>
 4    5  0.6615028E-008  0.6900803E+03  0.7818608E-02  0.1004114E+00
         -2   -1    0    0    0  501 -0.00000000000E+00  0.00000000000E+00  0.22040657980E+04  0.22040657980E+04  0.25500000000E-02 0.  1.
          2   -1    0    0  501    0  0.00000000000E+00 -0.00000000000E+00 -0.21950932566E+03  0.21950932568E+03  0.25500000000E-02 0. -1.
    8880023    1    1    2    0    0 -0.90197459808E+02  0.18510799148E+03  0.35894336310E+03  0.77785030336E+03  0.65864270000E+03 0. -1.
    8880022    1    1    2    0    0  0.90197459808E+02 -0.18510799148E+03  0.16256131092E+04  0.16457248203E+04  0.15294330000E+03 0.  0.
<mgrwt>
<rscale>  0 0.53882347E+03</rscale>
<asrwt>0</asrwt>
<pdfrwt beam="1">  1        2 0.33770664E-01 0.69008025E+03</pdfrwt>
<pdfrwt beam="2">  1       -2 0.33908706E+00 0.69008025E+03</pdfrwt>
<totfact> 0.30013057E+00</totfact>
</mgrwt>
</event>
<event>
 4    5  0.6615028E-008  0.1083501E+04  0.7818608E-02  0.9279652E-01
          2   -1    0    0  501    0  0.00000000000E+00  0.00000000000E+00  0.12491004955E+04  0.12491004955E+04  0.25500000000E-02 0. -1.
         -2   -1    0    0    0  501 -0.00000000000E+00 -0.00000000000E+00 -0.84216340004E+03  0.84216340005E+03  0.25500000000E-02 0.  1.
    8880023    1    1    2    0    0 -0.74124002130E+03 -0.43672309757E+03  0.53453346968E+03  0.12081804789E+04  0.65864270000E+03 0.  0.
    8880022    1    1    2    0    0  0.74124002130E+03  0.43672309757E+03 -0.12759637418E+03  0.88308341669E+03  0.15294330000E+03 0.  0.
<mgrwt>
<rscale>  0 0.10267791E+04</rscale>
<asrwt>0</asrwt>
<pdfrwt beam="1">  1        2 0.19216931E+00 0.10835008E+04</pdfrwt>
<pdfrwt beam="2">  1       -2 0.12956360E+00 0.10835008E+04</pdfrwt>
<totfact> 0.76364937E+00</totfact>
</mgrwt>
</event>
<event>
 4    5  0.6615028E-008  0.2016793E+04  0.7818608E-02  0.8611237E-01
         -2   -1    0    0    0  501 -0.00000000000E+00  0.00000000000E+00  0.19959709506E+04  0.19959709506E+04  0.25500000000E-02 0.  1.
          2   -1    0    0  501    0  0.00000000000E+00 -0.00000000000E+00 -0.25085610928E+04  0.25085610928E+04  0.25500000000E-02 0. -1.
    8880023    1    1    2    0    0  0.18808007967E+04 -0.31021022968E+03 -0.13394713184E+04  0.24210815026E+04  0.65864270000E+03 0.  0.
    8880022    1    1    2    0    0 -0.18808007967E+04  0.31021022968E+03  0.82688117621E+03  0.20834505408E+04  0.15294330000E+03 0.  0.
<mgrwt>
<rscale>  0 0.19901556E+04</rscale>
<asrwt>0</asrwt>
<pdfrwt beam="1">  1        2 0.38593247E+00 0.20167926E+04</pdfrwt>
<pdfrwt beam="2">  1       -2 0.30707246E+00 0.20167926E+04</pdfrwt>
<totfact> 0.87572447E-02</totfact>
</mgrwt>
</event>
<event>
 4    5  0.6615028E-008  0.7498200E+03  0.7818608E-02  0.9832213E-01
         -2   -1    0    0    0  501 -0.00000000000E+00  0.00000000000E+00  0.35159650156E+03  0.35159650157E+03  0.25500000000E-02 0.  1.
          2   -1    0    0  501    0  0.00000000000E+00 -0.00000000000E+00 -0.17291539974E+04  0.17291539974E+04  0.25500000000E-02 0. -1.
    8880023    1    1    2    0    0 -0.23128414319E+03 -0.27372878592E+03 -0.14961031767E+04  0.16734858006E+04  0.65864270000E+03 0. -1.
    8880022    1    1    2    0    0  0.23128414319E+03  0.27372878592E+03  0.11854568083E+03  0.40726469843E+03  0.15294330000E+03 0.  0.
<mgrwt>
<rscale>  0 0.63662080E+03</rscale>
<asrwt>0</asrwt>
<pdfrwt beam="1">  1        2 0.26602369E+00 0.74981998E+03</pdfrwt>
<pdfrwt beam="2">  1       -2 0.54091771E-01 0.74981998E+03</pdfrwt>
<totfact> 0.31232665E+01</totfact>
</mgrwt>
</event>
<event>
 4    5  0.6615028E-008  0.1120064E+04  0.7818608E-02  0.9239040E-01
          2   -1    0    0  501    0  0.00000000000E+00  0.00000000000E+00  0.14086474835E+04  0.14086474835E+04  0.25500000000E-02 0. -1.
         -2   -1    0    0    0  501 -0.00000000000E+00 -0.00000000000E+00 -0.73872584035E+03  0.73872584035E+03  0.25500000000E-02 0.  1.
    8880023    1    1    2    0    0 -0.50355840857E+03 -0.75310154220E+03  0.40719113013E+03  0.11917834646E+04  0.65864270000E+03 0.  0.
    8880022    1    1    2    0    0  0.50355840857E+03  0.75310154220E+03  0.26273051305E+03  0.95558985931E+03  0.15294330000E+03 0.  0.
<mgrwt>
<rscale>  0 0.10659404E+04</rscale>
<asrwt>0</asrwt>
<pdfrwt beam="1">  1        2 0.21671500E+00 0.11200639E+04</pdfrwt>
<pdfrwt beam="2">  1       -2 0.11365013E+00 0.11200639E+04</pdfrwt>
<totfact> 0.85322638E+00</totfact>
</mgrwt>
</event>
<event>
 4    5  0.6615028E-008  0.1334548E+04  0.7818608E-02  0.9036286E-01
          2   -1    0    0  501    0  0.00000000000E+00  0.00000000000E+00  0.30208031680E+04  0.30208031680E+04  0.25500000000E-02 0. -1.
         -2   -1    0    0    0  501 -0.00000000000E+00 -0.00000000000E+00 -0.63798609876E+03  0.63798609877E+03  0.25500000000E-02 0.  1.
    8880023    1    1    2    0    0  0.78193164916E+03 -0.85778214886E+03  0.20420738107E+04  0.24394841614E+04  0.65864270000E+03 0.  0.
    8880022    1    1    2    0    0 -0.78193164916E+03  0.85778214886E+03  0.34074325853E+03  0.12193051054E+04  0.15294330000E+03 0.  0.
<mgrwt>
<rscale>  0 0.12915594E+04</rscale>
<asrwt>0</asrwt>
<pdfrwt beam="1">  1        2 0.46473894E+00 0.13345477E+04</pdfrwt>
<pdfrwt beam="2">  1       -2 0.98151709E-01 0.13345477E+04</pdfrwt>
<totfact> 0.14216729E+00</totfact>
</mgrwt>
</event>
<event>
 4    5  0.6615028E-008  0.1231513E+04  0.7818608E-02  0.9127082E-01
         -2   -1    0    0    0  501 -0.00000000000E+00  0.00000000000E+00  0.89786749745E+03  0.89786749745E+03  0.25500000000E-02 0.  1.
          2   -1    0    0  501    0  0.00000000000E+00 -0.00000000000E+00 -0.22508809817E+04  0.22508809817E+04  0.25500000000E-02 0. -1.
    8880023    1    1    2    0    0  0.10179459270E+04 -0.21586912597E+03 -0.16471506700E+04  0.20566304787E+04  0.65864270000E+03 0.  0.
    8880022    1    1    2    0    0 -0.10179459270E+04  0.21586912597E+03  0.29413718573E+03  0.10921180005E+04  0.15294330000E+03 0.  0.
<mgrwt>
<rscale>  0 0.11838826E+04</rscale>
<asrwt>0</asrwt>
<pdfrwt beam="1">  1        2 0.34628938E+00 0.12315127E+04</pdfrwt>
<pdfrwt beam="2">  1       -2 0.13813346E+00 0.12315127E+04</pdfrwt>
<totfact> 0.17483945E+00</totfact>
</mgrwt>
</event>
<event>
 4    5  0.6615028E-008  0.8561319E+03  0.7818608E-02  0.9600481E-01
         -2   -1    0    0    0  501 -0.00000000000E+00  0.00000000000E+00  0.46201764491E+03  0.46201764492E+03  0.25500000000E-02 0.  1.
          2   -1    0    0  501    0  0.00000000000E+00 -0.00000000000E+00 -0.15823504680E+04  0.15823504680E+04  0.25500000000E-02 0. -1.
    8880023    1    1    2    0    0 -0.52176426309E+03 -0.16405381596E+03 -0.11966112466E+04  0.14713396217E+04  0.65864270000E+03 0.  0.
    8880022    1    1    2    0    0  0.52176426309E+03  0.16405381596E+03  0.76278423531E+02  0.57302849116E+03  0.15294330000E+03 0.  0.
<mgrwt>
<rscale>  0 0.77264322E+03</rscale>
<asrwt>0</asrwt>
<pdfrwt beam="1">  1        2 0.24343853E+00 0.85613189E+03</pdfrwt>
<pdfrwt beam="2">  1       -2 0.71079638E-01 0.85613189E+03</pdfrwt>
<totfact> 0.20772550E+01</totfact>
</mgrwt>
</event>
<event>
 4    5  0.6615028E-008  0.1570140E+04  0.7818608E-02  0.8861632E-01
         -2   -1    0    0    0  501 -0.00000000000E+00  0.00000000000E+00  0.17668029974E+04  0.17668029974E+04  0.25500000000E-02 0.  1.
          2   -1    0    0  501    0  0.00000000000E+00 -0.00000000000E+00 -0.20574096848E+04  0.20574096848E+04  0.25500000000E-02 0. -1.
    8880023    1    1    2    0    0  0.14196984197E+04  0.12644023367E+03 -0.13266068116E+04  0.20555355931E+04  0.65864270000E+03 0.  0.
    8880022    1    1    2    0    0 -0.14196984197E+04 -0.12644023367E+03  0.10360001242E+04  0.17686770892E+04  0.15294330000E+03 0.  0.
<mgrwt>
<rscale>  0 0.15348053E+04</rscale>
<asrwt>0</asrwt>
<pdfrwt beam="1">  1        2 0.31652457E+00 0.15701404E+04</pdfrwt>
<pdfrwt beam="2">  1       -2 0.27181585E+00 0.15701404E+04</pdfrwt>
<totfact> 0.27271952E-01</totfact>
</mgrwt>
</event>
<event>
 4    5  0.6615028E-008  0.1091571E+04  0.7818608E-02  0.9270499E-01
         -2   -1    0    0    0  501 -0.00000000000E+00  0.00000000000E+00  0.12539153080E+04  0.12539153080E+04  0.25500000000E-02 0.  1.
          2   -1    0    0  501    0  0.00000000000E+00 -0.00000000000E+00 -0.13189606521E+04  0.13189606521E+04  0.25500000000E-02 0. -1.
    8880023    1    1    2    0    0  0.66089944120E+03 -0.56650647838E+03 -0.85572418475E+03  0.13870082004E+04  0.65864270000E+03 0. -1.
    8880022    1    1    2    0    0 -0.66089944120E+03  0.56650647838E+03  0.79067884065E+03  0.11858677597E+04  0.15294330000E+03 0.  0.
<mgrwt>
<rscale>  0 0.10354474E+04</rscale>
<asrwt>0</asrwt>
<pdfrwt beam="1">  1        2 0.20291702E+00 0.10915713E+04</pdfrwt>
<pdfrwt beam="2">  1       -2 0.19291005E+00 0.10915713E+04</pdfrwt>
<totfact> 0.23447676E+00</totfact>
</mgrwt>
</event>
<event>
 4    5  0.6615028E-008  0.1802680E+04  0.7818608E-02  0.8721055E-01
          2   -1    0    0  501    0  0.00000000000E+00  0.00000000000E+00  0.18160264349E+04  0.18160264349E+04  0.25500000000E-02 0. -1.
         -2   -1    0    0    0  501 -0.00000000000E+00 -0.00000000000E+00 -0.19962387538E+04  0.19962387538E+04  0.25500000000E-02 0.  1.
    8880023    1    1    2    0    0 -0.14282551483E+04  0.88087085449E+03 -0.85750048569E+03  0.19962373407E+04  0.65864270000E+03 0.  0.
    8880022    1    1    2    0    0  0.14282551483E+04 -0.88087085449E+03  0.67728816676E+03  0.18160278480E+04  0.15294330000E+03 0.  0.
<mgrwt>
<rscale>  0 0.17725123E+04</rscale>
<asrwt>0</asrwt>
<pdfrwt beam="1">  1        2 0.27938868E+00 0.18026803E+04</pdfrwt>
<pdfrwt beam="2">  1       -2 0.30711365E+00 0.18026803E+04</pdfrwt>
<totfact> 0.22094373E-01</totfact>
</mgrwt>
</event>
<event>
 4    5  0.6615028E-008  0.7004885E+03  0.7818608E-02  0.9995181E-01
          2   -1    0    0  501    0  0.00000000000E+00  0.00000000000E+00  0.52076196321E+03  0.52076196321E+03  0.25500000000E-02 0. -1.
         -2   -1    0    0    0  501 -0.00000000000E+00 -0.00000000000E+00 -0.92940482866E+03  0.92940482866E+03  0.25500000000E-02 0.  1.
    8880023    1    1    2    0    0 -0.23822669824E+03 -0.11042119837E+02  0.24152139144E+03  0.74095659586E+03  0.65864270000E+03 0. -1.
    8880022    1    1    2    0    0  0.23822669824E+03  0.11042119837E+02 -0.65016425689E+03  0.70921019601E+03  0.15294330000E+03 0.  0.
<mgrwt>
<rscale>  0 0.55862052E+03</rscale>
<asrwt>0</asrwt>
<pdfrwt beam="1">  1        2 0.80117225E-01 0.70048847E+03</pdfrwt>
<pdfrwt beam="2">  1       -2 0.14298536E+00 0.70048847E+03</pdfrwt>
<totfact> 0.20316857E+01</totfact>
</mgrwt>
</event>
<event>
 4    5  0.6615028E-008  0.1003069E+04  0.7818608E-02  0.9377553E-01
          2   -1    0    0  501    0  0.00000000000E+00  0.00000000000E+00  0.17670814174E+04  0.17670814174E+04  0.25500000000E-02 0. -1.
         -2   -1    0    0    0  501 -0.00000000000E+00 -0.00000000000E+00 -0.66137124908E+03  0.66137124908E+03  0.25500000000E-02 0.  1.
    8880023    1    1    2    0    0  0.32218320644E+03  0.68449640239E+03  0.12908141575E+04  0.16347320083E+04  0.65864270000E+03 0.  0.
    8880022    1    1    2    0    0 -0.32218320644E+03 -0.68449640239E+03 -0.18510398922E+03  0.79372065818E+03  0.15294330000E+03 0.  0.
<mgrwt>
<rscale>  0 0.93946200E+03</rscale>
<asrwt>0</asrwt>
<pdfrwt beam="1">  1        2 0.27185868E+00 0.10030691E+04</pdfrwt>
<pdfrwt beam="2">  1       -2 0.10174942E+00 0.10030691E+04</pdfrwt>
<totfact> 0.71137011E+00</totfact>
</mgrwt>
</event>
<event>
 4    5  0.6615028E-008  0.9965774E+03  0.7818608E-02  0.9386049E-01
         -2   -1    0    0    0  501 -0.00000000000E+00  0.00000000000E+00  0.72952795285E+03  0.72952795285E+03  0.25500000000E-02 0.  1.
          2   -1    0    0  501    0  0.00000000000E+00 -0.00000000000E+00 -0.15192809004E+04  0.15192809004E+04  0.25500000000E-02 0. -1.
    8880023    1    1    2    0    0  0.45518190759E+03  0.59343551216E+03 -0.10448730794E+04  0.14439273647E+04  0.65864270000E+03 0.  0.
    8880022    1    1    2    0    0 -0.45518190759E+03 -0.59343551216E+03  0.25512013181E+03  0.80488148864E+03  0.15294330000E+03 0.  0.
<mgrwt>
<rscale>  0 0.93232722E+03</rscale>
<asrwt>0</asrwt>
<pdfrwt beam="1">  1        2 0.23373552E+00 0.99657738E+03</pdfrwt>
<pdfrwt beam="2">  1       -2 0.11223507E+00 0.99657738E+03</pdfrwt>
<totfact> 0.77075384E+00</totfact>
</mgrwt>
</event>
<event>
 4    5  0.6615028E-008  0.9332699E+03  0.7818608E-02  0.9474605E-01
         -2   -1    0    0    0  501 -0.00000000000E+00  0.00000000000E+00  0.49284386684E+03  0.49284386685E+03  0.25500000000E-02 0.  1.
          2   -1    0    0  501    0  0.00000000000E+00 -0.00000000000E+00 -0.18864325793E+04  0.18864325793E+04  0.25500000000E-02 0. -1.
    8880023    1    1    2    0    0 -0.44646744937E+03 -0.48769801104E+03 -0.14209979295E+04  0.17000670149E+04  0.65864270000E+03 0. -1.
    8880022    1    1    2    0    0  0.44646744937E+03  0.48769801104E+03  0.27409217012E+02  0.67920943126E+03  0.15294330000E+03 0.  0.
<mgrwt>
<rscale>  0 0.86182264E+03</rscale>
<asrwt>0</asrwt>
<pdfrwt beam="1">  1        2 0.29022039E+00 0.93326992E+03</pdfrwt>
<pdfrwt beam="2">  1       -2 0.75822134E-01 0.93326992E+03</pdfrwt>
<totfact> 0.12144438E+01</totfact>
</mgrwt>
</event>
<event>
 4    5  0.6615028E-008  0.1092685E+04  0.7818608E-02  0.9269244E-01
         -2   -1    0    0    0  501 -0.00000000000E+00  0.00000000000E+00  0.46701466615E+04  0.46701466615E+04  0.25500000000E-02 0.  1.
          2   -1    0    0  501    0  0.00000000000E+00 -0.00000000000E+00 -0.65626254052E+03  0.65626254052E+03  0.25500000000E-02 0. -1.
    8880023    1    1    2    0    0  0.67779031916E+03  0.54840799440E+03 -0.11959659277E+03  0.10992108971E+04  0.65864270000E+03 0.  0.
    8880022    1    1    2    0    0 -0.67779031916E+03 -0.54840799440E+03  0.41334807138E+04  0.42271983049E+04  0.15294330000E+03 0.  0.
<mgrwt>
<rscale>  0 0.10366429E+04</rscale>
<asrwt>0</asrwt>
<pdfrwt beam="1">  1        2 0.10096347E+00 0.10926853E+04</pdfrwt>
<pdfrwt beam="2">  1       -2 0.71848411E+00 0.10926853E+04</pdfrwt>
<totfact> 0.86747206E-03</totfact>
</mgrwt>
</event>
<event>
 4    5  0.6615028E-008  0.8207542E+03  0.7818608E-02  0.9667597E-01
          2   -1    0    0  501    0  0.00000000000E+00  0.00000000000E+00  0.12020896933E+04  0.12020896933E+04  0.25500000000E-02 0. -1.
         -2   -1    0    0    0  501 -0.00000000000E+00 -0.00000000000E+00 -0.85118171575E+03  0.85118171575E+03  0.25500000000E-02 0.  1.
    8880023    1    1    2    0    0  0.41520793991E+03  0.25967220876E+03  0.95597552446E+03  0.12599709120E+04  0.65864270000E+03 0. -1.
    8880022    1    1    2    0    0 -0.41520793991E+03 -0.25967220876E+03 -0.60506754690E+03  0.79330049710E+03  0.15294330000E+03 0.  0.
<mgrwt>
<rscale>  0 0.72979265E+03</rscale>
<asrwt>0</asrwt>
<pdfrwt beam="1">  1        2 0.18493688E+00 0.82075422E+03</pdfrwt>
<pdfrwt beam="2">  1       -2 0.13095103E+00 0.82075422E+03</pdfrwt>
<totfact> 0.81431722E+00</totfact>
</mgrwt>
</event>
<event>
 4    5  0.6615028E-008  0.1422662E+04  0.7818608E-02  0.8966271E-01
          2   -1    0    0  501    0  0.00000000000E+00  0.00000000000E+00  0.12617068689E+04  0.12617068689E+04  0.25500000000E-02 0. -1.
         -2   -1    0    0    0  501 -0.00000000000E+00 -0.00000000000E+00 -0.23028007045E+04  0.23028007045E+04  0.25500000000E-02 0.  1.
    8880023    1    1    2    0    0  0.35143036530E+02  0.12605246094E+04  0.55286261931E+03  0.15263107829E+04  0.65864270000E+03 0.  0.
    8880022    1    1    2    0    0 -0.35143036530E+02 -0.12605246094E+04 -0.15939564549E+04  0.20381967906E+04  0.15294330000E+03 0.  0.
<mgrwt>
<rscale>  0 0.13829265E+04</rscale>
<asrwt>0</asrwt>
<pdfrwt beam="1">  1        2 0.19410875E+00 0.14226621E+04</pdfrwt>
<pdfrwt beam="2">  1       -2 0.35427703E+00 0.14226621E+04</pdfrwt>
<totfact> 0.24268168E-01</totfact>
</mgrwt>
</event>
<event>
 4    5  0.6615028E-008  0.1267090E+04  0.7818608E-02  0.9094514E-01
          2   -1    0    0  501    0  0.00000000000E+00  0.00000000000E+00  0.32553902076E+04  0.32553902076E+04  0.25500000000E-02 0. -1.
         -2   -1    0    0    0  501 -0.00000000000E+00 -0.00000000000E+00 -0.52212012141E+03  0.52212012142E+03  0.25500000000E-02 0.  1.
    8880023    1    1    2    0    0 -0.94426611370E+03  0.52921367536E+03  0.64826738653E+03  0.14232942136E+04  0.65864270000E+03 0.  0.
    8880022    1    1    2    0    0  0.94426611370E+03 -0.52921367536E+03  0.20850026997E+04  0.23542161155E+04  0.15294330000E+03 0.  0.
<mgrwt>
<rscale>  0 0.12211834E+04</rscale>
<asrwt>0</asrwt>
<pdfrwt beam="1">  1        2 0.50082926E+00 0.12670895E+04</pdfrwt>
<pdfrwt beam="2">  1       -2 0.80326173E-01 0.12670895E+04</pdfrwt>
<totfact> 0.16161343E+00</totfact>
</mgrwt>
</event>
<event>
 4    5  0.7943233E-008  0.8705549E+03  0.7818608E-02  0.9575057E-01
         -2   -1    0    0    0  501 -0.00000000000E+00  0.00000000000E+00  0.16310126678E+04  0.16310126678E+04  0.25500000000E-02 0.  1.
          2   -1    0    0  501    0  0.00000000000E+00 -0.00000000000E+00 -0.21120016185E+04  0.21120016185E+04  0.25500000000E-02 0. -1.
    8880023    1    1    2    0    0  0.35867524702E+03  0.44204942901E+03 -0.19633824299E+04  0.21477281957E+04  0.65864270000E+03 0. -1.
    8880022    1    1    2    0    0 -0.35867524702E+03 -0.44204942901E+03  0.14823934792E+04  0.15952860905E+04  0.15294330000E+03 0.  0.
<mgrwt>
<rscale>  0 0.78969291E+03</rscale>
<asrwt>0</asrwt>
<pdfrwt beam="1">  1        2 0.32492333E+00 0.87055490E+03</pdfrwt>
<pdfrwt beam="2">  1       -2 0.25092503E+00 0.87055490E+03</pdfrwt>
<totfact> 0.37780204E-01</totfact>
</mgrwt>
</event>
<event>
 4    5  0.6615028E-008  0.8216917E+03  0.7818608E-02  0.9665719E-01
         -2   -1    0    0    0  501 -0.00000000000E+00  0.00000000000E+00  0.21894473332E+03  0.21894473333E+03  0.25500000000E-02 0.  1.
          2   -1    0    0  501    0  0.00000000000E+00 -0.00000000000E+00 -0.32874710369E+04  0.32874710369E+04  0.25500000000E-02 0. -1.
    8880023    1    1    2    0    0 -0.46015741047E+03  0.17211119305E+03 -0.28156305096E+04  0.29330790099E+04  0.65864270000E+03 0. -1.
    8880022    1    1    2    0    0  0.46015741047E+03 -0.17211119305E+03 -0.25289579399E+03  0.57333676039E+03  0.15294330000E+03 0.  0.
<mgrwt>
<rscale>  0 0.73095052E+03</rscale>
<asrwt>0</asrwt>
<pdfrwt beam="1">  1        2 0.50576474E+00 0.82169174E+03</pdfrwt>
<pdfrwt beam="2">  1       -2 0.33683808E-01 0.82169174E+03</pdfrwt>
<totfact> 0.99084651E+00</totfact>
</mgrwt>
</event>
<event>
 4    5  0.6615028E-008  0.7831203E+03  0.7818608E-02  0.9748558E-01
         -2   -1    0    0    0  501 -0.00000000000E+00  0.00000000000E+00  0.19856053526E+04  0.19856053526E+04  0.25500000000E-02 0.  1.
          2   -1    0    0  501    0  0.00000000000E+00 -0.00000000000E+00 -0.15407421316E+04  0.15407421316E+04  0.25500000000E-02 0. -1.
    8880023    1    1    2    0    0  0.47212918788E+02 -0.42099662816E+03 -0.14125489151E+04  0.16151073848E+04  0.65864270000E+03 0. -1.
    8880022    1    1    2    0    0 -0.47212918788E+02  0.42099662816E+03  0.18574121362E+04  0.19112400993E+04  0.15294330000E+03 0.  0.
<mgrwt>
<rscale>  0 0.68197840E+03</rscale>
<asrwt>0</asrwt>
<pdfrwt beam="1">  1        2 0.23703725E+00 0.78312031E+03</pdfrwt>
<pdfrwt beam="2">  1       -2 0.30547774E+00 0.78312031E+03</pdfrwt>
<totfact> 0.37163720E-01</totfact>
</mgrwt>
</event>
<event>
 4    5  0.6615028E-008  0.8160156E+03  0.7818608E-02  0.9677180E-01
         -2   -1    0    0    0  501 -0.00000000000E+00  0.00000000000E+00  0.16195109601E+03  0.16195109603E+03  0.25500000000E-02 0.  1.
          2   -1    0    0  501    0  0.00000000000E+00 -0.00000000000E+00 -0.32398076135E+04  0.32398076135E+04  0.25500000000E-02 0. -1.
    8880023    1    1    2    0    0  0.47938281128E+03 -0.47574228654E+02 -0.25207580347E+04  0.26495475958E+04  0.65864270000E+03 0. -1.
    8880022    1    1    2    0    0 -0.47938281128E+03  0.47574228654E+02 -0.55709848280E+03  0.75221111368E+03  0.15294330000E+03 0.  0.
<mgrwt>
<rscale>  0 0.72391870E+03</rscale>
<asrwt>0</asrwt>
<pdfrwt beam="1">  1        2 0.49843189E+00 0.81601556E+03</pdfrwt>
<pdfrwt beam="2">  1       -2 0.24915556E-01 0.81601556E+03</pdfrwt>
<totfact> 0.18594153E+01</totfact>
</mgrwt>
</event>
<event>
 4    5  0.6615028E-008  0.9666709E+03  0.7818608E-02  0.9426523E-01
         -2   -1    0    0    0  501 -0.00000000000E+00  0.00000000000E+00  0.71399503769E+03  0.71399503769E+03  0.25500000000E-02 0.  1.
          2   -1    0    0  501    0  0.00000000000E+00 -0.00000000000E+00 -0.23252308751E+04  0.23252308751E+04  0.25500000000E-02 0. -1.
    8880023    1    1    2    0    0 -0.53442421172E+03  0.46371679051E+03 -0.19972120102E+04  0.22188529739E+04  0.65864270000E+03 0. -1.
    8880022    1    1    2    0    0  0.53442421172E+03 -0.46371679051E+03  0.38597617279E+03  0.82037293889E+03  0.15294330000E+03 0.  0.
<mgrwt>
<rscale>  0 0.89924689E+03</rscale>
<asrwt>0</asrwt>
<pdfrwt beam="1">  1        2 0.35772782E+00 0.96667094E+03</pdfrwt>
<pdfrwt beam="2">  1       -2 0.10984539E+00 0.96667094E+03</pdfrwt>
<totfact> 0.29188466E+00</totfact>
</mgrwt>
</event>
<event>
 4    5  0.6615028E-008  0.1057987E+04  0.7818608E-02  0.9309342E-01
          2   -1    0    0  501    0  0.00000000000E+00  0.00000000000E+00  0.28791907423E+04  0.28791907423E+04  0.25500000000E-02 0. -1.
         -2   -1    0    0    0  501 -0.00000000000E+00 -0.00000000000E+00 -0.11750083394E+04  0.11750083394E+04  0.25500000000E-02 0.  1.
    8880023    1    1    2    0    0 -0.13688812243E+03 -0.81657027546E+03  0.26107354572E+04  0.28169620527E+04  0.65864270000E+03 0.  0.
    8880022    1    1    2    0    0  0.13688812243E+03  0.81657027546E+03 -0.90655305421E+03  0.12372370290E+04  0.15294330000E+03 0.  0.
<mgrwt>
<rscale>  0 0.99927389E+03</rscale>
<asrwt>0</asrwt>
<pdfrwt beam="1">  1        2 0.44295242E+00 0.10579866E+04</pdfrwt>
<pdfrwt beam="2">  1       -2 0.18077052E+00 0.10579866E+04</pdfrwt>
<totfact> 0.37194759E-01</totfact>
</mgrwt>
</event>
<event>
 4    5  0.6615028E-008  0.1140845E+04  0.7818608E-02  0.9216887E-01
          2   -1    0    0  501    0  0.00000000000E+00  0.00000000000E+00  0.92298904028E+03  0.92298904028E+03  0.25500000000E-02 0. -1.
         -2   -1    0    0    0  501 -0.00000000000E+00 -0.00000000000E+00 -0.19761933795E+04  0.19761933795E+04  0.25500000000E-02 0.  1.
    8880023    1    1    2    0    0 -0.85342840681E+03 -0.37333381026E+03  0.36299638347E+03  0.11972028901E+04  0.65864270000E+03 0.  0.
    8880022    1    1    2    0    0  0.85342840681E+03  0.37333381026E+03 -0.14162007227E+04  0.17019795296E+04  0.15294330000E+03 0.  0.
<mgrwt>
<rscale>  0 0.10880817E+04</rscale>
<asrwt>0</asrwt>
<pdfrwt beam="1">  1        2 0.14199831E+00 0.11408455E+04</pdfrwt>
<pdfrwt beam="2">  1       -2 0.30402975E+00 0.11408455E+04</pdfrwt>
<totfact> 0.83796971E-01</totfact>
</mgrwt>
</event>
<event>
 4    5  0.6615028E-008  0.7165533E+03  0.7818608E-02  0.9934426E-01
          2   -1    0    0  501    0  0.00000000000E+00  0.00000000000E+00  0.31349775457E+04  0.31349775457E+04  0.25500000000E-02 0. -1.
         -2   -1    0    0    0  501 -0.00000000000E+00 -0.00000000000E+00 -0.20670817844E+03  0.20670817845E+03  0.25500000000E-02 0.  1.
    8880023    1    1    2    0    0  0.37217905273E+02 -0.27973774756E+03  0.29344233671E+04  0.30206438193E+04  0.65864270000E+03 0.  0.
    8880022    1    1    2    0    0 -0.37217905273E+02  0.27973774756E+03 -0.61539998538E+01  0.32104190476E+03  0.15294330000E+03 0.  0.
<mgrwt>
<rscale>  0 0.58621488E+03</rscale>
<asrwt>0</asrwt>
<pdfrwt beam="1">  1        2 0.48230421E+00 0.71655327E+03</pdfrwt>
<pdfrwt beam="2">  1       -2 0.31801260E-01 0.71655327E+03</pdfrwt>
<totfact> 0.14075584E+01</totfact>
</mgrwt>
</event>
<event>
 4    5  0.6615028E-008  0.1018716E+04  0.7818608E-02  0.9357471E-01
          2   -1    0    0  501    0  0.00000000000E+00  0.00000000000E+00  0.20737727350E+04  0.20737727350E+04  0.25500000000E-02 0. -1.
         -2   -1    0    0    0  501 -0.00000000000E+00 -0.00000000000E+00 -0.48592998993E+03  0.48592998994E+03  0.25500000000E-02 0.  1.
    8880023    1    1    2    0    0  0.57409535465E+03  0.52381830542E+03  0.14239978271E+04  0.17508715290E+04  0.65864270000E+03 0. -1.
    8880022    1    1    2    0    0 -0.57409535465E+03 -0.52381830542E+03  0.16384491798E+03  0.80883119591E+03  0.15294330000E+03 0.  0.
<mgrwt>
<rscale>  0 0.95659814E+03</rscale>
<asrwt>0</asrwt>
<pdfrwt beam="1">  1        2 0.31904196E+00 0.10187155E+04</pdfrwt>
<pdfrwt beam="2">  1       -2 0.74758460E-01 0.10187155E+04</pdfrwt>
<totfact> 0.97887614E+00</totfact>
</mgrwt>
</event>
<event>
 4    5  0.6615028E-008  0.9890792E+03  0.7818608E-02  0.9395987E-01
         -2   -1    0    0    0  501 -0.00000000000E+00  0.00000000000E+00  0.74232279864E+03  0.74232279864E+03  0.25500000000E-02 0.  1.
          2   -1    0    0  501    0  0.00000000000E+00 -0.00000000000E+00 -0.11633388230E+04  0.11633388230E+04  0.25500000000E-02 0. -1.
    8880023    1    1    2    0    0  0.60541993908E+03 -0.42182231792E+03 -0.56409999787E+03  0.11386335602E+04  0.65864270000E+03 0. -1.
    8880022    1    1    2    0    0 -0.60541993908E+03  0.42182231792E+03  0.14308397354E+03  0.76702806143E+03  0.15294330000E+03 0.  0.
<mgrwt>
<rscale>  0 0.92406677E+03</rscale>
<asrwt>0</asrwt>
<pdfrwt beam="1">  1        2 0.17897520E+00 0.98907916E+03</pdfrwt>
<pdfrwt beam="2">  1       -2 0.11420351E+00 0.98907916E+03</pdfrwt>
<totfact> 0.11879866E+01</totfact>
</mgrwt>
</event>
<event>
 4    5  0.6615028E-008  0.8584673E+03  0.7818608E-02  0.9596296E-01
         -2   -1    0    0    0  501 -0.00000000000E+00  0.00000000000E+00  0.56190239715E+03  0.56190239715E+03  0.25500000000E-02 0.  1.
          2   -1    0    0  501    0  0.00000000000E+00 -0.00000000000E+00 -0.23369741779E+04  0.23369741779E+04  0.25500000000E-02 0. -1.
    8880023    1    1    2    0    0  0.27589715437E+03  0.47648368945E+03 -0.20806976727E+04  0.22508373903E+04  0.65864270000E+03 0. -1.
    8880022    1    1    2    0    0 -0.27589715437E+03 -0.47648368945E+03  0.30562589197E+03  0.64803918474E+03  0.15294330000E+03 0.  0.
<mgrwt>
<rscale>  0 0.77541847E+03</rscale>
<asrwt>0</asrwt>
<pdfrwt beam="1">  1        2 0.35953448E+00 0.85846733E+03</pdfrwt>
<pdfrwt beam="2">  1       -2 0.86446524E-01 0.85846733E+03</pdfrwt>
<totfact> 0.51415763E+00</totfact>
</mgrwt>
</event>
<event>
 4    5  0.6615028E-008  0.1166959E+04  0.7818608E-02  0.9189930E-01
          2   -1    0    0  501    0  0.00000000000E+00  0.00000000000E+00  0.17706213819E+04  0.17706213819E+04  0.25500000000E-02 0. -1.
         -2   -1    0    0    0  501 -0.00000000000E+00 -0.00000000000E+00 -0.96131413282E+03  0.96131413283E+03  0.25500000000E-02 0.  1.
    8880023    1    1    2    0    0 -0.39246822154E+03  0.87974484781E+03  0.12067359710E+04  0.16786912200E+04  0.65864270000E+03 0.  0.
    8880022    1    1    2    0    0  0.39246822154E+03 -0.87974484781E+03 -0.39742872199E+03  0.10532442947E+04  0.15294330000E+03 0.  0.
<mgrwt>
<rscale>  0 0.11157978E+04</rscale>
<asrwt>0</asrwt>
<pdfrwt beam="1">  1        2 0.27240329E+00 0.11669587E+04</pdfrwt>
<pdfrwt beam="2">  1       -2 0.14789448E+00 0.11669587E+04</pdfrwt>
<totfact> 0.27196067E+00</totfact>
</mgrwt>
</event>
<event>
 4    5  0.6615028E-008  0.9083812E+03  0.7818608E-02  0.9512709E-01
         -2   -1    0    0    0  501 -0.00000000000E+00  0.00000000000E+00  0.25839367014E+04  0.25839367014E+04  0.25500000000E-02 0.  1.
          2   -1    0    0  501    0  0.00000000000E+00 -0.00000000000E+00 -0.11960986532E+04  0.11960986532E+04  0.25500000000E-02 0. -1.
    8880023    1    1    2    0    0 -0.57109801179E+03 -0.25532972651E+03 -0.97406984284E+03  0.13319040781E+04  0.65864270000E+03 0.  0.
    8880022    1    1    2    0    0  0.57109801179E+03  0.25532972651E+03  0.23619078910E+04  0.24481312765E+04  0.15294330000E+03 0.  0.
<mgrwt>
<rscale>  0 0.83353303E+03</rscale>
<asrwt>0</asrwt>
<pdfrwt beam="1">  1        2 0.18401518E+00 0.90838121E+03</pdfrwt>
<pdfrwt beam="2">  1       -2 0.39752872E+00 0.90838121E+03</pdfrwt>
<totfact> 0.15177755E-01</totfact>
</mgrwt>
</event>
<event>
 4    5  0.6615028E-008  0.9707794E+03  0.7818608E-02  0.9420827E-01
          2   -1    0    0  501    0  0.00000000000E+00  0.00000000000E+00  0.29672638117E+04  0.29672638118E+04  0.25500000000E-02 0. -1.
         -2   -1    0    0    0  501 -0.00000000000E+00 -0.00000000000E+00 -0.87573663672E+03  0.87573663672E+03  0.25500000000E-02 0.  1.
    8880023    1    1    2    0    0 -0.31659091523E+03  0.63904039398E+03  0.27150784792E+04  0.28834118310E+04  0.65864270000E+03 0. -1.
    8880022    1    1    2    0    0  0.31659091523E+03 -0.63904039398E+03 -0.62355130419E+03  0.95958861744E+03  0.15294330000E+03 0.  0.
<mgrwt>
<rscale>  0 0.90381337E+03</rscale>
<asrwt>0</asrwt>
<pdfrwt beam="1">  1        2 0.45650212E+00 0.97077940E+03</pdfrwt>
<pdfrwt beam="2">  1       -2 0.13472871E+00 0.97077940E+03</pdfrwt>
<totfact> 0.73940293E-01</totfact>
</mgrwt>
</event>
<event>
 4    5  0.6615028E-008  0.9394589E+03  0.7818608E-02  0.9465445E-01
         -2   -1    0    0    0  501 -0.00000000000E+00  0.00000000000E+00  0.74984298878E+03  0.74984298878E+03  0.25500000000E-02 0.  1.
          2   -1    0    0  501    0  0.00000000000E+00 -0.00000000000E+00 -0.25839020121E+04  0.25839020121E+04  0.25500000000E-02 0. -1.
    8880023    1    1    2    0    0 -0.18751567804E+03  0.64312572196E+03 -0.23127676237E+04  0.24962926734E+04  0.65864270000E+03 0. -1.
    8880022    1    1    2    0    0  0.18751567804E+03 -0.64312572196E+03  0.47870860036E+03  0.83745232750E+03  0.15294330000E+03 0.  0.
<mgrwt>
<rscale>  0 0.86880038E+03</rscale>
<asrwt>0</asrwt>
<pdfrwt beam="1">  1        2 0.39752338E+00 0.93945890E+03</pdfrwt>
<pdfrwt beam="2">  1       -2 0.11536046E+00 0.93945890E+03</pdfrwt>
<totfact> 0.18536231E+00</totfact>
</mgrwt>
</event>
<event>
 4    5  0.6615028E-008  0.8396387E+03  0.7818608E-02  0.9630862E-01
         -2   -1    0    0    0  501 -0.00000000000E+00  0.00000000000E+00  0.20742373218E+04  0.20742373218E+04  0.25500000000E-02 0.  1.
          2   -1    0    0  501    0  0.00000000000E+00 -0.00000000000E+00 -0.41566361810E+03  0.41566361811E+03  0.25500000000E-02 0. -1.
    8880023    1    1    2    0    0  0.12754567880E+03 -0.50489107290E+03  0.10735568557E+03  0.84647406644E+03  0.65864270000E+03 0.  0.
    8880022    1    1    2    0    0 -0.12754567880E+03  0.50489107290E+03  0.15512180181E+04  0.16434268734E+04  0.15294330000E+03 0.  0.
<mgrwt>
<rscale>  0 0.75286781E+03</rscale>
<asrwt>0</asrwt>
<pdfrwt beam="1">  1        2 0.63948250E-01 0.83963867E+03</pdfrwt>
<pdfrwt beam="2">  1       -2 0.31911343E+00 0.83963867E+03</pdfrwt>
<totfact> 0.19050368E+00</totfact>
</mgrwt>
</event>
<event>
 4    5  0.6615028E-008  0.1168033E+04  0.7818608E-02  0.9188840E-01
          2   -1    0    0  501    0  0.00000000000E+00  0.00000000000E+00  0.19308104079E+04  0.19308104079E+04  0.25500000000E-02 0. -1.
         -2   -1    0    0    0  501 -0.00000000000E+00 -0.00000000000E+00 -0.12110440302E+04  0.12110440302E+04  0.25500000000E-02 0.  1.
    8880023    1    1    2    0    0 -0.62763724799E+03 -0.73250441750E+03  0.14933827607E+04  0.18959149541E+04  0.65864270000E+03 0. -1.
    8880022    1    1    2    0    0  0.62763724799E+03  0.73250441750E+03 -0.77361638300E+03  0.12459394840E+04  0.15294330000E+03 0.  0.
<mgrwt>
<rscale>  0 0.11169359E+04</rscale>
<asrwt>0</asrwt>
<pdfrwt beam="1">  1        2 0.29704775E+00 0.11680332E+04</pdfrwt>
<pdfrwt beam="2">  1       -2 0.18631447E+00 0.11680332E+04</pdfrwt>
<totfact> 0.11682320E+00</totfact>
</mgrwt>
</event>
<event>
 4    5  0.6615028E-008  0.9998448E+03  0.7818608E-02  0.9381761E-01
         -2   -1    0    0    0  501 -0.00000000000E+00  0.00000000000E+00  0.20660671719E+04  0.20660671719E+04  0.25500000000E-02 0.  1.
          2   -1    0    0  501    0  0.00000000000E+00 -0.00000000000E+00 -0.79557223752E+03  0.79557223753E+03  0.25500000000E-02 0. -1.
    8880023    1    1    2    0    0 -0.52189957057E+03 -0.54175658668E+03 -0.35742246121E+03  0.10618099562E+04  0.65864270000E+03 0. -1.
    8880022    1    1    2    0    0  0.52189957057E+03  0.54175658668E+03  0.16279173956E+04  0.17998294533E+04  0.15294330000E+03 0.  0.
<mgrwt>
<rscale>  0 0.93592020E+03</rscale>
<asrwt>0</asrwt>
<pdfrwt beam="1">  1        2 0.12239573E+00 0.99984477E+03</pdfrwt>
<pdfrwt beam="2">  1       -2 0.31785649E+00 0.99984477E+03</pdfrwt>
<totfact> 0.86290931E-01</totfact>
</mgrwt>
</event>
<event>
 4    5  0.6615028E-008  0.1426714E+04  0.7818608E-02  0.8963198E-01
         -2   -1    0    0    0  501 -0.00000000000E+00  0.00000000000E+00  0.12288430420E+04  0.12288430420E+04  0.25500000000E-02 0.  1.
          2   -1    0    0  501    0  0.00000000000E+00 -0.00000000000E+00 -0.18088632197E+04  0.18088632197E+04  0.25500000000E-02 0. -1.
    8880023    1    1    2    0    0  0.38961682037E+03 -0.12041189969E+04 -0.94548032195E+03  0.17115627569E+04  0.65864270000E+03 0.  0.
    8880022    1    1    2    0    0 -0.38961682037E+03  0.12041189969E+04  0.36546014426E+03  0.13261435048E+04  0.15294330000E+03 0.  0.
<mgrwt>
<rscale>  0 0.13871156E+04</rscale>
<asrwt>0</asrwt>
<pdfrwt beam="1">  1        2 0.27828665E+00 0.14267144E+04</pdfrwt>
<pdfrwt beam="2">  1       -2 0.18905278E+00 0.14267144E+04</pdfrwt>
<totfact> 0.12715089E+00</totfact>
</mgrwt>
</event>
<event>
 4    5  0.6615028E-008  0.7993741E+03  0.7818608E-02  0.9712151E-01
         -2   -1    0    0    0  501 -0.00000000000E+00  0.00000000000E+00  0.65761209966E+03  0.65761209966E+03  0.25500000000E-02 0.  1.
          2   -1    0    0  501    0  0.00000000000E+00 -0.00000000000E+00 -0.15536948428E+04  0.15536948428E+04  0.25500000000E-02 0. -1.
    8880023    1    1    2    0    0  0.73890203781E+02 -0.44691044899E+03 -0.13390730708E+04  0.15595241604E+04  0.65864270000E+03 0.  0.
    8880022    1    1    2    0    0 -0.73890203781E+02  0.44691044899E+03  0.44299032764E+03  0.65178278209E+03  0.15294330000E+03 0.  0.
<mgrwt>
<rscale>  0 0.70297910E+03</rscale>
<asrwt>0</asrwt>
<pdfrwt beam="1">  1        2 0.23902997E+00 0.79937408E+03</pdfrwt>
<pdfrwt beam="2">  1       -2 0.10117109E+00 0.79937408E+03</pdfrwt>
<totfact> 0.96926178E+00</totfact>
</mgrwt>
</event>
<event>
 4    5  0.6615028E-008  0.1055998E+04  0.7818608E-02  0.9311705E-01
          2   -1    0    0  501    0  0.00000000000E+00  0.00000000000E+00  0.94826263198E+03  0.94826263198E+03  0.25500000000E-02 0. -1.
         -2   -1    0    0    0  501 -0.00000000000E+00 -0.00000000000E+00 -0.12291852392E+04  0.12291852392E+04  0.25500000000E-02 0.  1.
    8880023    1    1    2    0    0  0.81055518584E+03  0.15595751435E+03  0.36599933851E+03  0.11176261350E+04  0.65864270000E+03 0.  0.
    8880022    1    1    2    0    0 -0.81055518584E+03 -0.15595751435E+03 -0.64692194570E+03  0.10598217362E+04  0.15294330000E+03 0.  0.
<mgrwt>
<rscale>  0 0.99712378E+03</rscale>
<asrwt>0</asrwt>
<pdfrwt beam="1">  1        2 0.14588656E+00 0.10559984E+04</pdfrwt>
<pdfrwt beam="2">  1       -2 0.18910542E+00 0.10559984E+04</pdfrwt>
<totfact> 0.42189823E+00</totfact>
</mgrwt>
</event>
<event>
 4    5  0.6615028E-008  0.1009329E+04  0.7818608E-02  0.9369453E-01
          2   -1    0    0  501    0  0.00000000000E+00  0.00000000000E+00  0.11276069042E+04  0.11276069042E+04  0.25500000000E-02 0. -1.
         -2   -1    0    0    0  501 -0.00000000000E+00 -0.00000000000E+00 -0.74565215432E+03  0.74565215432E+03  0.25500000000E-02 0.  1.
    8880023    1    1    2    0    0 -0.21968632811E+03  0.73257931295E+03  0.41803256206E+03  0.10924724078E+04  0.65864270000E+03 0.  0.
    8880022    1    1    2    0    0  0.21968632811E+03 -0.73257931295E+03 -0.36077812147E+02  0.78078665080E+03  0.15294330000E+03 0.  0.
<mgrwt>
<rscale>  0 0.94632776E+03</rscale>
<asrwt>0</asrwt>
<pdfrwt beam="1">  1        2 0.17347799E+00 0.10093289E+04</pdfrwt>
<pdfrwt beam="2">  1       -2 0.11471572E+00 0.10093289E+04</pdfrwt>
<totfact> 0.12330674E+01</totfact>
</mgrwt>
</event>
<event>
 4    5  0.6615028E-008  0.8247351E+03  0.7818608E-02  0.9659664E-01
          2   -1    0    0  501    0  0.00000000000E+00  0.00000000000E+00  0.17329073162E+04  0.17329073162E+04  0.25500000000E-02 0. -1.
         -2   -1    0    0    0  501 -0.00000000000E+00 -0.00000000000E+00 -0.37325556444E+03  0.37325556445E+03  0.25500000000E-02 0.  1.
    8880023    1    1    2    0    0 -0.42553263073E+03  0.25553810808E+03  0.21975259596E+03  0.85350990281E+03  0.65864270000E+03 0.  1.
    8880022    1    1    2    0    0  0.42553263073E+03 -0.25553810808E+03  0.11398991558E+04  0.12526529779E+04  0.15294330000E+03 0.  0.
<mgrwt>
<rscale>  0 0.73469982E+03</rscale>
<asrwt>0</asrwt>
<pdfrwt beam="1">  1        2 0.26660112E+00 0.82473508E+03</pdfrwt>
<pdfrwt beam="2">  1       -2 0.57423933E-01 0.82473508E+03</pdfrwt>
<totfact> 0.27208272E+01</totfact>
</mgrwt>
</event>
<event>
 4    5  0.6615028E-008  0.8554162E+03  0.7818608E-02  0.9601770E-01
         -2   -1    0    0    0  501 -0.00000000000E+00  0.00000000000E+00  0.41673475683E+03  0.41673475684E+03  0.25500000000E-02 0.  1.
          2   -1    0    0  501    0  0.00000000000E+00 -0.00000000000E+00 -0.13980084206E+04  0.13980084206E+04  0.25500000000E-02 0. -1.
    8880023    1    1    2    0    0 -0.37982589935E+02 -0.54450350735E+03 -0.90073645524E+03  0.12422009156E+04  0.65864270000E+03 0.  0.
    8880022    1    1    2    0    0  0.37982589935E+02  0.54450350735E+03 -0.80537208566E+02  0.57254226188E+03  0.15294330000E+03 0.  0.
<mgrwt>
<rscale>  0 0.77179164E+03</rscale>
<asrwt>0</asrwt>
<pdfrwt beam="1">  1        2 0.21507822E+00 0.85541625E+03</pdfrwt>
<pdfrwt beam="2">  1       -2 0.64113040E-01 0.85541625E+03</pdfrwt>
<totfact> 0.32965900E+01</totfact>
</mgrwt>
</event>
<event>
 4    5  0.6615028E-008  0.9117882E+03  0.7818608E-02  0.9507367E-01
          2   -1    0    0  501    0  0.00000000000E+00  0.00000000000E+00  0.19104201425E+04  0.19104201425E+04  0.25500000000E-02 0. -1.
         -2   -1    0    0    0  501 -0.00000000000E+00 -0.00000000000E+00 -0.35781596240E+03  0.35781596240E+03  0.25500000000E-02 0.  1.
    8880023    1    1    2    0    0  0.18618160315E+03  0.60239845022E+03  0.12630129396E+04  0.15577417546E+04  0.65864270000E+03 0.  1.
    8880022    1    1    2    0    0 -0.18618160315E+03 -0.60239845022E+03  0.28959124046E+03  0.71049435025E+03  0.15294330000E+03 0.  0.
<mgrwt>
<rscale>  0 0.83742878E+03</rscale>
<asrwt>0</asrwt>
<pdfrwt beam="1">  1        2 0.29391078E+00 0.91178818E+03</pdfrwt>
<pdfrwt beam="2">  1       -2 0.55048611E-01 0.91178818E+03</pdfrwt>
<totfact> 0.23528523E+01</totfact>
</mgrwt>
</event>
<event>
 4    5  0.6615028E-008  0.7613737E+03  0.7818608E-02  0.9801564E-01
          2   -1    0    0  501    0  0.00000000000E+00  0.00000000000E+00  0.69992787134E+03  0.69992787134E+03  0.25500000000E-02 0. -1.
         -2   -1    0    0    0  501 -0.00000000000E+00 -0.00000000000E+00 -0.75279862401E+03  0.75279862402E+03  0.25500000000E-02 0.  1.
    8880023    1    1    2    0    0 -0.37780325355E+03  0.56074793318E+02  0.38390821161E+03  0.85268716540E+03  0.65864270000E+03 0. -1.
    8880022    1    1    2    0    0  0.37780325355E+03 -0.56074793318E+02 -0.43677896429E+03  0.60003932996E+03  0.15294330000E+03 0.  0.
<mgrwt>
<rscale>  0 0.65278674E+03</rscale>
<asrwt>0</asrwt>
<pdfrwt beam="1">  1        2 0.10768121E+00 0.76137368E+03</pdfrwt>
<pdfrwt beam="2">  1       -2 0.11581517E+00 0.76137368E+03</pdfrwt>
<totfact> 0.24048589E+01</totfact>
</mgrwt>
</event>
<event>
 4    5  0.6615028E-008  0.6680896E+03  0.7818608E-02  0.1017071E+00
         -2   -1    0    0    0  501 -0.00000000000E+00  0.00000000000E+00  0.21766530992E+03  0.21766530994E+03  0.25500000000E-02 0.  1.
          2   -1    0    0  501    0  0.00000000000E+00 -0.00000000000E+00 -0.92167776292E+03  0.92167776292E+03  0.25500000000E-02 0. -1.
    8880023    1    1    2    0    0  0.11193742642E+03 -0.18845408679E+01 -0.67112768553E+03  0.94697207745E+03  0.65864270000E+03 0. -1.
    8880022    1    1    2    0    0 -0.11193742642E+03  0.18845408679E+01 -0.32884767468E+02  0.19237099541E+03  0.15294330000E+03 0. -1.
<mgrwt>
<rscale>  0 0.48758567E+03</rscale>
<asrwt>0</asrwt>
<pdfrwt beam="1">  1        2 0.14179658E+00 0.66808962E+03</pdfrwt>
<pdfrwt beam="2">  1       -2 0.33486971E-01 0.66808962E+03</pdfrwt>
<totfact> 0.23946045E+02</totfact>
</mgrwt>
</event>
<event>
 4    5  0.6615028E-008  0.1103366E+04  0.7818608E-02  0.9257318E-01
         -2   -1    0    0    0  501 -0.00000000000E+00  0.00000000000E+00  0.11677110461E+04  0.11677110461E+04  0.25500000000E-02 0.  1.
          2   -1    0    0  501    0  0.00000000000E+00 -0.00000000000E+00 -0.94089437742E+03  0.94089437742E+03  0.25500000000E-02 0. -1.
    8880023    1    1    2    0    0  0.20225643826E+03 -0.86179945880E+03 -0.18775776951E+03  0.11192270370E+04  0.65864270000E+03 0.  0.
    8880022    1    1    2    0    0 -0.20225643826E+03  0.86179945880E+03  0.41457443823E+03  0.98937838659E+03  0.15294330000E+03 0.  0.
<mgrwt>
<rscale>  0 0.10480903E+04</rscale>
<asrwt>0</asrwt>
<pdfrwt beam="1">  1        2 0.14475298E+00 0.11033658E+04</pdfrwt>
<pdfrwt beam="2">  1       -2 0.17964785E+00 0.11033658E+04</pdfrwt>
<totfact> 0.49282598E+00</totfact>
</mgrwt>
</event>
<event>
 4    5  0.6615028E-008  0.9610273E+03  0.7818608E-02  0.9434423E-01
          2   -1    0    0  501    0  0.00000000000E+00  0.00000000000E+00  0.30274817821E+04  0.30274817821E+04  0.25500000000E-02 0. -1.
         -2   -1    0    0    0  501 -0.00000000000E+00 -0.00000000000E+00 -0.38917694048E+03  0.38917694049E+03  0.25500000000E-02 0.  1.
    8880023    1    1    2    0    0  0.56106317204E+03  0.41829588780E+03  0.25116099886E+04  0.26891928666E+04  0.65864270000E+03 0.  0.
    8880022    1    1    2    0    0 -0.56106317204E+03 -0.41829588780E+03  0.12669485298E+03  0.72746585594E+03  0.15294330000E+03 0.  0.
<mgrwt>
<rscale>  0 0.89296179E+03</rscale>
<asrwt>0</asrwt>
<pdfrwt beam="1">  1        2 0.46576644E+00 0.96102734E+03</pdfrwt>
<pdfrwt beam="2">  1       -2 0.59873375E-01 0.96102734E+03</pdfrwt>
<totfact> 0.44807139E+00</totfact>
</mgrwt>
</event>
<event>
 4    5  0.6615028E-008  0.8589734E+03  0.7818608E-02  0.9595392E-01
          2   -1    0    0  501    0  0.00000000000E+00  0.00000000000E+00  0.12702778848E+04  0.12702778848E+04  0.25500000000E-02 0. -1.
         -2   -1    0    0    0  501 -0.00000000000E+00 -0.00000000000E+00 -0.68238730725E+03  0.68238730726E+03  0.25500000000E-02 0.  1.
    8880023    1    1    2    0    0 -0.34739824825E+03  0.42818160863E+03  0.94588072324E+03  0.12777032448E+04  0.65864270000E+03 0. -1.
    8880022    1    1    2    0    0  0.34739824825E+03 -0.42818160863E+03 -0.35799014569E+03  0.67496194728E+03  0.15294330000E+03 0.  0.
<mgrwt>
<rscale>  0 0.77601903E+03</rscale>
<asrwt>0</asrwt>
<pdfrwt beam="1">  1        2 0.19542736E+00 0.85897336E+03</pdfrwt>
<pdfrwt beam="2">  1       -2 0.10498266E+00 0.85897336E+03</pdfrwt>
<totfact> 0.12753903E+01</totfact>
</mgrwt>
</event>
<event>
 4    5  0.6615028E-008  0.6917164E+03  0.7818608E-02  0.1003347E+00
         -2   -1    0    0    0  501 -0.00000000000E+00  0.00000000000E+00  0.94425626462E+03  0.94425626462E+03  0.25500000000E-02 0.  1.
          2   -1    0    0  501    0  0.00000000000E+00 -0.00000000000E+00 -0.29012681996E+04  0.29012681996E+04  0.25500000000E-02 0. -1.
    8880023    1    1    2    0    0  0.17237557448E+03 -0.12226212472E+03 -0.28409232317E+04  0.29239214046E+04  0.65864270000E+03 0. -1.
    8880022    1    1    2    0    0 -0.17237557448E+03  0.12226212472E+03  0.88391129676E+03  0.92160305955E+03  0.15294330000E+03 0.  0.
<mgrwt>
<rscale>  0 0.54206576E+03</rscale>
<asrwt>0</asrwt>
<pdfrwt beam="1">  1        2 0.44634895E+00 0.69171640E+03</pdfrwt>
<pdfrwt beam="2">  1       -2 0.14527020E+00 0.69171640E+03</pdfrwt>
<totfact> 0.70685869E-01</totfact>
</mgrwt>
</event>
<event>
 4    5  0.6615028E-008  0.9838937E+03  0.7818608E-02  0.9402940E-01
         -2   -1    0    0    0  501 -0.00000000000E+00  0.00000000000E+00  0.16368206399E+04  0.16368206399E+04  0.25500000000E-02 0.  1.
          2   -1    0    0  501    0  0.00000000000E+00 -0.00000000000E+00 -0.12035885141E+04  0.12035885141E+04  0.25500000000E-02 0. -1.
    8880023    1    1    2    0    0 -0.36950612156E+03  0.63063606486E+03 -0.88630386251E+03  0.13242285917E+04  0.65864270000E+03 0. -1.
    8880022    1    1    2    0    0  0.36950612156E+03 -0.63063606486E+03  0.13195359883E+04  0.15161805623E+04  0.15294330000E+03 0.  0.
<mgrwt>
<rscale>  0 0.91834155E+03</rscale>
<asrwt>0</asrwt>
<pdfrwt beam="1">  1        2 0.18516746E+00 0.98389371E+03</pdfrwt>
<pdfrwt beam="2">  1       -2 0.25181856E+00 0.98389371E+03</pdfrwt>
<totfact> 0.11796312E+00</totfact>
</mgrwt>
</event>
<event>
 4    5  0.6615028E-008  0.6834199E+03  0.7818608E-02  0.1007452E+00
          2   -1    0    0  501    0  0.00000000000E+00  0.00000000000E+00  0.12683115308E+04  0.12683115308E+04  0.25500000000E-02 0. -1.
         -2   -1    0    0    0  501 -0.00000000000E+00 -0.00000000000E+00 -0.31673037432E+03  0.31673037433E+03  0.25500000000E-02 0.  1.
    8880023    1    1    2    0    0  0.92652623067E+02 -0.15706067690E+03  0.11068741584E+04  0.13008586293E+04  0.65864270000E+03 0. -1.
    8880022    1    1    2    0    0 -0.92652623067E+02  0.15706067690E+03 -0.15529300189E+03  0.28418327579E+03  0.15294330000E+03 0.  0.
<mgrwt>
<rscale>  0 0.52500104E+03</rscale>
<asrwt>0</asrwt>
<pdfrwt beam="1">  1        2 0.19512485E+00 0.68341991E+03</pdfrwt>
<pdfrwt beam="2">  1       -2 0.48727751E-01 0.68341991E+03</pdfrwt>
<totfact> 0.70451821E+01</totfact>
</mgrwt>
</event>
<event>
 4    5  0.6615028E-008  0.9825205E+03  0.7818608E-02  0.9404792E-01
         -2   -1    0    0    0  501 -0.00000000000E+00  0.00000000000E+00  0.67117751298E+03  0.67117751298E+03  0.25500000000E-02 0.  1.
          2   -1    0    0  501    0  0.00000000000E+00 -0.00000000000E+00 -0.22208364148E+04  0.22208364148E+04  0.25500000000E-02 0. -1.
    8880023    1    1    2    0    0 -0.53867222362E+03 -0.49129268422E+03 -0.18452912587E+04  0.20905612408E+04  0.65864270000E+03 0. -1.
    8880022    1    1    2    0    0  0.53867222362E+03  0.49129268422E+03  0.29563235682E+03  0.80145268699E+03  0.15294330000E+03 0.  0.
<mgrwt>
<rscale>  0 0.91682359E+03</rscale>
<asrwt>0</asrwt>
<pdfrwt beam="1">  1        2 0.34166714E+00 0.98252047E+03</pdfrwt>
<pdfrwt beam="2">  1       -2 0.10325808E+00 0.98252047E+03</pdfrwt>
<totfact> 0.38681143E+00</totfact>
</mgrwt>
</event>
<event>
 4    5  0.6615028E-008  0.1151510E+04  0.7818608E-02  0.9205763E-01
         -2   -1    0    0    0  501 -0.00000000000E+00  0.00000000000E+00  0.46906969729E+03  0.46906969729E+03  0.25500000000E-02 0.  1.
          2   -1    0    0  501    0  0.00000000000E+00 -0.00000000000E+00 -0.27636404343E+04  0.27636404343E+04  0.25500000000E-02 0. -1.
    8880023    1    1    2    0    0 -0.92987444261E+03 -0.16582716398E+03 -0.18465439767E+04  0.21761663519E+04  0.65864270000E+03 0.  0.
    8880022    1    1    2    0    0  0.92987444261E+03  0.16582716398E+03 -0.44802676037E+03  0.10565437797E+04  0.15294330000E+03 0.  0.
<mgrwt>
<rscale>  0 0.10994145E+04</rscale>
<asrwt>0</asrwt>
<pdfrwt beam="1">  1        2 0.42517544E+00 0.11515100E+04</pdfrwt>
<pdfrwt beam="2">  1       -2 0.72164570E-01 0.11515100E+04</pdfrwt>
<totfact> 0.42151196E+00</totfact>
</mgrwt>
</event>
<event>
 4    5  0.6615028E-008  0.7253500E+03  0.7818608E-02  0.9904882E-01
         -2   -1    0    0    0  501 -0.00000000000E+00  0.00000000000E+00  0.14785073362E+04  0.14785073362E+04  0.25500000000E-02 0.  1.
          2   -1    0    0  501    0  0.00000000000E+00 -0.00000000000E+00 -0.11823329800E+04  0.11823329800E+04  0.25500000000E-02 0. -1.
    8880023    1    1    2    0    0 -0.29977946701E+03  0.49544136601E+02 -0.10478645131E+04  0.12744224552E+04  0.65864270000E+03 0. -1.
    8880022    1    1    2    0    0  0.29977946701E+03 -0.49544136601E+02  0.13440388693E+04  0.13864178610E+04  0.15294330000E+03 0.  0.
<mgrwt>
<rscale>  0 0.60025244E+03</rscale>
<asrwt>0</asrwt>
<pdfrwt beam="1">  1        2 0.18189738E+00 0.72534995E+03</pdfrwt>
<pdfrwt beam="2">  1       -2 0.22746267E+00 0.72534995E+03</pdfrwt>
<totfact> 0.17836375E+00</totfact>
</mgrwt>
</event>
<event>
 4    5  0.6615028E-008  0.8195087E+03  0.7818608E-02  0.9670101E-01
         -2   -1    0    0    0  501 -0.00000000000E+00  0.00000000000E+00  0.18316207307E+04  0.18316207307E+04  0.25500000000E-02 0.  1.
          2   -1    0    0  501    0  0.00000000000E+00 -0.00000000000E+00 -0.16837511980E+04  0.16837511980E+04  0.25500000000E-02 0. -1.
    8880023    1    1    2    0    0 -0.16082400540E+03 -0.46034759517E+03 -0.15439966689E+04  0.17480046307E+04  0.65864270000E+03 0. -1.
    8880022    1    1    2    0    0  0.16082400540E+03  0.46034759517E+03  0.16918662016E+04  0.17673672980E+04  0.15294330000E+03 0.  0.
<mgrwt>
<rscale>  0 0.72825221E+03</rscale>
<asrwt>0</asrwt>
<pdfrwt beam="1">  1        2 0.25903864E+00 0.81950868E+03</pdfrwt>
<pdfrwt beam="2">  1       -2 0.28178781E+00 0.81950868E+03</pdfrwt>
<totfact> 0.42696771E-01</totfact>
</mgrwt>
</event>
<event>
 4    5  0.6615028E-008  0.7079788E+03  0.7818608E-02  0.9965585E-01
          2   -1    0    0  501    0  0.00000000000E+00  0.00000000000E+00  0.14728359691E+04  0.14728359691E+04  0.25500000000E-02 0. -1.
         -2   -1    0    0    0  501 -0.00000000000E+00 -0.00000000000E+00 -0.34393462767E+03  0.34393462768E+03  0.25500000000E-02 0.  1.
    8880023    1    1    2    0    0 -0.17569331926E+03 -0.19119513842E+03  0.12926268968E+04  0.14738107830E+04  0.65864270000E+03 0.  0.
    8880022    1    1    2    0    0  0.17569331926E+03  0.19119513842E+03 -0.16372555538E+03  0.34295981381E+03  0.15294330000E+03 0.  0.
<mgrwt>
<rscale>  0 0.57185391E+03</rscale>
<asrwt>0</asrwt>
<pdfrwt beam="1">  1        2 0.22659014E+00 0.70797876E+03</pdfrwt>
<pdfrwt beam="2">  1       -2 0.52913022E-01 0.70797876E+03</pdfrwt>
<totfact> 0.45469756E+01</totfact>
</mgrwt>
</event>
<event>
 4    5  0.6615028E-008  0.1261251E+04  0.7818608E-02  0.9099766E-01
         -2   -1    0    0    0  501 -0.00000000000E+00  0.00000000000E+00  0.12466675365E+04  0.12466675365E+04  0.25500000000E-02 0.  1.
          2   -1    0    0  501    0  0.00000000000E+00 -0.00000000000E+00 -0.25720708216E+04  0.25720708216E+04  0.25500000000E-02 0. -1.
    8880023    1    1    2    0    0  0.31112045688E+03 -0.10296349100E+04 -0.21240845615E+04  0.24703217234E+04  0.65864270000E+03 0.  1.
    8880022    1    1    2    0    0 -0.31112045688E+03  0.10296349100E+04  0.79868127637E+03  0.13484166347E+04  0.15294330000E+03 0.  0.
<mgrwt>
<rscale>  0 0.12150715E+04</rscale>
<asrwt>0</asrwt>
<pdfrwt beam="1">  1        2 0.39570320E+00 0.12612510E+04</pdfrwt>
<pdfrwt beam="2">  1       -2 0.19179501E+00 0.12612510E+04</pdfrwt>
<totfact> 0.46140521E-01</totfact>
</mgrwt>
</event>
<event>
 4    5  0.6615028E-008  0.1283100E+04  0.7818608E-02  0.9080293E-01
          2   -1    0    0  501    0  0.00000000000E+00  0.00000000000E+00  0.13226825974E+04  0.13226825974E+04  0.25500000000E-02 0. -1.
         -2   -1    0    0    0  501 -0.00000000000E+00 -0.00000000000E+00 -0.14455483638E+04  0.14455483638E+04  0.25500000000E-02 0.  1.
    8880023    1    1    2    0    0 -0.24737233106E+03 -0.10730063817E+04  0.62614766488E+03  0.14277278696E+04  0.65864270000E+03 0.  0.
    8880022    1    1    2    0    0  0.24737233106E+03  0.10730063817E+04 -0.74901343125E+03  0.13405030916E+04  0.15294330000E+03 0.  0.
<mgrwt>
<rscale>  0 0.12379256E+04</rscale>
<asrwt>0</asrwt>
<pdfrwt beam="1">  1        2 0.20348963E+00 0.12831001E+04</pdfrwt>
<pdfrwt beam="2">  1       -2 0.22239206E+00 0.12831001E+04</pdfrwt>
<totfact> 0.14730095E+00</totfact>
</mgrwt>
</event>
<event>
 4    5  0.6615028E-008  0.1354488E+04  0.7818608E-02  0.9019878E-01
          2   -1    0    0  501    0  0.00000000000E+00  0.00000000000E+00  0.13016206188E+04  0.13016206188E+04  0.25500000000E-02 0. -1.
         -2   -1    0    0    0  501 -0.00000000000E+00 -0.00000000000E+00 -0.21705592481E+04  0.21705592481E+04  0.25500000000E-02 0.  1.
    8880023    1    1    2    0    0  0.86525676183E+02 -0.11803989149E+04 -0.15814804646E+04  0.20822389289E+04  0.65864270000E+03 0.  1.
    8880022    1    1    2    0    0 -0.86525676183E+02  0.11803989149E+04  0.71254183533E+03  0.13899409380E+04  0.15294330000E+03 0.  0.
<mgrwt>
<rscale>  0 0.13122862E+04</rscale>
<asrwt>0</asrwt>
<pdfrwt beam="1">  1        2 0.20024933E+00 0.13544883E+04</pdfrwt>
<pdfrwt beam="2">  1       -2 0.33393219E+00 0.13544883E+04</pdfrwt>
<totfact> 0.31069110E-01</totfact>
</mgrwt>
</event>
<event>
 4    5  0.2115628E-007  0.1535798E+04  0.7818608E-02  0.8884763E-01
          2   -1    0    0  501    0  0.00000000000E+00  0.00000000000E+00  0.22383607713E+04  0.22383607713E+04  0.25500000000E-02 0. -1.
         -2   -1    0    0    0  501 -0.00000000000E+00 -0.00000000000E+00 -0.31386898918E+04  0.31386898918E+04  0.25500000000E-02 0.  1.
    8880023    1    1    2    0    0  0.17863883011E+03  0.13758467834E+04  0.17824856727E+04  0.23528560480E+04  0.65864270000E+03 0.  0.
    8880022    1    1    2    0    0 -0.17863883011E+03 -0.13758467834E+04 -0.26828147932E+04  0.30241946152E+04  0.15294330000E+03 0.  0.
<mgrwt>
<rscale>  0 0.14995344E+04</rscale>
<asrwt>0</asrwt>
<pdfrwt beam="1">  1        2 0.34436319E+00 0.15357983E+04</pdfrwt>
<pdfrwt beam="2">  1       -2 0.48287537E+00 0.15357983E+04</pdfrwt>
<totfact> 0.96547026E-03</totfact>
</mgrwt>
</event>
<event>
 4    5  0.6615028E-008  0.8020906E+03  0.7818608E-02  0.9706294E-01
          2   -1    0    0  501    0  0.00000000000E+00  0.00000000000E+00  0.61511166718E+03  0.61511166718E+03  0.25500000000E-02 0. -1.
         -2   -1    0    0    0  501 -0.00000000000E+00 -0.00000000000E+00 -0.73537652168E+03  0.73537652169E+03  0.25500000000E-02 0.  1.
    8880023    1    1    2    0    0 -0.85311557227E+02 -0.44973439923E+03  0.12057827039E+03  0.81110320996E+03  0.65864270000E+03 0. -1.
    8880022    1    1    2    0    0  0.85311557227E+02  0.44973439923E+03 -0.24084312490E+03  0.53938497891E+03  0.15294330000E+03 0.  0.
<mgrwt>
<rscale>  0 0.70643289E+03</rscale>
<asrwt>0</asrwt>
<pdfrwt beam="1">  1        2 0.94632565E-01 0.80209058E+03</pdfrwt>
<pdfrwt beam="2">  1       -2 0.11313485E+00 0.80209058E+03</pdfrwt>
<totfact> 0.29785056E+01</totfact>
</mgrwt>
</event>
<event>
 4    5  0.6615028E-008  0.8552206E+03  0.7818608E-02  0.9602122E-01
         -2   -1    0    0    0  501 -0.00000000000E+00  0.00000000000E+00  0.22737496280E+04  0.22737496280E+04  0.25500000000E-02 0.  1.
          2   -1    0    0  501    0  0.00000000000E+00 -0.00000000000E+00 -0.67024009948E+03  0.67024009948E+03  0.25500000000E-02 0. -1.
    8880023    1    1    2    0    0 -0.17519079901E+03  0.51662384279E+03 -0.33944188201E+03  0.92012119230E+03  0.65864270000E+03 0.  0.
    8880022    1    1    2    0    0  0.17519079901E+03 -0.51662384279E+03  0.19429514106E+04  0.20238685352E+04  0.15294330000E+03 0.  0.
<mgrwt>
<rscale>  0 0.77155869E+03</rscale>
<asrwt>0</asrwt>
<pdfrwt beam="1">  1        2 0.10311386E+00 0.85522057E+03</pdfrwt>
<pdfrwt beam="2">  1       -2 0.34980763E+00 0.85522057E+03</pdfrwt>
<totfact> 0.69928781E-01</totfact>
</mgrwt>
</event>
<event>
 4    5  0.6615028E-008  0.1226859E+04  0.7818608E-02  0.9131446E-01
          2   -1    0    0  501    0  0.00000000000E+00  0.00000000000E+00  0.42891776230E+04  0.42891776230E+04  0.25500000000E-02 0. -1.
         -2   -1    0    0    0  501 -0.00000000000E+00 -0.00000000000E+00 -0.31948167376E+03  0.31948167377E+03  0.25500000000E-02 0.  1.
    8880023    1    1    2    0    0 -0.14179548634E+03 -0.10253127889E+04  0.26833196194E+04  0.29504892240E+04  0.65864270000E+03 0. -1.
    8880022    1    1    2    0    0  0.14179548634E+03  0.10253127889E+04  0.12863763298E+04  0.16581700727E+04  0.15294330000E+03 0.  0.
<mgrwt>
<rscale>  0 0.11789924E+04</rscale>
<asrwt>0</asrwt>
<pdfrwt beam="1">  1        2 0.65987347E+00 0.12268588E+04</pdfrwt>
<pdfrwt beam="2">  1       -2 0.49151027E-01 0.12268588E+04</pdfrwt>
<totfact> 0.77981676E-01</totfact>
</mgrwt>
</event>
<event>
 4    5  0.6615028E-008  0.9698219E+03  0.7818608E-02  0.9422151E-01
         -2   -1    0    0    0  501 -0.00000000000E+00  0.00000000000E+00  0.62684087593E+03  0.62684087594E+03  0.25500000000E-02 0.  1.
          2   -1    0    0  501    0  0.00000000000E+00 -0.00000000000E+00 -0.23267790694E+04  0.23267790694E+04  0.25500000000E-02 0. -1.
    8880023    1    1    2    0    0 -0.63136312436E+03  0.32882363985E+03 -0.19548362509E+04  0.21821868286E+04  0.65864270000E+03 0. -1.
    8880022    1    1    2    0    0  0.63136312436E+03 -0.32882363985E+03  0.25489805740E+03  0.77143311675E+03  0.15294330000E+03 0.  0.
<mgrwt>
<rscale>  0 0.90274984E+03</rscale>
<asrwt>0</asrwt>
<pdfrwt beam="1">  1        2 0.35796601E+00 0.96982194E+03</pdfrwt>
<pdfrwt beam="2">  1       -2 0.96437059E-01 0.96982194E+03</pdfrwt>
<totfact> 0.39775578E+00</totfact>
</mgrwt>
</event>
<event>
 4    5  0.6615028E-008  0.1434243E+04  0.7818608E-02  0.8957522E-01
         -2   -1    0    0    0  501 -0.00000000000E+00  0.00000000000E+00  0.94510733809E+03  0.94510733809E+03  0.25500000000E-02 0.  1.
          2   -1    0    0  501    0  0.00000000000E+00 -0.00000000000E+00 -0.22557927307E+04  0.22557927307E+04  0.25500000000E-02 0. -1.
    8880023    1    1    2    0    0 -0.97301926755E+03  0.82248101892E+03 -0.12721053721E+04  0.19171081883E+04  0.65864270000E+03 0.  0.
    8880022    1    1    2    0    0  0.97301926755E+03 -0.82248101892E+03 -0.38580020496E+02  0.12837918805E+04  0.15294330000E+03 0.  0.
<mgrwt>
<rscale>  0 0.13948951E+04</rscale>
<asrwt>0</asrwt>
<pdfrwt beam="1">  1        2 0.34704503E+00 0.14342426E+04</pdfrwt>
<pdfrwt beam="2">  1       -2 0.14540113E+00 0.14342426E+04</pdfrwt>
<totfact> 0.14859854E+00</totfact>
</mgrwt>
</event>
<event>
 4    5  0.6615028E-008  0.1357228E+04  0.7818608E-02  0.9017651E-01
          2   -1    0    0  501    0  0.00000000000E+00  0.00000000000E+00  0.24857922291E+04  0.24857922291E+04  0.25500000000E-02 0. -1.
         -2   -1    0    0    0  501 -0.00000000000E+00 -0.00000000000E+00 -0.78824980553E+03  0.78824980554E+03  0.25500000000E-02 0.  1.
    8880023    1    1    2    0    0 -0.77873912953E+03 -0.89544539800E+03  0.15629273971E+04  0.20699781032E+04  0.65864270000E+03 0.  0.
    8880022    1    1    2    0    0  0.77873912953E+03  0.89544539800E+03  0.13461502642E+03  0.12040639314E+04  0.15294330000E+03 0.  0.
<mgrwt>
<rscale>  0 0.13151313E+04</rscale>
<asrwt>0</asrwt>
<pdfrwt beam="1">  1        2 0.38242957E+00 0.13572278E+04</pdfrwt>
<pdfrwt beam="2">  1       -2 0.12126920E+00 0.13572278E+04</pdfrwt>
<totfact> 0.17676011E+00</totfact>
</mgrwt>
</event>
<event>
 4    5  0.6615028E-008  0.8331683E+03  0.7818608E-02  0.9643199E-01
          2   -1    0    0  501    0  0.00000000000E+00  0.00000000000E+00  0.88558181136E+03  0.88558181136E+03  0.25500000000E-02 0. -1.
         -2   -1    0    0    0  501 -0.00000000000E+00 -0.00000000000E+00 -0.59172009425E+03  0.59172009426E+03  0.25500000000E-02 0.  1.
    8880023    1    1    2    0    0  0.25482446119E+03  0.44206760188E+03  0.41532260019E+03  0.93094701200E+03  0.65864270000E+03 0.  0.
    8880022    1    1    2    0    0 -0.25482446119E+03 -0.44206760188E+03 -0.12146088309E+03  0.54635489362E+03  0.15294330000E+03 0.  0.
<mgrwt>
<rscale>  0 0.74501794E+03</rscale>
<asrwt>0</asrwt>
<pdfrwt beam="1">  1        2 0.13624335E+00 0.83316834E+03</pdfrwt>
<pdfrwt beam="2">  1       -2 0.91033861E-01 0.83316834E+03</pdfrwt>
<totfact> 0.31103826E+01</totfact>
</mgrwt>
</event>
<event>
 4    5  0.6615028E-008  0.1382580E+04  0.7818608E-02  0.8997338E-01
          2   -1    0    0  501    0  0.00000000000E+00  0.00000000000E+00  0.23554616779E+04  0.23554616780E+04  0.25500000000E-02 0. -1.
         -2   -1    0    0    0  501 -0.00000000000E+00 -0.00000000000E+00 -0.11446399242E+04  0.11446399242E+04  0.25500000000E-02 0.  1.
    8880023    1    1    2    0    0 -0.86465437208E+03  0.85445357852E+03  0.16909158153E+04  0.21841988467E+04  0.65864270000E+03 0.  0.
    8880022    1    1    2    0    0  0.86465437208E+03 -0.85445357852E+03 -0.48009406158E+03  0.13159027555E+04  0.15294330000E+03 0.  0.
<mgrwt>
<rscale>  0 0.13414341E+04</rscale>
<asrwt>0</asrwt>
<pdfrwt beam="1">  1        2 0.36237872E+00 0.13825803E+04</pdfrwt>
<pdfrwt beam="2">  1       -2 0.17609845E+00 0.13825803E+04</pdfrwt>
<totfact> 0.77579480E-01</totfact>
</mgrwt>
</event>
<event>
 4    5  0.6615028E-008  0.8604986E+03  0.7818608E-02  0.9592677E-01
          2   -1    0    0  501    0  0.00000000000E+00  0.00000000000E+00  0.73887314387E+03  0.73887314388E+03  0.25500000000E-02 0. -1.
         -2   -1    0    0    0  501 -0.00000000000E+00 -0.00000000000E+00 -0.14066134282E+04  0.14066134282E+04  0.25500000000E-02 0.  1.
    8880023    1    1    2    0    0 -0.55225952693E+03 -0.40707072360E+02  0.38771403643E+03  0.94381143834E+03  0.65864270000E+03 0.  0.
    8880022    1    1    2    0    0  0.55225952693E+03  0.40707072360E+02 -0.10554543207E+04  0.12016751337E+04  0.15294330000E+03 0.  1.
<mgrwt>
<rscale>  0 0.77782758E+03</rscale>
<asrwt>0</asrwt>
<pdfrwt beam="1">  1        2 0.11367279E+00 0.86049861E+03</pdfrwt>
<pdfrwt beam="2">  1       -2 0.21640207E+00 0.86049861E+03</pdfrwt>
<totfact> 0.40220550E+00</totfact>
</mgrwt>
</event>
<event>
 4    5  0.6615028E-008  0.7449946E+03  0.7818608E-02  0.9845630E-01
          2   -1    0    0  501    0  0.00000000000E+00  0.00000000000E+00  0.19768227303E+04  0.19768227303E+04  0.25500000000E-02 0. -1.
         -2   -1    0    0    0  501 -0.00000000000E+00 -0.00000000000E+00 -0.76160976818E+03  0.76160976818E+03  0.25500000000E-02 0.  1.
    8880023    1    1    2    0    0 -0.21913099223E+03  0.27053347158E+03  0.18522917397E+04  0.19964973444E+04  0.65864270000E+03 0. -1.
    8880022    1    1    2    0    0  0.21913099223E+03 -0.27053347158E+03 -0.63707877757E+03  0.74193515407E+03  0.15294330000E+03 0.  0.
<mgrwt>
<rscale>  0 0.62970230E+03</rscale>
<asrwt>0</asrwt>
<pdfrwt beam="1">  1        2 0.30412657E+00 0.74499460E+03</pdfrwt>
<pdfrwt beam="2">  1       -2 0.11717073E+00 0.74499460E+03</pdfrwt>
<totfact> 0.40187286E+00</totfact>
</mgrwt>
</event>
<event>
 4    5  0.6615028E-008  0.2046584E+04  0.7818608E-02  0.8597155E-01
         -2   -1    0    0    0  501 -0.00000000000E+00  0.00000000000E+00  0.17847018421E+04  0.17847018421E+04  0.25500000000E-02 0.  1.
          2   -1    0    0  501    0  0.00000000000E+00 -0.00000000000E+00 -0.22496509216E+04  0.22496509216E+04  0.25500000000E-02 0. -1.
    8880023    1    1    2    0    0  0.18910581645E+04  0.42260326197E+03 -0.52017303722E+02  0.20472446128E+04  0.65864270000E+03 0.  0.
    8880022    1    1    2    0    0 -0.18910581645E+04 -0.42260326197E+03 -0.41293177579E+03  0.19871081508E+04  0.15294330000E+03 0.  0.
<mgrwt>
<rscale>  0 0.20203709E+04</rscale>
<asrwt>0</asrwt>
<pdfrwt beam="1">  1        2 0.34610014E+00 0.20465837E+04</pdfrwt>
<pdfrwt beam="2">  1       -2 0.27456951E+00 0.20465837E+04</pdfrwt>
<totfact> 0.19504637E-01</totfact>
</mgrwt>
</event>
<event>
 4    5  0.6615028E-008  0.7178094E+03  0.7818608E-02  0.9930069E-01
         -2   -1    0    0    0  501 -0.00000000000E+00  0.00000000000E+00  0.16188378170E+04  0.16188378170E+04  0.25500000000E-02 0.  1.
          2   -1    0    0  501    0  0.00000000000E+00 -0.00000000000E+00 -0.40969151654E+03  0.40969151655E+03  0.25500000000E-02 0. -1.
    8880023    1    1    2    0    0  0.16766355437E+02  0.28488430965E+03 -0.58498053164E+02  0.72018914810E+03  0.65864270000E+03 0.  0.
    8880022    1    1    2    0    0 -0.16766355437E+02 -0.28488430965E+03  0.12676443536E+04  0.13083401854E+04  0.15294330000E+03 0.  0.
<mgrwt>
<rscale>  0 0.58825892E+03</rscale>
<asrwt>0</asrwt>
<pdfrwt beam="1">  1        2 0.63029463E-01 0.71780944E+03</pdfrwt>
<pdfrwt beam="2">  1       -2 0.24905198E+00 0.71780944E+03</pdfrwt>
<totfact> 0.52043024E+00</totfact>
</mgrwt>
</event>
<event>
 4    5  0.6615028E-008  0.7661802E+03  0.7818608E-02  0.9789363E-01
         -2   -1    0    0    0  501 -0.00000000000E+00  0.00000000000E+00  0.93471682893E+03  0.93471682893E+03  0.25500000000E-02 0.  1.
          2   -1    0    0  501    0  0.00000000000E+00 -0.00000000000E+00 -0.88851631102E+03  0.88851631103E+03  0.25500000000E-02 0. -1.
    8880023    1    1    2    0    0  0.31265407952E+03 -0.23551924411E+03 -0.65350220847E+03  0.10070239473E+04  0.65864270000E+03 0. -1.
    8880022    1    1    2    0    0 -0.31265407952E+03  0.23551924411E+03  0.69970272638E+03  0.81620919261E+03  0.15294330000E+03 0.  0.
<mgrwt>
<rscale>  0 0.65936546E+03</rscale>
<asrwt>0</asrwt>
<pdfrwt beam="1">  1        2 0.13669482E+00 0.76618020E+03</pdfrwt>
<pdfrwt beam="2">  1       -2 0.14380259E+00 0.76618020E+03</pdfrwt>
<totfact> 0.10145741E+01</totfact>
</mgrwt>
</event>
<event>
 4    5  0.6615028E-008  0.1037377E+04  0.7818608E-02  0.9334212E-01
          2   -1    0    0  501    0  0.00000000000E+00  0.00000000000E+00  0.12121014760E+04  0.12121014760E+04  0.25500000000E-02 0. -1.
         -2   -1    0    0    0  501 -0.00000000000E+00 -0.00000000000E+00 -0.84715198910E+03  0.84715198910E+03  0.25500000000E-02 0.  1.
    8880023    1    1    2    0    0 -0.56253261754E+03  0.57087497453E+03  0.61487269010E+03  0.12059103672E+04  0.65864270000E+03 0.  0.
    8880022    1    1    2    0    0  0.56253261754E+03 -0.57087497453E+03 -0.24992320318E+03  0.85334309796E+03  0.15294330000E+03 0.  0.
<mgrwt>
<rscale>  0 0.97693352E+03</rscale>
<asrwt>0</asrwt>
<pdfrwt beam="1">  1        2 0.18647715E+00 0.10373772E+04</pdfrwt>
<pdfrwt beam="2">  1       -2 0.13033108E+00 0.10373772E+04</pdfrwt>
<totfact> 0.79464441E+00</totfact>
</mgrwt>
</event>
<event>
 4    5  0.6615028E-008  0.1423192E+04  0.7818608E-02  0.8965868E-01
          2   -1    0    0  501    0  0.00000000000E+00  0.00000000000E+00  0.16852823341E+04  0.16852823341E+04  0.25500000000E-02 0. -1.
         -2   -1    0    0    0  501 -0.00000000000E+00 -0.00000000000E+00 -0.16919885497E+04  0.16919885497E+04  0.25500000000E-02 0.  1.
    8880023    1    1    2    0    0  0.32022006713E+03 -0.12202969503E+04 -0.10207780650E+04  0.17514175980E+04  0.65864270000E+03 0.  0.
    8880022    1    1    2    0    0 -0.32022006713E+03  0.12202969503E+04  0.10140718494E+04  0.16258532858E+04  0.15294330000E+03 0.  0.
<mgrwt>
<rscale>  0 0.13834744E+04</rscale>
<asrwt>0</asrwt>
<pdfrwt beam="1">  1        2 0.25927420E+00 0.14231921E+04</pdfrwt>
<pdfrwt beam="2">  1       -2 0.26030593E+00 0.14231921E+04</pdfrwt>
<totfact> 0.52559608E-01</totfact>
</mgrwt>
</event>
<event>
 4    5  0.6615028E-008  0.7805305E+03  0.7818608E-02  0.9754592E-01
          2   -1    0    0  501    0  0.00000000000E+00  0.00000000000E+00  0.71824714782E+03  0.71824714783E+03  0.25500000000E-02 0. -1.
         -2   -1    0    0    0  501 -0.00000000000E+00 -0.00000000000E+00 -0.81338097617E+03  0.81338097618E+03  0.25500000000E-02 0.  1.
    8880023    1    1    2    0    0 -0.14324503279E+03 -0.39357138842E+03  0.39014861264E+03  0.87260742801E+03  0.65864270000E+03 0. -1.
    8880022    1    1    2    0    0  0.14324503279E+03  0.39357138842E+03 -0.48528244099E+03  0.65902069600E+03  0.15294330000E+03 0.  0.
<mgrwt>
<rscale>  0 0.67857359E+03</rscale>
<asrwt>0</asrwt>
<pdfrwt beam="1">  1        2 0.11049956E+00 0.78053045E+03</pdfrwt>
<pdfrwt beam="2">  1       -2 0.12513553E+00 0.78053045E+03</pdfrwt>
<totfact> 0.19172971E+01</totfact>
</mgrwt>
</event>
<event>
 4    5  0.6615028E-008  0.2598571E+04  0.7818608E-02  0.8375616E-01
         -2   -1    0    0    0  501 -0.00000000000E+00  0.00000000000E+00  0.28935066418E+04  0.28935066418E+04  0.25500000000E-02 0.  1.
          2   -1    0    0  501    0  0.00000000000E+00 -0.00000000000E+00 -0.38528758390E+04  0.38528758390E+04  0.25500000000E-02 0. -1.
    8880023    1    1    2    0    0 -0.23563874754E+04 -0.87532700576E+03  0.16831309767E+04  0.30960457671E+04  0.65864270000E+03 0.  0.
    8880022    1    1    2    0    0  0.23563874754E+04  0.87532700576E+03 -0.26425001739E+04  0.36503367137E+04  0.15294330000E+03 0.  0.
<mgrwt>
<rscale>  0 0.25782823E+04</rscale>
<asrwt>0</asrwt>
<pdfrwt beam="1">  1        2 0.59275013E+00 0.25985707E+04</pdfrwt>
<pdfrwt beam="2">  1       -2 0.44515487E+00 0.25985707E+04</pdfrwt>
<totfact> 0.13663221E-03</totfact>
</mgrwt>
</event>
<event>
 4    5  0.6615028E-008  0.1221337E+04  0.7818608E-02  0.9136655E-01
          2   -1    0    0  501    0  0.00000000000E+00  0.00000000000E+00  0.30752953126E+04  0.30752953126E+04  0.25500000000E-02 0. -1.
         -2   -1    0    0    0  501 -0.00000000000E+00 -0.00000000000E+00 -0.12613293129E+04  0.12613293129E+04  0.25500000000E-02 0.  1.
    8880023    1    1    2    0    0  0.48087326403E+02 -0.10273954361E+04  0.27045559398E+04  0.29675388474E+04  0.65864270000E+03 0. -1.
    8880022    1    1    2    0    0 -0.48087326403E+02  0.10273954361E+04 -0.89058994016E+03  0.13690857780E+04  0.15294330000E+03 0.  0.
<mgrwt>
<rscale>  0 0.11731868E+04</rscale>
<asrwt>0</asrwt>
<pdfrwt beam="1">  1        2 0.47312236E+00 0.12213370E+04</pdfrwt>
<pdfrwt beam="2">  1       -2 0.19405066E+00 0.12213370E+04</pdfrwt>
<totfact> 0.22291030E-01</totfact>
</mgrwt>
</event>
<event>
 4    5  0.6615028E-008  0.1717901E+04  0.7818608E-02  0.8769364E-01
         -2   -1    0    0    0  501 -0.00000000000E+00  0.00000000000E+00  0.15609593038E+04  0.15609593038E+04  0.25500000000E-02 0.  1.
          2   -1    0    0  501    0  0.00000000000E+00 -0.00000000000E+00 -0.18389092735E+04  0.18389092735E+04  0.25500000000E-02 0. -1.
    8880023    1    1    2    0    0  0.15015456395E+04 -0.51257521184E+03 -0.50313460201E+03  0.17900634875E+04  0.65864270000E+03 0.  0.
    8880022    1    1    2    0    0 -0.15015456395E+04  0.51257521184E+03  0.22518463238E+03  0.16098050898E+04  0.15294330000E+03 0.  0.
<mgrwt>
<rscale>  0 0.16860447E+04</rscale>
<asrwt>0</asrwt>
<pdfrwt beam="1">  1        2 0.28290912E+00 0.17179007E+04</pdfrwt>
<pdfrwt beam="2">  1       -2 0.24014759E+00 0.17179007E+04</pdfrwt>
<totfact> 0.55761796E-01</totfact>
</mgrwt>
</event>
<event>
 4    5  0.6615028E-008  0.7846326E+03  0.7818608E-02  0.9745065E-01
         -2   -1    0    0    0  501 -0.00000000000E+00  0.00000000000E+00  0.28820307642E+03  0.28820307643E+03  0.25500000000E-02 0.  1.
          2   -1    0    0  501    0  0.00000000000E+00 -0.00000000000E+00 -0.38077745199E+04  0.38077745199E+04  0.25500000000E-02 0. -1.
    8880023    1    1    2    0    0  0.41657829830E+03 -0.91108117444E+02 -0.35559586753E+04  0.36414956370E+04  0.65864270000E+03 0. -1.
    8880022    1    1    2    0    0 -0.41657829830E+03  0.91108117444E+02  0.36387231840E+02  0.45448195930E+03  0.15294330000E+03 0.  0.
<mgrwt>
<rscale>  0 0.68395863E+03</rscale>
<asrwt>0</asrwt>
<pdfrwt beam="1">  1        2 0.58581143E+00 0.78463264E+03</pdfrwt>
<pdfrwt beam="2">  1       -2 0.44338937E-01 0.78463264E+03</pdfrwt>
<totfact> 0.25505261E+00</totfact>
</mgrwt>
</event>
<event>
 4    5  0.6615028E-008  0.1303499E+04  0.7818608E-02  0.9062544E-01
          2   -1    0    0  501    0  0.00000000000E+00  0.00000000000E+00  0.18992029655E+04  0.18992029655E+04  0.25500000000E-02 0. -1.
         -2   -1    0    0    0  501 -0.00000000000E+00 -0.00000000000E+00 -0.11948435937E+04  0.11948435937E+04  0.25500000000E-02 0.  1.
    8880023    1    1    2    0    0  0.38420748827E+03 -0.10572063327E+04 -0.53888049640E+03  0.14104974369E+04  0.65864270000E+03 0.  1.
    8880022    1    1    2    0    0 -0.38420748827E+03  0.10572063327E+04  0.12432398682E+04  0.16835491222E+04  0.15294330000E+03 0.  0.
<mgrwt>
<rscale>  0 0.12592205E+04</rscale>
<asrwt>0</asrwt>
<pdfrwt beam="1">  1        2 0.29218507E+00 0.13034995E+04</pdfrwt>
<pdfrwt beam="2">  1       -2 0.18382209E+00 0.13034995E+04</pdfrwt>
<totfact> 0.12451816E+00</totfact>
</mgrwt>
</event>
<event>
 4    5  0.6615028E-008  0.7315018E+03  0.7818608E-02  0.9885431E-01
         -2   -1    0    0    0  501 -0.00000000000E+00  0.00000000000E+00  0.99165811129E+03  0.99165811130E+03  0.25500000000E-02 0.  1.
          2   -1    0    0  501    0  0.00000000000E+00 -0.00000000000E+00 -0.11943180516E+04  0.11943180516E+04  0.25500000000E-02 0. -1.
    8880023    1    1    2    0    0  0.31775518014E+03  0.17784813756E+02 -0.10432984641E+04  0.12741925072E+04  0.65864270000E+03 0. -1.
    8880022    1    1    2    0    0 -0.31775518014E+03 -0.17784813756E+02  0.84063852376E+03  0.91178365567E+03  0.15294330000E+03 0.  0.
<mgrwt>
<rscale>  0 0.60972575E+03</rscale>
<asrwt>0</asrwt>
<pdfrwt beam="1">  1        2 0.18374124E+00 0.73150178E+03</pdfrwt>
<pdfrwt beam="2">  1       -2 0.15256279E+00 0.73150178E+03</pdfrwt>
<totfact> 0.55991214E+00</totfact>
</mgrwt>
</event>
<event>
 4    5  0.6615028E-008  0.9829972E+03  0.7818608E-02  0.9404148E-01
         -2   -1    0    0    0  501 -0.00000000000E+00  0.00000000000E+00  0.79064107627E+03  0.79064107628E+03  0.25500000000E-02 0.  1.
          2   -1    0    0  501    0  0.00000000000E+00 -0.00000000000E+00 -0.10102650648E+04  0.10102650649E+04  0.25500000000E-02 0. -1.
    8880023    1    1    2    0    0 -0.13856470279E+03  0.71643079907E+03 -0.35114215800E+03  0.10438315420E+04  0.65864270000E+03 0. -1.
    8880022    1    1    2    0    0  0.13856470279E+03 -0.71643079907E+03  0.13151816942E+03  0.75707459911E+03  0.15294330000E+03 0.  0.
<mgrwt>
<rscale>  0 0.91735063E+03</rscale>
<asrwt>0</asrwt>
<pdfrwt beam="1">  1        2 0.15542539E+00 0.98299719E+03</pdfrwt>
<pdfrwt beam="2">  1       -2 0.12163709E+00 0.98299719E+03</pdfrwt>
<totfact> 0.12659024E+01</totfact>
</mgrwt>
</event>
<event>
 4    5  0.6615028E-008  0.8444120E+03  0.7818608E-02  0.9621916E-01
         -2   -1    0    0    0  501 -0.00000000000E+00  0.00000000000E+00  0.52497453177E+03  0.52497453177E+03  0.25500000000E-02 0.  1.
          2   -1    0    0  501    0  0.00000000000E+00 -0.00000000000E+00 -0.34348525749E+04  0.34348525749E+04  0.25500000000E-02 0. -1.
    8880023    1    1    2    0    0  0.74464447418E+02  0.52314098020E+03 -0.32196238151E+04  0.33285145570E+04  0.65864270000E+03 0. -1.
    8880022    1    1    2    0    0 -0.74464447418E+02 -0.52314098020E+03  0.30974577198E+03  0.63131254967E+03  0.15294330000E+03 0.  0.
<mgrwt>
<rscale>  0 0.75862433E+03</rscale>
<asrwt>0</asrwt>
<pdfrwt beam="1">  1        2 0.52843884E+00 0.84441201E+03</pdfrwt>
<pdfrwt beam="2">  1       -2 0.80765315E-01 0.84441201E+03</pdfrwt>
<totfact> 0.12980952E+00</totfact>
</mgrwt>
</event>
<event>
 4    5  0.6615028E-008  0.9248618E+03  0.7818608E-02  0.9487244E-01
          2   -1    0    0  501    0  0.00000000000E+00  0.00000000000E+00  0.69412873060E+03  0.69412873060E+03  0.25500000000E-02 0. -1.
         -2   -1    0    0    0  501 -0.00000000000E+00 -0.00000000000E+00 -0.11694370363E+04  0.11694370363E+04  0.25500000000E-02 0.  1.
    8880023    1    1    2    0    0  0.61896496422E+03  0.19606506912E+03  0.16438707886E+03  0.93935746988E+03  0.65864270000E+03 0.  0.
    8880022    1    1    2    0    0 -0.61896496422E+03 -0.19606506912E+03 -0.63969538461E+03  0.92420829706E+03  0.15294330000E+03 0.  0.
<mgrwt>
<rscale>  0 0.85230812E+03</rscale>
<asrwt>0</asrwt>
<pdfrwt beam="1">  1        2 0.10678904E+00 0.92486180E+03</pdfrwt>
<pdfrwt beam="2">  1       -2 0.17991339E+00 0.92486180E+03</pdfrwt>
<totfact> 0.75160808E+00</totfact>
</mgrwt>
</event>
<event>
 4    5  0.6615028E-008  0.7134867E+03  0.7818608E-02  0.9945274E-01
         -2   -1    0    0    0  501 -0.00000000000E+00  0.00000000000E+00  0.34864698161E+03  0.34864698162E+03  0.25500000000E-02 0.  1.
          2   -1    0    0  501    0  0.00000000000E+00 -0.00000000000E+00 -0.18451701082E+04  0.18451701082E+04  0.25500000000E-02 0. -1.
    8880023    1    1    2    0    0 -0.27407835222E+03  0.11579830063E+02 -0.16833919056E+04  0.18283521405E+04  0.65864270000E+03 0.  0.
    8880022    1    1    2    0    0  0.27407835222E+03 -0.11579830063E+02  0.18686877898E+03  0.36546494934E+03  0.15294330000E+03 0.  0.
<mgrwt>
<rscale>  0 0.58116388E+03</rscale>
<asrwt>0</asrwt>
<pdfrwt beam="1">  1        2 0.28387232E+00 0.71348668E+03</pdfrwt>
<pdfrwt beam="2">  1       -2 0.53637999E-01 0.71348668E+03</pdfrwt>
<totfact> 0.27600719E+01</totfact>
</mgrwt>
</event>
<event>
 4    5  0.6615028E-008  0.1319504E+04  0.7818608E-02  0.9048897E-01
         -2   -1    0    0    0  501 -0.00000000000E+00  0.00000000000E+00  0.78352262706E+03  0.78352262706E+03  0.25500000000E-02 0.  1.
          2   -1    0    0  501    0  0.00000000000E+00 -0.00000000000E+00 -0.23126364312E+04  0.23126364312E+04  0.25500000000E-02 0. -1.
    8880023    1    1    2    0    0 -0.10454319296E+04  0.46298348961E+03 -0.14184892451E+04  0.19373186563E+04  0.65864270000E+03 0.  0.
    8880022    1    1    2    0    0  0.10454319296E+04 -0.46298348961E+03 -0.11062455900E+03  0.11588404020E+04  0.15294330000E+03 0.  0.
<mgrwt>
<rscale>  0 0.12759012E+04</rscale>
<asrwt>0</asrwt>
<pdfrwt beam="1">  1        2 0.35579022E+00 0.13195044E+04</pdfrwt>
<pdfrwt beam="2">  1       -2 0.12054194E+00 0.13195044E+04</pdfrwt>
<totfact> 0.22618325E+00</totfact>
</mgrwt>
</event>
<event>
 4    5  0.6615028E-008  0.1079973E+04  0.7818608E-02  0.9283689E-01
          2   -1    0    0  501    0  0.00000000000E+00  0.00000000000E+00  0.17698709009E+04  0.17698709009E+04  0.25500000000E-02 0. -1.
         -2   -1    0    0    0  501 -0.00000000000E+00 -0.00000000000E+00 -0.82854685765E+03  0.82854685765E+03  0.25500000000E-02 0.  1.
    8880023    1    1    2    0    0  0.56819978972E+03  0.64006220620E+03  0.12716329856E+04  0.16683498689E+04  0.65864270000E+03 0.  0.
    8880022    1    1    2    0    0 -0.56819978972E+03 -0.64006220620E+03 -0.33030894237E+03  0.93006788960E+03  0.15294330000E+03 0.  0.
<mgrwt>
<rscale>  0 0.10229848E+04</rscale>
<asrwt>0</asrwt>
<pdfrwt beam="1">  1        2 0.27228783E+00 0.10799726E+04</pdfrwt>
<pdfrwt beam="2">  1       -2 0.12746875E+00 0.10799726E+04</pdfrwt>
<totfact> 0.40390197E+00</totfact>
</mgrwt>
</event>
<event>
 4    5  0.6615028E-008  0.9644337E+03  0.7818608E-02  0.9429644E-01
         -2   -1    0    0    0  501 -0.00000000000E+00  0.00000000000E+00  0.45034326497E+03  0.45034326497E+03  0.25500000000E-02 0.  1.
          2   -1    0    0  501    0  0.00000000000E+00 -0.00000000000E+00 -0.31189382602E+04  0.31189382602E+04  0.25500000000E-02 0. -1.
    8880023    1    1    2    0    0  0.55400501689E+03 -0.43520172888E+03 -0.26800301186E+04  0.28482790851E+04  0.65864270000E+03 0.  0.
    8880022    1    1    2    0    0 -0.55400501689E+03  0.43520172888E+03  0.11435123382E+02  0.72100244009E+03  0.15294330000E+03 0.  0.
<mgrwt>
<rscale>  0 0.89675705E+03</rscale>
<asrwt>0</asrwt>
<pdfrwt beam="1">  1        2 0.47983664E+00 0.96443367E+03</pdfrwt>
<pdfrwt beam="2">  1       -2 0.69283581E-01 0.96443367E+03</pdfrwt>
<totfact> 0.28679363E+00</totfact>
</mgrwt>
</event>
<event>
 4    5  0.6615028E-008  0.1575387E+04  0.7818608E-02  0.8858159E-01
         -2   -1    0    0    0  501 -0.00000000000E+00  0.00000000000E+00  0.11204805422E+04  0.11204805422E+04  0.25500000000E-02 0.  1.
          2   -1    0    0  501    0  0.00000000000E+00 -0.00000000000E+00 -0.41864324626E+04  0.41864324626E+04  0.25500000000E-02 0. -1.
    8880023    1    1    2    0    0 -0.60931018139E+03  0.12949037205E+04 -0.34709788042E+04  0.38117631889E+04  0.65864270000E+03 0. -1.
    8880022    1    1    2    0    0  0.60931018139E+03 -0.12949037205E+04  0.40502688378E+03  0.14951498159E+04  0.15294330000E+03 0.  0.
<mgrwt>
<rscale>  0 0.15401895E+04</rscale>
<asrwt>0</asrwt>
<pdfrwt beam="1">  1        2 0.64406652E+00 0.15753872E+04</pdfrwt>
<pdfrwt beam="2">  1       -2 0.17238162E+00 0.15753872E+04</pdfrwt>
<totfact> 0.46591459E-02</totfact>
</mgrwt>
</event>
<event>
 4    5  0.6615028E-008  0.1055167E+04  0.7818608E-02  0.9312696E-01
          2   -1    0    0  501    0  0.00000000000E+00  0.00000000000E+00  0.28848521568E+04  0.28848521568E+04  0.25500000000E-02 0. -1.
         -2   -1    0    0    0  501 -0.00000000000E+00 -0.00000000000E+00 -0.32672841820E+03  0.32672841821E+03  0.25500000000E-02 0.  1.
    8880023    1    1    2    0    0  0.52386917003E+03 -0.63649610029E+03  0.10652349908E+04  0.14993671948E+04  0.65864270000E+03 0. -1.
    8880022    1    1    2    0    0 -0.52386917003E+03  0.63649610029E+03  0.14928887478E+04  0.17122133802E+04  0.15294330000E+03 0.  0.
<mgrwt>
<rscale>  0 0.99622380E+03</rscale>
<asrwt>0</asrwt>
<pdfrwt beam="1">  1        2 0.44382342E+00 0.10551665E+04</pdfrwt>
<pdfrwt beam="2">  1       -2 0.50265909E-01 0.10551665E+04</pdfrwt>
<totfact> 0.77839770E+00</totfact>
</mgrwt>
</event>
<event>
 4    5  0.6615028E-008  0.9427879E+03  0.7818608E-02  0.9460568E-01
         -2   -1    0    0    0  501 -0.00000000000E+00  0.00000000000E+00  0.53522662060E+03  0.53522662060E+03  0.25500000000E-02 0.  1.
          2   -1    0    0  501    0  0.00000000000E+00 -0.00000000000E+00 -0.17355685225E+04  0.17355685225E+04  0.25500000000E-02 0. -1.
    8880023    1    1    2    0    0  0.36105871361E+02  0.67359864418E+03 -0.12632237249E+04  0.15762560556E+04  0.65864270000E+03 0. -1.
    8880022    1    1    2    0    0 -0.36105871361E+02 -0.67359864418E+03  0.62881823022E+02  0.69453908750E+03  0.15294330000E+03 0.  0.
<mgrwt>
<rscale>  0 0.87254501E+03</rscale>
<asrwt>0</asrwt>
<pdfrwt beam="1">  1        2 0.26701054E+00 0.94278787E+03</pdfrwt>
<pdfrwt beam="2">  1       -2 0.82342558E-01 0.94278787E+03</pdfrwt>
<totfact> 0.12195567E+01</totfact>
</mgrwt>
</event>
<event>
 4    5  0.7665013E-008  0.8602374E+03  0.7818608E-02  0.9593141E-01
          2   -1    0    0  501    0  0.00000000000E+00  0.00000000000E+00  0.15338425322E+04  0.15338425322E+04  0.25500000000E-02 0. -1.
         -2   -1    0    0    0  501 -0.00000000000E+00 -0.00000000000E+00 -0.11354923735E+04  0.11354923735E+04  0.25500000000E-02 0.  1.
    8880023    1    1    2    0    0 -0.54340064405E+03  0.10446985924E+03  0.13247037033E+04  0.15795088855E+04  0.65864270000E+03 0. -1.
    8880022    1    1    2    0    0  0.54340064405E+03 -0.10446985924E+03 -0.92635354468E+03  0.10898260201E+04  0.15294330000E+03 0.  0.
<mgrwt>
<rscale>  0 0.77751805E+03</rscale>
<asrwt>0</asrwt>
<pdfrwt beam="1">  1        2 0.23597577E+00 0.86023742E+03</pdfrwt>
<pdfrwt beam="2">  1       -2 0.17469113E+00 0.86023742E+03</pdfrwt>
<totfact> 0.24271090E+00</totfact>
</mgrwt>
</event>
<event>
 4    5  0.6615028E-008  0.7324517E+03  0.7818608E-02  0.9882507E-01
         -2   -1    0    0    0  501 -0.00000000000E+00  0.00000000000E+00  0.29513218054E+03  0.29513218056E+03  0.25500000000E-02 0.  1.
          2   -1    0    0  501    0  0.00000000000E+00 -0.00000000000E+00 -0.27165445295E+04  0.27165445295E+04  0.25500000000E-02 0. -1.
    8880023    1    1    2    0    0 -0.13786457671E+03 -0.28925525962E+03 -0.25351551346E+04  0.26388438774E+04  0.65864270000E+03 0. -1.
    8880022    1    1    2    0    0  0.13786457671E+03  0.28925525962E+03  0.11374278569E+03  0.37283283257E+03  0.15294330000E+03 0.  0.
<mgrwt>
<rscale>  0 0.61116625E+03</rscale>
<asrwt>0</asrwt>
<pdfrwt beam="1">  1        2 0.41792991E+00 0.73245167E+03</pdfrwt>
<pdfrwt beam="2">  1       -2 0.45404953E-01 0.73245167E+03</pdfrwt>
<totfact> 0.12619383E+01</totfact>
</mgrwt>
</event>
<event>
 4    5  0.6615028E-008  0.1246706E+04  0.7818608E-02  0.9113006E-01
          2   -1    0    0  501    0  0.00000000000E+00  0.00000000000E+00  0.24728846517E+04  0.24728846517E+04  0.25500000000E-02 0. -1.
         -2   -1    0    0    0  501 -0.00000000000E+00 -0.00000000000E+00 -0.64379939732E+03  0.64379939733E+03  0.25500000000E-02 0.  1.
    8880023    1    1    2    0    0  0.54873966304E+03  0.90517908782E+03  0.15905021824E+04  0.20208839149E+04  0.65864270000E+03 0.  0.
    8880022    1    1    2    0    0 -0.54873966304E+03 -0.90517908782E+03  0.23858307196E+03  0.10958001342E+04  0.15294330000E+03 0.  0.
<mgrwt>
<rscale>  0 0.11998289E+04</rscale>
<asrwt>0</asrwt>
<pdfrwt beam="1">  1        2 0.38044379E+00 0.12467055E+04</pdfrwt>
<pdfrwt beam="2">  1       -2 0.99046062E-01 0.12467055E+04</pdfrwt>
<totfact> 0.29827027E+00</totfact>
</mgrwt>
</event>
<event>
 4    5  0.8368937E-008  0.1097611E+04  0.7818608E-02  0.9263721E-01
          2   -1    0    0  501    0  0.00000000000E+00  0.00000000000E+00  0.21544564103E+04  0.21544564103E+04  0.25500000000E-02 0. -1.
         -2   -1    0    0    0  501 -0.00000000000E+00 -0.00000000000E+00 -0.15723049254E+04  0.15723049254E+04  0.25500000000E-02 0.  1.
    8880023    1    1    2    0    0  0.34511406879E+03  0.80736328806E+03  0.18654059719E+04  0.21643680014E+04  0.65864270000E+03 0.  0.
    8880022    1    1    2    0    0 -0.34511406879E+03 -0.80736328806E+03 -0.12832544870E+04  0.15623933342E+04  0.15294330000E+03 0.  0.
<mgrwt>
<rscale>  0 0.10419250E+04</rscale>
<asrwt>0</asrwt>
<pdfrwt beam="1">  1        2 0.33145483E+00 0.10976108E+04</pdfrwt>
<pdfrwt beam="2">  1       -2 0.24189307E+00 0.10976108E+04</pdfrwt>
<totfact> 0.39040862E-01</totfact>
</mgrwt>
</event>
<event>
 4    5  0.6615028E-008  0.8822638E+03  0.7818608E-02  0.9555126E-01
         -2   -1    0    0    0  501 -0.00000000000E+00  0.00000000000E+00  0.89392175597E+03  0.89392175597E+03  0.25500000000E-02 0.  1.
          2   -1    0    0  501    0  0.00000000000E+00 -0.00000000000E+00 -0.15247457531E+04  0.15247457531E+04  0.25500000000E-02 0. -1.
    8880023    1    1    2    0    0 -0.50408773247E+03 -0.30079026477E+03 -0.12642284450E+04  0.15416429524E+04  0.65864270000E+03 0. -1.
    8880022    1    1    2    0    0  0.50408773247E+03  0.30079026477E+03  0.63340444784E+03  0.87702455665E+03  0.15294330000E+03 0.  0.
<mgrwt>
<rscale>  0 0.80338835E+03</rscale>
<asrwt>0</asrwt>
<pdfrwt beam="1">  1        2 0.23457627E+00 0.88226381E+03</pdfrwt>
<pdfrwt beam="2">  1       -2 0.13752642E+00 0.88226381E+03</pdfrwt>
<totfact> 0.46581786E+00</totfact>
</mgrwt>
</event>
<event>
 4    5  0.6615028E-008  0.1118007E+04  0.7818608E-02  0.9241268E-01
         -2   -1    0    0    0  501 -0.00000000000E+00  0.00000000000E+00  0.14099647491E+04  0.14099647492E+04  0.25500000000E-02 0.  1.
          2   -1    0    0  501    0  0.00000000000E+00 -0.00000000000E+00 -0.85572513380E+03  0.85572513381E+03  0.25500000000E-02 0. -1.
    8880023    1    1    2    0    0 -0.96376659338E+02 -0.89824277040E+03 -0.12521637228E+03  0.11249968361E+04  0.65864270000E+03 0.  0.
    8880022    1    1    2    0    0  0.96376659338E+02  0.89824277040E+03  0.67945598763E+03  0.11406930469E+04  0.15294330000E+03 0.  0.
<mgrwt>
<rscale>  0 0.10637441E+04</rscale>
<asrwt>0</asrwt>
<pdfrwt beam="1">  1        2 0.13165002E+00 0.11180066E+04</pdfrwt>
<pdfrwt beam="2">  1       -2 0.21691765E+00 0.11180066E+04</pdfrwt>
<totfact> 0.31927698E+00</totfact>
</mgrwt>
</event>
<event>
 4    5  0.6615028E-008  0.7678600E+03  0.7818608E-02  0.9785168E-01
          2   -1    0    0  501    0  0.00000000000E+00  0.00000000000E+00  0.57898292050E+03  0.57898292051E+03  0.25500000000E-02 0. -1.
         -2   -1    0    0    0  501 -0.00000000000E+00 -0.00000000000E+00 -0.87827651474E+03  0.87827651474E+03  0.25500000000E-02 0.  1.
    8880023    1    1    2    0    0 -0.56822352563E+02  0.39060204937E+03  0.20898695547E+03  0.79579174069E+03  0.65864270000E+03 0. -1.
    8880022    1    1    2    0    0  0.56822352563E+02 -0.39060204937E+03 -0.50828054971E+03  0.66146769456E+03  0.15294330000E+03 0.  0.
<mgrwt>
<rscale>  0 0.66164626E+03</rscale>
<asrwt>0</asrwt>
<pdfrwt beam="1">  1        2 0.89074295E-01 0.76785998E+03</pdfrwt>
<pdfrwt beam="2">  1       -2 0.13511946E+00 0.76785998E+03</pdfrwt>
<totfact> 0.20620571E+01</totfact>
</mgrwt>
</event>
<event>
 4    5  0.6615028E-008  0.1446328E+04  0.7818608E-02  0.8948496E-01
          2   -1    0    0  501    0  0.00000000000E+00  0.00000000000E+00  0.94729335698E+03  0.94729335699E+03  0.25500000000E-02 0. -1.
         -2   -1    0    0    0  501 -0.00000000000E+00 -0.00000000000E+00 -0.21326851010E+04  0.21326851010E+04  0.25500000000E-02 0.  1.
    8880023    1    1    2    0    0  0.12517218540E+04 -0.30206922688E+03 -0.21909458614E+03  0.14628281039E+04  0.65864270000E+03 0.  0.
    8880022    1    1    2    0    0 -0.12517218540E+04  0.30206922688E+03 -0.96629715784E+03  0.16171503541E+04  0.15294330000E+03 0.  0.
<mgrwt>
<rscale>  0 0.14073767E+04</rscale>
<asrwt>0</asrwt>
<pdfrwt beam="1">  1        2 0.14573744E+00 0.14463276E+04</pdfrwt>
<pdfrwt beam="2">  1       -2 0.32810540E+00 0.14463276E+04</pdfrwt>
<totfact> 0.55521262E-01</totfact>
</mgrwt>
</event>
<event>
 4    5  0.6615028E-008  0.8782411E+03  0.7818608E-02  0.9561905E-01
         -2   -1    0    0    0  501 -0.00000000000E+00  0.00000000000E+00  0.10549198434E+04  0.10549198434E+04  0.25500000000E-02 0.  1.
          2   -1    0    0  501    0  0.00000000000E+00 -0.00000000000E+00 -0.23742301103E+04  0.23742301103E+04  0.25500000000E-02 0. -1.
    8880023    1    1    2    0    0 -0.57331318683E+03  0.93857653398E+02 -0.21967285345E+04  0.23657818432E+04  0.65864270000E+03 0. -1.
    8880022    1    1    2    0    0  0.57331318683E+03 -0.93857653398E+02  0.87741826752E+03  0.10633681105E+04  0.15294330000E+03 0.  0.
<mgrwt>
<rscale>  0 0.79869694E+03</rscale>
<asrwt>0</asrwt>
<pdfrwt beam="1">  1        2 0.36526617E+00 0.87824113E+03</pdfrwt>
<pdfrwt beam="2">  1       -2 0.16229536E+00 0.87824113E+03</pdfrwt>
<totfact> 0.10201504E+00</totfact>
</mgrwt>
</event>
<event>
 4    5  0.6615028E-008  0.7693463E+03  0.7818608E-02  0.9781485E-01
         -2   -1    0    0    0  501 -0.00000000000E+00  0.00000000000E+00  0.27534316036E+03  0.27534316037E+03  0.25500000000E-02 0.  1.
          2   -1    0    0  501    0  0.00000000000E+00 -0.00000000000E+00 -0.20799348352E+04  0.20799348352E+04  0.25500000000E-02 0. -1.
    8880023    1    1    2    0    0  0.26519869224E+03 -0.29623157607E+03 -0.17674847300E+04  0.19276659384E+04  0.65864270000E+03 0.  1.
    8880022    1    1    2    0    0 -0.26519869224E+03  0.29623157607E+03 -0.37106944784E+02  0.42761205712E+03  0.15294330000E+03 0.  0.
<mgrwt>
<rscale>  0 0.66365678E+03</rscale>
<asrwt>0</asrwt>
<pdfrwt beam="1">  1        2 0.31998996E+00 0.76934628E+03</pdfrwt>
<pdfrwt beam="2">  1       -2 0.42360488E-01 0.76934628E+03</pdfrwt>
<totfact> 0.32842455E+01</totfact>
</mgrwt>
</event>
<event>
 4    5  0.6615028E-008  0.9511945E+03  0.7818608E-02  0.9448398E-01
         -2   -1    0    0    0  501 -0.00000000000E+00  0.00000000000E+00  0.96103294274E+03  0.96103294275E+03  0.25500000000E-02 0.  1.
          2   -1    0    0  501    0  0.00000000000E+00 -0.00000000000E+00 -0.79477857615E+03  0.79477857616E+03  0.25500000000E-02 0. -1.
    8880023    1    1    2    0    0  0.73506629358E+02  0.68231776765E+03 -0.18630513355E+03  0.96926805872E+03  0.65864270000E+03 0.  0.
    8880022    1    1    2    0    0 -0.73506629358E+02 -0.68231776765E+03  0.35255950014E+03  0.78654346018E+03  0.15294330000E+03 0.  0.
<mgrwt>
<rscale>  0 0.88197562E+03</rscale>
<asrwt>0</asrwt>
<pdfrwt beam="1">  1        2 0.12227363E+00 0.95119449E+03</pdfrwt>
<pdfrwt beam="2">  1       -2 0.14785122E+00 0.95119449E+03</pdfrwt>
<totfact> 0.10775115E+01</totfact>
</mgrwt>
</event>
<event>
 4    5  0.6615028E-008  0.9791320E+03  0.7818608E-02  0.9409383E-01
          2   -1    0    0  501    0  0.00000000000E+00  0.00000000000E+00  0.26774923410E+04  0.26774923410E+04  0.25500000000E-02 0. -1.
         -2   -1    0    0    0  501 -0.00000000000E+00 -0.00000000000E+00 -0.99476465082E+03  0.99476465082E+03  0.25500000000E-02 0.  1.
    8880023    1    1    2    0    0  0.65681518052E+03  0.30575003550E+03  0.24302522559E+04  0.26200812009E+04  0.65864270000E+03 0. -1.
    8880022    1    1    2    0    0 -0.65681518052E+03 -0.30575003550E+03 -0.74752456575E+03  0.10521757909E+04  0.15294330000E+03 0.  0.
<mgrwt>
<rscale>  0 0.91307473E+03</rscale>
<asrwt>0</asrwt>
<pdfrwt beam="1">  1        2 0.41192189E+00 0.97913200E+03</pdfrwt>
<pdfrwt beam="2">  1       -2 0.15304072E+00 0.97913200E+03</pdfrwt>
<totfact> 0.78784204E-01</totfact>
</mgrwt>
</event>
<event>
 4    5  0.6615028E-008  0.9693720E+03  0.7818608E-02  0.9422773E-01
          2   -1    0    0  501    0  0.00000000000E+00  0.00000000000E+00  0.18965289080E+04  0.18965289080E+04  0.25500000000E-02 0. -1.
         -2   -1    0    0    0  501 -0.00000000000E+00 -0.00000000000E+00 -0.41984150442E+03  0.41984150442E+03  0.25500000000E-02 0.  1.
    8880023    1    1    2    0    0 -0.13718334856E+03  0.69789149716E+03  0.11889215012E+04  0.15340196723E+04  0.65864270000E+03 0.  0.
    8880022    1    1    2    0    0  0.13718334856E+03 -0.69789149716E+03  0.28776590246E+03  0.78235074012E+03  0.15294330000E+03 0.  0.
<mgrwt>
<rscale>  0 0.90224988E+03</rscale>
<asrwt>0</asrwt>
<pdfrwt beam="1">  1        2 0.29177368E+00 0.96937197E+03</pdfrwt>
<pdfrwt beam="2">  1       -2 0.64591001E-01 0.96937197E+03</pdfrwt>
<totfact> 0.16967550E+01</totfact>
</mgrwt>
</event>
<event>
 4    5  0.6615028E-008  0.6827014E+03  0.7818608E-02  0.1007835E+00
         -2   -1    0    0    0  501 -0.00000000000E+00  0.00000000000E+00  0.43354034141E+03  0.43354034142E+03  0.25500000000E-02 0.  1.
          2   -1    0    0  501    0  0.00000000000E+00 -0.00000000000E+00 -0.88156360338E+03  0.88156360339E+03  0.25500000000E-02 0. -1.
    8880023    1    1    2    0    0  0.99431926584E+02  0.14961357005E+03 -0.69453188101E+03  0.97388688685E+03  0.65864270000E+03 0. -1.
    8880022    1    1    2    0    0 -0.99431926584E+02 -0.14961357005E+03  0.24650861904E+03  0.34121705796E+03  0.15294330000E+03 0.  0.
<mgrwt>
<rscale>  0 0.52344191E+03</rscale>
<asrwt>0</asrwt>
<pdfrwt beam="1">  1        2 0.13562517E+00 0.68270135E+03</pdfrwt>
<pdfrwt beam="2">  1       -2 0.66698514E-01 0.68270135E+03</pdfrwt>
<totfact> 0.63541417E+01</totfact>
</mgrwt>
</event>
<event>
 4    5  0.6615028E-008  0.1518373E+04  0.7818608E-02  0.8896770E-01
         -2   -1    0    0    0  501 -0.00000000000E+00  0.00000000000E+00  0.88278881690E+03  0.88278881690E+03  0.25500000000E-02 0.  1.
          2   -1    0    0  501    0  0.00000000000E+00 -0.00000000000E+00 -0.31592222977E+04  0.31592222977E+04  0.25500000000E-02 0. -1.
    8880023    1    1    2    0    0 -0.10981846996E+04 -0.81586613785E+03 -0.21871256705E+04  0.26625131162E+04  0.65864270000E+03 0. -1.
    8880022    1    1    2    0    0  0.10981846996E+04  0.81586613785E+03 -0.89307810272E+02  0.13794979983E+04  0.15294330000E+03 0.  0.
<mgrwt>
<rscale>  0 0.14816178E+04</rscale>
<asrwt>0</asrwt>
<pdfrwt beam="1">  1        2 0.48603419E+00 0.15183733E+04</pdfrwt>
<pdfrwt beam="2">  1       -2 0.13581367E+00 0.15183733E+04</pdfrwt>
<totfact> 0.50836393E-01</totfact>
</mgrwt>
</event>
<event>
 4    5  0.6615028E-008  0.6965007E+03  0.7818608E-02  0.1001204E+00
          2   -1    0    0  501    0  0.00000000000E+00  0.00000000000E+00  0.26256093933E+04  0.26256093933E+04  0.25500000000E-02 0. -1.
         -2   -1    0    0    0  501 -0.00000000000E+00 -0.00000000000E+00 -0.40262007869E+03  0.40262007870E+03  0.25500000000E-02 0.  1.
    8880023    1    1    2    0    0 -0.19572156856E+03  0.11400028437E+03  0.25259460012E+04  0.26202130456E+04  0.65864270000E+03 0. -1.
    8880022    1    1    2    0    0  0.19572156856E+03 -0.11400028437E+03 -0.30295668659E+03  0.40801642638E+03  0.15294330000E+03 0.  0.
<mgrwt>
<rscale>  0 0.55125475E+03</rscale>
<asrwt>0</asrwt>
<pdfrwt beam="1">  1        2 0.40393990E+00 0.69650068E+03</pdfrwt>
<pdfrwt beam="2">  1       -2 0.61941551E-01 0.69650068E+03</pdfrwt>
<totfact> 0.75650785E+00</totfact>
</mgrwt>
</event>
<event>
 4    5  0.6615028E-008  0.2327005E+04  0.7818608E-02  0.8476271E-01
          2   -1    0    0  501    0  0.00000000000E+00  0.00000000000E+00  0.27502096590E+04  0.27502096590E+04  0.25500000000E-02 0. -1.
         -2   -1    0    0    0  501 -0.00000000000E+00 -0.00000000000E+00 -0.22165189167E+04  0.22165189167E+04  0.25500000000E-02 0.  1.
    8880023    1    1    2    0    0  0.16178281058E+04 -0.15374564009E+04  0.12190969511E+04  0.26270035301E+04  0.65864270000E+03 0.  0.
    8880022    1    1    2    0    0 -0.16178281058E+04  0.15374564009E+04 -0.68540620884E+03  0.23397250456E+04  0.15294330000E+03 0.  0.
<mgrwt>
<rscale>  0 0.23041904E+04</rscale>
<asrwt>0</asrwt>
<pdfrwt beam="1">  1        2 0.42310918E+00 0.23270045E+04</pdfrwt>
<pdfrwt beam="2">  1       -2 0.34100291E+00 0.23270045E+04</pdfrwt>
<totfact> 0.37550834E-02</totfact>
</mgrwt>
</event>
<event>
 4    5  0.6615028E-008  0.8520164E+03  0.7818608E-02  0.9607926E-01
         -2   -1    0    0    0  501 -0.00000000000E+00  0.00000000000E+00  0.15509778760E+04  0.15509778760E+04  0.25500000000E-02 0.  1.
          2   -1    0    0  501    0  0.00000000000E+00 -0.00000000000E+00 -0.14775583939E+04  0.14775583939E+04  0.25500000000E-02 0. -1.
    8880023    1    1    2    0    0 -0.50520801855E+03 -0.19205889910E+03 -0.12945291322E+04  0.15497540589E+04  0.65864270000E+03 0. -1.
    8880022    1    1    2    0    0  0.50520801855E+03  0.19205889910E+03  0.13679486144E+04  0.14787822110E+04  0.15294330000E+03 0.  0.
<mgrwt>
<rscale>  0 0.76773829E+03</rscale>
<asrwt>0</asrwt>
<pdfrwt beam="1">  1        2 0.22731668E+00 0.85201641E+03</pdfrwt>
<pdfrwt beam="2">  1       -2 0.23861198E+00 0.85201641E+03</pdfrwt>
<totfact> 0.10074534E+00</totfact>
</mgrwt>
</event>
<event>
 4    5  0.6615028E-008  0.7171382E+03  0.7818608E-02  0.9932391E-01
         -2   -1    0    0    0  501 -0.00000000000E+00  0.00000000000E+00  0.40993544294E+03  0.40993544294E+03  0.25500000000E-02 0.  1.
          2   -1    0    0  501    0  0.00000000000E+00 -0.00000000000E+00 -0.17210410257E+04  0.17210410257E+04  0.25500000000E-02 0. -1.
    8880023    1    1    2    0    0  0.79728381251E+02  0.27225061355E+03 -0.15644823883E+04  0.17210149218E+04  0.65864270000E+03 0. -1.
    8880022    1    1    2    0    0 -0.79728381251E+02 -0.27225061355E+03  0.25337680552E+03  0.40996154691E+03  0.15294330000E+03 0.  1.
<mgrwt>
<rscale>  0 0.58716846E+03</rscale>
<asrwt>0</asrwt>
<pdfrwt beam="1">  1        2 0.26477554E+00 0.71713821E+03</pdfrwt>
<pdfrwt beam="2">  1       -2 0.63066992E-01 0.71713821E+03</pdfrwt>
<totfact> 0.22952383E+01</totfact>
</mgrwt>
</event>
<event>
 4    5  0.6615028E-008  0.7950414E+03  0.7818608E-02  0.9721622E-01
         -2   -1    0    0    0  501 -0.00000000000E+00  0.00000000000E+00  0.42144083724E+03  0.42144083725E+03  0.25500000000E-02 0.  1.
          2   -1    0    0  501    0  0.00000000000E+00 -0.00000000000E+00 -0.17559543784E+04  0.17559543784E+04  0.25500000000E-02 0. -1.
    8880023    1    1    2    0    0  0.34833125411E+03 -0.27739140312E+03 -0.14838826512E+04  0.16834484197E+04  0.65864270000E+03 0.  0.
    8880022    1    1    2    0    0 -0.34833125411E+03  0.27739140312E+03  0.14936911007E+03  0.49394679589E+03  0.15294330000E+03 0.  0.
<mgrwt>
<rscale>  0 0.69743903E+03</rscale>
<asrwt>0</asrwt>
<pdfrwt beam="1">  1        2 0.27014682E+00 0.79504142E+03</pdfrwt>
<pdfrwt beam="2">  1       -2 0.64837053E-01 0.79504142E+03</pdfrwt>
<totfact> 0.20497967E+01</totfact>
</mgrwt>
</event>
<event>
 4    5  0.6615028E-008  0.7848572E+03  0.7818608E-02  0.9744549E-01
         -2   -1    0    0    0  501 -0.00000000000E+00  0.00000000000E+00  0.74865072417E+03  0.74865072417E+03  0.25500000000E-02 0.  1.
          2   -1    0    0  501    0  0.00000000000E+00 -0.00000000000E+00 -0.99139421617E+03  0.99139421618E+03  0.25500000000E-02 0. -1.
    8880023    1    1    2    0    0 -0.54144256426E+02  0.42338989705E+03 -0.73183401350E+03  0.10731178104E+04  0.65864270000E+03 0. -1.
    8880022    1    1    2    0    0  0.54144256426E+02 -0.42338989705E+03  0.48909052149E+03  0.66692712994E+03  0.15294330000E+03 0.  0.
<mgrwt>
<rscale>  0 0.68425217E+03</rscale>
<asrwt>0</asrwt>
<pdfrwt beam="1">  1        2 0.15252219E+00 0.78485719E+03</pdfrwt>
<pdfrwt beam="2">  1       -2 0.11517703E+00 0.78485719E+03</pdfrwt>
<totfact> 0.15180434E+01</totfact>
</mgrwt>
</event>
<event>
 4    5  0.6615028E-008  0.7766937E+03  0.7818608E-02  0.9763662E-01
          2   -1    0    0  501    0  0.00000000000E+00  0.00000000000E+00  0.17108052252E+04  0.17108052252E+04  0.25500000000E-02 0. -1.
         -2   -1    0    0    0  501 -0.00000000000E+00 -0.00000000000E+00 -0.13705970653E+04  0.13705970653E+04  0.25500000000E-02 0.  1.
    8880023    1    1    2    0    0 -0.39482054114E+03  0.11644575544E+03  0.15830187461E+04  0.17632927807E+04  0.65864270000E+03 0. -1.
    8880022    1    1    2    0    0  0.39482054114E+03 -0.11644575544E+03 -0.12428105862E+04  0.13181095098E+04  0.15294330000E+03 0.  0.
<mgrwt>
<rscale>  0 0.67349663E+03</rscale>
<asrwt>0</asrwt>
<pdfrwt beam="1">  1        2 0.26320080E+00 0.77669368E+03</pdfrwt>
<pdfrwt beam="2">  1       -2 0.21086109E+00 0.77669368E+03</pdfrwt>
<totfact> 0.11299851E+00</totfact>
</mgrwt>
</event>
<event>
 4    5  0.6615028E-008  0.8412712E+03  0.7818608E-02  0.9627788E-01
          2   -1    0    0  501    0  0.00000000000E+00  0.00000000000E+00  0.10015477246E+04  0.10015477246E+04  0.25500000000E-02 0. -1.
         -2   -1    0    0    0  501 -0.00000000000E+00 -0.00000000000E+00 -0.30241299194E+04  0.30241299194E+04  0.25500000000E-02 0.  1.
    8880023    1    1    2    0    0  0.39766292106E+03  0.34028112502E+03  0.79400388633E+03  0.11567970525E+04  0.65864270000E+03 0. -1.
    8880022    1    1    2    0    0 -0.39766292106E+03 -0.34028112502E+03 -0.28165860812E+04  0.28688805915E+04  0.15294330000E+03 0.  0.
<mgrwt>
<rscale>  0 0.75483981E+03</rscale>
<asrwt>0</asrwt>
<pdfrwt beam="1">  1        2 0.15408427E+00 0.84127121E+03</pdfrwt>
<pdfrwt beam="2">  1       -2 0.46525075E+00 0.84127121E+03</pdfrwt>
<totfact> 0.72556948E-02</totfact>
</mgrwt>
</event>
<event>
 4    5  0.6615028E-008  0.1282249E+04  0.7818608E-02  0.9081042E-01
          2   -1    0    0  501    0  0.00000000000E+00  0.00000000000E+00  0.21986985824E+04  0.21986985824E+04  0.25500000000E-02 0. -1.
         -2   -1    0    0    0  501 -0.00000000000E+00 -0.00000000000E+00 -0.12969985231E+04  0.12969985231E+04  0.25500000000E-02 0.  1.
    8880023    1    1    2    0    0 -0.83489138167E+03  0.71645638051E+03  0.16989030043E+04  0.21284818507E+04  0.65864270000E+03 0. -1.
    8880022    1    1    2    0    0  0.83489138167E+03 -0.71645638051E+03 -0.79720294504E+03  0.13672152548E+04  0.15294330000E+03 0.  0.
<mgrwt>
<rscale>  0 0.12370366E+04</rscale>
<asrwt>0</asrwt>
<pdfrwt beam="1">  1        2 0.33826132E+00 0.12822494E+04</pdfrwt>
<pdfrwt beam="2">  1       -2 0.19953824E+00 0.12822494E+04</pdfrwt>
<totfact> 0.66685898E-01</totfact>
</mgrwt>
</event>
<event>
 4    5  0.6615028E-008  0.8167871E+03  0.7818608E-02  0.9675609E-01
         -2   -1    0    0    0  501 -0.00000000000E+00  0.00000000000E+00  0.28660418254E+03  0.28660418255E+03  0.25500000000E-02 0.  1.
          2   -1    0    0  501    0  0.00000000000E+00 -0.00000000000E+00 -0.18248589140E+04  0.18248589140E+04  0.25500000000E-02 0. -1.
    8880023    1    1    2    0    0  0.45235208390E+03 -0.16943577761E+03 -0.13360219645E+04  0.15659169155E+04  0.65864270000E+03 0.  0.
    8880022    1    1    2    0    0 -0.45235208390E+03  0.16943577761E+03 -0.20223276697E+03  0.54554618099E+03  0.15294330000E+03 0.  0.
<mgrwt>
<rscale>  0 0.72487753E+03</rscale>
<asrwt>0</asrwt>
<pdfrwt beam="1">  1        2 0.28074752E+00 0.81678706E+03</pdfrwt>
<pdfrwt beam="2">  1       -2 0.44092952E-01 0.81678706E+03</pdfrwt>
<totfact> 0.41586994E+01</totfact>
</mgrwt>
</event>
<event>
 4    5  0.6615028E-008  0.8218807E+03  0.7818608E-02  0.9665341E-01
         -2   -1    0    0    0  501 -0.00000000000E+00  0.00000000000E+00  0.11704000021E+03  0.11704000023E+03  0.25500000000E-02 0.  1.
          2   -1    0    0  501    0  0.00000000000E+00 -0.00000000000E+00 -0.46384015879E+04  0.46384015879E+04  0.25500000000E-02 0. -1.
    8880023    1    1    2    0    0 -0.49124838811E+03  0.18781706072E+02 -0.36667320942E+04  0.37577136917E+04  0.65864270000E+03 0. -1.
    8880022    1    1    2    0    0  0.49124838811E+03 -0.18781706072E+02 -0.85462949345E+03  0.99772789647E+03  0.15294330000E+03 0.  0.
<mgrwt>
<rscale>  0 0.73118377E+03</rscale>
<asrwt>0</asrwt>
<pdfrwt beam="1">  1        2 0.71360010E+00 0.82188073E+03</pdfrwt>
<pdfrwt beam="2">  1       -2 0.18006157E-01 0.82188073E+03</pdfrwt>
<totfact> 0.25670069E+00</totfact>
</mgrwt>
</event>
<event>
 4    5  0.6615028E-008  0.9415469E+03  0.7818608E-02  0.9462382E-01
          2   -1    0    0  501    0  0.00000000000E+00  0.00000000000E+00  0.36869263020E+04  0.36869263020E+04  0.25500000000E-02 0. -1.
         -2   -1    0    0    0  501 -0.00000000000E+00 -0.00000000000E+00 -0.11252955327E+04  0.11252955327E+04  0.25500000000E-02 0.  1.
    8880023    1    1    2    0    0  0.18094392686E+03  0.64804287146E+03  0.35129951966E+04  0.36369830527E+04  0.65864270000E+03 0. -1.
    8880022    1    1    2    0    0 -0.18094392686E+03 -0.64804287146E+03 -0.95136442738E+03  0.11752387820E+04  0.15294330000E+03 0.  0.
<mgrwt>
<rscale>  0 0.87114972E+03</rscale>
<asrwt>0</asrwt>
<pdfrwt beam="1">  1        2 0.56721942E+00 0.94154685E+03</pdfrwt>
<pdfrwt beam="2">  1       -2 0.17312239E+00 0.94154685E+03</pdfrwt>
<totfact> 0.12692567E-01</totfact>
</mgrwt>
</event>
<event>
 4    5  0.6615028E-008  0.9372625E+03  0.7818608E-02  0.9468682E-01
          2   -1    0    0  501    0  0.00000000000E+00  0.00000000000E+00  0.29041018597E+04  0.29041018597E+04  0.25500000000E-02 0. -1.
         -2   -1    0    0    0  501 -0.00000000000E+00 -0.00000000000E+00 -0.23650587823E+03  0.23650587824E+03  0.25500000000E-02 0.  1.
    8880023    1    1    2    0    0  0.61415574344E+03  0.25973753026E+03  0.18552348422E+04  0.20785469414E+04  0.65864270000E+03 0. -1.
    8880022    1    1    2    0    0 -0.61415574344E+03 -0.25973753026E+03  0.81236113929E+03  0.10620607965E+04  0.15294330000E+03 0.  1.
<mgrwt>
<rscale>  0 0.86632652E+03</rscale>
<asrwt>0</asrwt>
<pdfrwt beam="1">  1        2 0.44678492E+00 0.93726254E+03</pdfrwt>
<pdfrwt beam="2">  1       -2 0.36385519E-01 0.93726254E+03</pdfrwt>
<totfact> 0.14610862E+01</totfact>
</mgrwt>
</event>
<event>
 4    5  0.6615028E-008  0.1828550E+04  0.7818608E-02  0.8706906E-01
         -2   -1    0    0    0  501 -0.00000000000E+00  0.00000000000E+00  0.12317821926E+04  0.12317821926E+04  0.25500000000E-02 0.  1.
          2   -1    0    0  501    0  0.00000000000E+00 -0.00000000000E+00 -0.38163196931E+04  0.38163196931E+04  0.25500000000E-02 0. -1.
    8880023    1    1    2    0    0 -0.16219957696E+04  0.52812208499E+03 -0.27766997473E+04  0.33247037321E+04  0.65864270000E+03 0.  0.
    8880022    1    1    2    0    0  0.16219957696E+04 -0.52812208499E+03  0.19216224689E+03  0.17233981535E+04  0.15294330000E+03 0.  0.
<mgrwt>
<rscale>  0 0.17988597E+04</rscale>
<asrwt>0</asrwt>
<pdfrwt beam="1">  1        2 0.58712610E+00 0.18285495E+04</pdfrwt>
<pdfrwt beam="2">  1       -2 0.18950495E+00 0.18285495E+04</pdfrwt>
<totfact> 0.68121808E-02</totfact>
</mgrwt>
</event>
<event>
 4    5  0.6615028E-008  0.9568843E+03  0.7818608E-02  0.9440278E-01
          2   -1    0    0  501    0  0.00000000000E+00  0.00000000000E+00  0.21937824796E+04  0.21937824796E+04  0.25500000000E-02 0. -1.
         -2   -1    0    0    0  501 -0.00000000000E+00 -0.00000000000E+00 -0.51060962032E+03  0.51060962033E+03  0.25500000000E-02 0.  1.
    8880023    1    1    2    0    0 -0.46602603640E+03  0.51442886663E+03  0.17458181653E+04  0.19908562474E+04  0.65864270000E+03 0.  0.
    8880022    1    1    2    0    0  0.46602603640E+03 -0.51442886663E+03 -0.62645306003E+02  0.71353585251E+03  0.15294330000E+03 0.  0.
<mgrwt>
<rscale>  0 0.88833843E+03</rscale>
<asrwt>0</asrwt>
<pdfrwt beam="1">  1        2 0.33750500E+00 0.95688428E+03</pdfrwt>
<pdfrwt beam="2">  1       -2 0.78555326E-01 0.95688428E+03</pdfrwt>
<totfact> 0.75744844E+00</totfact>
</mgrwt>
</event>
<event>
 4    5  0.6615028E-008  0.8824471E+03  0.7818608E-02  0.9554818E-01
         -2   -1    0    0    0  501 -0.00000000000E+00  0.00000000000E+00  0.13947345479E+04  0.13947345479E+04  0.25500000000E-02 0.  1.
          2   -1    0    0  501    0  0.00000000000E+00 -0.00000000000E+00 -0.10662965491E+04  0.10662965491E+04  0.25500000000E-02 0. -1.
    8880023    1    1    2    0    0 -0.51854753037E+03 -0.27570133252E+03 -0.79268289204E+03  0.11861952367E+04  0.65864270000E+03 0. -1.
    8880022    1    1    2    0    0  0.51854753037E+03  0.27570133252E+03  0.11211208908E+04  0.12748358603E+04  0.15294330000E+03 0.  0.
<mgrwt>
<rscale>  0 0.80360184E+03</rscale>
<asrwt>0</asrwt>
<pdfrwt beam="1">  1        2 0.16404562E+00 0.88244715E+03</pdfrwt>
<pdfrwt beam="2">  1       -2 0.21457454E+00 0.88244715E+03</pdfrwt>
<totfact> 0.24661038E+00</totfact>
</mgrwt>
</event>
<event>
 4    5  0.6615028E-008  0.1240342E+04  0.7818608E-02  0.9118871E-01
         -2   -1    0    0    0  501 -0.00000000000E+00  0.00000000000E+00  0.90740541835E+03  0.90740541836E+03  0.25500000000E-02 0.  1.
          2   -1    0    0  501    0  0.00000000000E+00 -0.00000000000E+00 -0.18823627772E+04  0.18823627772E+04  0.25500000000E-02 0. -1.
    8880023    1    1    2    0    0  0.94550203032E+03 -0.45898090231E+03 -0.11755461695E+04  0.17089050766E+04  0.65864270000E+03 0.  0.
    8880022    1    1    2    0    0 -0.94550203032E+03  0.45898090231E+03  0.20058881060E+03  0.10808631190E+04  0.15294330000E+03 0.  0.
<mgrwt>
<rscale>  0 0.11931528E+04</rscale>
<asrwt>0</asrwt>
<pdfrwt beam="1">  1        2 0.28959427E+00 0.12403418E+04</pdfrwt>
<pdfrwt beam="2">  1       -2 0.13960083E+00 0.12403418E+04</pdfrwt>
<totfact> 0.27245717E+00</totfact>
</mgrwt>
</event>
<event>
 4    5  0.6615028E-008  0.1157748E+04  0.7818608E-02  0.9199330E-01
          2   -1    0    0  501    0  0.00000000000E+00  0.00000000000E+00  0.92451448169E+03  0.92451448169E+03  0.25500000000E-02 0. -1.
         -2   -1    0    0    0  501 -0.00000000000E+00 -0.00000000000E+00 -0.17932409387E+04  0.17932409387E+04  0.25500000000E-02 0.  1.
    8880023    1    1    2    0    0 -0.63482921125E+03  0.70962170242E+03  0.30638933352E+03  0.11976041575E+04  0.65864270000E+03 0.  0.
    8880022    1    1    2    0    0  0.63482921125E+03 -0.70962170242E+03 -0.11751157905E+04  0.15201512629E+04  0.15294330000E+03 0.  0.
<mgrwt>
<rscale>  0 0.11060349E+04</rscale>
<asrwt>0</asrwt>
<pdfrwt beam="1">  1        2 0.14223300E+00 0.11577484E+04</pdfrwt>
<pdfrwt beam="2">  1       -2 0.27588322E+00 0.11577484E+04</pdfrwt>
<totfact> 0.12362174E+00</totfact>
</mgrwt>
</event>
<event>
 4    5  0.6615028E-008  0.9928634E+03  0.7818608E-02  0.9390955E-01
         -2   -1    0    0    0  501 -0.00000000000E+00  0.00000000000E+00  0.67019694010E+03  0.67019694010E+03  0.25500000000E-02 0.  1.
          2   -1    0    0  501    0  0.00000000000E+00 -0.00000000000E+00 -0.21560428466E+04  0.21560428466E+04  0.25500000000E-02 0. -1.
    8880023    1    1    2    0    0 -0.22601893265E+01  0.74294174115E+03 -0.17591365060E+04  0.20199848990E+04  0.65864270000E+03 0. -1.
    8880022    1    1    2    0    0  0.22601893265E+01 -0.74294174115E+03  0.27329059948E+03  0.80625488772E+03  0.15294330000E+03 0.  0.
<mgrwt>
<rscale>  0 0.92823836E+03</rscale>
<asrwt>0</asrwt>
<pdfrwt beam="1">  1        2 0.33169889E+00 0.99286341E+03</pdfrwt>
<pdfrwt beam="2">  1       -2 0.10310722E+00 0.99286341E+03</pdfrwt>
<totfact> 0.42114748E+00</totfact>
</mgrwt>
</event>
<event>
 4    5  0.6615028E-008  0.7388993E+03  0.7818608E-02  0.9863165E-01
          2   -1    0    0  501    0  0.00000000000E+00  0.00000000000E+00  0.17256758079E+04  0.17256758079E+04  0.25500000000E-02 0. -1.
         -2   -1    0    0    0  501 -0.00000000000E+00 -0.00000000000E+00 -0.44514588271E+03  0.44514588272E+03  0.25500000000E-02 0.  1.
    8880023    1    1    2    0    0  0.10070548456E+03  0.31940618060E+03  0.15482949987E+04  0.17155726484E+04  0.65864270000E+03 0. -1.
    8880022    1    1    2    0    0 -0.10070548456E+03 -0.31940618060E+03 -0.26776507348E+03  0.45524904219E+03  0.15294330000E+03 0.  0.
<mgrwt>
<rscale>  0 0.62080154E+03</rscale>
<asrwt>0</asrwt>
<pdfrwt beam="1">  1        2 0.26548858E+00 0.73889926E+03</pdfrwt>
<pdfrwt beam="2">  1       -2 0.68483983E-01 0.73889926E+03</pdfrwt>
<totfact> 0.19055518E+01</totfact>
</mgrwt>
</event>
<event>
 4    5  0.6615028E-008  0.1026420E+04  0.7818608E-02  0.9347781E-01
         -2   -1    0    0    0  501 -0.00000000000E+00  0.00000000000E+00  0.50474556929E+04  0.50474556929E+04  0.25500000000E-02 0.  1.
          2   -1    0    0  501    0  0.00000000000E+00 -0.00000000000E+00 -0.18732761524E+03  0.18732761525E+03  0.25500000000E-02 0. -1.
    8880023    1    1    2    0    0  0.52017683240E+02 -0.78550681965E+03  0.18078032322E+04  0.20788673685E+04  0.65864270000E+03 0.  0.
    8880022    1    1    2    0    0 -0.52017683240E+02  0.78550681965E+03  0.30523248455E+04  0.31559159397E+04  0.15294330000E+03 0.  0.
<mgrwt>
<rscale>  0 0.96500607E+03</rscale>
<asrwt>0</asrwt>
<pdfrwt beam="1">  1        2 0.28819635E-01 0.10264195E+04</pdfrwt>
<pdfrwt beam="2">  1       -2 0.77653160E+00 0.10264195E+04</pdfrwt>
<totfact> 0.21024435E-02</totfact>
</mgrwt>
</event>
<event>
 4    5  0.6680583E-008  0.1096030E+04  0.7818608E-02  0.9265489E-01
          2   -1    0    0  501    0  0.00000000000E+00  0.00000000000E+00  0.30605782565E+04  0.30605782565E+04  0.25500000000E-02 0. -1.
         -2   -1    0    0    0  501 -0.00000000000E+00 -0.00000000000E+00 -0.14510597188E+04  0.14510597188E+04  0.25500000000E-02 0.  1.
    8880023    1    1    2    0    0  0.28229255831E+03  0.82932622242E+03  0.28108397978E+04  0.30169689502E+04  0.65864270000E+03 0.  0.
    8880022    1    1    2    0    0 -0.28229255831E+03 -0.82932622242E+03 -0.12013212600E+04  0.14946690251E+04  0.15294330000E+03 0.  0.
<mgrwt>
<rscale>  0 0.10402301E+04</rscale>
<asrwt>0</asrwt>
<pdfrwt beam="1">  1        2 0.47085818E+00 0.10960298E+04</pdfrwt>
<pdfrwt beam="2">  1       -2 0.22323996E+00 0.10960298E+04</pdfrwt>
<totfact> 0.15067191E-01</totfact>
</mgrwt>
</event>
<event>
 4    5  0.6615028E-008  0.7414338E+03  0.7818608E-02  0.9855790E-01
          2   -1    0    0  501    0  0.00000000000E+00  0.00000000000E+00  0.38148049193E+04  0.38148049193E+04  0.25500000000E-02 0. -1.
         -2   -1    0    0    0  501 -0.00000000000E+00 -0.00000000000E+00 -0.19187163932E+03  0.19187163933E+03  0.25500000000E-02 0.  1.
    8880023    1    1    2    0    0  0.33108765125E+03 -0.79340200101E+02  0.35497220682E+04  0.36263274628E+04  0.65864270000E+03 0.  0.
    8880022    1    1    2    0    0 -0.33108765125E+03  0.79340200101E+02  0.73211211862E+02  0.38034909585E+03  0.15294330000E+03 0.  0.
<mgrwt>
<rscale>  0 0.62452575E+03</rscale>
<asrwt>0</asrwt>
<pdfrwt beam="1">  1        2 0.58689302E+00 0.74143382E+03</pdfrwt>
<pdfrwt beam="2">  1       -2 0.29518716E-01 0.74143382E+03</pdfrwt>
<totfact> 0.55487841E+00</totfact>
</mgrwt>
</event>
<event>
 4    5  0.6615028E-008  0.9355931E+03  0.7818608E-02  0.9471153E-01
          2   -1    0    0  501    0  0.00000000000E+00  0.00000000000E+00  0.10901905386E+04  0.10901905386E+04  0.25500000000E-02 0. -1.
         -2   -1    0    0    0  501 -0.00000000000E+00 -0.00000000000E+00 -0.71864181033E+03  0.71864181034E+03  0.25500000000E-02 0.  1.
    8880023    1    1    2    0    0 -0.45914687079E+03  0.48032107380E+03  0.57390794543E+03  0.10975904149E+04  0.65864270000E+03 0.  0.
    8880022    1    1    2    0    0  0.45914687079E+03 -0.48032107380E+03 -0.20235921716E+03  0.71124193400E+03  0.15294330000E+03 0.  0.
<mgrwt>
<rscale>  0 0.86444435E+03</rscale>
<asrwt>0</asrwt>
<pdfrwt beam="1">  1        2 0.16772162E+00 0.93559307E+03</pdfrwt>
<pdfrwt beam="2">  1       -2 0.11056028E+00 0.93559307E+03</pdfrwt>
<totfact> 0.14321609E+01</totfact>
</mgrwt>
</event>
<event>
 4    5  0.6615028E-008  0.8195539E+03  0.7818608E-02  0.9670010E-01
          2   -1    0    0  501    0  0.00000000000E+00  0.00000000000E+00  0.12354978993E+04  0.12354978993E+04  0.25500000000E-02 0. -1.
         -2   -1    0    0    0  501 -0.00000000000E+00 -0.00000000000E+00 -0.49574130894E+03  0.49574130895E+03  0.25500000000E-02 0.  1.
    8880023    1    1    2    0    0 -0.33063335970E+03 -0.35852475299E+03  0.87868946002E+03  0.12015672226E+04  0.65864270000E+03 0. -1.
    8880022    1    1    2    0    0  0.33063335970E+03  0.35852475299E+03 -0.13893286968E+03  0.52967198562E+03  0.15294330000E+03 0.  0.
<mgrwt>
<rscale>  0 0.72830820E+03</rscale>
<asrwt>0</asrwt>
<pdfrwt beam="1">  1        2 0.19007660E+00 0.81955392E+03</pdfrwt>
<pdfrwt beam="2">  1       -2 0.76267895E-01 0.81955392E+03</pdfrwt>
<totfact> 0.28088417E+01</totfact>
</mgrwt>
</event>
<event>
 4    5  0.6615028E-008  0.8222594E+03  0.7818608E-02  0.9664585E-01
         -2   -1    0    0    0  501 -0.00000000000E+00  0.00000000000E+00  0.32954029345E+03  0.32954029346E+03  0.25500000000E-02 0.  1.
          2   -1    0    0  501    0  0.00000000000E+00 -0.00000000000E+00 -0.27763193480E+04  0.27763193480E+04  0.25500000000E-02 0. -1.
    8880023    1    1    2    0    0  0.48668050323E+03  0.73772973939E+02 -0.24563458591E+04  0.25903176542E+04  0.65864270000E+03 0. -1.
    8880022    1    1    2    0    0 -0.48668050323E+03 -0.73772973939E+02  0.95668045042E+01  0.51554198730E+03  0.15294330000E+03 0.  0.
<mgrwt>
<rscale>  0 0.73165098E+03</rscale>
<asrwt>0</asrwt>
<pdfrwt beam="1">  1        2 0.42712604E+00 0.82225943E+03</pdfrwt>
<pdfrwt beam="2">  1       -2 0.50698509E-01 0.82225943E+03</pdfrwt>
<totfact> 0.91788112E+00</totfact>
</mgrwt>
</event>
<event>
 4    5  0.6615028E-008  0.1307261E+04  0.7818608E-02  0.9059315E-01
          2   -1    0    0  501    0  0.00000000000E+00  0.00000000000E+00  0.34373276705E+04  0.34373276705E+04  0.25500000000E-02 0. -1.
         -2   -1    0    0    0  501 -0.00000000000E+00 -0.00000000000E+00 -0.55835557115E+03  0.55835557116E+03  0.25500000000E-02 0.  1.
    8880023    1    1    2    0    0 -0.95767533767E+03  0.59831402679E+03  0.24521564266E+04  0.27788492355E+04  0.65864270000E+03 0. -1.
    8880022    1    1    2    0    0  0.95767533767E+03 -0.59831402679E+03  0.42681567281E+03  0.12168340062E+04  0.15294330000E+03 0.  0.
<mgrwt>
<rscale>  0 0.12631432E+04</rscale>
<asrwt>0</asrwt>
<pdfrwt beam="1">  1        2 0.52881965E+00 0.13072612E+04</pdfrwt>
<pdfrwt beam="2">  1       -2 0.85900856E-01 0.13072612E+04</pdfrwt>
<totfact> 0.10431684E+00</totfact>
</mgrwt>
</event>
<event>
 4    5  0.6615028E-008  0.1489226E+04  0.7818608E-02  0.8917282E-01
          2   -1    0    0  501    0  0.00000000000E+00  0.00000000000E+00  0.28766696322E+04  0.28766696322E+04  0.25500000000E-02 0. -1.
         -2   -1    0    0    0  501 -0.00000000000E+00 -0.00000000000E+00 -0.71355318707E+03  0.71355318707E+03  0.25500000000E-02 0.  1.
    8880023    1    1    2    0    0  0.15208430635E+03 -0.13269714963E+04  0.14020067657E+04  0.20453401100E+04  0.65864270000E+03 0.  0.
    8880022    1    1    2    0    0 -0.15208430635E+03  0.13269714963E+04  0.76110967943E+03  0.15448827093E+04  0.15294330000E+03 0.  0.
<mgrwt>
<rscale>  0 0.14516149E+04</rscale>
<asrwt>0</asrwt>
<pdfrwt beam="1">  1        2 0.44256456E+00 0.14892257E+04</pdfrwt>
<pdfrwt beam="2">  1       -2 0.10977741E+00 0.14892257E+04</pdfrwt>
<totfact> 0.13089435E+00</totfact>
</mgrwt>
</event>
<event>
 4    5  0.6615028E-008  0.1126678E+04  0.7818608E-02  0.9231919E-01
         -2   -1    0    0    0  501 -0.00000000000E+00  0.00000000000E+00  0.35931469598E+03  0.35931469599E+03  0.25500000000E-02 0.  1.
          2   -1    0    0  501    0  0.00000000000E+00 -0.00000000000E+00 -0.33038916924E+04  0.33038916924E+04  0.25500000000E-02 0. -1.
    8880023    1    1    2    0    0  0.83139227371E+03 -0.37997283034E+03 -0.22098591895E+04  0.24805000117E+04  0.65864270000E+03 0. -1.
    8880022    1    1    2    0    0 -0.83139227371E+03  0.37997283034E+03 -0.73471780696E+03  0.11827063767E+04  0.15294330000E+03 0.  0.
<mgrwt>
<rscale>  0 0.10729955E+04</rscale>
<asrwt>0</asrwt>
<pdfrwt beam="1">  1        2 0.50829101E+00 0.11266777E+04</pdfrwt>
<pdfrwt beam="2">  1       -2 0.55279186E-01 0.11266777E+04</pdfrwt>
<totfact> 0.34490032E+00</totfact>
</mgrwt>
</event>
<event>
 4    5  0.6615028E-008  0.1131632E+04  0.7818608E-02  0.9226629E-01
          2   -1    0    0  501    0  0.00000000000E+00  0.00000000000E+00  0.42434759735E+04  0.42434759735E+04  0.25500000000E-02 0. -1.
         -2   -1    0    0    0  501 -0.00000000000E+00 -0.00000000000E+00 -0.48089030355E+03  0.48089030356E+03  0.25500000000E-02 0.  1.
    8880023    1    1    2    0    0  0.78921444125E+03 -0.47320215543E+03  0.36048458790E+04  0.37782937593E+04  0.65864270000E+03 0.  0.
    8880022    1    1    2    0    0 -0.78921444125E+03  0.47320215543E+03  0.15773979097E+03  0.94607251776E+03  0.15294330000E+03 0.  0.
<mgrwt>
<rscale>  0 0.10782746E+04</rscale>
<asrwt>0</asrwt>
<pdfrwt beam="1">  1        2 0.65284244E+00 0.11316315E+04</pdfrwt>
<pdfrwt beam="2">  1       -2 0.73983126E-01 0.11316315E+04</pdfrwt>
<totfact> 0.36364415E-01</totfact>
</mgrwt>
</event>
<event>
 4    5  0.6615028E-008  0.1468398E+04  0.7818608E-02  0.8932279E-01
          2   -1    0    0  501    0  0.00000000000E+00  0.00000000000E+00  0.22041358166E+04  0.22041358166E+04  0.25500000000E-02 0. -1.
         -2   -1    0    0    0  501 -0.00000000000E+00 -0.00000000000E+00 -0.12121636125E+04  0.12121636125E+04  0.25500000000E-02 0.  1.
    8880023    1    1    2    0    0 -0.11166297384E+04  0.68958088707E+03  0.14046727710E+04  0.20320678070E+04  0.65864270000E+03 0.  0.
    8880022    1    1    2    0    0  0.11166297384E+04 -0.68958088707E+03 -0.41270056696E+03  0.13842316220E+04  0.15294330000E+03 0.  0.
<mgrwt>
<rscale>  0 0.14301496E+04</rscale>
<asrwt>0</asrwt>
<pdfrwt beam="1">  1        2 0.33909781E+00 0.14683984E+04</pdfrwt>
<pdfrwt beam="2">  1       -2 0.18648671E+00 0.14683984E+04</pdfrwt>
<totfact> 0.79310915E-01</totfact>
</mgrwt>
</event>
<event>
 4    5  0.6615028E-008  0.7192755E+03  0.7818608E-02  0.9925045E-01
         -2   -1    0    0    0  501 -0.00000000000E+00  0.00000000000E+00  0.60878356432E+03  0.60878356433E+03  0.25500000000E-02 0.  1.
          2   -1    0    0  501    0  0.00000000000E+00 -0.00000000000E+00 -0.99376676467E+03  0.99376676467E+03  0.25500000000E-02 0. -1.
    8880023    1    1    2    0    0 -0.21174119346E+03  0.19675527986E+03 -0.79893515247E+03  0.10750137475E+04  0.65864270000E+03 0. -1.
    8880022    1    1    2    0    0  0.21174119346E+03 -0.19675527986E+03  0.41395195212E+03  0.52753658152E+03  0.15294330000E+03 0.  0.
<mgrwt>
<rscale>  0 0.59062694E+03</rscale>
<asrwt>0</asrwt>
<pdfrwt beam="1">  1        2 0.15288719E+00 0.71927545E+03</pdfrwt>
<pdfrwt beam="2">  1       -2 0.93659010E-01 0.71927545E+03</pdfrwt>
<totfact> 0.24969775E+01</totfact>
</mgrwt>
</event>
<event>
 4    5  0.6615028E-008  0.1269881E+04  0.7818608E-02  0.9092016E-01
          2   -1    0    0  501    0  0.00000000000E+00  0.00000000000E+00  0.24016712347E+04  0.24016712347E+04  0.25500000000E-02 0. -1.
         -2   -1    0    0    0  501 -0.00000000000E+00 -0.00000000000E+00 -0.65814503321E+03  0.65814503322E+03  0.25500000000E-02 0.  1.
    8880023    1    1    2    0    0  0.96822195832E+03  0.49125727081E+03  0.41218817360E+03  0.13351017802E+04  0.65864270000E+03 0.  1.
    8880022    1    1    2    0    0 -0.96822195832E+03 -0.49125727081E+03  0.13313380279E+04  0.17247144877E+04  0.15294330000E+03 0.  0.
<mgrwt>
<rscale>  0 0.12241043E+04</rscale>
<asrwt>0</asrwt>
<pdfrwt beam="1">  1        2 0.36948788E+00 0.12698810E+04</pdfrwt>
<pdfrwt beam="2">  1       -2 0.10125308E+00 0.12698810E+04</pdfrwt>
<totfact> 0.30999930E+00</totfact>
</mgrwt>
</event>
<event>
 4    5  0.6615028E-008  0.1820249E+04  0.7818608E-02  0.8711417E-01
          2   -1    0    0  501    0  0.00000000000E+00  0.00000000000E+00  0.40648684434E+04  0.40648684434E+04  0.25500000000E-02 0. -1.
         -2   -1    0    0    0  501 -0.00000000000E+00 -0.00000000000E+00 -0.94048347290E+03  0.94048347290E+03  0.25500000000E-02 0.  1.
    8880023    1    1    2    0    0 -0.96601510848E+03  0.13951022730E+04  0.51982738000E+03  0.18930204049E+04  0.65864270000E+03 0.  0.
    8880022    1    1    2    0    0  0.96601510848E+03 -0.13951022730E+04  0.26045575905E+04  0.31123315114E+04  0.15294330000E+03 0.  0.
<mgrwt>
<rscale>  0 0.17904073E+04</rscale>
<asrwt>0</asrwt>
<pdfrwt beam="1">  1        2 0.62536438E+00 0.18202488E+04</pdfrwt>
<pdfrwt beam="2">  1       -2 0.14468976E+00 0.18202488E+04</pdfrwt>
<totfact> 0.92239413E-02</totfact>
</mgrwt>
</event>
<event>
 4    5  0.6615028E-008  0.1352391E+04  0.7818608E-02  0.9021588E-01
          2   -1    0    0  501    0  0.00000000000E+00  0.00000000000E+00  0.13441346481E+04  0.13441346481E+04  0.25500000000E-02 0. -1.
         -2   -1    0    0    0  501 -0.00000000000E+00 -0.00000000000E+00 -0.13082306523E+04  0.13082306523E+04  0.25500000000E-02 0.  1.
    8880023    1    1    2    0    0 -0.16342788299E+03 -0.11698046322E+04  0.39409737020E+03  0.14086427843E+04  0.65864270000E+03 0.  0.
    8880022    1    1    2    0    0  0.16342788299E+03  0.11698046322E+04 -0.35819337438E+03  0.12437225160E+04  0.15294330000E+03 0.  0.
<mgrwt>
<rscale>  0 0.13101079E+04</rscale>
<asrwt>0</asrwt>
<pdfrwt beam="1">  1        2 0.20678995E+00 0.13523911E+04</pdfrwt>
<pdfrwt beam="2">  1       -2 0.20126625E+00 0.13523911E+04</pdfrwt>
<totfact> 0.19440489E+00</totfact>
</mgrwt>
</event>
<event>
 4    5  0.6615028E-008  0.9258547E+03  0.7818608E-02  0.9485740E-01
         -2   -1    0    0    0  501 -0.00000000000E+00  0.00000000000E+00  0.15220614999E+04  0.15220614999E+04  0.25500000000E-02 0.  1.
          2   -1    0    0  501    0  0.00000000000E+00 -0.00000000000E+00 -0.10976740777E+04  0.10976740777E+04  0.25500000000E-02 0. -1.
    8880023    1    1    2    0    0 -0.65022462139E+03 -0.24589623122E+02 -0.80076492050E+03  0.12241043142E+04  0.65864270000E+03 0.  0.
    8880022    1    1    2    0    0  0.65022462139E+03  0.24589623122E+02  0.12251523426E+04  0.13956312634E+04  0.15294330000E+03 0.  0.
<mgrwt>
<rscale>  0 0.85343383E+03</rscale>
<asrwt>0</asrwt>
<pdfrwt beam="1">  1        2 0.16887294E+00 0.92585469E+03</pdfrwt>
<pdfrwt beam="2">  1       -2 0.23416331E+00 0.92585469E+03</pdfrwt>
<totfact> 0.17684574E+00</totfact>
</mgrwt>
</event>
<event>
 4    5  0.6615028E-008  0.6715278E+03  0.7818608E-02  0.1014590E+00
          2   -1    0    0  501    0  0.00000000000E+00  0.00000000000E+00  0.60910094310E+03  0.60910094310E+03  0.25500000000E-02 0. -1.
         -2   -1    0    0    0  501 -0.00000000000E+00 -0.00000000000E+00 -0.77200983510E+03  0.77200983510E+03  0.25500000000E-02 0.  1.
    8880023    1    1    2    0    0 -0.79434805028E+01 -0.13067634160E+03  0.40113537871E+03  0.78221429510E+03  0.65864270000E+03 0. -1.
    8880022    1    1    2    0    0  0.79434805028E+01  0.13067634160E+03 -0.56404427072E+03  0.59889648311E+03  0.15294330000E+03 0.  0.
<mgrwt>
<rscale>  0 0.49690286E+03</rscale>
<asrwt>0</asrwt>
<pdfrwt beam="1">  1        2 0.93707837E-01 0.67152782E+03</pdfrwt>
<pdfrwt beam="2">  1       -2 0.11877074E+00 0.67152782E+03</pdfrwt>
<totfact> 0.27059946E+01</totfact>
</mgrwt>
</event>
<event>
 4    5  0.6615028E-008  0.9344694E+03  0.7818608E-02  0.9472820E-01
         -2   -1    0    0    0  501 -0.00000000000E+00  0.00000000000E+00  0.66864435233E+03  0.66864435233E+03  0.25500000000E-02 0.  1.
          2   -1    0    0  501    0  0.00000000000E+00 -0.00000000000E+00 -0.17336341638E+04  0.17336341638E+04  0.25500000000E-02 0. -1.
    8880023    1    1    2    0    0 -0.53927802621E+03 -0.38548931953E+03 -0.13686838866E+04  0.16572653960E+04  0.65864270000E+03 0.  0.
    8880022    1    1    2    0    0  0.53927802621E+03  0.38548931953E+03  0.30369407507E+03  0.74501312020E+03  0.15294330000E+03 0.  0.
<mgrwt>
<rscale>  0 0.86317662E+03</rscale>
<asrwt>0</asrwt>
<pdfrwt beam="1">  1        2 0.26671295E+00 0.93446937E+03</pdfrwt>
<pdfrwt beam="2">  1       -2 0.10286836E+00 0.93446937E+03</pdfrwt>
<totfact> 0.72871363E+00</totfact>
</mgrwt>
</event>
<event>
 4    5  0.6615028E-008  0.1370886E+04  0.7818608E-02  0.9006641E-01
         -2   -1    0    0    0  501 -0.00000000000E+00  0.00000000000E+00  0.70826009560E+03  0.70826009560E+03  0.25500000000E-02 0.  1.
          2   -1    0    0  501    0  0.00000000000E+00 -0.00000000000E+00 -0.30193819247E+04  0.30193819247E+04  0.25500000000E-02 0. -1.
    8880023    1    1    2    0    0  0.11366790923E+04 -0.39176486771E+03 -0.20841343829E+04  0.24945832122E+04  0.65864270000E+03 0. -1.
    8880022    1    1    2    0    0 -0.11366790923E+04  0.39176486771E+03 -0.22698744615E+03  0.12330588081E+04  0.15294330000E+03 0.  0.
<mgrwt>
<rscale>  0 0.13293077E+04</rscale>
<asrwt>0</asrwt>
<pdfrwt beam="1">  1        2 0.46452029E+00 0.13708863E+04</pdfrwt>
<pdfrwt beam="2">  1       -2 0.10896309E+00 0.13708863E+04</pdfrwt>
<totfact> 0.11026018E+00</totfact>
</mgrwt>
</event>
<event>
 4    5  0.6615028E-008  0.7047670E+03  0.7818608E-02  0.9977972E-01
         -2   -1    0    0    0  501 -0.00000000000E+00  0.00000000000E+00  0.70691306584E+03  0.70691306585E+03  0.25500000000E-02 0.  1.
          2   -1    0    0  501    0  0.00000000000E+00 -0.00000000000E+00 -0.10371102897E+04  0.10371102897E+04  0.25500000000E-02 0. -1.
    8880023    1    1    2    0    0 -0.23006515738E+03  0.99781317706E+02 -0.87593500922E+03  0.11242591492E+04  0.65864270000E+03 0. -1.
    8880022    1    1    2    0    0  0.23006515738E+03 -0.99781317706E+02  0.54573778538E+03  0.61976420630E+03  0.15294330000E+03 0.  0.
<mgrwt>
<rscale>  0 0.56626749E+03</rscale>
<asrwt>0</asrwt>
<pdfrwt beam="1">  1        2 0.15955543E+00 0.70476698E+03</pdfrwt>
<pdfrwt beam="2">  1       -2 0.10875586E+00 0.70476698E+03</pdfrwt>
<totfact> 0.16469156E+01</totfact>
</mgrwt>
</event>
<event>
 4    5  0.6615028E-008  0.7214944E+03  0.7818608E-02  0.9917562E-01
         -2   -1    0    0    0  501 -0.00000000000E+00  0.00000000000E+00  0.11382362780E+04  0.11382362780E+04  0.25500000000E-02 0.  1.
          2   -1    0    0  501    0  0.00000000000E+00 -0.00000000000E+00 -0.12873375156E+04  0.12873375156E+04  0.25500000000E-02 0. -1.
    8880023    1    1    2    0    0  0.23293863535E+03 -0.18023192533E+03 -0.11575106786E+04  0.13639593587E+04  0.65864270000E+03 0. -1.
    8880022    1    1    2    0    0 -0.23293863535E+03  0.18023192533E+03  0.10084094410E+04  0.10616144349E+04  0.15294330000E+03 0.  0.
<mgrwt>
<rscale>  0 0.59417680E+03</rscale>
<asrwt>0</asrwt>
<pdfrwt beam="1">  1        2 0.19805192E+00 0.72149439E+03</pdfrwt>
<pdfrwt beam="2">  1       -2 0.17511327E+00 0.72149439E+03</pdfrwt>
<totfact> 0.33957175E+00</totfact>
</mgrwt>
</event>
<event>
 4    5  0.6615028E-008  0.1022034E+04  0.7818608E-02  0.9353282E-01
         -2   -1    0    0    0  501 -0.00000000000E+00  0.00000000000E+00  0.14549202305E+04  0.14549202305E+04  0.25500000000E-02 0.  1.
          2   -1    0    0  501    0  0.00000000000E+00 -0.00000000000E+00 -0.15905368884E+04  0.15905368884E+04  0.25500000000E-02 0. -1.
    8880023    1    1    2    0    0  0.31259355614E+03 -0.71625967994E+03 -0.12882915076E+04  0.16444597518E+04  0.65864270000E+03 0. -1.
    8880022    1    1    2    0    0 -0.31259355614E+03  0.71625967994E+03  0.11526748497E+04  0.14009973671E+04  0.15294330000E+03 0.  0.
<mgrwt>
<rscale>  0 0.96022181E+03</rscale>
<asrwt>0</asrwt>
<pdfrwt beam="1">  1        2 0.24469798E+00 0.10220337E+04</pdfrwt>
<pdfrwt beam="2">  1       -2 0.22383388E+00 0.10220337E+04</pdfrwt>
<totfact> 0.10477346E+00</totfact>
</mgrwt>
</event>
<event>
 4    5  0.6615028E-008  0.6629930E+03  0.7818608E-02  0.1021280E+00
          2   -1    0    0  501    0  0.00000000000E+00  0.00000000000E+00  0.12413310291E+04  0.12413310291E+04  0.25500000000E-02 0. -1.
         -2   -1    0    0    0  501 -0.00000000000E+00 -0.00000000000E+00 -0.10147268176E+04  0.10147268176E+04  0.25500000000E-02 0.  1.
    8880023    1    1    2    0    0  0.92475285528E+01  0.75259638909E+02  0.11443696812E+04  0.13225512102E+04  0.65864270000E+03 0. -1.
    8880022    1    1    2    0    0 -0.92475285528E+01 -0.75259638909E+02 -0.91776546974E+03  0.93350663655E+03  0.15294330000E+03 0.  0.
<mgrwt>
<rscale>  0 0.47227517E+03</rscale>
<asrwt>0</asrwt>
<pdfrwt beam="1">  1        2 0.19097400E+00 0.66299301E+03</pdfrwt>
<pdfrwt beam="2">  1       -2 0.15611182E+00 0.66299301E+03</pdfrwt>
<totfact> 0.49938544E+00</totfact>
</mgrwt>
</event>
<event>
 4    5  0.6615028E-008  0.8721275E+03  0.7818608E-02  0.9572345E-01
          2   -1    0    0  501    0  0.00000000000E+00  0.00000000000E+00  0.24021224102E+04  0.24021224102E+04  0.25500000000E-02 0. -1.
         -2   -1    0    0    0  501 -0.00000000000E+00 -0.00000000000E+00 -0.10593336426E+04  0.10593336426E+04  0.25500000000E-02 0.  1.
    8880023    1    1    2    0    0  0.15516503434E+03  0.55019993257E+03  0.22302974179E+04  0.23947511212E+04  0.65864270000E+03 0. -1.
    8880022    1    1    2    0    0 -0.15516503434E+03 -0.55019993257E+03 -0.88750865039E+03  0.10667049317E+04  0.15294330000E+03 0.  0.
<mgrwt>
<rscale>  0 0.79153953E+03</rscale>
<asrwt>0</asrwt>
<pdfrwt beam="1">  1        2 0.36955729E+00 0.87212749E+03</pdfrwt>
<pdfrwt beam="2">  1       -2 0.16297441E+00 0.87212749E+03</pdfrwt>
<totfact> 0.97381695E-01</totfact>
</mgrwt>
</event>
<event>
 4    5  0.6615028E-008  0.7106268E+03  0.7818608E-02  0.9955681E-01
         -2   -1    0    0    0  501 -0.00000000000E+00  0.00000000000E+00  0.27375403969E+04  0.27375403969E+04  0.25500000000E-02 0.  1.
          2   -1    0    0  501    0  0.00000000000E+00 -0.00000000000E+00 -0.84525045189E+03  0.84525045190E+03  0.25500000000E-02 0. -1.
    8880023    1    1    2    0    0  0.22838115701E+03 -0.13792130852E+03 -0.68511562618E+03  0.98710377759E+03  0.65864270000E+03 0. -1.
    8880022    1    1    2    0    0 -0.22838115701E+03  0.13792130852E+03  0.25774055712E+04  0.25956870712E+04  0.15294330000E+03 0.  0.
<mgrwt>
<rscale>  0 0.57637010E+03</rscale>
<asrwt>0</asrwt>
<pdfrwt beam="1">  1        2 0.13003853E+00 0.71062680E+03</pdfrwt>
<pdfrwt beam="2">  1       -2 0.42116005E+00 0.71062680E+03</pdfrwt>
<totfact> 0.18592853E-01</totfact>
</mgrwt>
</event>
<event>
 4    5  0.6615028E-008  0.1110924E+04  0.7818608E-02  0.9248990E-01
          2   -1    0    0  501    0  0.00000000000E+00  0.00000000000E+00  0.19629622192E+04  0.19629622192E+04  0.25500000000E-02 0. -1.
         -2   -1    0    0    0  501 -0.00000000000E+00 -0.00000000000E+00 -0.16107336859E+04  0.16107336859E+04  0.25500000000E-02 0.  1.
    8880023    1    1    2    0    0 -0.54703707827E+03 -0.70787845744E+03  0.16505539926E+04  0.19895929645E+04  0.65864270000E+03 0.  0.
    8880022    1    1    2    0    0  0.54703707827E+03  0.70787845744E+03 -0.12983254592E+04  0.15841029406E+04  0.15294330000E+03 0.  0.
<mgrwt>
<rscale>  0 0.10561765E+04</rscale>
<asrwt>0</asrwt>
<pdfrwt beam="1">  1        2 0.30199419E+00 0.11109238E+04</pdfrwt>
<pdfrwt beam="2">  1       -2 0.24780518E+00 0.11109238E+04</pdfrwt>
<totfact> 0.45754616E-01</totfact>
</mgrwt>
</event>
<event>
 4    5  0.6615028E-008  0.8965811E+03  0.7818608E-02  0.9531542E-01
          2   -1    0    0  501    0  0.00000000000E+00  0.00000000000E+00  0.12728181917E+04  0.12728181917E+04  0.25500000000E-02 0. -1.
         -2   -1    0    0    0  501 -0.00000000000E+00 -0.00000000000E+00 -0.79363585335E+03  0.79363585336E+03  0.25500000000E-02 0.  1.
    8880023    1    1    2    0    0 -0.60437125309E+03 -0.69158695194E+02  0.93168796364E+03  0.12930198005E+04  0.65864270000E+03 0. -1.
    8880022    1    1    2    0    0  0.60437125309E+03  0.69158695194E+02 -0.45250562530E+03  0.77343424454E+03  0.15294330000E+03 0.  0.
<mgrwt>
<rscale>  0 0.81997744E+03</rscale>
<asrwt>0</asrwt>
<pdfrwt beam="1">  1        2 0.19581818E+00 0.89658114E+03</pdfrwt>
<pdfrwt beam="2">  1       -2 0.12209782E+00 0.89658114E+03</pdfrwt>
<totfact> 0.87501415E+00</totfact>
</mgrwt>
</event>
<event>
 4    5  0.6615028E-008  0.7869842E+03  0.7818608E-02  0.9739680E-01
          2   -1    0    0  501    0  0.00000000000E+00  0.00000000000E+00  0.12206094904E+04  0.12206094904E+04  0.25500000000E-02 0. -1.
         -2   -1    0    0    0  501 -0.00000000000E+00 -0.00000000000E+00 -0.43144683651E+03  0.43144683651E+03  0.25500000000E-02 0.  1.
    8880023    1    1    2    0    0 -0.23143842028E+03  0.36327699111E+03  0.88576812490E+03  0.11848752221E+04  0.65864270000E+03 0. -1.
    8880022    1    1    2    0    0  0.23143842028E+03 -0.36327699111E+03 -0.96605470985E+02  0.46718110481E+03  0.15294330000E+03 0.  0.
<mgrwt>
<rscale>  0 0.68702645E+03</rscale>
<asrwt>0</asrwt>
<pdfrwt beam="1">  1        2 0.18778607E+00 0.78698419E+03</pdfrwt>
<pdfrwt beam="2">  1       -2 0.66376437E-01 0.78698419E+03</pdfrwt>
<totfact> 0.38990649E+01</totfact>
</mgrwt>
</event>
<event>
 4    5  0.6615028E-008  0.9143881E+03  0.7818608E-02  0.9503318E-01
          2   -1    0    0  501    0  0.00000000000E+00  0.00000000000E+00  0.13561104442E+04  0.13561104442E+04  0.25500000000E-02 0. -1.
         -2   -1    0    0    0  501 -0.00000000000E+00 -0.00000000000E+00 -0.80581148945E+03  0.80581148946E+03  0.25500000000E-02 0.  1.
    8880023    1    1    2    0    0 -0.57683971105E+03  0.26372600803E+03  0.10110358339E+04  0.13631944554E+04  0.65864270000E+03 0. -1.
    8880022    1    1    2    0    0  0.57683971105E+03 -0.26372600803E+03 -0.46073687921E+03  0.79872747820E+03  0.15294330000E+03 0.  0.
<mgrwt>
<rscale>  0 0.84039653E+03</rscale>
<asrwt>0</asrwt>
<pdfrwt beam="1">  1        2 0.20863238E+00 0.91438814E+03</pdfrwt>
<pdfrwt beam="2">  1       -2 0.12397100E+00 0.91438814E+03</pdfrwt>
<totfact> 0.75231825E+00</totfact>
</mgrwt>
</event>
<event>
 4    5  0.6615028E-008  0.9967036E+03  0.7818608E-02  0.9385883E-01
          2   -1    0    0  501    0  0.00000000000E+00  0.00000000000E+00  0.33193375080E+04  0.33193375080E+04  0.25500000000E-02 0. -1.
         -2   -1    0    0    0  501 -0.00000000000E+00 -0.00000000000E+00 -0.11086914146E+04  0.11086914146E+04  0.25500000000E-02 0.  1.
    8880023    1    1    2    0    0 -0.47942657164E+03 -0.57424558281E+03  0.30997567390E+04  0.32560574126E+04  0.65864270000E+03 0.  0.
    8880022    1    1    2    0    0  0.47942657164E+03  0.57424558281E+03 -0.88911064566E+03  0.11719715100E+04  0.15294330000E+03 0.  0.
<mgrwt>
<rscale>  0 0.93246607E+03</rscale>
<asrwt>0</asrwt>
<pdfrwt beam="1">  1        2 0.51066731E+00 0.99670358E+03</pdfrwt>
<pdfrwt beam="2">  1       -2 0.17056791E+00 0.99670358E+03</pdfrwt>
<totfact> 0.23418178E-01</totfact>
</mgrwt>
</event>
<event>
 4    5  0.6615028E-008  0.7288777E+03  0.7818608E-02  0.9893617E-01
         -2   -1    0    0    0  501 -0.00000000000E+00  0.00000000000E+00  0.45324217918E+03  0.45324217919E+03  0.25500000000E-02 0.  1.
          2   -1    0    0  501    0  0.00000000000E+00 -0.00000000000E+00 -0.83072741324E+03  0.83072741324E+03  0.25500000000E-02 0. -1.
    8880023    1    1    2    0    0  0.29956671632E+03  0.87819831670E+02 -0.53317470933E+03  0.90307143532E+03  0.65864270000E+03 0. -1.
    8880022    1    1    2    0    0 -0.29956671632E+03 -0.87819831670E+02  0.15568947527E+03  0.38089815711E+03  0.15294330000E+03 0.  0.
<mgrwt>
<rscale>  0 0.60571626E+03</rscale>
<asrwt>0</asrwt>
<pdfrwt beam="1">  1        2 0.12780422E+00 0.72887773E+03</pdfrwt>
<pdfrwt beam="2">  1       -2 0.69729566E-01 0.72887773E+03</pdfrwt>
<totfact> 0.62323571E+01</totfact>
</mgrwt>
</event>
<event>
 4    5  0.6615028E-008  0.1038242E+04  0.7818608E-02  0.9333152E-01
          2   -1    0    0  501    0  0.00000000000E+00  0.00000000000E+00  0.61216190180E+03  0.61216190181E+03  0.25500000000E-02 0. -1.
         -2   -1    0    0    0  501 -0.00000000000E+00 -0.00000000000E+00 -0.28125029938E+04  0.28125029938E+04  0.25500000000E-02 0.  1.
    8880023    1    1    2    0    0 -0.43291343086E+03  0.67581202279E+03 -0.23724731683E+04  0.25897055951E+04  0.65864270000E+03 0.  0.
    8880022    1    1    2    0    0  0.43291343086E+03 -0.67581202279E+03  0.17213207631E+03  0.83495930049E+03  0.15294330000E+03 0.  0.
<mgrwt>
<rscale>  0 0.97787321E+03</rscale>
<asrwt>0</asrwt>
<pdfrwt beam="1">  1        2 0.94178756E-01 0.10382418E+04</pdfrwt>
<pdfrwt beam="2">  1       -2 0.43269276E+00 0.10382418E+04</pdfrwt>
<totfact> 0.22183113E-01</totfact>
</mgrwt>
</event>
<event>
 4    5  0.6615028E-008  0.7626204E+03  0.7818608E-02  0.9798370E-01
         -2   -1    0    0    0  501 -0.00000000000E+00  0.00000000000E+00  0.43114423460E+03  0.43114423460E+03  0.25500000000E-02 0.  1.
          2   -1    0    0  501    0  0.00000000000E+00 -0.00000000000E+00 -0.10982033395E+04  0.10982033395E+04  0.25500000000E-02 0. -1.
    8880023    1    1    2    0    0 -0.16882141255E+03  0.34536786799E+03 -0.78970132803E+03  0.10978242242E+04  0.65864270000E+03 0. -1.
    8880022    1    1    2    0    0  0.16882141255E+03 -0.34536786799E+03  0.12264222312E+03  0.43152334987E+03  0.15294330000E+03 0.  0.
<mgrwt>
<rscale>  0 0.65450078E+03</rscale>
<asrwt>0</asrwt>
<pdfrwt beam="1">  1        2 0.16895436E+00 0.76262038E+03</pdfrwt>
<pdfrwt beam="2">  1       -2 0.66329882E-01 0.76262038E+03</pdfrwt>
<totfact> 0.46353777E+01</totfact>
</mgrwt>
</event>
<event>
 4    5  0.6615028E-008  0.9163295E+03  0.7818608E-02  0.9500310E-01
         -2   -1    0    0    0  501 -0.00000000000E+00  0.00000000000E+00  0.90072516982E+03  0.90072516982E+03  0.25500000000E-02 0.  1.
          2   -1    0    0  501    0  0.00000000000E+00 -0.00000000000E+00 -0.22470074712E+04  0.22470074712E+04  0.25500000000E-02 0. -1.
    8880023    1    1    2    0    0  0.38478643314E+03 -0.50772913838E+03 -0.20137617937E+04  0.22124412411E+04  0.65864270000E+03 0. -1.
    8880022    1    1    2    0    0 -0.38478643314E+03  0.50772913838E+03  0.66747949235E+03  0.93529139994E+03  0.15294330000E+03 0.  0.
<mgrwt>
<rscale>  0 0.84260960E+03</rscale>
<asrwt>0</asrwt>
<pdfrwt beam="1">  1        2 0.34569346E+00 0.91632946E+03</pdfrwt>
<pdfrwt beam="2">  1       -2 0.13857310E+00 0.91632946E+03</pdfrwt>
<totfact> 0.18174440E+00</totfact>
</mgrwt>
</event>
<event>
 4    5  0.6615028E-008  0.1450842E+04  0.7818608E-02  0.8945151E-01
         -2   -1    0    0    0  501 -0.00000000000E+00  0.00000000000E+00  0.10842964954E+04  0.10842964954E+04  0.25500000000E-02 0.  1.
          2   -1    0    0  501    0  0.00000000000E+00 -0.00000000000E+00 -0.18864420927E+04  0.18864420927E+04  0.25500000000E-02 0. -1.
    8880023    1    1    2    0    0  0.12474241176E+04 -0.33921470425E+03 -0.82460196715E+03  0.16688056074E+04  0.65864270000E+03 0.  0.
    8880022    1    1    2    0    0 -0.12474241176E+04  0.33921470425E+03  0.22456369839E+02  0.13019329807E+04  0.15294330000E+03 0.  0.
<mgrwt>
<rscale>  0 0.14120374E+04</rscale>
<asrwt>0</asrwt>
<pdfrwt beam="1">  1        2 0.29022186E+00 0.14508424E+04</pdfrwt>
<pdfrwt beam="2">  1       -2 0.16681485E+00 0.14508424E+04</pdfrwt>
<totfact> 0.16436637E+00</totfact>
</mgrwt>
</event>
<event>
 4    5  0.6615028E-008  0.1283522E+04  0.7818608E-02  0.9079921E-01
         -2   -1    0    0    0  501 -0.00000000000E+00  0.00000000000E+00  0.96928323067E+03  0.96928323067E+03  0.25500000000E-02 0.  1.
          2   -1    0    0  501    0  0.00000000000E+00 -0.00000000000E+00 -0.26063164740E+04  0.26063164740E+04  0.25500000000E-02 0. -1.
    8880023    1    1    2    0    0  0.95164034617E+03 -0.55497776479E+03 -0.20251321349E+04  0.23976217462E+04  0.65864270000E+03 0.  0.
    8880022    1    1    2    0    0 -0.95164034617E+03  0.55497776479E+03  0.38809889160E+03  0.11779779584E+04  0.15294330000E+03 0.  0.
<mgrwt>
<rscale>  0 0.12383668E+04</rscale>
<asrwt>0</asrwt>
<pdfrwt beam="1">  1        2 0.40097176E+00 0.12835224E+04</pdfrwt>
<pdfrwt beam="2">  1       -2 0.14912050E+00 0.12835224E+04</pdfrwt>
<totfact> 0.88955416E-01</totfact>
</mgrwt>
</event>
<event>
 4    5  0.6615028E-008  0.9659248E+03  0.7818608E-02  0.9427563E-01
          2   -1    0    0  501    0  0.00000000000E+00  0.00000000000E+00  0.59291808330E+03  0.59291808331E+03  0.25500000000E-02 0. -1.
         -2   -1    0    0    0  501 -0.00000000000E+00 -0.00000000000E+00 -0.12843922111E+04  0.12843922111E+04  0.25500000000E-02 0.  1.
    8880023    1    1    2    0    0 -0.61607910296E+03 -0.34590047572E+03 -0.15773966701E+03  0.97871988282E+03  0.65864270000E+03 0.  1.
    8880022    1    1    2    0    0  0.61607910296E+03  0.34590047572E+03 -0.53373446083E+03  0.89859041164E+03  0.15294330000E+03 0.  0.
<mgrwt>
<rscale>  0 0.89841682E+03</rscale>
<asrwt>0</asrwt>
<pdfrwt beam="1">  1        2 0.91218167E-01 0.96592485E+03</pdfrwt>
<pdfrwt beam="2">  1       -2 0.19759880E+00 0.96592485E+03</pdfrwt>
<totfact> 0.69214732E+00</totfact>
</mgrwt>
</event>
<event>
 4    5  0.6615028E-008  0.1141105E+04  0.7818608E-02  0.9216614E-01
         -2   -1    0    0    0  501 -0.00000000000E+00  0.00000000000E+00  0.21103682363E+04  0.21103682363E+04  0.25500000000E-02 0.  1.
          2   -1    0    0  501    0  0.00000000000E+00 -0.00000000000E+00 -0.93402616389E+03  0.93402616390E+03  0.25500000000E-02 0. -1.
    8880023    1    1    2    0    0 -0.34438355253E+03 -0.86585796560E+03 -0.39804006118E+03  0.12085347096E+04  0.65864270000E+03 0. -1.
    8880022    1    1    2    0    0  0.34438355253E+03  0.86585796560E+03  0.15743821336E+04  0.18358596905E+04  0.15294330000E+03 0.  0.
<mgrwt>
<rscale>  0 0.10883576E+04</rscale>
<asrwt>0</asrwt>
<pdfrwt beam="1">  1        2 0.14369633E+00 0.11411048E+04</pdfrwt>
<pdfrwt beam="2">  1       -2 0.32467204E+00 0.11411048E+04</pdfrwt>
<totfact> 0.61599567E-01</totfact>
</mgrwt>
</event>
<event>
 4    5  0.6615028E-008  0.7108312E+03  0.7818608E-02  0.9954927E-01
         -2   -1    0    0    0  501 -0.00000000000E+00  0.00000000000E+00  0.25047845386E+04  0.25047845386E+04  0.25500000000E-02 0.  1.
          2   -1    0    0  501    0  0.00000000000E+00 -0.00000000000E+00 -0.25246355623E+03  0.25246355624E+03  0.25500000000E-02 0. -1.
    8880023    1    1    2    0    0 -0.17112151191E+03 -0.20539773415E+03  0.28479428699E+03  0.76576027136E+03  0.65864270000E+03 0. -1.
    8880022    1    1    2    0    0  0.17112151191E+03  0.20539773415E+03  0.19675266954E+04  0.19914878235E+04  0.15294330000E+03 0.  0.
<mgrwt>
<rscale>  0 0.57671555E+03</rscale>
<asrwt>0</asrwt>
<pdfrwt beam="1">  1        2 0.38840548E-01 0.71083121E+03</pdfrwt>
<pdfrwt beam="2">  1       -2 0.38535145E+00 0.71083121E+03</pdfrwt>
<totfact> 0.13116376E+00</totfact>
</mgrwt>
</event>
<event>
 4    5  0.6615028E-008  0.2129684E+04  0.7818608E-02  0.8559227E-01
         -2   -1    0    0    0  501 -0.00000000000E+00  0.00000000000E+00  0.13903493341E+04  0.13903493341E+04  0.25500000000E-02 0.  1.
          2   -1    0    0  501    0  0.00000000000E+00 -0.00000000000E+00 -0.41424169813E+04  0.41424169813E+04  0.25500000000E-02 0. -1.
    8880023    1    1    2    0    0 -0.14923669183E+04  0.13691545512E+04 -0.27794286381E+04  0.35015392279E+04  0.65864270000E+03 0.  0.
    8880022    1    1    2    0    0  0.14923669183E+04 -0.13691545512E+04  0.27360990929E+02  0.20312270875E+04  0.15294330000E+03 0.  0.
<mgrwt>
<rscale>  0 0.21045833E+04</rscale>
<asrwt>0</asrwt>
<pdfrwt beam="1">  1        2 0.63729491E+00 0.21296839E+04</pdfrwt>
<pdfrwt beam="2">  1       -2 0.21389990E+00 0.21296839E+04</pdfrwt>
<totfact> 0.24855040E-02</totfact>
</mgrwt>
</event>
<event>
 4    5  0.6615028E-008  0.1133887E+04  0.7818608E-02  0.9224233E-01
          2   -1    0    0  501    0  0.00000000000E+00  0.00000000000E+00  0.18504034605E+04  0.18504034605E+04  0.25500000000E-02 0. -1.
         -2   -1    0    0    0  501 -0.00000000000E+00 -0.00000000000E+00 -0.14603085779E+04  0.14603085779E+04  0.25500000000E-02 0.  1.
    8880023    1    1    2    0    0 -0.94248185986E+02 -0.91815440933E+03  0.14863738681E+04  0.18694939748E+04  0.65864270000E+03 0.  0.
    8880022    1    1    2    0    0  0.94248185986E+02  0.91815440933E+03 -0.10962789854E+04  0.14412180636E+04  0.15294330000E+03 0.  0.
<mgrwt>
<rscale>  0 0.10806770E+04</rscale>
<asrwt>0</asrwt>
<pdfrwt beam="1">  1        2 0.28467745E+00 0.11338873E+04</pdfrwt>
<pdfrwt beam="2">  1       -2 0.22466286E+00 0.11338873E+04</pdfrwt>
<totfact> 0.73189396E-01</totfact>
</mgrwt>
</event>
<event>
 4    5  0.6615028E-008  0.8096859E+03  0.7818608E-02  0.9690231E-01
          2   -1    0    0  501    0  0.00000000000E+00  0.00000000000E+00  0.13874364524E+04  0.13874364524E+04  0.25500000000E-02 0. -1.
         -2   -1    0    0    0  501 -0.00000000000E+00 -0.00000000000E+00 -0.40098101145E+03  0.40098101146E+03  0.25500000000E-02 0.  1.
    8880023    1    1    2    0    0 -0.28812471933E+03  0.37251209217E+03  0.10078476556E+04  0.12928063335E+04  0.65864270000E+03 0.  0.
    8880022    1    1    2    0    0  0.28812471933E+03 -0.37251209217E+03 -0.21392214653E+02  0.49561113039E+03  0.15294330000E+03 0.  0.
<mgrwt>
<rscale>  0 0.71601394E+03</rscale>
<asrwt>0</asrwt>
<pdfrwt beam="1">  1        2 0.21345176E+00 0.80968594E+03</pdfrwt>
<pdfrwt beam="2">  1       -2 0.61689386E-01 0.80968594E+03</pdfrwt>
<totfact> 0.36454864E+01</totfact>
</mgrwt>
</event>
<event>
 4    5  0.6615028E-008  0.7867426E+03  0.7818608E-02  0.9740230E-01
          2   -1    0    0  501    0  0.00000000000E+00  0.00000000000E+00  0.10978570659E+04  0.10978570659E+04  0.25500000000E-02 0. -1.
         -2   -1    0    0    0  501 -0.00000000000E+00 -0.00000000000E+00 -0.64807931571E+03  0.64807931572E+03  0.25500000000E-02 0.  1.
    8880023    1    1    2    0    0 -0.29005156688E+03 -0.31784249119E+03  0.83590130199E+03  0.11479089483E+04  0.65864270000E+03 0. -1.
    8880022    1    1    2    0    0  0.29005156688E+03  0.31784249119E+03 -0.38612355184E+03  0.59802743328E+03  0.15294330000E+03 0.  0.
<mgrwt>
<rscale>  0 0.68671193E+03</rscale>
<asrwt>0</asrwt>
<pdfrwt beam="1">  1        2 0.16890109E+00 0.78674263E+03</pdfrwt>
<pdfrwt beam="2">  1       -2 0.99704510E-01 0.78674263E+03</pdfrwt>
<totfact> 0.18428307E+01</totfact>
</mgrwt>
</event>
<event>
 4    5  0.6615028E-008  0.7838722E+03  0.7818608E-02  0.9746819E-01
          2   -1    0    0  501    0  0.00000000000E+00  0.00000000000E+00  0.35713425984E+04  0.35713425985E+04  0.25500000000E-02 0. -1.
         -2   -1    0    0    0  501 -0.00000000000E+00 -0.00000000000E+00 -0.57689074102E+03  0.57689074102E+03  0.25500000000E-02 0.  1.
    8880023    1    1    2    0    0  0.52742050896E+02 -0.42173880708E+03  0.34313872500E+04  0.35197832335E+04  0.65864270000E+03 0. -1.
    8880022    1    1    2    0    0 -0.52742050896E+02  0.42173880708E+03 -0.43693539259E+03  0.62845010593E+03  0.15294330000E+03 0.  0.
<mgrwt>
<rscale>  0 0.68296358E+03</rscale>
<asrwt>0</asrwt>
<pdfrwt beam="1">  1        2 0.54943731E+00 0.78387215E+03</pdfrwt>
<pdfrwt beam="2">  1       -2 0.88752423E-01 0.78387215E+03</pdfrwt>
<totfact> 0.85566273E-01</totfact>
</mgrwt>
</event>
<event>
 4    5  0.6615028E-008  0.7823716E+03  0.7818608E-02  0.9750295E-01
         -2   -1    0    0    0  501 -0.00000000000E+00  0.00000000000E+00  0.34743224731E+03  0.34743224732E+03  0.25500000000E-02 0.  1.
          2   -1    0    0  501    0  0.00000000000E+00 -0.00000000000E+00 -0.15828729830E+04  0.15828729830E+04  0.25500000000E-02 0. -1.
    8880023    1    1    2    0    0 -0.40361455774E+03 -0.12405834548E+03 -0.12571113444E+04  0.14806871117E+04  0.65864270000E+03 0.  0.
    8880022    1    1    2    0    0  0.40361455774E+03  0.12405834548E+03  0.21670608700E+02  0.44961811863E+03  0.15294330000E+03 0.  0.
<mgrwt>
<rscale>  0 0.68099594E+03</rscale>
<asrwt>0</asrwt>
<pdfrwt beam="1">  1        2 0.24351892E+00 0.78237164E+03</pdfrwt>
<pdfrwt beam="2">  1       -2 0.53451116E-01 0.78237164E+03</pdfrwt>
<totfact> 0.38374982E+01</totfact>
</mgrwt>
</event>
<event>
 4    5  0.6615028E-008  0.1178278E+04  0.7818608E-02  0.9178532E-01
         -2   -1    0    0    0  501 -0.00000000000E+00  0.00000000000E+00  0.73483290162E+03  0.73483290162E+03  0.25500000000E-02 0.  1.
          2   -1    0    0  501    0  0.00000000000E+00 -0.00000000000E+00 -0.25603090017E+04  0.25603090017E+04  0.25500000000E-02 0. -1.
    8880023    1    1    2    0    0 -0.97479801883E+03 -0.65565494940E+02 -0.19702543501E+04  0.22957008564E+04  0.65864270000E+03 0.  0.
    8880022    1    1    2    0    0  0.97479801883E+03  0.65565494940E+02  0.14477825002E+03  0.99944104695E+03  0.15294330000E+03 0.  0.
<mgrwt>
<rscale>  0 0.11277789E+04</rscale>
<asrwt>0</asrwt>
<pdfrwt beam="1">  1        2 0.39389369E+00 0.11782785E+04</pdfrwt>
<pdfrwt beam="2">  1       -2 0.11305122E+00 0.11782785E+04</pdfrwt>
<totfact> 0.19441291E+00</totfact>
</mgrwt>
</event>
<event>
 4    5  0.6615028E-008  0.1302474E+04  0.7818608E-02  0.9063426E-01
          2   -1    0    0  501    0  0.00000000000E+00  0.00000000000E+00  0.16234620983E+04  0.16234620983E+04  0.25500000000E-02 0. -1.
         -2   -1    0    0    0  501 -0.00000000000E+00 -0.00000000000E+00 -0.99179475366E+03  0.99179475366E+03  0.25500000000E-02 0.  1.
    8880023    1    1    2    0    0 -0.10638212922E+04  0.36181795370E+03  0.70095649179E+03  0.14791139858E+04  0.65864270000E+03 0.  0.
    8880022    1    1    2    0    0  0.10638212922E+04 -0.36181795370E+03 -0.69289147154E+02  0.11361428661E+04  0.15294330000E+03 0.  0.
<mgrwt>
<rscale>  0 0.12581508E+04</rscale>
<asrwt>0</asrwt>
<pdfrwt beam="1">  1        2 0.24976340E+00 0.13024739E+04</pdfrwt>
<pdfrwt beam="2">  1       -2 0.15258381E+00 0.13024739E+04</pdfrwt>
<totfact> 0.29809472E+00</totfact>
</mgrwt>
</event>
<event>
 4    5  0.6615028E-008  0.7790119E+03  0.7818608E-02  0.9758163E-01
          2   -1    0    0  501    0  0.00000000000E+00  0.00000000000E+00  0.14217538276E+04  0.14217538276E+04  0.25500000000E-02 0. -1.
         -2   -1    0    0    0  501 -0.00000000000E+00 -0.00000000000E+00 -0.32689380089E+03  0.32689380090E+03  0.25500000000E-02 0.  1.
    8880023    1    1    2    0    0 -0.14406627810E+03 -0.39024888048E+03  0.10438711212E+04  0.13025077371E+04  0.65864270000E+03 0. -1.
    8880022    1    1    2    0    0  0.14406627810E+03  0.39024888048E+03  0.50988905478E+02  0.44613989140E+03  0.15294330000E+03 0.  0.
<mgrwt>
<rscale>  0 0.67656894E+03</rscale>
<asrwt>0</asrwt>
<pdfrwt beam="1">  1        2 0.21873136E+00 0.77901187E+03</pdfrwt>
<pdfrwt beam="2">  1       -2 0.50291353E-01 0.77901187E+03</pdfrwt>
<totfact> 0.53501886E+01</totfact>
</mgrwt>
</event>
<event>
 4    5  0.6615028E-008  0.9219466E+03  0.7818608E-02  0.9491681E-01
         -2   -1    0    0    0  501 -0.00000000000E+00  0.00000000000E+00  0.11345840099E+04  0.11345840100E+04  0.25500000000E-02 0.  1.
          2   -1    0    0  501    0  0.00000000000E+00 -0.00000000000E+00 -0.36097893667E+04  0.36097893667E+04  0.25500000000E-02 0. -1.
    8880023    1    1    2    0    0  0.36938357752E+03  0.52889610209E+03 -0.34468853541E+04  0.35680532738E+04  0.65864270000E+03 0. -1.
    8880022    1    1    2    0    0 -0.36938357752E+03 -0.52889610209E+03  0.97167999734E+03  0.11763201029E+04  0.15294330000E+03 0.  0.
<mgrwt>
<rscale>  0 0.84899954E+03</rscale>
<asrwt>0</asrwt>
<pdfrwt beam="1">  1        2 0.55535220E+00 0.92194659E+03</pdfrwt>
<pdfrwt beam="2">  1       -2 0.17455139E+00 0.92194659E+03</pdfrwt>
<totfact> 0.14139913E-01</totfact>
</mgrwt>
</event>
<event>
 4    5  0.6615028E-008  0.8341696E+03  0.7818608E-02  0.9641274E-01
          2   -1    0    0  501    0  0.00000000000E+00  0.00000000000E+00  0.13750345484E+04  0.13750345484E+04  0.25500000000E-02 0. -1.
         -2   -1    0    0    0  501 -0.00000000000E+00 -0.00000000000E+00 -0.82080129484E+03  0.82080129484E+03  0.25500000000E-02 0.  1.
    8880023    1    1    2    0    0  0.36329466842E+03 -0.36061845655E+03  0.11337982665E+04  0.14075998731E+04  0.65864270000E+03 0.  0.
    8880022    1    1    2    0    0 -0.36329466842E+03  0.36061845655E+03 -0.57956501299E+03  0.78823597012E+03  0.15294330000E+03 0.  0.
<mgrwt>
<rscale>  0 0.74623631E+03</rscale>
<asrwt>0</asrwt>
<pdfrwt beam="1">  1        2 0.21154378E+00 0.83416958E+03</pdfrwt>
<pdfrwt beam="2">  1       -2 0.12627712E+00 0.83416958E+03</pdfrwt>
<totfact> 0.70721501E+00</totfact>
</mgrwt>
</event>
<event>
 4    5  0.6615028E-008  0.8207031E+03  0.7818608E-02  0.9667699E-01
          2   -1    0    0  501    0  0.00000000000E+00  0.00000000000E+00  0.55075104613E+03  0.55075104613E+03  0.25500000000E-02 0. -1.
         -2   -1    0    0    0  501 -0.00000000000E+00 -0.00000000000E+00 -0.19575160236E+04  0.19575160236E+04  0.25500000000E-02 0.  1.
    8880023    1    1    2    0    0 -0.42436585918E+03 -0.24424777080E+03  0.18037406740E+03  0.84029064402E+03  0.65864270000E+03 0.  0.
    8880022    1    1    2    0    0  0.42436585918E+03  0.24424777080E+03 -0.15871390449E+04  0.16679764257E+04  0.15294330000E+03 0.  0.
<mgrwt>
<rscale>  0 0.72972946E+03</rscale>
<asrwt>0</asrwt>
<pdfrwt beam="1">  1        2 0.84730931E-01 0.82070309E+03</pdfrwt>
<pdfrwt beam="2">  1       -2 0.30115631E+00 0.82070309E+03</pdfrwt>
<totfact> 0.17717810E+00</totfact>
</mgrwt>
</event>
<event>
 4    5  0.6615028E-008  0.8825958E+03  0.7818608E-02  0.9554569E-01
          2   -1    0    0  501    0  0.00000000000E+00  0.00000000000E+00  0.85788530638E+03  0.85788530639E+03  0.25500000000E-02 0. -1.
         -2   -1    0    0    0  501 -0.00000000000E+00 -0.00000000000E+00 -0.14337241323E+04  0.14337241323E+04  0.25500000000E-02 0.  1.
    8880023    1    1    2    0    0  0.68257600525E+02 -0.58352897823E+03  0.53042075192E+03  0.10297191602E+04  0.65864270000E+03 0. -1.
    8880022    1    1    2    0    0 -0.68257600525E+02  0.58352897823E+03 -0.11062595778E+04  0.12618902785E+04  0.15294330000E+03 0.  0.
<mgrwt>
<rscale>  0 0.80377493E+03</rscale>
<asrwt>0</asrwt>
<pdfrwt beam="1">  1        2 0.13198236E+00 0.88259582E+03</pdfrwt>
<pdfrwt beam="2">  1       -2 0.22057294E+00 0.88259582E+03</pdfrwt>
<totfact> 0.30956319E+00</totfact>
</mgrwt>
</event>
<event>
 4    5  0.6615028E-008  0.1483076E+04  0.7818608E-02  0.8921680E-01
          2   -1    0    0  501    0  0.00000000000E+00  0.00000000000E+00  0.24157773558E+04  0.24157773558E+04  0.25500000000E-02 0. -1.
         -2   -1    0    0    0  501 -0.00000000000E+00 -0.00000000000E+00 -0.11318456722E+04  0.11318456722E+04  0.25500000000E-02 0.  1.
    8880023    1    1    2    0    0  0.46107365716E+03 -0.12462400920E+04  0.15912292323E+04  0.21752066477E+04  0.65864270000E+03 0. -1.
    8880022    1    1    2    0    0 -0.46107365716E+03  0.12462400920E+04 -0.30729754869E+03  0.13724163803E+04  0.15294330000E+03 0.  0.
<mgrwt>
<rscale>  0 0.14452789E+04</rscale>
<asrwt>0</asrwt>
<pdfrwt beam="1">  1        2 0.37165805E+00 0.14830757E+04</pdfrwt>
<pdfrwt beam="2">  1       -2 0.17413010E+00 0.14830757E+04</pdfrwt>
<totfact> 0.73188905E-01</totfact>
</mgrwt>
</event>
<event>
 4    5  0.6615028E-008  0.9780471E+03  0.7818608E-02  0.9410859E-01
         -2   -1    0    0    0  501 -0.00000000000E+00  0.00000000000E+00  0.11297464514E+04  0.11297464514E+04  0.25500000000E-02 0.  1.
          2   -1    0    0  501    0  0.00000000000E+00 -0.00000000000E+00 -0.22269775452E+04  0.22269775452E+04  0.25500000000E-02 0. -1.
    8880023    1    1    2    0    0  0.12237838722E+03  0.71259353435E+03 -0.19782316785E+04  0.22068023915E+04  0.65864270000E+03 0.  0.
    8880022    1    1    2    0    0 -0.12237838722E+03 -0.71259353435E+03  0.88100058463E+03  0.11499216052E+04  0.15294330000E+03 0.  0.
<mgrwt>
<rscale>  0 0.91187351E+03</rscale>
<asrwt>0</asrwt>
<pdfrwt beam="1">  1        2 0.34261193E+00 0.97804715E+03</pdfrwt>
<pdfrwt beam="2">  1       -2 0.17380715E+00 0.97804715E+03</pdfrwt>
<totfact> 0.10031730E+00</totfact>
</mgrwt>
</event>
<event>
 4    5  0.6615028E-008  0.7556396E+03  0.7818608E-02  0.9816530E-01
         -2   -1    0    0    0  501 -0.00000000000E+00  0.00000000000E+00  0.69930343889E+03  0.69930343890E+03  0.25500000000E-02 0.  1.
          2   -1    0    0  501    0  0.00000000000E+00 -0.00000000000E+00 -0.27318300671E+04  0.27318300671E+04  0.25500000000E-02 0. -1.
    8880023    1    1    2    0    0 -0.26857890020E+03 -0.25504193585E+03 -0.26162027533E+04  0.27231430494E+04  0.65864270000E+03 0. -1.
    8880022    1    1    2    0    0  0.26857890020E+03  0.25504193585E+03  0.58367612509E+03  0.70799045664E+03  0.15294330000E+03 0.  0.
<mgrwt>
<rscale>  0 0.64482964E+03</rscale>
<asrwt>0</asrwt>
<pdfrwt beam="1">  1        2 0.42028154E+00 0.75563961E+03</pdfrwt>
<pdfrwt beam="2">  1       -2 0.10758515E+00 0.75563961E+03</pdfrwt>
<totfact> 0.18625510E+00</totfact>
</mgrwt>
</event>
<event>
 4    5  0.6615028E-008  0.7301949E+03  0.7818608E-02  0.9889488E-01
          2   -1    0    0  501    0  0.00000000000E+00  0.00000000000E+00  0.12142704125E+04  0.12142704125E+04  0.25500000000E-02 0. -1.
         -2   -1    0    0    0  501 -0.00000000000E+00 -0.00000000000E+00 -0.29804766058E+03  0.29804766059E+03  0.25500000000E-02 0.  1.
    8880023    1    1    2    0    0 -0.18364466569E+03  0.25622066473E+03  0.90353889120E+03  0.11617087098E+04  0.65864270000E+03 0. -1.
    8880022    1    1    2    0    0  0.18364466569E+03 -0.25622066473E+03  0.12683860696E+02  0.35060936326E+03  0.15294330000E+03 0.  0.
<mgrwt>
<rscale>  0 0.60773449E+03</rscale>
<asrwt>0</asrwt>
<pdfrwt beam="1">  1        2 0.18681083E+00 0.73019490E+03</pdfrwt>
<pdfrwt beam="2">  1       -2 0.45853486E-01 0.73019490E+03</pdfrwt>
<totfact> 0.85246062E+01</totfact>
</mgrwt>
</event>
<event>
 4    5  0.6615028E-008  0.8849004E+03  0.7818608E-02  0.9550719E-01
         -2   -1    0    0    0  501 -0.00000000000E+00  0.00000000000E+00  0.10383875792E+04  0.10383875792E+04  0.25500000000E-02 0.  1.
          2   -1    0    0  501    0  0.00000000000E+00 -0.00000000000E+00 -0.16347298682E+04  0.16347298682E+04  0.25500000000E-02 0. -1.
    8880023    1    1    2    0    0 -0.64977864009E+02  0.58738101500E+03 -0.14046848588E+04  0.16601772009E+04  0.65864270000E+03 0.  0.
    8880022    1    1    2    0    0  0.64977864009E+02 -0.58738101500E+03  0.80834256985E+03  0.10129402464E+04  0.15294330000E+03 0.  0.
<mgrwt>
<rscale>  0 0.80645580E+03</rscale>
<asrwt>0</asrwt>
<pdfrwt beam="1">  1        2 0.25149690E+00 0.88490044E+03</pdfrwt>
<pdfrwt beam="2">  1       -2 0.15975194E+00 0.88490044E+03</pdfrwt>
<totfact> 0.27215728E+00</totfact>
</mgrwt>
</event>
<event>
 4    5  0.6615028E-008  0.7717302E+03  0.7818608E-02  0.9775634E-01
         -2   -1    0    0    0  501 -0.00000000000E+00  0.00000000000E+00  0.16924354077E+03  0.16924354079E+03  0.25500000000E-02 0.  1.
          2   -1    0    0  501    0  0.00000000000E+00 -0.00000000000E+00 -0.21465645089E+04  0.21465645089E+04  0.25500000000E-02 0. -1.
    8880023    1    1    2    0    0 -0.32712880678E+03  0.23397454172E+03 -0.13519016268E+04  0.15566648828E+04  0.65864270000E+03 0. -1.
    8880022    1    1    2    0    0  0.32712880678E+03 -0.23397454172E+03 -0.62541934137E+03  0.75914316698E+03  0.15294330000E+03 0.  1.
<mgrwt>
<rscale>  0 0.66686712E+03</rscale>
<asrwt>0</asrwt>
<pdfrwt beam="1">  1        2 0.33024067E+00 0.77173023E+03</pdfrwt>
<pdfrwt beam="2">  1       -2 0.26037469E-01 0.77173023E+03</pdfrwt>
<totfact> 0.75729731E+01</totfact>
</mgrwt>
</event>
<event>
 4    5  0.6622572E-008  0.1124964E+04  0.7818608E-02  0.9233758E-01
          2   -1    0    0  501    0  0.00000000000E+00  0.00000000000E+00  0.29521205930E+04  0.29521205930E+04  0.25500000000E-02 0. -1.
         -2   -1    0    0    0  501 -0.00000000000E+00 -0.00000000000E+00 -0.16088751274E+04  0.16088751274E+04  0.25500000000E-02 0.  1.
    8880023    1    1    2    0    0  0.86045791110E+03  0.30223458823E+03  0.26966194974E+04  0.29218659249E+04  0.65864270000E+03 0. -1.
    8880022    1    1    2    0    0 -0.86045791110E+03 -0.30223458823E+03 -0.13533740318E+04  0.16391297954E+04  0.15294330000E+03 0.  0.
<mgrwt>
<rscale>  0 0.10711682E+04</rscale>
<asrwt>0</asrwt>
<pdfrwt beam="1">  1        2 0.45417239E+00 0.11249639E+04</pdfrwt>
<pdfrwt beam="2">  1       -2 0.24751926E+00 0.11249639E+04</pdfrwt>
<totfact> 0.12373893E-01</totfact>
</mgrwt>
</event>
<event>
 4    5  0.7154979E-008  0.8854558E+03  0.7818608E-02  0.9549795E-01
          2   -1    0    0  501    0  0.00000000000E+00  0.00000000000E+00  0.17628082525E+04  0.17628082525E+04  0.25500000000E-02 0. -1.
         -2   -1    0    0    0  501 -0.00000000000E+00 -0.00000000000E+00 -0.10121423148E+04  0.10121423148E+04  0.25500000000E-02 0.  1.
    8880023    1    1    2    0    0 -0.58494536714E+03 -0.89781474148E+02  0.15401274394E+04  0.17765203437E+04  0.65864270000E+03 0. -1.
    8880022    1    1    2    0    0  0.58494536714E+03  0.89781474148E+02 -0.78946150171E+03  0.99843022357E+03  0.15294330000E+03 0.  0.
<mgrwt>
<rscale>  0 0.80710118E+03</rscale>
<asrwt>0</asrwt>
<pdfrwt beam="1">  1        2 0.27120127E+00 0.88545582E+03</pdfrwt>
<pdfrwt beam="2">  1       -2 0.15571420E+00 0.88545582E+03</pdfrwt>
<totfact> 0.24795108E+00</totfact>
</mgrwt>
</event>
<event>
 4    5  0.6615028E-008  0.8002667E+03  0.7818608E-02  0.9710220E-01
         -2   -1    0    0    0  501 -0.00000000000E+00  0.00000000000E+00  0.45224114287E+03  0.45224114288E+03  0.25500000000E-02 0.  1.
          2   -1    0    0  501    0  0.00000000000E+00 -0.00000000000E+00 -0.18347631907E+04  0.18347631907E+04  0.25500000000E-02 0. -1.
    8880023    1    1    2    0    0  0.37010027644E+03 -0.26389826307E+03 -0.15778266562E+04  0.17691703341E+04  0.65864270000E+03 0.  0.
    8880022    1    1    2    0    0 -0.37010027644E+03  0.26389826307E+03  0.19530460840E+03  0.51783399942E+03  0.15294330000E+03 0.  0.
<mgrwt>
<rscale>  0 0.70411557E+03</rscale>
<asrwt>0</asrwt>
<pdfrwt beam="1">  1        2 0.28227126E+00 0.80026665E+03</pdfrwt>
<pdfrwt beam="2">  1       -2 0.69575562E-01 0.80026665E+03</pdfrwt>
<totfact> 0.15922716E+01</totfact>
</mgrwt>
</event>
<event>
 4    5  0.6615028E-008  0.1440263E+04  0.7818608E-02  0.8953012E-01
         -2   -1    0    0    0  501 -0.00000000000E+00  0.00000000000E+00  0.16481831468E+04  0.16481831468E+04  0.25500000000E-02 0.  1.
          2   -1    0    0  501    0  0.00000000000E+00 -0.00000000000E+00 -0.11710611871E+04  0.11710611871E+04  0.25500000000E-02 0. -1.
    8880023    1    1    2    0    0  0.27962141082E+03  0.12499440115E+04 -0.10266953466E+02  0.14402998931E+04  0.65864270000E+03 0. -1.
    8880022    1    1    2    0    0 -0.27962141082E+03 -0.12499440115E+04  0.48738891315E+03  0.13789444409E+04  0.15294330000E+03 0.  0.
<mgrwt>
<rscale>  0 0.14011145E+04</rscale>
<asrwt>0</asrwt>
<pdfrwt beam="1">  1        2 0.18016326E+00 0.14402633E+04</pdfrwt>
<pdfrwt beam="2">  1       -2 0.25356664E+00 0.14402633E+04</pdfrwt>
<totfact> 0.11438882E+00</totfact>
</mgrwt>
</event>
<event>
 4    5  0.6615028E-008  0.7517978E+03  0.7818608E-02  0.9826824E-01
          2   -1    0    0  501    0  0.00000000000E+00  0.00000000000E+00  0.22668664257E+04  0.22668664257E+04  0.25500000000E-02 0. -1.
         -2   -1    0    0    0  501 -0.00000000000E+00 -0.00000000000E+00 -0.63693702953E+03  0.63693702953E+03  0.25500000000E-02 0.  1.
    8880023    1    1    2    0    0 -0.14919080597E+03  0.33035109809E+03  0.21350508855E+04  0.22635463845E+04  0.65864270000E+03 0. -1.
    8880022    1    1    2    0    0  0.14919080597E+03 -0.33035109809E+03 -0.50512148937E+03  0.64025707074E+03  0.15294330000E+03 0.  0.
<mgrwt>
<rscale>  0 0.63942651E+03</rscale>
<asrwt>0</asrwt>
<pdfrwt beam="1">  1        2 0.34874868E+00 0.75179781E+03</pdfrwt>
<pdfrwt beam="2">  1       -2 0.97990313E-01 0.75179781E+03</pdfrwt>
<totfact> 0.42783986E+00</totfact>
</mgrwt>
</event>
<event>
 4    5  0.6615028E-008  0.7476272E+03  0.7818608E-02  0.9838262E-01
          2   -1    0    0  501    0  0.00000000000E+00  0.00000000000E+00  0.95323631910E+03  0.95323631910E+03  0.25500000000E-02 0. -1.
         -2   -1    0    0    0  501 -0.00000000000E+00 -0.00000000000E+00 -0.61526906282E+03  0.61526906283E+03  0.25500000000E-02 0.  1.
    8880023    1    1    2    0    0 -0.31355689003E+03 -0.16376316514E+03  0.71130015140E+03  0.10319372118E+04  0.65864270000E+03 0. -1.
    8880022    1    1    2    0    0  0.31355689003E+03  0.16376316514E+03 -0.37333289513E+03  0.53656817008E+03  0.15294330000E+03 0.  0.
<mgrwt>
<rscale>  0 0.63349015E+03</rscale>
<asrwt>0</asrwt>
<pdfrwt beam="1">  1        2 0.14665174E+00 0.74762725E+03</pdfrwt>
<pdfrwt beam="2">  1       -2 0.94656779E-01 0.74762725E+03</pdfrwt>
<totfact> 0.25800338E+01</totfact>
</mgrwt>
</event>
<event>
 4    5  0.6615028E-008  0.1093126E+04  0.7818608E-02  0.9268749E-01
         -2   -1    0    0    0  501 -0.00000000000E+00  0.00000000000E+00  0.40911276064E+04  0.40911276064E+04  0.25500000000E-02 0.  1.
          2   -1    0    0  501    0  0.00000000000E+00 -0.00000000000E+00 -0.10155018345E+04  0.10155018345E+04  0.25500000000E-02 0. -1.
    8880023    1    1    2    0    0 -0.71755375077E+02 -0.86946230159E+03 -0.65362676149E+03  0.12736371843E+04  0.65864270000E+03 0.  0.
    8880022    1    1    2    0    0  0.71755375077E+02  0.86946230159E+03  0.37292525335E+04  0.38329922566E+04  0.15294330000E+03 0.  0.
<mgrwt>
<rscale>  0 0.10371153E+04</rscale>
<asrwt>0</asrwt>
<pdfrwt beam="1">  1        2 0.15623106E+00 0.10931257E+04</pdfrwt>
<pdfrwt beam="2">  1       -2 0.62940423E+00 0.10931257E+04</pdfrwt>
<totfact> 0.94007298E-03</totfact>
</mgrwt>
</event>
<event>
 4    5  0.6615028E-008  0.7556813E+03  0.7818608E-02  0.9816419E-01
          2   -1    0    0  501    0  0.00000000000E+00  0.00000000000E+00  0.92551104991E+03  0.92551104992E+03  0.25500000000E-02 0. -1.
         -2   -1    0    0    0  501 -0.00000000000E+00 -0.00000000000E+00 -0.92857082102E+03  0.92857082102E+03  0.25500000000E-02 0.  1.
    8880023    1    1    2    0    0 -0.23734836201E+03 -0.28444636197E+03  0.70949000616E+03  0.10365472748E+04  0.65864270000E+03 0.  0.
    8880022    1    1    2    0    0  0.23734836201E+03  0.28444636197E+03 -0.71254977727E+03  0.81753459614E+03  0.15294330000E+03 0.  0.
<mgrwt>
<rscale>  0 0.64488790E+03</rscale>
<asrwt>0</asrwt>
<pdfrwt beam="1">  1        2 0.14238632E+00 0.75568127E+03</pdfrwt>
<pdfrwt beam="2">  1       -2 0.14285705E+00 0.75568127E+03</pdfrwt>
<totfact> 0.97606987E+00</totfact>
</mgrwt>
</event>
<event>
 4    5  0.6615028E-008  0.8466980E+03  0.7818608E-02  0.9617678E-01
         -2   -1    0    0    0  501 -0.00000000000E+00  0.00000000000E+00  0.44100963814E+03  0.44100963815E+03  0.25500000000E-02 0.  1.
          2   -1    0    0  501    0  0.00000000000E+00 -0.00000000000E+00 -0.32820907518E+04  0.32820907518E+04  0.25500000000E-02 0. -1.
    8880023    1    1    2    0    0 -0.99914463004E+02 -0.52259385409E+03 -0.30238119025E+04  0.31401171737E+04  0.65864270000E+03 0.  0.
    8880022    1    1    2    0    0  0.99914463004E+02  0.52259385409E+03  0.18273078886E+03  0.58298321628E+03  0.15294330000E+03 0.  0.
<mgrwt>
<rscale>  0 0.76137122E+03</rscale>
<asrwt>0</asrwt>
<pdfrwt beam="1">  1        2 0.50493702E+00 0.84669796E+03</pdfrwt>
<pdfrwt beam="2">  1       -2 0.67847639E-01 0.84669796E+03</pdfrwt>
<totfact> 0.24085961E+00</totfact>
</mgrwt>
</event>
<event>
 4    5  0.6615028E-008  0.8084570E+03  0.7818608E-02  0.9692800E-01
         -2   -1    0    0    0  501 -0.00000000000E+00  0.00000000000E+00  0.78259123004E+03  0.78259123004E+03  0.25500000000E-02 0.  1.
          2   -1    0    0  501    0  0.00000000000E+00 -0.00000000000E+00 -0.93018119611E+03  0.93018119611E+03  0.25500000000E-02 0. -1.
    8880023    1    1    2    0    0 -0.37877450388E+03  0.27626497211E+03 -0.62845723090E+03  0.10239927524E+04  0.65864270000E+03 0. -1.
    8880022    1    1    2    0    0  0.37877450388E+03 -0.27626497211E+03  0.48086726483E+03  0.68877967377E+03  0.15294330000E+03 0.  0.
<mgrwt>
<rscale>  0 0.71447096E+03</rscale>
<asrwt>0</asrwt>
<pdfrwt beam="1">  1        2 0.14310480E+00 0.80845697E+03</pdfrwt>
<pdfrwt beam="2">  1       -2 0.12039865E+00 0.80845697E+03</pdfrwt>
<totfact> 0.14883685E+01</totfact>
</mgrwt>
</event>
<event>
 4    5  0.6615028E-008  0.2057393E+04  0.7818608E-02  0.8592111E-01
         -2   -1    0    0    0  501 -0.00000000000E+00  0.00000000000E+00  0.15039457179E+04  0.15039457179E+04  0.25500000000E-02 0.  1.
          2   -1    0    0  501    0  0.00000000000E+00 -0.00000000000E+00 -0.30267849136E+04  0.30267849136E+04  0.25500000000E-02 0. -1.
    8880023    1    1    2    0    0  0.18434873530E+04  0.63293807623E+03 -0.15492090671E+04  0.25754446545E+04  0.65864270000E+03 0.  0.
    8880022    1    1    2    0    0 -0.18434873530E+04 -0.63293807623E+03  0.26369871360E+02  0.19552859770E+04  0.15294330000E+03 0.  0.
<mgrwt>
<rscale>  0 0.20313308E+04</rscale>
<asrwt>0</asrwt>
<pdfrwt beam="1">  1        2 0.46565922E+00 0.20573931E+04</pdfrwt>
<pdfrwt beam="2">  1       -2 0.23137626E+00 0.20573931E+04</pdfrwt>
<totfact> 0.12425763E-01</totfact>
</mgrwt>
</event>
<event>
 4    5  0.6615028E-008  0.9575085E+03  0.7818608E-02  0.9439392E-01
          2   -1    0    0  501    0  0.00000000000E+00  0.00000000000E+00  0.30597154160E+04  0.30597154160E+04  0.25500000000E-02 0. -1.
         -2   -1    0    0    0  501 -0.00000000000E+00 -0.00000000000E+00 -0.77820239260E+03  0.77820239260E+03  0.25500000000E-02 0.  1.
    8880023    1    1    2    0    0  0.22443561105E+03 -0.65775452595E+03  0.27988608925E+04  0.29581150860E+04  0.65864270000E+03 0.  0.
    8880022    1    1    2    0    0 -0.22443561105E+03  0.65775452595E+03 -0.51734786917E+03  0.87980272258E+03  0.15294330000E+03 0.  0.
<mgrwt>
<rscale>  0 0.88903555E+03</rscale>
<asrwt>0</asrwt>
<pdfrwt beam="1">  1        2 0.47072544E+00 0.95750852E+03</pdfrwt>
<pdfrwt beam="2">  1       -2 0.11972345E+00 0.95750852E+03</pdfrwt>
<totfact> 0.87569859E-01</totfact>
</mgrwt>
</event>
<event>
 4    5  0.6615028E-008  0.9982255E+03  0.7818608E-02  0.9383883E-01
         -2   -1    0    0    0  501 -0.00000000000E+00  0.00000000000E+00  0.95955491439E+03  0.95955491439E+03  0.25500000000E-02 0.  1.
          2   -1    0    0  501    0  0.00000000000E+00 -0.00000000000E+00 -0.20068716429E+04  0.20068716429E+04  0.25500000000E-02 0. -1.
    8880023    1    1    2    0    0  0.71895078951E+03 -0.21390118992E+03 -0.16927213254E+04  0.19651360382E+04  0.65864270000E+03 0. -1.
    8880022    1    1    2    0    0 -0.71895078951E+03  0.21390118992E+03  0.64540459696E+03  0.10012905191E+04  0.15294330000E+03 0.  0.
<mgrwt>
<rscale>  0 0.93414006E+03</rscale>
<asrwt>0</asrwt>
<pdfrwt beam="1">  1        2 0.30874948E+00 0.99822551E+03</pdfrwt>
<pdfrwt beam="2">  1       -2 0.14762383E+00 0.99822551E+03</pdfrwt>
<totfact> 0.20660506E+00</totfact>
</mgrwt>
</event>
<event>
 4    5  0.6615028E-008  0.6795627E+03  0.7818608E-02  0.1009572E+00
         -2   -1    0    0    0  501 -0.00000000000E+00  0.00000000000E+00  0.75619849494E+03  0.75619849494E+03  0.25500000000E-02 0.  1.
          2   -1    0    0  501    0  0.00000000000E+00 -0.00000000000E+00 -0.13671123428E+04  0.13671123428E+04  0.25500000000E-02 0. -1.
    8880023    1    1    2    0    0  0.16637257629E+03  0.17758405695E+02 -0.12623045142E+04  0.14336031835E+04  0.65864270000E+03 0. -1.
    8880022    1    1    2    0    0 -0.16637257629E+03 -0.17758405695E+02  0.65139066630E+03  0.68970765421E+03  0.15294330000E+03 0.  0.
<mgrwt>
<rscale>  0 0.51645041E+03</rscale>
<asrwt>0</asrwt>
<pdfrwt beam="1">  1        2 0.21032498E+00 0.67956265E+03</pdfrwt>
<pdfrwt beam="2">  1       -2 0.11633823E+00 0.67956265E+03</pdfrwt>
<totfact> 0.89466746E+00</totfact>
</mgrwt>
</event>
<event>
 4    5  0.6615028E-008  0.8265993E+03  0.7818608E-02  0.9655986E-01
          2   -1    0    0  501    0  0.00000000000E+00  0.00000000000E+00  0.62395673341E+03  0.62395673342E+03  0.25500000000E-02 0. -1.
         -2   -1    0    0    0  501 -0.00000000000E+00 -0.00000000000E+00 -0.20618517843E+04  0.20618517843E+04  0.25500000000E-02 0.  1.
    8880023    1    1    2    0    0  0.78695894032E+02  0.49321717150E+03  0.29363582901E+03  0.87720489530E+03  0.65864270000E+03 0.  0.
    8880022    1    1    2    0    0 -0.78695894032E+02 -0.49321717150E+03 -0.17315308799E+04  0.18086036224E+04  0.15294330000E+03 0.  0.
<mgrwt>
<rscale>  0 0.73698959E+03</rscale>
<asrwt>0</asrwt>
<pdfrwt beam="1">  1        2 0.95993344E-01 0.82659932E+03</pdfrwt>
<pdfrwt beam="2">  1       -2 0.31720796E+00 0.82659932E+03</pdfrwt>
<totfact> 0.12177644E+00</totfact>
</mgrwt>
</event>
<event>
 4    5  0.6615028E-008  0.8086504E+03  0.7818608E-02  0.9692395E-01
          2   -1    0    0  501    0  0.00000000000E+00  0.00000000000E+00  0.66999546267E+03  0.66999546267E+03  0.25500000000E-02 0. -1.
         -2   -1    0    0    0  501 -0.00000000000E+00 -0.00000000000E+00 -0.11845555306E+04  0.11845555306E+04  0.25500000000E-02 0.  1.
    8880023    1    1    2    0    0 -0.28562330090E+03 -0.37218889007E+03  0.33241987137E+03  0.87431025217E+03  0.65864270000E+03 0. -1.
    8880022    1    1    2    0    0  0.28562330090E+03  0.37218889007E+03 -0.84697993930E+03  0.98024074109E+03  0.15294330000E+03 0.  0.
<mgrwt>
<rscale>  0 0.71471398E+03</rscale>
<asrwt>0</asrwt>
<pdfrwt beam="1">  1        2 0.10307623E+00 0.80865039E+03</pdfrwt>
<pdfrwt beam="2">  1       -2 0.18223931E+00 0.80865039E+03</pdfrwt>
<totfact> 0.76642589E+00</totfact>
</mgrwt>
</event>
<event>
 4    5  0.6615028E-008  0.9529447E+03  0.7818608E-02  0.9445890E-01
         -2   -1    0    0    0  501 -0.00000000000E+00  0.00000000000E+00  0.10353663656E+04  0.10353663657E+04  0.25500000000E-02 0.  1.
          2   -1    0    0  501    0  0.00000000000E+00 -0.00000000000E+00 -0.17535454626E+04  0.17535454626E+04  0.25500000000E-02 0. -1.
    8880023    1    1    2    0    0 -0.65554731066E+03 -0.21107147367E+03 -0.14738703180E+04  0.17551060834E+04  0.65864270000E+03 0. -1.
    8880022    1    1    2    0    0  0.65554731066E+03  0.21107147367E+03  0.75569122103E+03  0.10338057448E+04  0.15294330000E+03 0.  0.
<mgrwt>
<rscale>  0 0.88393456E+03</rscale>
<asrwt>0</asrwt>
<pdfrwt beam="1">  1        2 0.26977622E+00 0.95294473E+03</pdfrwt>
<pdfrwt beam="2">  1       -2 0.15928713E+00 0.95294473E+03</pdfrwt>
<totfact> 0.23370410E+00</totfact>
</mgrwt>
</event>
<event>
 4    5  0.6615028E-008  0.1135874E+04  0.7818608E-02  0.9222128E-01
          2   -1    0    0  501    0  0.00000000000E+00  0.00000000000E+00  0.77454054223E+03  0.77454054223E+03  0.25500000000E-02 0. -1.
         -2   -1    0    0    0  501 -0.00000000000E+00 -0.00000000000E+00 -0.21308375900E+04  0.21308375900E+04  0.25500000000E-02 0.  1.
    8880023    1    1    2    0    0  0.11258020057E+03 -0.91854508336E+03  0.13475252797E+03  0.11438390716E+04  0.65864270000E+03 0.  0.
    8880022    1    1    2    0    0 -0.11258020057E+03  0.91854508336E+03 -0.14910495757E+04  0.17615390606E+04  0.15294330000E+03 0.  0.
<mgrwt>
<rscale>  0 0.10827920E+04</rscale>
<asrwt>0</asrwt>
<pdfrwt beam="1">  1        2 0.11916008E+00 0.11358739E+04</pdfrwt>
<pdfrwt beam="2">  1       -2 0.32782117E+00 0.11358739E+04</pdfrwt>
<totfact> 0.76317663E-01</totfact>
</mgrwt>
</event>
<event>
 4    5  0.6615028E-008  0.1009630E+04  0.7818608E-02  0.9369066E-01
         -2   -1    0    0    0  501 -0.00000000000E+00  0.00000000000E+00  0.18156170033E+04  0.18156170033E+04  0.25500000000E-02 0.  1.
          2   -1    0    0  501    0  0.00000000000E+00 -0.00000000000E+00 -0.14193351557E+04  0.14193351557E+04  0.25500000000E-02 0. -1.
    8880023    1    1    2    0    0  0.64546102174E+03 -0.41100086029E+03 -0.11333094626E+04  0.15178083483E+04  0.65864270000E+03 0.  0.
    8880022    1    1    2    0    0 -0.64546102174E+03  0.41100086029E+03  0.15295913101E+04  0.17171438108E+04  0.15294330000E+03 0.  0.
<mgrwt>
<rscale>  0 0.94665723E+03</rscale>
<asrwt>0</asrwt>
<pdfrwt beam="1">  1        2 0.21835926E+00 0.10096296E+04</pdfrwt>
<pdfrwt beam="2">  1       -2 0.27932569E+00 0.10096296E+04</pdfrwt>
<totfact> 0.59985397E-01</totfact>
</mgrwt>
</event>
<event>
 4    5  0.6615028E-008  0.7915129E+03  0.7818608E-02  0.9729457E-01
          2   -1    0    0  501    0  0.00000000000E+00  0.00000000000E+00  0.22384377761E+04  0.22384377761E+04  0.25500000000E-02 0. -1.
         -2   -1    0    0    0  501 -0.00000000000E+00 -0.00000000000E+00 -0.17731323179E+03  0.17731323181E+03  0.25500000000E-02 0.  1.
    8880023    1    1    2    0    0 -0.37033628913E+03  0.23565539273E+03  0.12081623728E+04  0.14443507041E+04  0.65864270000E+03 0.  1.
    8880022    1    1    2    0    0  0.37033628913E+03 -0.23565539273E+03  0.85296217156E+03  0.97140030384E+03  0.15294330000E+03 0. -1.
<mgrwt>
<rscale>  0 0.69289723E+03</rscale>
<asrwt>0</asrwt>
<pdfrwt beam="1">  1        2 0.34437508E+00 0.79151288E+03</pdfrwt>
<pdfrwt beam="2">  1       -2 0.27278956E-01 0.79151288E+03</pdfrwt>
<totfact> 0.61764070E+01</totfact>
</mgrwt>
</event>
<event>
 4    5  0.6615028E-008  0.1018823E+04  0.7818608E-02  0.9357335E-01
          2   -1    0    0  501    0  0.00000000000E+00  0.00000000000E+00  0.13454158920E+04  0.13454158920E+04  0.25500000000E-02 0. -1.
         -2   -1    0    0    0  501 -0.00000000000E+00 -0.00000000000E+00 -0.99416686475E+03  0.99416686475E+03  0.25500000000E-02 0.  1.
    8880023    1    1    2    0    0 -0.17067306786E+03  0.75832771264E+03  0.91329900577E+03  0.13682527164E+04  0.65864270000E+03 0.  0.
    8880022    1    1    2    0    0  0.17067306786E+03 -0.75832771264E+03 -0.56204997852E+03  0.97133004032E+03  0.15294330000E+03 0.  0.
<mgrwt>
<rscale>  0 0.95671564E+03</rscale>
<asrwt>0</asrwt>
<pdfrwt beam="1">  1        2 0.20698706E+00 0.10188231E+04</pdfrwt>
<pdfrwt beam="2">  1       -2 0.15294875E+00 0.10188231E+04</pdfrwt>
<totfact> 0.43802863E+00</totfact>
</mgrwt>
</event>
<event>
 4    5  0.6615028E-008  0.9683972E+03  0.7818608E-02  0.9424124E-01
         -2   -1    0    0    0  501 -0.00000000000E+00  0.00000000000E+00  0.18099583461E+04  0.18099583461E+04  0.25500000000E-02 0.  1.
          2   -1    0    0  501    0  0.00000000000E+00 -0.00000000000E+00 -0.10748839285E+04  0.10748839285E+04  0.25500000000E-02 0. -1.
    8880023    1    1    2    0    0  0.59119774131E+03 -0.39302432344E+03 -0.75453236147E+03  0.12276449727E+04  0.65864270000E+03 0.  0.
    8880022    1    1    2    0    0 -0.59119774131E+03  0.39302432344E+03  0.14896067791E+04  0.16571973019E+04  0.15294330000E+03 0.  0.
<mgrwt>
<rscale>  0 0.90116648E+03</rscale>
<asrwt>0</asrwt>
<pdfrwt beam="1">  1        2 0.16536676E+00 0.96839718E+03</pdfrwt>
<pdfrwt beam="2">  1       -2 0.27845513E+00 0.96839718E+03</pdfrwt>
<totfact> 0.97685582E-01</totfact>
</mgrwt>
</event>
<event>
 4    5  0.6615028E-008  0.7477021E+03  0.7818608E-02  0.9838054E-01
         -2   -1    0    0    0  501 -0.00000000000E+00  0.00000000000E+00  0.39428298931E+03  0.39428298932E+03  0.25500000000E-02 0.  1.
          2   -1    0    0  501    0  0.00000000000E+00 -0.00000000000E+00 -0.10678796705E+04  0.10678796705E+04  0.25500000000E-02 0. -1.
    8880023    1    1    2    0    0  0.21429017023E+03 -0.28165224986E+03 -0.76098501466E+03  0.10668442556E+04  0.65864270000E+03 0.  0.
    8880022    1    1    2    0    0 -0.21429017023E+03  0.28165224986E+03  0.87388333435E+02  0.39531840426E+03  0.15294330000E+03 0.  0.
<mgrwt>
<rscale>  0 0.63359741E+03</rscale>
<asrwt>0</asrwt>
<pdfrwt beam="1">  1        2 0.16428918E+00 0.74770213E+03</pdfrwt>
<pdfrwt beam="2">  1       -2 0.60658922E-01 0.74770213E+03</pdfrwt>
<totfact> 0.58653139E+01</totfact>
</mgrwt>
</event>
<event>
 4    5  0.6615028E-008  0.1004560E+04  0.7818608E-02  0.9375615E-01
          2   -1    0    0  501    0  0.00000000000E+00  0.00000000000E+00  0.37063073059E+04  0.37063073059E+04  0.25500000000E-02 0. -1.
         -2   -1    0    0    0  501 -0.00000000000E+00 -0.00000000000E+00 -0.46176199879E+03  0.46176199879E+03  0.25500000000E-02 0.  1.
    8880023    1    1    2    0    0  0.63439496470E+03 -0.41578192683E+03  0.19682884717E+03  0.10236617524E+04  0.65864270000E+03 0.  1.
    8880022    1    1    2    0    0 -0.63439496470E+03  0.41578192683E+03  0.30477164599E+04  0.31444075523E+04  0.15294330000E+03 0.  0.
<mgrwt>
<rscale>  0 0.94109905E+03</rscale>
<asrwt>0</asrwt>
<pdfrwt beam="1">  1        2 0.57020115E+00 0.10045605E+04</pdfrwt>
<pdfrwt beam="2">  1       -2 0.71040304E-01 0.10045605E+04</pdfrwt>
<totfact> 0.10828884E+00</totfact>
</mgrwt>
</event>
<event>
 4    5  0.6615028E-008  0.1221860E+04  0.7818608E-02  0.9136160E-01
          2   -1    0    0  501    0  0.00000000000E+00  0.00000000000E+00  0.35172370944E+04  0.35172370944E+04  0.25500000000E-02 0. -1.
         -2   -1    0    0    0  501 -0.00000000000E+00 -0.00000000000E+00 -0.48442797217E+03  0.48442797217E+03  0.25500000000E-02 0.  1.
    8880023    1    1    2    0    0  0.97479809738E+03  0.33000089227E+03  0.26038210412E+04  0.28762520996E+04  0.65864270000E+03 0. -1.
    8880022    1    1    2    0    0 -0.97479809738E+03 -0.33000089227E+03  0.42898808103E+03  0.11254129670E+04  0.15294330000E+03 0.  0.
<mgrwt>
<rscale>  0 0.11737370E+04</rscale>
<asrwt>0</asrwt>
<pdfrwt beam="1">  1        2 0.54111339E+00 0.12218601E+04</pdfrwt>
<pdfrwt beam="2">  1       -2 0.74527382E-01 0.12218601E+04</pdfrwt>
<totfact> 0.12824177E+00</totfact>
</mgrwt>
</event>
<event>
 4    5  0.6615028E-008  0.9194871E+03  0.7818608E-02  0.9495446E-01
          2   -1    0    0  501    0  0.00000000000E+00  0.00000000000E+00  0.91226425173E+03  0.91226425173E+03  0.25500000000E-02 0. -1.
         -2   -1    0    0    0  501 -0.00000000000E+00 -0.00000000000E+00 -0.10685440688E+04  0.10685440688E+04  0.25500000000E-02 0.  1.
    8880023    1    1    2    0    0 -0.17275697228E+03 -0.61790073361E+03  0.50313541399E+03  0.10481420415E+04  0.65864270000E+03 0. -1.
    8880022    1    1    2    0    0  0.17275697228E+03  0.61790073361E+03 -0.65941523102E+03  0.93266627900E+03  0.15294330000E+03 0.  0.
<mgrwt>
<rscale>  0 0.84620408E+03</rscale>
<asrwt>0</asrwt>
<pdfrwt beam="1">  1        2 0.14034835E+00 0.91948708E+03</pdfrwt>
<pdfrwt beam="2">  1       -2 0.16439140E+00 0.91948708E+03</pdfrwt>
<totfact> 0.67229684E+00</totfact>
</mgrwt>
</event>
<event>
 4    5  0.6615028E-008  0.7735431E+03  0.7818608E-02  0.9771229E-01
         -2   -1    0    0    0  501 -0.00000000000E+00  0.00000000000E+00  0.34963977093E+03  0.34963977094E+03  0.25500000000E-02 0.  1.
          2   -1    0    0  501    0  0.00000000000E+00 -0.00000000000E+00 -0.11040497994E+04  0.11040497994E+04  0.25500000000E-02 0. -1.
    8880023    1    1    2    0    0  0.35222631810E+03 -0.20123460387E+03 -0.31147514844E+03  0.83389790701E+03  0.65864270000E+03 0. -1.
    8880022    1    1    2    0    0 -0.35222631810E+03  0.20123460387E+03 -0.44293488000E+03  0.61979166330E+03  0.15294330000E+03 0.  0.
<mgrwt>
<rscale>  0 0.66929688E+03</rscale>
<asrwt>0</asrwt>
<pdfrwt beam="1">  1        2 0.16985381E+00 0.77354312E+03</pdfrwt>
<pdfrwt beam="2">  1       -2 0.53790735E-01 0.77354312E+03</pdfrwt>
<totfact> 0.71488564E+01</totfact>
</mgrwt>
</event>
<event>
 4    5  0.6615028E-008  0.8126228E+03  0.7818608E-02  0.9684139E-01
          2   -1    0    0  501    0  0.00000000000E+00  0.00000000000E+00  0.14040093368E+04  0.14040093368E+04  0.25500000000E-02 0. -1.
         -2   -1    0    0    0  501 -0.00000000000E+00 -0.00000000000E+00 -0.13504152411E+04  0.13504152411E+04  0.25500000000E-02 0.  1.
    8880023    1    1    2    0    0  0.32376277688E+02  0.47486559179E+03  0.12311393632E+04  0.14751474135E+04  0.65864270000E+03 0. -1.
    8880022    1    1    2    0    0 -0.32376277688E+02 -0.47486559179E+03 -0.11775452674E+04  0.12792771644E+04  0.15294330000E+03 0.  0.
<mgrwt>
<rscale>  0 0.71969022E+03</rscale>
<asrwt>0</asrwt>
<pdfrwt beam="1">  1        2 0.21600144E+00 0.81262277E+03</pdfrwt>
<pdfrwt beam="2">  1       -2 0.20775619E+00 0.81262277E+03</pdfrwt>
<totfact> 0.17398598E+00</totfact>
</mgrwt>
</event>
<event>
 4    5  0.6615028E-008  0.7919456E+03  0.7818608E-02  0.9728490E-01
         -2   -1    0    0    0  501 -0.00000000000E+00  0.00000000000E+00  0.14186977299E+03  0.14186977301E+03  0.25500000000E-02 0.  1.
          2   -1    0    0  501    0  0.00000000000E+00 -0.00000000000E+00 -0.32283779771E+04  0.32283779771E+04  0.25500000000E-02 0. -1.
    8880023    1    1    2    0    0  0.36331883954E+03 -0.24772372413E+03 -0.24939268940E+04  0.26166484635E+04  0.65864270000E+03 0. -1.
    8880022    1    1    2    0    0 -0.36331883954E+03  0.24772372413E+03 -0.59258131010E+03  0.75359928659E+03  0.15294330000E+03 0.  0.
<mgrwt>
<rscale>  0 0.69345570E+03</rscale>
<asrwt>0</asrwt>
<pdfrwt beam="1">  1        2 0.49667348E+00 0.79194560E+03</pdfrwt>
<pdfrwt beam="2">  1       -2 0.21826121E-01 0.79194560E+03</pdfrwt>
<totfact> 0.24055147E+01</totfact>
</mgrwt>
</event>
<event>
 4    5  0.6615028E-008  0.6820672E+03  0.7818608E-02  0.1008178E+00
          2   -1    0    0  501    0  0.00000000000E+00  0.00000000000E+00  0.35244249333E+03  0.35244249334E+03  0.25500000000E-02 0. -1.
         -2   -1    0    0    0  501 -0.00000000000E+00 -0.00000000000E+00 -0.19216387311E+04  0.19216387311E+04  0.25500000000E-02 0.  1.
    8880023    1    1    2    0    0 -0.21528488339E+02 -0.17590339900E+03  0.54913766872E+01  0.68208932192E+03  0.65864270000E+03 0. -1.
    8880022    1    1    2    0    0  0.21528488339E+02  0.17590339900E+03 -0.15746876145E+04  0.15919919026E+04  0.15294330000E+03 0.  0.
<mgrwt>
<rscale>  0 0.52205362E+03</rscale>
<asrwt>0</asrwt>
<pdfrwt beam="1">  1        2 0.54221923E-01 0.68206722E+03</pdfrwt>
<pdfrwt beam="2">  1       -2 0.29563672E+00 0.68206722E+03</pdfrwt>
<totfact> 0.32526823E+00</totfact>
</mgrwt>
</event>
<event>
 4    5  0.6615028E-008  0.1345110E+04  0.7818608E-02  0.9027552E-01
          2   -1    0    0  501    0  0.00000000000E+00  0.00000000000E+00  0.31403092541E+04  0.31403092541E+04  0.25500000000E-02 0. -1.
         -2   -1    0    0    0  501 -0.00000000000E+00 -0.00000000000E+00 -0.12691469124E+04  0.12691469124E+04  0.25500000000E-02 0.  1.
    8880023    1    1    2    0    0 -0.86160106509E+03 -0.79570995444E+03  0.26648461413E+04  0.29850839000E+04  0.65864270000E+03 0.  0.
    8880022    1    1    2    0    0  0.86160106509E+03  0.79570995444E+03 -0.79368379955E+03  0.14243722665E+04  0.15294330000E+03 0.  0.
<mgrwt>
<rscale>  0 0.13025421E+04</rscale>
<asrwt>0</asrwt>
<pdfrwt beam="1">  1        2 0.48312450E+00 0.13451100E+04</pdfrwt>
<pdfrwt beam="2">  1       -2 0.19525337E+00 0.13451100E+04</pdfrwt>
<totfact> 0.19539805E-01</totfact>
</mgrwt>
</event>
<event>
 4    5  0.6615028E-008  0.7296125E+03  0.7818608E-02  0.9891309E-01
         -2   -1    0    0    0  501 -0.00000000000E+00  0.00000000000E+00  0.44853898498E+03  0.44853898499E+03  0.25500000000E-02 0.  1.
          2   -1    0    0  501    0  0.00000000000E+00 -0.00000000000E+00 -0.17026255050E+04  0.17026255050E+04  0.25500000000E-02 0. -1.
    8880023    1    1    2    0    0 -0.25314023224E+03  0.18559135244E+03 -0.15372522802E+04  0.17016106801E+04  0.65864270000E+03 0. -1.
    8880022    1    1    2    0    0  0.25314023224E+03 -0.18559135244E+03  0.28316576018E+03  0.44955380993E+03  0.15294330000E+03 0.  0.
<mgrwt>
<rscale>  0 0.60684345E+03</rscale>
<asrwt>0</asrwt>
<pdfrwt beam="1">  1        2 0.26194238E+00 0.72961245E+03</pdfrwt>
<pdfrwt beam="2">  1       -2 0.69005998E-01 0.72961245E+03</pdfrwt>
<totfact> 0.19319009E+01</totfact>
</mgrwt>
</event>
<event>
 4    5  0.6615028E-008  0.8393394E+03  0.7818608E-02  0.9631427E-01
          2   -1    0    0  501    0  0.00000000000E+00  0.00000000000E+00  0.35394567508E+04  0.35394567508E+04  0.25500000000E-02 0. -1.
         -2   -1    0    0    0  501 -0.00000000000E+00 -0.00000000000E+00 -0.23481618921E+03  0.23481618922E+03  0.25500000000E-02 0.  1.
    8880023    1    1    2    0    0 -0.14610078728E+02 -0.52006443160E+03  0.30712873583E+04  0.31839121707E+04  0.65864270000E+03 0.  0.
    8880022    1    1    2    0    0  0.14610078728E+02  0.52006443160E+03  0.23335320331E+03  0.59036076930E+03  0.15294330000E+03 0.  0.
<mgrwt>
<rscale>  0 0.75250597E+03</rscale>
<asrwt>0</asrwt>
<pdfrwt beam="1">  1        2 0.54453176E+00 0.83933943E+03</pdfrwt>
<pdfrwt beam="2">  1       -2 0.36125571E-01 0.83933943E+03</pdfrwt>
<totfact> 0.58593568E+00</totfact>
</mgrwt>
</event>
<event>
 4    5  0.6615028E-008  0.7410583E+03  0.7818608E-02  0.9856875E-01
          2   -1    0    0  501    0  0.00000000000E+00  0.00000000000E+00  0.15436346835E+04  0.15436346835E+04  0.25500000000E-02 0. -1.
         -2   -1    0    0    0  501 -0.00000000000E+00 -0.00000000000E+00 -0.27453131941E+03  0.27453131942E+03  0.25500000000E-02 0.  1.
    8880023    1    1    2    0    0  0.45675272042E+02  0.33655757726E+03  0.12399690871E+04  0.14445382572E+04  0.65864270000E+03 0. -1.
    8880022    1    1    2    0    0 -0.45675272042E+02 -0.33655757726E+03  0.29134277018E+02  0.37362774575E+03  0.15294330000E+03 0.  0.
<mgrwt>
<rscale>  0 0.62397614E+03</rscale>
<asrwt>0</asrwt>
<pdfrwt beam="1">  1        2 0.23748226E+00 0.74105832E+03</pdfrwt>
<pdfrwt beam="2">  1       -2 0.42235588E-01 0.74105832E+03</pdfrwt>
<totfact> 0.65138007E+01</totfact>
</mgrwt>
</event>
<event>
 4    5  0.6615028E-008  0.7600494E+03  0.7818608E-02  0.9804980E-01
         -2   -1    0    0    0  501 -0.00000000000E+00  0.00000000000E+00  0.70103111117E+03  0.70103111118E+03  0.25500000000E-02 0.  1.
          2   -1    0    0  501    0  0.00000000000E+00 -0.00000000000E+00 -0.18795568497E+04  0.18795568497E+04  0.25500000000E-02 0. -1.
    8880023    1    1    2    0    0  0.35746050425E+03 -0.12683422124E+03 -0.17325703906E+04  0.18919501306E+04  0.65864270000E+03 0. -1.
    8880022    1    1    2    0    0 -0.35746050425E+03  0.12683422124E+03  0.55404465212E+03  0.68863783031E+03  0.15294330000E+03 0.  0.
<mgrwt>
<rscale>  0 0.65095997E+03</rscale>
<asrwt>0</asrwt>
<pdfrwt beam="1">  1        2 0.28916259E+00 0.76004943E+03</pdfrwt>
<pdfrwt beam="2">  1       -2 0.10785094E+00 0.76004943E+03</pdfrwt>
<totfact> 0.55407681E+00</totfact>
</mgrwt>
</event>
<event>
 4    5  0.6615028E-008  0.7043651E+03  0.7818608E-02  0.9979553E-01
          2   -1    0    0  501    0  0.00000000000E+00  0.00000000000E+00  0.10085163429E+04  0.10085163429E+04  0.25500000000E-02 0. -1.
         -2   -1    0    0    0  501 -0.00000000000E+00 -0.00000000000E+00 -0.81131291895E+03  0.81131291895E+03  0.25500000000E-02 0.  1.
    8880023    1    1    2    0    0  0.23997573831E+03  0.68786962685E+02  0.85028110943E+03  0.11041323166E+04  0.65864270000E+03 0. -1.
    8880022    1    1    2    0    0 -0.23997573831E+03 -0.68786962685E+02 -0.65307768547E+03  0.71569694528E+03  0.15294330000E+03 0.  0.
<mgrwt>
<rscale>  0 0.56555958E+03</rscale>
<asrwt>0</asrwt>
<pdfrwt beam="1">  1        2 0.15515636E+00 0.70436511E+03</pdfrwt>
<pdfrwt beam="2">  1       -2 0.12481737E+00 0.70436511E+03</pdfrwt>
<totfact> 0.12242523E+01</totfact>
</mgrwt>
</event>
<event>
 4    5  0.6615028E-008  0.1652753E+04  0.7818608E-02  0.8808683E-01
         -2   -1    0    0    0  501 -0.00000000000E+00  0.00000000000E+00  0.12326279416E+04  0.12326279416E+04  0.25500000000E-02 0.  1.
          2   -1    0    0  501    0  0.00000000000E+00 -0.00000000000E+00 -0.38441602663E+04  0.38441602663E+04  0.25500000000E-02 0. -1.
    8880023    1    1    2    0    0  0.38609484727E+03 -0.14658487706E+04  0.40118668926E+03  0.17007477224E+04  0.65864270000E+03 0.  0.
    8880022    1    1    2    0    0 -0.38609484727E+03  0.14658487706E+04 -0.30127190139E+04  0.33760404854E+04  0.15294330000E+03 0.  0.
<mgrwt>
<rscale>  0 0.16194569E+04</rscale>
<asrwt>0</asrwt>
<pdfrwt beam="1">  1        2 0.59140927E+00 0.16527529E+04</pdfrwt>
<pdfrwt beam="2">  1       -2 0.18963507E+00 0.16527529E+04</pdfrwt>
<totfact> 0.66159268E-02</totfact>
</mgrwt>
</event>
<event>
 4    5  0.6615028E-008  0.1469685E+04  0.7818608E-02  0.8931345E-01
         -2   -1    0    0    0  501 -0.00000000000E+00  0.00000000000E+00  0.21490050372E+04  0.21490050372E+04  0.25500000000E-02 0.  1.
          2   -1    0    0  501    0  0.00000000000E+00 -0.00000000000E+00 -0.11483064320E+04  0.11483064320E+04  0.25500000000E-02 0. -1.
    8880023    1    1    2    0    0 -0.94431945079E+03 -0.91346790195E+03 -0.23362521137E+03  0.14881376881E+04  0.65864270000E+03 0.  0.
    8880022    1    1    2    0    0  0.94431945079E+03  0.91346790195E+03  0.12343238166E+04  0.18091737811E+04  0.15294330000E+03 0.  0.
<mgrwt>
<rscale>  0 0.14314760E+04</rscale>
<asrwt>0</asrwt>
<pdfrwt beam="1">  1        2 0.17666253E+00 0.14696847E+04</pdfrwt>
<pdfrwt beam="2">  1       -2 0.33061616E+00 0.14696847E+04</pdfrwt>
<totfact> 0.39745727E-01</totfact>
</mgrwt>
</event>
<event>
 4    5  0.6615028E-008  0.1280419E+04  0.7818608E-02  0.9082657E-01
          2   -1    0    0  501    0  0.00000000000E+00  0.00000000000E+00  0.16642985528E+04  0.16642985528E+04  0.25500000000E-02 0. -1.
         -2   -1    0    0    0  501 -0.00000000000E+00 -0.00000000000E+00 -0.16740906872E+04  0.16740906872E+04  0.25500000000E-02 0.  1.
    8880023    1    1    2    0    0  0.92349454127E+03  0.59398620570E+03  0.11592750367E+04  0.17272494311E+04  0.65864270000E+03 0.  0.
    8880022    1    1    2    0    0 -0.92349454127E+03 -0.59398620570E+03 -0.11690671711E+04  0.16111398089E+04  0.15294330000E+03 0.  0.
<mgrwt>
<rscale>  0 0.12351234E+04</rscale>
<asrwt>0</asrwt>
<pdfrwt beam="1">  1        2 0.25604593E+00 0.12804187E+04</pdfrwt>
<pdfrwt beam="2">  1       -2 0.25755241E+00 0.12804187E+04</pdfrwt>
<totfact> 0.57060785E-01</totfact>
</mgrwt>
</event>
<event>
 4    5  0.6615028E-008  0.1451658E+04  0.7818608E-02  0.8944548E-01
         -2   -1    0    0    0  501 -0.00000000000E+00  0.00000000000E+00  0.10128854765E+04  0.10128854765E+04  0.25500000000E-02 0.  1.
          2   -1    0    0  501    0  0.00000000000E+00 -0.00000000000E+00 -0.27207280531E+04  0.27207280531E+04  0.25500000000E-02 0. -1.
    8880023    1    1    2    0    0 -0.98316898954E+03  0.84076203007E+03 -0.19270595208E+04  0.24126480589E+04  0.65864270000E+03 0.  0.
    8880022    1    1    2    0    0  0.98316898954E+03 -0.84076203007E+03  0.21921694425E+03  0.13209654707E+04  0.15294330000E+03 0.  0.
<mgrwt>
<rscale>  0 0.14128796E+04</rscale>
<asrwt>0</asrwt>
<pdfrwt beam="1">  1        2 0.41857354E+00 0.14516585E+04</pdfrwt>
<pdfrwt beam="2">  1       -2 0.15582854E+00 0.14516585E+04</pdfrwt>
<totfact> 0.66358057E-01</totfact>
</mgrwt>
</event>
<event>
 4    5  0.6615028E-008  0.7845059E+03  0.7818608E-02  0.9745357E-01
         -2   -1    0    0    0  501 -0.00000000000E+00  0.00000000000E+00  0.14729057312E+03  0.14729057314E+03  0.25500000000E-02 0.  1.
          2   -1    0    0  501    0  0.00000000000E+00 -0.00000000000E+00 -0.26081346103E+04  0.26081346103E+04  0.25500000000E-02 0. -1.
    8880023    1    1    2    0    0 -0.42454538936E+03  0.37423275669E+02 -0.14783491252E+04  0.16736085658E+04  0.65864270000E+03 0.  0.
    8880022    1    1    2    0    0  0.42454538936E+03 -0.37423275669E+02 -0.98249491193E+03  0.10818166176E+04  0.15294330000E+03 0.  0.
<mgrwt>
<rscale>  0 0.68379289E+03</rscale>
<asrwt>0</asrwt>
<pdfrwt beam="1">  1        2 0.40125144E+00 0.78450589E+03</pdfrwt>
<pdfrwt beam="2">  1       -2 0.22660090E-01 0.78450589E+03</pdfrwt>
<totfact> 0.53476557E+01</totfact>
</mgrwt>
</event>
<event>
 4    5  0.7010780E-008  0.1063733E+04  0.7818608E-02  0.9302551E-01
          2   -1    0    0  501    0  0.00000000000E+00  0.00000000000E+00  0.17975898767E+04  0.17975898767E+04  0.25500000000E-02 0. -1.
         -2   -1    0    0    0  501 -0.00000000000E+00 -0.00000000000E+00 -0.22181734994E+04  0.22181734994E+04  0.25500000000E-02 0.  1.
    8880023    1    1    2    0    0  0.69635503907E+03 -0.46131150182E+03  0.15443154272E+04  0.18752170506E+04  0.65864270000E+03 0.  0.
    8880022    1    1    2    0    0 -0.69635503907E+03  0.46131150182E+03 -0.19648990499E+04  0.21405463255E+04  0.15294330000E+03 0.  0.
<mgrwt>
<rscale>  0 0.10054832E+04</rscale>
<asrwt>0</asrwt>
<pdfrwt beam="1">  1        2 0.27655229E+00 0.10637334E+04</pdfrwt>
<pdfrwt beam="2">  1       -2 0.34125746E+00 0.10637334E+04</pdfrwt>
<totfact> 0.15318652E-01</totfact>
</mgrwt>
</event>
<event>
 4    5  0.6615028E-008  0.1016882E+04  0.7818608E-02  0.9359797E-01
          2   -1    0    0  501    0  0.00000000000E+00  0.00000000000E+00  0.70962886807E+03  0.70962886807E+03  0.25500000000E-02 0. -1.
         -2   -1    0    0    0  501 -0.00000000000E+00 -0.00000000000E+00 -0.22492917505E+04  0.22492917505E+04  0.25500000000E-02 0.  1.
    8880023    1    1    2    0    0 -0.74653069032E+03 -0.20719595488E+03  0.21086071986E+03  0.10385136902E+04  0.65864270000E+03 0.  0.
    8880022    1    1    2    0    0  0.74653069032E+03  0.20719595488E+03 -0.17505236022E+04  0.19204069283E+04  0.15294330000E+03 0.  0.
<mgrwt>
<rscale>  0 0.95459399E+03</rscale>
<asrwt>0</asrwt>
<pdfrwt beam="1">  1        2 0.10917367E+00 0.10168817E+04</pdfrwt>
<pdfrwt beam="2">  1       -2 0.34604488E+00 0.10168817E+04</pdfrwt>
<totfact> 0.66988549E-01</totfact>
</mgrwt>
</event>
<event>
 4    5  0.6615028E-008  0.8880024E+03  0.7818608E-02  0.9545573E-01
          2   -1    0    0  501    0  0.00000000000E+00  0.00000000000E+00  0.23305419779E+04  0.23305419779E+04  0.25500000000E-02 0. -1.
         -2   -1    0    0    0  501 -0.00000000000E+00 -0.00000000000E+00 -0.31001586741E+03  0.31001586742E+03  0.25500000000E-02 0.  1.
    8880023    1    1    2    0    0 -0.55922709114E+03 -0.20494669606E+03  0.17627571779E+04  0.19737935967E+04  0.65864270000E+03 0. -1.
    8880022    1    1    2    0    0  0.55922709114E+03  0.20494669606E+03  0.25776893260E+03  0.66676424868E+03  0.15294330000E+03 0.  0.
<mgrwt>
<rscale>  0 0.81005725E+03</rscale>
<asrwt>0</asrwt>
<pdfrwt beam="1">  1        2 0.35854493E+00 0.88800242E+03</pdfrwt>
<pdfrwt beam="2">  1       -2 0.47694748E-01 0.88800242E+03</pdfrwt>
<totfact> 0.18551798E+01</totfact>
</mgrwt>
</event>
<event>
 4    5  0.6615028E-008  0.9478699E+03  0.7818608E-02  0.9453185E-01
         -2   -1    0    0    0  501 -0.00000000000E+00  0.00000000000E+00  0.10391640367E+04  0.10391640367E+04  0.25500000000E-02 0.  1.
          2   -1    0    0  501    0  0.00000000000E+00 -0.00000000000E+00 -0.11045175819E+04  0.11045175819E+04  0.25500000000E-02 0. -1.
    8880023    1    1    2    0    0 -0.44915591787E+03  0.51274367143E+03 -0.71686917847E+03  0.11884270009E+04  0.65864270000E+03 0. -1.
    8880022    1    1    2    0    0  0.44915591787E+03 -0.51274367143E+03  0.65151563329E+03  0.95525461768E+03  0.15294330000E+03 0.  0.
<mgrwt>
<rscale>  0 0.87825035E+03</rscale>
<asrwt>0</asrwt>
<pdfrwt beam="1">  1        2 0.16992578E+00 0.94786988E+03</pdfrwt>
<pdfrwt beam="2">  1       -2 0.15987139E+00 0.94786988E+03</pdfrwt>
<totfact> 0.54456518E+00</totfact>
</mgrwt>
</event>
<event>
 4    5  0.6615028E-008  0.1008150E+04  0.7818608E-02  0.9370972E-01
         -2   -1    0    0    0  501 -0.00000000000E+00  0.00000000000E+00  0.10976579780E+04  0.10976579780E+04  0.25500000000E-02 0.  1.
          2   -1    0    0  501    0  0.00000000000E+00 -0.00000000000E+00 -0.12119322150E+04  0.12119322150E+04  0.25500000000E-02 0. -1.
    8880023    1    1    2    0    0 -0.66050218803E+03  0.38248232859E+03 -0.78841239963E+03  0.12798281878E+04  0.65864270000E+03 0.  0.
    8880022    1    1    2    0    0  0.66050218803E+03 -0.38248232859E+03  0.67413816264E+03  0.10297620052E+04  0.15294330000E+03 0.  0.
<mgrwt>
<rscale>  0 0.94503564E+03</rscale>
<asrwt>0</asrwt>
<pdfrwt beam="1">  1        2 0.18645111E+00 0.10081498E+04</pdfrwt>
<pdfrwt beam="2">  1       -2 0.16887046E+00 0.10081498E+04</pdfrwt>
<totfact> 0.40067090E+00</totfact>
</mgrwt>
</event>
<event>
 4    5  0.6615028E-008  0.8383041E+03  0.7818608E-02  0.9633386E-01
          2   -1    0    0  501    0  0.00000000000E+00  0.00000000000E+00  0.10755515360E+04  0.10755515360E+04  0.25500000000E-02 0. -1.
         -2   -1    0    0    0  501 -0.00000000000E+00 -0.00000000000E+00 -0.11863536151E+04  0.11863536152E+04  0.25500000000E-02 0.  1.
    8880023    1    1    2    0    0  0.25112688182E+03 -0.45373867884E+03  0.82816600458E+03  0.11783940923E+04  0.65864270000E+03 0.  0.
    8880022    1    1    2    0    0 -0.25112688182E+03  0.45373867884E+03 -0.93896808369E+03  0.10835110589E+04  0.15294330000E+03 0.  0.
<mgrwt>
<rscale>  0 0.75125316E+03</rscale>
<asrwt>0</asrwt>
<pdfrwt beam="1">  1        2 0.16546947E+00 0.83830407E+03</pdfrwt>
<pdfrwt beam="2">  1       -2 0.18251594E+00 0.83830407E+03</pdfrwt>
<totfact> 0.39718424E+00</totfact>
</mgrwt>
</event>
<event>
 4    5  0.6615028E-008  0.1177904E+04  0.7818608E-02  0.9178906E-01
          2   -1    0    0  501    0  0.00000000000E+00  0.00000000000E+00  0.21505308379E+04  0.21505308379E+04  0.25500000000E-02 0. -1.
         -2   -1    0    0    0  501 -0.00000000000E+00 -0.00000000000E+00 -0.92289348309E+03  0.92289348309E+03  0.25500000000E-02 0.  1.
    8880023    1    1    2    0    0  0.50906546723E+03  0.83336706514E+03  0.16259141059E+04  0.20077487893E+04  0.65864270000E+03 0.  0.
    8880022    1    1    2    0    0 -0.50906546723E+03 -0.83336706514E+03 -0.39827675110E+03  0.10656755316E+04  0.15294330000E+03 0.  0.
<mgrwt>
<rscale>  0 0.11273832E+04</rscale>
<asrwt>0</asrwt>
<pdfrwt beam="1">  1        2 0.33085089E+00 0.11779043E+04</pdfrwt>
<pdfrwt beam="2">  1       -2 0.14198361E+00 0.11779043E+04</pdfrwt>
<totfact> 0.18632718E+00</totfact>
</mgrwt>
</event>
<event>
 4    5  0.6615028E-008  0.8332282E+03  0.7818608E-02  0.9643084E-01
         -2   -1    0    0    0  501 -0.00000000000E+00  0.00000000000E+00  0.17134781250E+04  0.17134781250E+04  0.25500000000E-02 0.  1.
          2   -1    0    0  501    0  0.00000000000E+00 -0.00000000000E+00 -0.15386968372E+04  0.15386968372E+04  0.25500000000E-02 0. -1.
    8880023    1    1    2    0    0  0.38987626550E+03 -0.32932584266E+03 -0.13781156543E+04  0.16104260231E+04  0.65864270000E+03 0. -1.
    8880022    1    1    2    0    0 -0.38987626550E+03  0.32932584266E+03  0.15528969421E+04  0.16417489390E+04  0.15294330000E+03 0.  0.
<mgrwt>
<rscale>  0 0.74509081E+03</rscale>
<asrwt>0</asrwt>
<pdfrwt beam="1">  1        2 0.23672259E+00 0.83322819E+03</pdfrwt>
<pdfrwt beam="2">  1       -2 0.26361202E+00 0.83322819E+03</pdfrwt>
<totfact> 0.65875979E-01</totfact>
</mgrwt>
</event>
<event>
 4    5  0.6615028E-008  0.6608187E+03  0.7818608E-02  0.1023333E+00
          2   -1    0    0  501    0  0.00000000000E+00  0.00000000000E+00  0.60898214347E+03  0.60898214347E+03  0.25500000000E-02 0. -1.
         -2   -1    0    0    0  501 -0.00000000000E+00 -0.00000000000E+00 -0.10853315342E+04  0.10853315342E+04  0.25500000000E-02 0.  1.
    8880023    1    1    2    0    0 -0.16744810207E+01 -0.53556939615E+02  0.42028745517E+03  0.78314934776E+03  0.65864270000E+03 0. -1.
    8880022    1    1    2    0    0  0.16744810207E+01  0.53556939615E+02 -0.89663684592E+03  0.91116432993E+03  0.15294330000E+03 0.  0.
<mgrwt>
<rscale>  0 0.46502829E+03</rscale>
<asrwt>0</asrwt>
<pdfrwt beam="1">  1        2 0.93689561E-01 0.66081870E+03</pdfrwt>
<pdfrwt beam="2">  1       -2 0.16697408E+00 0.66081870E+03</pdfrwt>
<totfact> 0.11198126E+01</totfact>
</mgrwt>
</event>
<event>
 4    5  0.6615028E-008  0.8677878E+03  0.7818608E-02  0.9579858E-01
         -2   -1    0    0    0  501 -0.00000000000E+00  0.00000000000E+00  0.38033821278E+03  0.38033821279E+03  0.25500000000E-02 0.  1.
          2   -1    0    0  501    0  0.00000000000E+00 -0.00000000000E+00 -0.28670009852E+04  0.28670009852E+04  0.25500000000E-02 0. -1.
    8880023    1    1    2    0    0 -0.37520901263E+03  0.42244955818E+03 -0.25158022761E+04  0.26612622440E+04  0.65864270000E+03 0. -1.
    8880022    1    1    2    0    0  0.37520901263E+03 -0.42244955818E+03  0.29139503684E+02  0.58607695404E+03  0.15294330000E+03 0.  0.
<mgrwt>
<rscale>  0 0.78643792E+03</rscale>
<asrwt>0</asrwt>
<pdfrwt beam="1">  1        2 0.44107706E+00 0.86778778E+03</pdfrwt>
<pdfrwt beam="2">  1       -2 0.58513573E-01 0.86778778E+03</pdfrwt>
<totfact> 0.59765602E+00</totfact>
</mgrwt>
</event>
<event>
 4    5  0.6615028E-008  0.1298553E+04  0.7818608E-02  0.9066810E-01
         -2   -1    0    0    0  501 -0.00000000000E+00  0.00000000000E+00  0.69205724913E+03  0.69205724914E+03  0.25500000000E-02 0.  1.
          2   -1    0    0  501    0  0.00000000000E+00 -0.00000000000E+00 -0.27326031586E+04  0.27326031586E+04  0.25500000000E-02 0. -1.
    8880023    1    1    2    0    0  0.58908019816E+03  0.95153311747E+03 -0.18784037408E+04  0.22835589708E+04  0.65864270000E+03 0. -1.
    8880022    1    1    2    0    0 -0.58908019816E+03 -0.95153311747E+03 -0.16214216870E+03  0.11411014369E+04  0.15294330000E+03 0.  0.
<mgrwt>
<rscale>  0 0.12540609E+04</rscale>
<asrwt>0</asrwt>
<pdfrwt beam="1">  1        2 0.42040048E+00 0.12985534E+04</pdfrwt>
<pdfrwt beam="2">  1       -2 0.10647035E+00 0.12985534E+04</pdfrwt>
<totfact> 0.17579520E+00</totfact>
</mgrwt>
</event>
<event>
 4    5  0.6615028E-008  0.1393311E+04  0.7818608E-02  0.8988898E-01
         -2   -1    0    0    0  501 -0.00000000000E+00  0.00000000000E+00  0.22658509581E+04  0.22658509581E+04  0.25500000000E-02 0.  1.
          2   -1    0    0  501    0  0.00000000000E+00 -0.00000000000E+00 -0.14175329908E+04  0.14175329908E+04  0.25500000000E-02 0. -1.
    8880023    1    1    2    0    0  0.12250065008E+04 -0.82855720541E+02  0.16874840087E+04  0.21883597700E+04  0.65864270000E+03 0.  0.
    8880022    1    1    2    0    0 -0.12250065008E+04  0.82855720541E+02 -0.83916604135E+03  0.14950241789E+04  0.15294330000E+03 0.  0.
<mgrwt>
<rscale>  0 0.13525533E+04</rscale>
<asrwt>0</asrwt>
<pdfrwt beam="1">  1        2 0.21808200E+00 0.13933112E+04</pdfrwt>
<pdfrwt beam="2">  1       -2 0.34859245E+00 0.13933112E+04</pdfrwt>
<totfact> 0.21446441E-01</totfact>
</mgrwt>
</event>
<event>
 4    5  0.6615028E-008  0.6875709E+03  0.7818608E-02  0.1005329E+00
          2   -1    0    0  501    0  0.00000000000E+00  0.00000000000E+00  0.27943520701E+03  0.27943520702E+03  0.25500000000E-02 0. -1.
         -2   -1    0    0    0  501 -0.00000000000E+00 -0.00000000000E+00 -0.12754063949E+04  0.12754063949E+04  0.25500000000E-02 0.  1.
    8880023    1    1    2    0    0 -0.18809760601E+03 -0.59688947885E+02 -0.19328377880E+03  0.71422146796E+03  0.65864270000E+03 0. -1.
    8880022    1    1    2    0    0  0.18809760601E+03  0.59688947885E+02 -0.80268740911E+03  0.84062013398E+03  0.15294330000E+03 0.  0.
<mgrwt>
<rscale>  0 0.53373995E+03</rscale>
<asrwt>0</asrwt>
<pdfrwt beam="1">  1        2 0.42990033E-01 0.68757086E+03</pdfrwt>
<pdfrwt beam="2">  1       -2 0.19621636E+00 0.68757086E+03</pdfrwt>
<totfact> 0.17115964E+01</totfact>
</mgrwt>
</event>
<event>
 4    5  0.6615028E-008  0.1722832E+04  0.7818608E-02  0.8766468E-01
         -2   -1    0    0    0  501 -0.00000000000E+00  0.00000000000E+00  0.17072965046E+04  0.17072965046E+04  0.25500000000E-02 0.  1.
          2   -1    0    0  501    0  0.00000000000E+00 -0.00000000000E+00 -0.20595149913E+04  0.20595149913E+04  0.25500000000E-02 0. -1.
    8880023    1    1    2    0    0 -0.24632401415E+03 -0.15727888110E+04 -0.10547046817E+04  0.20200377065E+04  0.65864270000E+03 0.  0.
    8880022    1    1    2    0    0  0.24632401415E+03  0.15727888110E+04  0.70248619504E+03  0.17467737893E+04  0.15294330000E+03 0.  0.
<mgrwt>
<rscale>  0 0.16910797E+04</rscale>
<asrwt>0</asrwt>
<pdfrwt beam="1">  1        2 0.31684846E+00 0.17228321E+04</pdfrwt>
<pdfrwt beam="2">  1       -2 0.26266100E+00 0.17228321E+04</pdfrwt>
<totfact> 0.30456964E-01</totfact>
</mgrwt>
</event>
<event>
 4    5  0.6615028E-008  0.6852236E+03  0.7818608E-02  0.1006511E+00
         -2   -1    0    0    0  501 -0.00000000000E+00  0.00000000000E+00  0.13319594871E+03  0.13319594874E+03  0.25500000000E-02 0.  1.
          2   -1    0    0  501    0  0.00000000000E+00 -0.00000000000E+00 -0.22120675942E+04  0.22120675942E+04  0.25500000000E-02 0. -1.
    8880023    1    1    2    0    0 -0.11692338679E+03 -0.14849258026E+03 -0.19566018701E+04  0.20731189568E+04  0.65864270000E+03 0. -1.
    8880022    1    1    2    0    0  0.11692338679E+03  0.14849258026E+03 -0.12226977540E+03  0.27214458614E+03  0.15294330000E+03 0.  0.
<mgrwt>
<rscale>  0 0.52885229E+03</rscale>
<asrwt>0</asrwt>
<pdfrwt beam="1">  1        2 0.34031807E+00 0.68522356E+03</pdfrwt>
<pdfrwt beam="2">  1       -2 0.20491686E-01 0.68522356E+03</pdfrwt>
<totfact> 0.10792266E+02</totfact>
</mgrwt>
</event>
<event>
 4    5  0.6615028E-008  0.9939230E+03  0.7818608E-02  0.9389552E-01
         -2   -1    0    0    0  501 -0.00000000000E+00  0.00000000000E+00  0.84292152512E+03  0.84292152512E+03  0.25500000000E-02 0.  1.
          2   -1    0    0  501    0  0.00000000000E+00 -0.00000000000E+00 -0.13205075321E+04  0.13205075321E+04  0.25500000000E-02 0. -1.
    8880023    1    1    2    0    0 -0.67954844979E+03  0.30378724331E+03 -0.85853388886E+03  0.13133786314E+04  0.65864270000E+03 0. -1.
    8880022    1    1    2    0    0  0.67954844979E+03 -0.30378724331E+03  0.38094788185E+03  0.85005042586E+03  0.15294330000E+03 0.  0.
<mgrwt>
<rscale>  0 0.92940546E+03</rscale>
<asrwt>0</asrwt>
<pdfrwt beam="1">  1        2 0.20315501E+00 0.99392303E+03</pdfrwt>
<pdfrwt beam="2">  1       -2 0.12968023E+00 0.99392303E+03</pdfrwt>
<totfact> 0.69801914E+00</totfact>
</mgrwt>
</event>
<event>
 4    5  0.6615028E-008  0.1037749E+04  0.7818608E-02  0.9333756E-01
          2   -1    0    0  501    0  0.00000000000E+00  0.00000000000E+00  0.23048439615E+04  0.23048439615E+04  0.25500000000E-02 0. -1.
         -2   -1    0    0    0  501 -0.00000000000E+00 -0.00000000000E+00 -0.59072936799E+03  0.59072936799E+03  0.25500000000E-02 0.  1.
    8880023    1    1    2    0    0  0.36223952195E+03 -0.71546834675E+03  0.17968526425E+04  0.20749944702E+04  0.65864270000E+03 0.  0.
    8880022    1    1    2    0    0 -0.36223952195E+03  0.71546834675E+03 -0.82738048985E+02  0.82057885924E+03  0.15294330000E+03 0.  0.
<mgrwt>
<rscale>  0 0.97733745E+03</rscale>
<asrwt>0</asrwt>
<pdfrwt beam="1">  1        2 0.35459138E+00 0.10377488E+04</pdfrwt>
<pdfrwt beam="2">  1       -2 0.90881441E-01 0.10377488E+04</pdfrwt>
<totfact> 0.46595167E+00</totfact>
</mgrwt>
</event>
<event>
 4    5  0.6615028E-008  0.7397944E+03  0.7818608E-02  0.9860546E-01
         -2   -1    0    0    0  501 -0.00000000000E+00  0.00000000000E+00  0.49853431811E+03  0.49853431812E+03  0.25500000000E-02 0.  1.
          2   -1    0    0  501    0  0.00000000000E+00 -0.00000000000E+00 -0.72479585352E+03  0.72479585353E+03  0.25500000000E-02 0. -1.
    8880023    1    1    2    0    0 -0.31721916149E+03  0.11339103603E+03  0.78571627673E+02  0.74395512661E+03  0.65864270000E+03 0.  1.
    8880022    1    1    2    0    0  0.31721916149E+03 -0.11339103603E+03 -0.30483316308E+03  0.47937504503E+03  0.15294330000E+03 0.  1.
<mgrwt>
<rscale>  0 0.62212070E+03</rscale>
<asrwt>0</asrwt>
<pdfrwt beam="1">  1        2 0.11150705E+00 0.73979438E+03</pdfrwt>
<pdfrwt beam="2">  1       -2 0.76697588E-01 0.73979438E+03</pdfrwt>
<totfact> 0.60354997E+01</totfact>
</mgrwt>
</event>
<event>
 4    5  0.6615028E-008  0.1350535E+04  0.7818608E-02  0.9023103E-01
         -2   -1    0    0    0  501 -0.00000000000E+00  0.00000000000E+00  0.11177019957E+04  0.11177019957E+04  0.25500000000E-02 0.  1.
          2   -1    0    0  501    0  0.00000000000E+00 -0.00000000000E+00 -0.19473878108E+04  0.19473878108E+04  0.25500000000E-02 0. -1.
    8880023    1    1    2    0    0 -0.65762359921E+03 -0.97860450500E+03 -0.12136224090E+04  0.18157161489E+04  0.65864270000E+03 0.  0.
    8880022    1    1    2    0    0  0.65762359921E+03  0.97860450500E+03  0.38393659383E+03  0.12493736577E+04  0.15294330000E+03 0.  0.
<mgrwt>
<rscale>  0 0.13081800E+04</rscale>
<asrwt>0</asrwt>
<pdfrwt beam="1">  1        2 0.29959812E+00 0.13505354E+04</pdfrwt>
<pdfrwt beam="2">  1       -2 0.17195415E+00 0.13505354E+04</pdfrwt>
<totfact> 0.14102383E+00</totfact>
</mgrwt>
</event>
<event>
 4    5  0.6615028E-008  0.8933398E+03  0.7818608E-02  0.9536809E-01
         -2   -1    0    0    0  501 -0.00000000000E+00  0.00000000000E+00  0.49211859970E+03  0.49211859970E+03  0.25500000000E-02 0.  1.
          2   -1    0    0  501    0  0.00000000000E+00 -0.00000000000E+00 -0.14976680786E+04  0.14976680786E+04  0.25500000000E-02 0. -1.
    8880023    1    1    2    0    0 -0.23784087288E+03  0.55468683783E+03 -0.10340897032E+04  0.13665275297E+04  0.65864270000E+03 0. -1.
    8880022    1    1    2    0    0  0.23784087288E+03 -0.55468683783E+03  0.28540224332E+02  0.62325914858E+03  0.15294330000E+03 0.  0.
<mgrwt>
<rscale>  0 0.81623595E+03</rscale>
<asrwt>0</asrwt>
<pdfrwt beam="1">  1        2 0.23041047E+00 0.89333979E+03</pdfrwt>
<pdfrwt beam="2">  1       -2 0.75710555E-01 0.89333979E+03</pdfrwt>
<totfact> 0.20063114E+01</totfact>
</mgrwt>
</event>
<event>
 4    5  0.6615028E-008  0.7703234E+03  0.7818608E-02  0.9779079E-01
          2   -1    0    0  501    0  0.00000000000E+00  0.00000000000E+00  0.53512239977E+03  0.53512239977E+03  0.25500000000E-02 0. -1.
         -2   -1    0    0    0  501 -0.00000000000E+00 -0.00000000000E+00 -0.12822048694E+04  0.12822048694E+04  0.25500000000E-02 0.  1.
    8880023    1    1    2    0    0 -0.22880046536E+03  0.32747261994E+03  0.18460453018E+03  0.79213446370E+03  0.65864270000E+03 0.  1.
    8880022    1    1    2    0    0  0.22880046536E+03 -0.32747261994E+03 -0.93168699983E+03  0.10251928055E+04  0.15294330000E+03 0.  0.
<mgrwt>
<rscale>  0 0.66497477E+03</rscale>
<asrwt>0</asrwt>
<pdfrwt beam="1">  1        2 0.82326523E-01 0.77032342E+03</pdfrwt>
<pdfrwt beam="2">  1       -2 0.19726229E+00 0.77032342E+03</pdfrwt>
<totfact> 0.80178730E+00</totfact>
</mgrwt>
</event>
<event>
 4    5  0.6615028E-008  0.7387237E+03  0.7818608E-02  0.9863680E-01
          2   -1    0    0  501    0  0.00000000000E+00  0.00000000000E+00  0.19117799270E+04  0.19117799270E+04  0.25500000000E-02 0. -1.
         -2   -1    0    0    0  501 -0.00000000000E+00 -0.00000000000E+00 -0.40701750651E+03  0.40701750652E+03  0.25500000000E-02 0.  1.
    8880023    1    1    2    0    0 -0.17272694050E+03  0.28647505159E+03  0.17344058750E+04  0.18851728028E+04  0.65864270000E+03 0. -1.
    8880022    1    1    2    0    0  0.17272694050E+03 -0.28647505159E+03 -0.22964345447E+03  0.43362463070E+03  0.15294330000E+03 0.  0.
<mgrwt>
<rscale>  0 0.62054237E+03</rscale>
<asrwt>0</asrwt>
<pdfrwt beam="1">  1        2 0.29411999E+00 0.73872374E+03</pdfrwt>
<pdfrwt beam="2">  1       -2 0.62618078E-01 0.73872374E+03</pdfrwt>
<totfact> 0.18291060E+01</totfact>
</mgrwt>
</event>
<event>
 4    5  0.6615028E-008  0.7525416E+03  0.7818608E-02  0.9824814E-01
          2   -1    0    0  501    0  0.00000000000E+00  0.00000000000E+00  0.21598119682E+04  0.21598119682E+04  0.25500000000E-02 0. -1.
         -2   -1    0    0    0  501 -0.00000000000E+00 -0.00000000000E+00 -0.51651258841E+03  0.51651258842E+03  0.25500000000E-02 0.  1.
    8880023    1    1    2    0    0  0.33296517697E+03 -0.14711520330E+03  0.20045531205E+04  0.21411567228E+04  0.65864270000E+03 0. -1.
    8880022    1    1    2    0    0 -0.33296517697E+03  0.14711520330E+03 -0.36125374079E+03  0.53516783383E+03  0.15294330000E+03 0.  0.
<mgrwt>
<rscale>  0 0.64047736E+03</rscale>
<asrwt>0</asrwt>
<pdfrwt beam="1">  1        2 0.33227876E+00 0.75254163E+03</pdfrwt>
<pdfrwt beam="2">  1       -2 0.79463476E-01 0.75254163E+03</pdfrwt>
<totfact> 0.79335500E+00</totfact>
</mgrwt>
</event>
<event>
 4    5  0.6615028E-008  0.7135398E+03  0.7818608E-02  0.9945084E-01
         -2   -1    0    0    0  501 -0.00000000000E+00  0.00000000000E+00  0.85739949414E+03  0.85739949414E+03  0.25500000000E-02 0.  1.
          2   -1    0    0  501    0  0.00000000000E+00 -0.00000000000E+00 -0.15048743564E+04  0.15048743564E+04  0.25500000000E-02 0. -1.
    8880023    1    1    2    0    0  0.69944983594E+02  0.26539870238E+03 -0.13864430443E+04  0.15592829420E+04  0.65864270000E+03 0. -1.
    8880022    1    1    2    0    0 -0.69944983594E+02 -0.26539870238E+03  0.73896818208E+03  0.80299090848E+03  0.15294330000E+03 0.  0.
<mgrwt>
<rscale>  0 0.58125206E+03</rscale>
<asrwt>0</asrwt>
<pdfrwt beam="1">  1        2 0.23151913E+00 0.71353975E+03</pdfrwt>
<pdfrwt beam="2">  1       -2 0.13190761E+00 0.71353975E+03</pdfrwt>
<totfact> 0.54446866E+00</totfact>
</mgrwt>
</event>
<event>
 4    5  0.6615028E-008  0.1138330E+04  0.7818608E-02  0.9219534E-01
          2   -1    0    0  501    0  0.00000000000E+00  0.00000000000E+00  0.17898906960E+04  0.17898906960E+04  0.25500000000E-02 0. -1.
         -2   -1    0    0    0  501 -0.00000000000E+00 -0.00000000000E+00 -0.69137289145E+03  0.69137289146E+03  0.25500000000E-02 0.  1.
    8880023    1    1    2    0    0  0.91742118998E+03  0.14256115358E+03  0.10344462631E+04  0.15381399806E+04  0.65864270000E+03 0.  0.
    8880022    1    1    2    0    0 -0.91742118998E+03 -0.14256115358E+03  0.64071541374E+02  0.94312360683E+03  0.15294330000E+03 0.  0.
<mgrwt>
<rscale>  0 0.10854060E+04</rscale>
<asrwt>0</asrwt>
<pdfrwt beam="1">  1        2 0.27536780E+00 0.11383301E+04</pdfrwt>
<pdfrwt beam="2">  1       -2 0.10636506E+00 0.11383301E+04</pdfrwt>
<totfact> 0.61226750E+00</totfact>
</mgrwt>
</event>
<event>
 4    5  0.6615028E-008  0.9133469E+03  0.7818608E-02  0.9504936E-01
         -2   -1    0    0    0  501 -0.00000000000E+00  0.00000000000E+00  0.46228284371E+03  0.46228284372E+03  0.25500000000E-02 0.  1.
          2   -1    0    0  501    0  0.00000000000E+00 -0.00000000000E+00 -0.22453117688E+04  0.22453117688E+04  0.25500000000E-02 0. -1.
    8880023    1    1    2    0    0 -0.45245966125E+02 -0.63114597150E+03 -0.18399019417E+04  0.20541279892E+04  0.65864270000E+03 0.  0.
    8880022    1    1    2    0    0  0.45245966125E+02  0.63114597150E+03  0.56873016561E+02  0.65346662334E+03  0.15294330000E+03 0.  0.
<mgrwt>
<rscale>  0 0.83920858E+03</rscale>
<asrwt>0</asrwt>
<pdfrwt beam="1">  1        2 0.34543257E+00 0.91334694E+03</pdfrwt>
<pdfrwt beam="2">  1       -2 0.71120439E-01 0.91334694E+03</pdfrwt>
<totfact> 0.88934816E+00</totfact>
</mgrwt>
</event>
<event>
 4    5  0.6615028E-008  0.7338958E+03  0.7818608E-02  0.9878099E-01
          2   -1    0    0  501    0  0.00000000000E+00  0.00000000000E+00  0.13095881976E+04  0.13095881976E+04  0.25500000000E-02 0. -1.
         -2   -1    0    0    0  501 -0.00000000000E+00 -0.00000000000E+00 -0.58390197272E+03  0.58390197273E+03  0.25500000000E-02 0.  1.
    8880023    1    1    2    0    0  0.17440445853E+03 -0.27271940690E+03  0.11337967815E+04  0.13505917733E+04  0.65864270000E+03 0.  0.
    8880022    1    1    2    0    0 -0.17440445853E+03  0.27271940690E+03 -0.40811055663E+03  0.54289839704E+03  0.15294330000E+03 0.  0.
<mgrwt>
<rscale>  0 0.61334553E+03</rscale>
<asrwt>0</asrwt>
<pdfrwt beam="1">  1        2 0.20147510E+00 0.73389577E+03</pdfrwt>
<pdfrwt beam="2">  1       -2 0.89831075E-01 0.73389577E+03</pdfrwt>
<totfact> 0.17717584E+01</totfact>
</mgrwt>
</event>
<event>
 4    5  0.6615028E-008  0.1059203E+04  0.7818608E-02  0.9307899E-01
          2   -1    0    0  501    0  0.00000000000E+00  0.00000000000E+00  0.12432983667E+04  0.12432983667E+04  0.25500000000E-02 0. -1.
         -2   -1    0    0    0  501 -0.00000000000E+00 -0.00000000000E+00 -0.11210691988E+04  0.11210691988E+04  0.25500000000E-02 0.  1.
    8880023    1    1    2    0    0 -0.22683746782E+03  0.79790073263E+03  0.76273156068E+03  0.13052472777E+04  0.65864270000E+03 0.  0.
    8880022    1    1    2    0    0  0.22683746782E+03 -0.79790073263E+03 -0.64050239281E+03  0.10591202879E+04  0.15294330000E+03 0.  0.
<mgrwt>
<rscale>  0 0.10005889E+04</rscale>
<asrwt>0</asrwt>
<pdfrwt beam="1">  1        2 0.19127667E+00 0.10592030E+04</pdfrwt>
<pdfrwt beam="2">  1       -2 0.17247219E+00 0.10592030E+04</pdfrwt>
<totfact> 0.35991432E+00</totfact>
</mgrwt>
</event>
<event>
 4    5  0.6615028E-008  0.7023632E+03  0.7818608E-02  0.9987535E-01
         -2   -1    0    0    0  501 -0.00000000000E+00  0.00000000000E+00  0.47007595056E+03  0.47007595057E+03  0.25500000000E-02 0.  1.
          2   -1    0    0  501    0  0.00000000000E+00 -0.00000000000E+00 -0.89334087769E+03  0.89334087770E+03  0.25500000000E-02 0. -1.
    8880023    1    1    2    0    0  0.22839143611E+03  0.85680824507E+02 -0.68003939088E+03  0.97763368967E+03  0.65864270000E+03 0. -1.
    8880022    1    1    2    0    0 -0.22839143611E+03 -0.85680824507E+02  0.25677446374E+03  0.38578313859E+03  0.15294330000E+03 0.  0.
<mgrwt>
<rscale>  0 0.56200177E+03</rscale>
<asrwt>0</asrwt>
<pdfrwt beam="1">  1        2 0.13743706E+00 0.70236320E+03</pdfrwt>
<pdfrwt beam="2">  1       -2 0.72319377E-01 0.70236320E+03</pdfrwt>
<totfact> 0.52223205E+01</totfact>
</mgrwt>
</event>
<event>
 4    5  0.6615028E-008  0.1758079E+04  0.7818608E-02  0.8746087E-01
          2   -1    0    0  501    0  0.00000000000E+00  0.00000000000E+00  0.30826328549E+04  0.30826328549E+04  0.25500000000E-02 0. -1.
         -2   -1    0    0    0  501 -0.00000000000E+00 -0.00000000000E+00 -0.10626381368E+04  0.10626381369E+04  0.25500000000E-02 0.  1.
    8880023    1    1    2    0    0  0.15618077220E+04 -0.46667767991E+03  0.17598142682E+04  0.24875264587E+04  0.65864270000E+03 0.  0.
    8880022    1    1    2    0    0 -0.15618077220E+04  0.46667767991E+03  0.26018044983E+03  0.16577445331E+04  0.15294330000E+03 0.  0.
<mgrwt>
<rscale>  0 0.17270472E+04</rscale>
<asrwt>0</asrwt>
<pdfrwt beam="1">  1        2 0.47425121E+00 0.17580790E+04</pdfrwt>
<pdfrwt beam="2">  1       -2 0.16348279E+00 0.17580790E+04</pdfrwt>
<totfact> 0.33747510E-01</totfact>
</mgrwt>
</event>
<event>
 4    5  0.6615028E-008  0.1451753E+04  0.7818608E-02  0.8944478E-01
         -2   -1    0    0    0  501 -0.00000000000E+00  0.00000000000E+00  0.13171442966E+04  0.13171442966E+04  0.25500000000E-02 0.  1.
          2   -1    0    0  501    0  0.00000000000E+00 -0.00000000000E+00 -0.24445412356E+04  0.24445412356E+04  0.25500000000E-02 0. -1.
    8880023    1    1    2    0    0 -0.12705609289E+04  0.24382965702E+03 -0.17862535119E+04  0.23018014230E+04  0.65864270000E+03 0.  0.
    8880022    1    1    2    0    0  0.12705609289E+04 -0.24382965702E+03  0.65885657290E+03  0.14598841092E+04  0.15294330000E+03 0.  0.
<mgrwt>
<rscale>  0 0.14129777E+04</rscale>
<asrwt>0</asrwt>
<pdfrwt beam="1">  1        2 0.37608327E+00 0.14517535E+04</pdfrwt>
<pdfrwt beam="2">  1       -2 0.20263758E+00 0.14517535E+04</pdfrwt>
<totfact> 0.45243327E-01</totfact>
</mgrwt>
</event>
<event>
 4    5  0.6615028E-008  0.1242482E+04  0.7818608E-02  0.9116894E-01
         -2   -1    0    0    0  501 -0.00000000000E+00  0.00000000000E+00  0.91159582988E+03  0.91159582988E+03  0.25500000000E-02 0.  1.
          2   -1    0    0  501    0  0.00000000000E+00 -0.00000000000E+00 -0.25755247653E+04  0.25755247653E+04  0.25500000000E-02 0. -1.
    8880023    1    1    2    0    0 -0.28206948525E+02  0.10531643754E+04 -0.20140273148E+04  0.23664460832E+04  0.65864270000E+03 0.  0.
    8880022    1    1    2    0    0  0.28206948525E+02 -0.10531643754E+04  0.35009837939E+03  0.11206745120E+04  0.15294330000E+03 0.  0.
<mgrwt>
<rscale>  0 0.11953984E+04</rscale>
<asrwt>0</asrwt>
<pdfrwt beam="1">  1        2 0.39623458E+00 0.12424818E+04</pdfrwt>
<pdfrwt beam="2">  1       -2 0.14024551E+00 0.12424818E+04</pdfrwt>
<totfact> 0.10956327E+00</totfact>
</mgrwt>
</event>
<event>
 4    5  0.6615028E-008  0.7757363E+03  0.7818608E-02  0.9765949E-01
          2   -1    0    0  501    0  0.00000000000E+00  0.00000000000E+00  0.18212299916E+04  0.18212299916E+04  0.25500000000E-02 0. -1.
         -2   -1    0    0    0  501 -0.00000000000E+00 -0.00000000000E+00 -0.77659716666E+03  0.77659716667E+03  0.25500000000E-02 0.  1.
    8880023    1    1    2    0    0 -0.40571441200E+03 -0.57900123732E+02  0.16661040840E+04  0.18378437457E+04  0.65864270000E+03 0. -1.
    8880022    1    1    2    0    0  0.40571441200E+03  0.57900123732E+02 -0.62147125913E+03  0.75998341256E+03  0.15294330000E+03 0.  0.
<mgrwt>
<rscale>  0 0.67222344E+03</rscale>
<asrwt>0</asrwt>
<pdfrwt beam="1">  1        2 0.28018923E+00 0.77573630E+03</pdfrwt>
<pdfrwt beam="2">  1       -2 0.11947649E+00 0.77573630E+03</pdfrwt>
<totfact> 0.46333926E+00</totfact>
</mgrwt>
</event>
<event>
 4    5  0.6615028E-008  0.1412973E+04  0.7818608E-02  0.8973667E-01
          2   -1    0    0  501    0  0.00000000000E+00  0.00000000000E+00  0.17890831562E+04  0.17890831562E+04  0.25500000000E-02 0. -1.
         -2   -1    0    0    0  501 -0.00000000000E+00 -0.00000000000E+00 -0.10362063360E+04  0.10362063360E+04  0.25500000000E-02 0.  1.
    8880023    1    1    2    0    0  0.64906074173E+03 -0.10683650488E+04  0.12621828788E+03  0.14185996568E+04  0.65864270000E+03 0.  1.
    8880022    1    1    2    0    0 -0.64906074173E+03  0.10683650488E+04  0.62665853225E+03  0.14066898354E+04  0.15294330000E+03 0.  0.
<mgrwt>
<rscale>  0 0.13729065E+04</rscale>
<asrwt>0</asrwt>
<pdfrwt beam="1">  1        2 0.27524356E+00 0.14129734E+04</pdfrwt>
<pdfrwt beam="2">  1       -2 0.15941636E+00 0.14129734E+04</pdfrwt>
<totfact> 0.21180642E+00</totfact>
</mgrwt>
</event>
<event>
 4    5  0.6615028E-008  0.1738280E+04  0.7818608E-02  0.8757468E-01
          2   -1    0    0  501    0  0.00000000000E+00  0.00000000000E+00  0.25693469645E+04  0.25693469645E+04  0.25500000000E-02 0. -1.
         -2   -1    0    0    0  501 -0.00000000000E+00 -0.00000000000E+00 -0.13267315261E+04  0.13267315261E+04  0.25500000000E-02 0.  1.
    8880023    1    1    2    0    0  0.20281326410E+03  0.15958304168E+04  0.14542264122E+04  0.22663610929E+04  0.65864270000E+03 0.  0.
    8880022    1    1    2    0    0 -0.20281326410E+03 -0.15958304168E+04 -0.21161097379E+03  0.16297173977E+04  0.15294330000E+03 0.  0.
<mgrwt>
<rscale>  0 0.17068480E+04</rscale>
<asrwt>0</asrwt>
<pdfrwt beam="1">  1        2 0.39528414E+00 0.17382802E+04</pdfrwt>
<pdfrwt beam="2">  1       -2 0.20411255E+00 0.17382802E+04</pdfrwt>
<totfact> 0.36335035E-01</totfact>
</mgrwt>
</event>
<event>
 4    5  0.6892774E-008  0.1015938E+04  0.7818608E-02  0.9360997E-01
         -2   -1    0    0    0  501 -0.00000000000E+00  0.00000000000E+00  0.13072337341E+04  0.13072337341E+04  0.25500000000E-02 0.  1.
          2   -1    0    0  501    0  0.00000000000E+00 -0.00000000000E+00 -0.20546186299E+04  0.20546186299E+04  0.25500000000E-02 0. -1.
    8880023    1    1    2    0    0 -0.55158982338E+03  0.54228092428E+03 -0.17878686271E+04  0.20563570624E+04  0.65864270000E+03 0. -1.
    8880022    1    1    2    0    0  0.55158982338E+03 -0.54228092428E+03  0.10404837314E+04  0.13054953016E+04  0.15294330000E+03 0.  0.
<mgrwt>
<rscale>  0 0.95356224E+03</rscale>
<asrwt>0</asrwt>
<pdfrwt beam="1">  1        2 0.31609517E+00 0.10159381E+04</pdfrwt>
<pdfrwt beam="2">  1       -2 0.20111288E+00 0.10159381E+04</pdfrwt>
<totfact> 0.81216978E-01</totfact>
</mgrwt>
</event>
<event>
 4    5  0.6615028E-008  0.7968473E+03  0.7818608E-02  0.9717655E-01
          2   -1    0    0  501    0  0.00000000000E+00  0.00000000000E+00  0.20574128336E+04  0.20574128336E+04  0.25500000000E-02 0. -1.
         -2   -1    0    0    0  501 -0.00000000000E+00 -0.00000000000E+00 -0.20163882383E+03  0.20163882385E+03  0.25500000000E-02 0.  1.
    8880023    1    1    2    0    0 -0.32801943986E+03  0.30587370443E+03  0.13368604760E+04  0.15563295328E+04  0.65864270000E+03 0. -1.
    8880022    1    1    2    0    0  0.32801943986E+03 -0.30587370443E+03  0.51891353378E+03  0.70272212470E+03  0.15294330000E+03 0.  1.
<mgrwt>
<rscale>  0 0.69975302E+03</rscale>
<asrwt>0</asrwt>
<pdfrwt beam="1">  1        2 0.31652506E+00 0.79684734E+03</pdfrwt>
<pdfrwt beam="2">  1       -2 0.31021357E-01 0.79684734E+03</pdfrwt>
<totfact> 0.61221344E+01</totfact>
</mgrwt>
</event>
<event>
 4    5  0.6615028E-008  0.1618888E+04  0.7818608E-02  0.8829949E-01
         -2   -1    0    0    0  501 -0.00000000000E+00  0.00000000000E+00  0.12092753639E+04  0.12092753639E+04  0.25500000000E-02 0.  1.
          2   -1    0    0  501    0  0.00000000000E+00 -0.00000000000E+00 -0.25142018877E+04  0.25142018877E+04  0.25500000000E-02 0. -1.
    8880023    1    1    2    0    0 -0.14557616175E+04 -0.26028075244E+03 -0.15207689363E+04  0.22211565278E+04  0.65864270000E+03 0.  0.
    8880022    1    1    2    0    0  0.14557616175E+04  0.26028075244E+03  0.21584241257E+03  0.15023207238E+04  0.15294330000E+03 0.  0.
<mgrwt>
<rscale>  0 0.15847872E+04</rscale>
<asrwt>0</asrwt>
<pdfrwt beam="1">  1        2 0.38680029E+00 0.16188879E+04</pdfrwt>
<pdfrwt beam="2">  1       -2 0.18604236E+00 0.16188879E+04</pdfrwt>
<totfact> 0.52317326E-01</totfact>
</mgrwt>
</event>
<event>
 4    5  0.6615028E-008  0.1373215E+04  0.7818608E-02  0.9004780E-01
          2   -1    0    0  501    0  0.00000000000E+00  0.00000000000E+00  0.18377229210E+04  0.18377229210E+04  0.25500000000E-02 0. -1.
         -2   -1    0    0    0  501 -0.00000000000E+00 -0.00000000000E+00 -0.16161435707E+04  0.16161435707E+04  0.25500000000E-02 0.  1.
    8880023    1    1    2    0    0 -0.27355488118E+03 -0.11734890827E+04  0.12540918845E+04  0.18596950183E+04  0.65864270000E+03 0.  0.
    8880022    1    1    2    0    0  0.27355488118E+03  0.11734890827E+04 -0.10325125342E+04  0.15941714734E+04  0.15294330000E+03 0.  0.
<mgrwt>
<rscale>  0 0.13317231E+04</rscale>
<asrwt>0</asrwt>
<pdfrwt beam="1">  1        2 0.28272660E+00 0.13732149E+04</pdfrwt>
<pdfrwt beam="2">  1       -2 0.24863747E+00 0.13732149E+04</pdfrwt>
<totfact> 0.51253870E-01</totfact>
</mgrwt>
</event>
<event>
 4    5  0.6615028E-008  0.7642916E+03  0.7818608E-02  0.9794121E-01
         -2   -1    0    0    0  501 -0.00000000000E+00  0.00000000000E+00  0.34138568326E+03  0.34138568327E+03  0.25500000000E-02 0.  1.
          2   -1    0    0  501    0  0.00000000000E+00 -0.00000000000E+00 -0.26601524480E+04  0.26601524480E+04  0.25500000000E-02 0. -1.
    8880023    1    1    2    0    0 -0.34117107905E+03 -0.18421124336E+03 -0.24484999579E+04  0.25650133991E+04  0.65864270000E+03 0.  0.
    8880022    1    1    2    0    0  0.34117107905E+03  0.18421124336E+03  0.12973319319E+03  0.43652473216E+03  0.15294330000E+03 0.  0.
<mgrwt>
<rscale>  0 0.65679001E+03</rscale>
<asrwt>0</asrwt>
<pdfrwt beam="1">  1        2 0.40925421E+00 0.76429163E+03</pdfrwt>
<pdfrwt beam="2">  1       -2 0.52520876E-01 0.76429163E+03</pdfrwt>
<totfact> 0.10078016E+01</totfact>
</mgrwt>
</event>
<event>
 4    5  0.6615028E-008  0.7293667E+03  0.7818608E-02  0.9892080E-01
          2   -1    0    0  501    0  0.00000000000E+00  0.00000000000E+00  0.30948802550E+04  0.30948802550E+04  0.25500000000E-02 0. -1.
         -2   -1    0    0    0  501 -0.00000000000E+00 -0.00000000000E+00 -0.15070382914E+03  0.15070382916E+03  0.25500000000E-02 0.  1.
    8880023    1    1    2    0    0  0.29072182448E+03  0.11681770251E+03  0.27529588872E+04  0.28479393244E+04  0.65864270000E+03 0. -1.
    8880022    1    1    2    0    0 -0.29072182448E+03 -0.11681770251E+03  0.19121753871E+03  0.39764475977E+03  0.15294330000E+03 0.  0.
<mgrwt>
<rscale>  0 0.60646680E+03</rscale>
<asrwt>0</asrwt>
<pdfrwt beam="1">  1        2 0.47613539E+00 0.72936668E+03</pdfrwt>
<pdfrwt beam="2">  1       -2 0.23185206E-01 0.72936668E+03</pdfrwt>
<totfact> 0.26500175E+01</totfact>
</mgrwt>
</event>
<event>
 4    5  0.6615028E-008  0.8006315E+03  0.7818608E-02  0.9709432E-01
          2   -1    0    0  501    0  0.00000000000E+00  0.00000000000E+00  0.15190968535E+04  0.15190968535E+04  0.25500000000E-02 0. -1.
         -2   -1    0    0    0  501 -0.00000000000E+00 -0.00000000000E+00 -0.17403838191E+04  0.17403838191E+04  0.25500000000E-02 0.  1.
    8880023    1    1    2    0    0 -0.18663917555E+03 -0.41517039273E+03  0.13757786202E+04  0.15917844248E+04  0.65864270000E+03 0. -1.
    8880022    1    1    2    0    0  0.18663917555E+03  0.41517039273E+03 -0.15970655858E+04  0.16676962479E+04  0.15294330000E+03 0.  0.
<mgrwt>
<rscale>  0 0.70457968E+03</rscale>
<asrwt>0</asrwt>
<pdfrwt beam="1">  1        2 0.23370721E+00 0.80063153E+03</pdfrwt>
<pdfrwt beam="2">  1       -2 0.26775136E+00 0.80063153E+03</pdfrwt>
<totfact> 0.64186534E-01</totfact>
</mgrwt>
</event>
<event>
 4    5  0.6615028E-008  0.8347078E+03  0.7818608E-02  0.9640241E-01
         -2   -1    0    0    0  501 -0.00000000000E+00  0.00000000000E+00  0.23798112589E+04  0.23798112589E+04  0.25500000000E-02 0.  1.
          2   -1    0    0  501    0  0.00000000000E+00 -0.00000000000E+00 -0.37556898794E+03  0.37556898795E+03  0.25500000000E-02 0. -1.
    8880023    1    1    2    0    0 -0.48926858911E+03 -0.15343794026E+03  0.17948512176E+03  0.85378689906E+03  0.65864270000E+03 0.  0.
    8880022    1    1    2    0    0  0.48926858911E+03  0.15343794026E+03  0.18247571492E+04  0.19015933478E+04  0.15294330000E+03 0.  0.
<mgrwt>
<rscale>  0 0.74689072E+03</rscale>
<asrwt>0</asrwt>
<pdfrwt beam="1">  1        2 0.57779844E-01 0.83470783E+03</pdfrwt>
<pdfrwt beam="2">  1       -2 0.36612481E+00 0.83470783E+03</pdfrwt>
<totfact> 0.10935767E+00</totfact>
</mgrwt>
</event>
<event>
 4    5  0.6615028E-008  0.6863019E+03  0.7818608E-02  0.1005962E+00
         -2   -1    0    0    0  501 -0.00000000000E+00  0.00000000000E+00  0.35330974136E+03  0.35330974137E+03  0.25500000000E-02 0.  1.
          2   -1    0    0  501    0  0.00000000000E+00 -0.00000000000E+00 -0.91305712204E+03  0.91305712204E+03  0.25500000000E-02 0. -1.
    8880023    1    1    2    0    0 -0.62657567843E+02  0.18241210054E+03 -0.70226683803E+03  0.98193129255E+03  0.65864270000E+03 0. -1.
    8880022    1    1    2    0    0  0.62657567843E+02 -0.18241210054E+03  0.14251945735E+03  0.28443557086E+03  0.15294330000E+03 0.  0.
<mgrwt>
<rscale>  0 0.53111449E+03</rscale>
<asrwt>0</asrwt>
<pdfrwt beam="1">  1        2 0.14047033E+00 0.68630194E+03</pdfrwt>
<pdfrwt beam="2">  1       -2 0.54355345E-01 0.68630194E+03</pdfrwt>
<totfact> 0.93197496E+01</totfact>
</mgrwt>
</event>
<event>
 4    5  0.6615028E-008  0.1310253E+04  0.7818608E-02  0.9056756E-01
          2   -1    0    0  501    0  0.00000000000E+00  0.00000000000E+00  0.22871886438E+04  0.22871886438E+04  0.25500000000E-02 0. -1.
         -2   -1    0    0    0  501 -0.00000000000E+00 -0.00000000000E+00 -0.10591857046E+04  0.10591857046E+04  0.25500000000E-02 0.  1.
    8880023    1    1    2    0    0  0.59930737584E+03  0.96113702486E+03  0.16684983593E+04  0.21214737077E+04  0.65864270000E+03 0.  0.
    8880022    1    1    2    0    0 -0.59930737584E+03 -0.96113702486E+03 -0.44049542015E+03  0.12249006407E+04  0.15294330000E+03 0.  0.
<mgrwt>
<rscale>  0 0.12662624E+04</rscale>
<asrwt>0</asrwt>
<pdfrwt beam="1">  1        2 0.35187517E+00 0.13102534E+04</pdfrwt>
<pdfrwt beam="2">  1       -2 0.16295165E+00 0.13102534E+04</pdfrwt>
<totfact> 0.10625306E+00</totfact>
</mgrwt>
</event>
<event>
 4    5  0.6615028E-008  0.7623962E+03  0.7818608E-02  0.9798943E-01
          2   -1    0    0  501    0  0.00000000000E+00  0.00000000000E+00  0.19833727680E+04  0.19833727680E+04  0.25500000000E-02 0. -1.
         -2   -1    0    0    0  501 -0.00000000000E+00 -0.00000000000E+00 -0.34888850369E+03  0.34888850370E+03  0.25500000000E-02 0.  1.
    8880023    1    1    2    0    0  0.35661883963E+03 -0.14234019188E+03  0.17451262848E+04  0.19043932585E+04  0.65864270000E+03 0. -1.
    8880022    1    1    2    0    0 -0.35661883963E+03  0.14234019188E+03 -0.11064202045E+03  0.42786801319E+03  0.15294330000E+03 0.  0.
<mgrwt>
<rscale>  0 0.65419294E+03</rscale>
<asrwt>0</asrwt>
<pdfrwt beam="1">  1        2 0.30513427E+00 0.76239618E+03</pdfrwt>
<pdfrwt beam="2">  1       -2 0.53675154E-01 0.76239618E+03</pdfrwt>
<totfact> 0.23024366E+01</totfact>
</mgrwt>
</event>
<event>
 4    5  0.6615028E-008  0.9011079E+03  0.7818608E-02  0.9524255E-01
          2   -1    0    0  501    0  0.00000000000E+00  0.00000000000E+00  0.70652800309E+03  0.70652800310E+03  0.25500000000E-02 0. -1.
         -2   -1    0    0    0  501 -0.00000000000E+00 -0.00000000000E+00 -0.34009035815E+04  0.34009035815E+04  0.25500000000E-02 0.  1.
    8880023    1    1    2    0    0  0.60605557034E+03  0.10431606616E+03  0.37301801325E+03  0.97526295965E+03  0.65864270000E+03 0. -1.
    8880022    1    1    2    0    0 -0.60605557034E+03 -0.10431606616E+03 -0.30673935916E+04  0.31321686249E+04  0.15294330000E+03 0.  0.
<mgrwt>
<rscale>  0 0.82518946E+03</rscale>
<asrwt>0</asrwt>
<pdfrwt beam="1">  1        2 0.10869662E+00 0.90110787E+03</pdfrwt>
<pdfrwt beam="2">  1       -2 0.52321593E+00 0.90110787E+03</pdfrwt>
<totfact> 0.49446590E-02</totfact>
</mgrwt>
</event>
<event>
 4    5  0.6615028E-008  0.1296971E+04  0.7818608E-02  0.9068180E-01
         -2   -1    0    0    0  501 -0.00000000000E+00  0.00000000000E+00  0.61895370200E+03  0.61895370200E+03  0.25500000000E-02 0.  1.
          2   -1    0    0  501    0  0.00000000000E+00 -0.00000000000E+00 -0.46215079488E+04  0.46215079488E+04  0.25500000000E-02 0. -1.
    8880023    1    1    2    0    0 -0.38097634299E+03  0.10503236783E+04 -0.38977848658E+04  0.41079021251E+04  0.65864270000E+03 0.  0.
    8880022    1    1    2    0    0  0.38097634299E+03 -0.10503236783E+04 -0.10476938099E+03  0.11325595257E+04  0.15294330000E+03 0.  0.
<mgrwt>
<rscale>  0 0.12524094E+04</rscale>
<asrwt>0</asrwt>
<pdfrwt beam="1">  1        2 0.71100120E+00 0.12969707E+04</pdfrwt>
<pdfrwt beam="2">  1       -2 0.95223650E-01 0.12969707E+04</pdfrwt>
<totfact> 0.87552601E-02</totfact>
</mgrwt>
</event>
<event>
 4    5  0.6615028E-008  0.7075614E+03  0.7818608E-02  0.9967170E-01
          2   -1    0    0  501    0  0.00000000000E+00  0.00000000000E+00  0.20517923662E+04  0.20517923662E+04  0.25500000000E-02 0. -1.
         -2   -1    0    0    0  501 -0.00000000000E+00 -0.00000000000E+00 -0.14239049296E+03  0.14239049299E+03  0.25500000000E-02 0.  1.
    8880023    1    1    2    0    0  0.19610375487E+03  0.16845245589E+03  0.92263691407E+03  0.11627132037E+04  0.65864270000E+03 0.  0.
    8880022    1    1    2    0    0 -0.19610375487E+03 -0.16845245589E+03  0.98676495920E+03  0.10314696555E+04  0.15294330000E+03 0.  0.
<mgrwt>
<rscale>  0 0.57113489E+03</rscale>
<asrwt>0</asrwt>
<pdfrwt beam="1">  1        2 0.31566032E+00 0.70756139E+03</pdfrwt>
<pdfrwt beam="2">  1       -2 0.21906233E-01 0.70756139E+03</pdfrwt>
<totfact> 0.11714398E+02</totfact>
</mgrwt>
</event>
<event>
 4    5  0.6615028E-008  0.1031515E+04  0.7818608E-02  0.9341440E-01
         -2   -1    0    0    0  501 -0.00000000000E+00  0.00000000000E+00  0.57425166000E+03  0.57425166001E+03  0.25500000000E-02 0.  1.
          2   -1    0    0  501    0  0.00000000000E+00 -0.00000000000E+00 -0.29541608960E+04  0.29541608960E+04  0.25500000000E-02 0. -1.
    8880023    1    1    2    0    0 -0.43028676775E+03 -0.66713324538E+03 -0.25061740168E+04  0.27101534787E+04  0.65864270000E+03 0.  0.
    8880022    1    1    2    0    0  0.43028676775E+03  0.66713324538E+03  0.12626478084E+03  0.81825907724E+03  0.15294330000E+03 0.  0.
<mgrwt>
<rscale>  0 0.97055727E+03</rscale>
<asrwt>0</asrwt>
<pdfrwt beam="1">  1        2 0.45448628E+00 0.10315152E+04</pdfrwt>
<pdfrwt beam="2">  1       -2 0.88346411E-01 0.10315152E+04</pdfrwt>
<totfact> 0.20810757E+00</totfact>
</mgrwt>
</event>
<event>
 4    5  0.6615028E-008  0.1047716E+04  0.7818608E-02  0.9321632E-01
          2   -1    0    0  501    0  0.00000000000E+00  0.00000000000E+00  0.22249413302E+04  0.22249413302E+04  0.25500000000E-02 0. -1.
         -2   -1    0    0    0  501 -0.00000000000E+00 -0.00000000000E+00 -0.59029311662E+03  0.59029311663E+03  0.25500000000E-02 0.  1.
    8880023    1    1    2    0    0 -0.81409678261E+03  0.33837294211E+02  0.16855562581E+04  0.19846432020E+04  0.65864270000E+03 0.  0.
    8880022    1    1    2    0    0  0.81409678261E+03 -0.33837294211E+02 -0.50908044493E+02  0.83059124480E+03  0.15294330000E+03 0.  0.
<mgrwt>
<rscale>  0 0.98815526E+03</rscale>
<asrwt>0</asrwt>
<pdfrwt beam="1">  1        2 0.34229867E+00 0.10477160E+04</pdfrwt>
<pdfrwt beam="2">  1       -2 0.90814326E-01 0.10477160E+04</pdfrwt>
<totfact> 0.51673335E+00</totfact>
</mgrwt>
</event>
<event>
 4    5  0.6615028E-008  0.8982246E+03  0.7818608E-02  0.9528888E-01
          2   -1    0    0  501    0  0.00000000000E+00  0.00000000000E+00  0.19666615871E+04  0.19666615871E+04  0.25500000000E-02 0. -1.
         -2   -1    0    0    0  501 -0.00000000000E+00 -0.00000000000E+00 -0.78423275233E+03  0.78423275234E+03  0.25500000000E-02 0.  1.
    8880023    1    1    2    0    0  0.57080167049E+03  0.21721565127E+03  0.17086412144E+04  0.19303528672E+04  0.65864270000E+03 0.  0.
    8880022    1    1    2    0    0 -0.57080167049E+03 -0.21721565127E+03 -0.52621237962E+03  0.82054147224E+03  0.15294330000E+03 0.  0.
<mgrwt>
<rscale>  0 0.82187142E+03</rscale>
<asrwt>0</asrwt>
<pdfrwt beam="1">  1        2 0.30256332E+00 0.89822458E+03</pdfrwt>
<pdfrwt beam="2">  1       -2 0.12065119E+00 0.89822458E+03</pdfrwt>
<totfact> 0.36973718E+00</totfact>
</mgrwt>
</event>
<event>
 4    5  0.6615028E-008  0.7754080E+03  0.7818608E-02  0.9766736E-01
         -2   -1    0    0    0  501 -0.00000000000E+00  0.00000000000E+00  0.29045815882E+04  0.29045815882E+04  0.25500000000E-02 0.  1.
          2   -1    0    0  501    0  0.00000000000E+00 -0.00000000000E+00 -0.82113179392E+03  0.82113179392E+03  0.25500000000E-02 0. -1.
    8880023    1    1    2    0    0  0.37454950994E+03  0.16480315156E+03 -0.61651847324E+03  0.99063244862E+03  0.65864270000E+03 0. -1.
    8880022    1    1    2    0    0 -0.37454950994E+03 -0.16480315156E+03  0.26999682675E+04  0.27350809335E+04  0.15294330000E+03 0.  0.
<mgrwt>
<rscale>  0 0.67178629E+03</rscale>
<asrwt>0</asrwt>
<pdfrwt beam="1">  1        2 0.12632797E+00 0.77540803E+03</pdfrwt>
<pdfrwt beam="2">  1       -2 0.44685870E+00 0.77540803E+03</pdfrwt>
<totfact> 0.12881285E-01</totfact>
</mgrwt>
</event>
<event>
 4    5  0.6615028E-008  0.8300905E+03  0.7818608E-02  0.9649156E-01
         -2   -1    0    0    0  501 -0.00000000000E+00  0.00000000000E+00  0.38438264757E+03  0.38438264758E+03  0.25500000000E-02 0.  1.
          2   -1    0    0  501    0  0.00000000000E+00 -0.00000000000E+00 -0.24390015233E+04  0.24390015233E+04  0.25500000000E-02 0. -1.
    8880023    1    1    2    0    0  0.11175097539E+03  0.49269842312E+03 -0.21338443474E+04  0.22896161079E+04  0.65864270000E+03 0.  0.
    8880022    1    1    2    0    0 -0.11175097539E+03 -0.49269842312E+03  0.79225471641E+02  0.53376806294E+03  0.15294330000E+03 0.  0.
<mgrwt>
<rscale>  0 0.74126397E+03</rscale>
<asrwt>0</asrwt>
<pdfrwt beam="1">  1        2 0.37523099E+00 0.83009049E+03</pdfrwt>
<pdfrwt beam="2">  1       -2 0.59135794E-01 0.83009049E+03</pdfrwt>
<totfact> 0.10423572E+01</totfact>
</mgrwt>
</event>
<event>
 4    5  0.6615028E-008  0.8803798E+03  0.7818608E-02  0.9558292E-01
         -2   -1    0    0    0  501 -0.00000000000E+00  0.00000000000E+00  0.67268537051E+03  0.67268537051E+03  0.25500000000E-02 0.  1.
          2   -1    0    0  501    0  0.00000000000E+00 -0.00000000000E+00 -0.24221256605E+04  0.24221256605E+04  0.25500000000E-02 0. -1.
    8880023    1    1    2    0    0  0.43518735060E+03 -0.38970554478E+03 -0.21814006670E+04  0.23523557380E+04  0.65864270000E+03 0. -1.
    8880022    1    1    2    0    0 -0.43518735060E+03  0.38970554478E+03  0.43196037704E+03  0.74245529300E+03  0.15294330000E+03 0.  0.
<mgrwt>
<rscale>  0 0.80119292E+03</rscale>
<asrwt>0</asrwt>
<pdfrwt beam="1">  1        2 0.37263471E+00 0.88037983E+03</pdfrwt>
<pdfrwt beam="2">  1       -2 0.10349006E+00 0.88037983E+03</pdfrwt>
<totfact> 0.30111957E+00</totfact>
</mgrwt>
</event>
<event>
 4    5  0.6615028E-008  0.8265021E+03  0.7818608E-02  0.9656177E-01
         -2   -1    0    0    0  501 -0.00000000000E+00  0.00000000000E+00  0.10214706653E+04  0.10214706653E+04  0.25500000000E-02 0.  1.
          2   -1    0    0  501    0  0.00000000000E+00 -0.00000000000E+00 -0.47325060765E+03  0.47325060765E+03  0.25500000000E-02 0. -1.
    8880023    1    1    2    0    0 -0.20938375779E+03  0.45327021155E+03  0.15470823769E+03  0.84085687711E+03  0.65864270000E+03 0. -1.
    8880022    1    1    2    0    0  0.20938375779E+03 -0.45327021155E+03  0.39351182001E+03  0.65386439589E+03  0.15294330000E+03 0.  1.
<mgrwt>
<rscale>  0 0.73687026E+03</rscale>
<asrwt>0</asrwt>
<pdfrwt beam="1">  1        2 0.72807786E-01 0.82650206E+03</pdfrwt>
<pdfrwt beam="2">  1       -2 0.15714933E+00 0.82650206E+03</pdfrwt>
<totfact> 0.17489476E+01</totfact>
</mgrwt>
</event>
<event>
 4    5  0.6615028E-008  0.7185021E+03  0.7818608E-02  0.9927687E-01
         -2   -1    0    0    0  501 -0.00000000000E+00  0.00000000000E+00  0.72134308934E+03  0.72134308935E+03  0.25500000000E-02 0.  1.
          2   -1    0    0  501    0  0.00000000000E+00 -0.00000000000E+00 -0.33838167340E+04  0.33838167340E+04  0.25500000000E-02 0. -1.
    8880023    1    1    2    0    0 -0.10558536085E+03 -0.26699579900E+03 -0.33064845981E+04  0.33836497497E+04  0.65864270000E+03 0. -1.
    8880022    1    1    2    0    0  0.10558536085E+03  0.26699579900E+03  0.64401095346E+03  0.72151007360E+03  0.15294330000E+03 0.  0.
<mgrwt>
<rscale>  0 0.58938003E+03</rscale>
<asrwt>0</asrwt>
<pdfrwt beam="1">  1        2 0.52058718E+00 0.71850207E+03</pdfrwt>
<pdfrwt beam="2">  1       -2 0.11097586E+00 0.71850207E+03</pdfrwt>
<totfact> 0.68690623E-01</totfact>
</mgrwt>
</event>
<event>
 4    5  0.6615028E-008  0.9186071E+03  0.7818608E-02  0.9496798E-01
          2   -1    0    0  501    0  0.00000000000E+00  0.00000000000E+00  0.11027796149E+04  0.11027796149E+04  0.25500000000E-02 0. -1.
         -2   -1    0    0    0  501 -0.00000000000E+00 -0.00000000000E+00 -0.10830386624E+04  0.10830386624E+04  0.25500000000E-02 0.  1.
    8880023    1    1    2    0    0 -0.33630733882E+03 -0.54490929696E+03  0.76210640320E+03  0.11935849966E+04  0.65864270000E+03 0. -1.
    8880022    1    1    2    0    0  0.33630733882E+03  0.54490929696E+03 -0.74236545062E+03  0.99223328071E+03  0.15294330000E+03 0.  0.
<mgrwt>
<rscale>  0 0.84520297E+03</rscale>
<asrwt>0</asrwt>
<pdfrwt beam="1">  1        2 0.16965840E+00 0.91860708E+03</pdfrwt>
<pdfrwt beam="2">  1       -2 0.16662133E+00 0.91860708E+03</pdfrwt>
<totfact> 0.48896218E+00</totfact>
</mgrwt>
</event>
<event>
 4    5  0.6615028E-008  0.1211194E+04  0.7818608E-02  0.9146317E-01
          2   -1    0    0  501    0  0.00000000000E+00  0.00000000000E+00  0.18895083259E+04  0.18895083259E+04  0.25500000000E-02 0. -1.
         -2   -1    0    0    0  501 -0.00000000000E+00 -0.00000000000E+00 -0.23893776999E+04  0.23893776999E+04  0.25500000000E-02 0.  1.
    8880023    1    1    2    0    0  0.99610927629E+03  0.20235382765E+03  0.15610690795E+04  0.19758359342E+04  0.65864270000E+03 0.  0.
    8880022    1    1    2    0    0 -0.99610927629E+03 -0.20235382765E+03 -0.20609384535E+04  0.23030500915E+04  0.15294330000E+03 0.  0.
<mgrwt>
<rscale>  0 0.11625127E+04</rscale>
<asrwt>0</asrwt>
<pdfrwt beam="1">  1        2 0.29069359E+00 0.12111940E+04</pdfrwt>
<pdfrwt beam="2">  1       -2 0.36759657E+00 0.12111940E+04</pdfrwt>
<totfact> 0.90766239E-02</totfact>
</mgrwt>
</event>
<event>
 4    5  0.6615028E-008  0.1428832E+04  0.7818608E-02  0.8961597E-01
         -2   -1    0    0    0  501 -0.00000000000E+00  0.00000000000E+00  0.15391306660E+04  0.15391306660E+04  0.25500000000E-02 0.  1.
          2   -1    0    0  501    0  0.00000000000E+00 -0.00000000000E+00 -0.16309379548E+04  0.16309379548E+04  0.25500000000E-02 0. -1.
    8880023    1    1    2    0    0 -0.28783097552E+03 -0.12348705712E+04 -0.87157409367E+03  0.16736796602E+04  0.65864270000E+03 0.  0.
    8880022    1    1    2    0    0  0.28783097552E+03  0.12348705712E+04  0.77976680496E+03  0.14963889605E+04  0.15294330000E+03 0.  0.
<mgrwt>
<rscale>  0 0.13893047E+04</rscale>
<asrwt>0</asrwt>
<pdfrwt beam="1">  1        2 0.25091353E+00 0.14288325E+04</pdfrwt>
<pdfrwt beam="2">  1       -2 0.23678933E+00 0.14288325E+04</pdfrwt>
<totfact> 0.78647255E-01</totfact>
</mgrwt>
</event>
<event>
 4    5  0.6615028E-008  0.1028206E+04  0.7818608E-02  0.9345552E-01
          2   -1    0    0  501    0  0.00000000000E+00  0.00000000000E+00  0.15211434839E+04  0.15211434839E+04  0.25500000000E-02 0. -1.
         -2   -1    0    0    0  501 -0.00000000000E+00 -0.00000000000E+00 -0.13006642024E+04  0.13006642024E+04  0.25500000000E-02 0.  1.
    8880023    1    1    2    0    0  0.78724998752E+03 -0.60282743602E+02  0.11830895390E+04  0.15674525880E+04  0.65864270000E+03 0.  0.
    8880022    1    1    2    0    0 -0.78724998752E+03  0.60282743602E+02 -0.96261025748E+03  0.12543550984E+04  0.15294330000E+03 0.  0.
<mgrwt>
<rscale>  0 0.96695271E+03</rscale>
<asrwt>0</asrwt>
<pdfrwt beam="1">  1        2 0.23402208E+00 0.10282056E+04</pdfrwt>
<pdfrwt beam="2">  1       -2 0.20010218E+00 0.10282056E+04</pdfrwt>
<totfact> 0.16236730E+00</totfact>
</mgrwt>
</event>
<event>
 4    5  0.6615028E-008  0.1041417E+04  0.7818608E-02  0.9329271E-01
         -2   -1    0    0    0  501 -0.00000000000E+00  0.00000000000E+00  0.18874150757E+04  0.18874150757E+04  0.25500000000E-02 0.  1.
          2   -1    0    0  501    0  0.00000000000E+00 -0.00000000000E+00 -0.82139800201E+03  0.82139800201E+03  0.25500000000E-02 0. -1.
    8880023    1    1    2    0    0  0.35005581727E+02  0.80592388860E+03 -0.32724446622E+03  0.10916216615E+04  0.65864270000E+03 0. -1.
    8880022    1    1    2    0    0 -0.35005581727E+02 -0.80592388860E+03  0.13932615399E+04  0.16171914161E+04  0.15294330000E+03 0.  0.
<mgrwt>
<rscale>  0 0.98132173E+03</rscale>
<asrwt>0</asrwt>
<pdfrwt beam="1">  1        2 0.12636892E+00 0.10414168E+04</pdfrwt>
<pdfrwt beam="2">  1       -2 0.29037155E+00 0.10414168E+04</pdfrwt>
<totfact> 0.12073466E+00</totfact>
</mgrwt>
</event>
<event>
 4    5  0.6615028E-008  0.9390109E+03  0.7818608E-02  0.9466104E-01
          2   -1    0    0  501    0  0.00000000000E+00  0.00000000000E+00  0.91674630034E+03  0.91674630035E+03  0.25500000000E-02 0. -1.
         -2   -1    0    0    0  501 -0.00000000000E+00 -0.00000000000E+00 -0.10927816088E+04  0.10927816088E+04  0.25500000000E-02 0.  1.
    8880023    1    1    2    0    0  0.59519563408E+03 -0.30606120980E+03  0.48466910612E+03  0.10567145573E+04  0.65864270000E+03 0. -1.
    8880022    1    1    2    0    0 -0.59519563408E+03  0.30606120980E+03 -0.66070441458E+03  0.95281335183E+03  0.15294330000E+03 0.  0.
<mgrwt>
<rscale>  0 0.86829601E+03</rscale>
<asrwt>0</asrwt>
<pdfrwt beam="1">  1        2 0.14103789E+00 0.93901092E+03</pdfrwt>
<pdfrwt beam="2">  1       -2 0.16812025E+00 0.93901092E+03</pdfrwt>
<totfact> 0.62633684E+00</totfact>
</mgrwt>
</event>
<event>
 4    5  0.6615028E-008  0.9341455E+03  0.7818608E-02  0.9473302E-01
          2   -1    0    0  501    0  0.00000000000E+00  0.00000000000E+00  0.26511265260E+04  0.26511265260E+04  0.25500000000E-02 0. -1.
         -2   -1    0    0    0  501 -0.00000000000E+00 -0.00000000000E+00 -0.34573827671E+03  0.34573827672E+03  0.25500000000E-02 0.  1.
    8880023    1    1    2    0    0  0.37005793041E+03  0.54943127304E+03  0.20808035485E+04  0.22808707130E+04  0.65864270000E+03 0.  0.
    8880022    1    1    2    0    0 -0.37005793041E+03 -0.54943127304E+03  0.22458470073E+03  0.71599408969E+03  0.15294330000E+03 0.  0.
<mgrwt>
<rscale>  0 0.86281109E+03</rscale>
<asrwt>0</asrwt>
<pdfrwt beam="1">  1        2 0.40786564E+00 0.93414549E+03</pdfrwt>
<pdfrwt beam="2">  1       -2 0.53190502E-01 0.93414549E+03</pdfrwt>
<totfact> 0.96870468E+00</totfact>
</mgrwt>
</event>
<event>
 4    5  0.6615028E-008  0.8525569E+03  0.7818608E-02  0.9606943E-01
         -2   -1    0    0    0  501 -0.00000000000E+00  0.00000000000E+00  0.37305066031E+03  0.37305066032E+03  0.25500000000E-02 0.  1.
          2   -1    0    0  501    0  0.00000000000E+00 -0.00000000000E+00 -0.17368628211E+04  0.17368628211E+04  0.25500000000E-02 0. -1.
    8880023    1    1    2    0    0 -0.61606906443E+02 -0.53781741317E+03 -0.12847007535E+04  0.15418525264E+04  0.65864270000E+03 0. -1.
    8880022    1    1    2    0    0  0.61606906443E+02  0.53781741317E+03 -0.79111407268E+02  0.56806095501E+03  0.15294330000E+03 0.  1.
<mgrwt>
<rscale>  0 0.76838347E+03</rscale>
<asrwt>0</asrwt>
<pdfrwt beam="1">  1        2 0.26720966E+00 0.85255685E+03</pdfrwt>
<pdfrwt beam="2">  1       -2 0.57392410E-01 0.85255685E+03</pdfrwt>
<totfact> 0.27020190E+01</totfact>
</mgrwt>
</event>
<event>
 4    5  0.6615028E-008  0.7810902E+03  0.7818608E-02  0.9753282E-01
          2   -1    0    0  501    0  0.00000000000E+00  0.00000000000E+00  0.18112128717E+04  0.18112128717E+04  0.25500000000E-02 0. -1.
         -2   -1    0    0    0  501 -0.00000000000E+00 -0.00000000000E+00 -0.78006386584E+03  0.78006386584E+03  0.25500000000E-02 0.  1.
    8880023    1    1    2    0    0 -0.27380912722E+03  0.31830844964E+03  0.16514073587E+04  0.18268136681E+04  0.65864270000E+03 0. -1.
    8880022    1    1    2    0    0  0.27380912722E+03 -0.31830844964E+03 -0.62025835285E+03  0.76446306945E+03  0.15294330000E+03 0.  0.
<mgrwt>
<rscale>  0 0.67931097E+03</rscale>
<asrwt>0</asrwt>
<pdfrwt beam="1">  1        2 0.27864813E+00 0.78109021E+03</pdfrwt>
<pdfrwt beam="2">  1       -2 0.12000983E+00 0.78109021E+03</pdfrwt>
<totfact> 0.46366257E+00</totfact>
</mgrwt>
</event>
<event>
 4    5  0.6615028E-008  0.1458675E+04  0.7818608E-02  0.8939382E-01
          2   -1    0    0  501    0  0.00000000000E+00  0.00000000000E+00  0.26982812860E+04  0.26982812860E+04  0.25500000000E-02 0. -1.
         -2   -1    0    0    0  501 -0.00000000000E+00 -0.00000000000E+00 -0.97766894853E+03  0.97766894854E+03  0.25500000000E-02 0.  1.
    8880023    1    1    2    0    0 -0.46942142825E+03  0.12139050178E+04  0.18536400032E+04  0.23587524960E+04  0.65864270000E+03 0.  0.
    8880022    1    1    2    0    0  0.46942142825E+03 -0.12139050178E+04 -0.13302766572E+03  0.13171977386E+04  0.15294330000E+03 0.  0.
<mgrwt>
<rscale>  0 0.14201200E+04</rscale>
<asrwt>0</asrwt>
<pdfrwt beam="1">  1        2 0.41512020E+00 0.14586748E+04</pdfrwt>
<pdfrwt beam="2">  1       -2 0.15041061E+00 0.14586748E+04</pdfrwt>
<totfact> 0.75211339E-01</totfact>
</mgrwt>
</event>
<event>
 4    5  0.6615028E-008  0.1041330E+04  0.7818608E-02  0.9329377E-01
         -2   -1    0    0    0  501 -0.00000000000E+00  0.00000000000E+00  0.13236812207E+04  0.13236812207E+04  0.25500000000E-02 0.  1.
          2   -1    0    0  501    0  0.00000000000E+00 -0.00000000000E+00 -0.86429106792E+03  0.86429106792E+03  0.25500000000E-02 0. -1.
    8880023    1    1    2    0    0  0.67068842179E+03  0.44803540428E+03 -0.28517491870E+03  0.10796729241E+04  0.65864270000E+03 0.  0.
    8880022    1    1    2    0    0 -0.67068842179E+03 -0.44803540428E+03  0.74456507150E+03  0.11082993645E+04  0.15294330000E+03 0.  0.
<mgrwt>
<rscale>  0 0.98122788E+03</rscale>
<asrwt>0</asrwt>
<pdfrwt beam="1">  1        2 0.13296786E+00 0.10413303E+04</pdfrwt>
<pdfrwt beam="2">  1       -2 0.20364326E+00 0.10413303E+04</pdfrwt>
<totfact> 0.38606765E+00</totfact>
</mgrwt>
</event>
<event>
 4    5  0.6615028E-008  0.6710161E+03  0.7818608E-02  0.1014945E+00
          2   -1    0    0  501    0  0.00000000000E+00  0.00000000000E+00  0.13207250819E+04  0.13207250819E+04  0.25500000000E-02 0. -1.
         -2   -1    0    0    0  501 -0.00000000000E+00 -0.00000000000E+00 -0.25109430640E+03  0.25109430641E+03  0.25500000000E-02 0.  1.
    8880023    1    1    2    0    0 -0.12805451600E+03 -0.73821050420E+01  0.11697207371E+04  0.13485211395E+04  0.65864270000E+03 0. -1.
    8880022    1    1    2    0    0  0.12805451600E+03  0.73821050420E+01 -0.10008996154E+03  0.22329824889E+03  0.15294330000E+03 0.  0.
<mgrwt>
<rscale>  0 0.49555885E+03</rscale>
<asrwt>0</asrwt>
<pdfrwt beam="1">  1        2 0.20318848E+00 0.67101614E+03</pdfrwt>
<pdfrwt beam="2">  1       -2 0.38629893E-01 0.67101614E+03</pdfrwt>
<totfact> 0.10415611E+02</totfact>
</mgrwt>
</event>
<event>
 4    5  0.6615028E-008  0.8897572E+03  0.7818608E-02  0.9542679E-01
          2   -1    0    0  501    0  0.00000000000E+00  0.00000000000E+00  0.10239327382E+04  0.10239327382E+04  0.25500000000E-02 0. -1.
         -2   -1    0    0    0  501 -0.00000000000E+00 -0.00000000000E+00 -0.66668870621E+03  0.66668870621E+03  0.25500000000E-02 0.  1.
    8880023    1    1    2    0    0 -0.65199786445E+02 -0.59464832929E+03  0.54726523185E+03  0.10445894351E+04  0.65864270000E+03 0. -1.
    8880022    1    1    2    0    0  0.65199786445E+02  0.59464832929E+03 -0.19002119984E+03  0.64603200933E+03  0.15294330000E+03 0.  0.
<mgrwt>
<rscale>  0 0.81209112E+03</rscale>
<asrwt>0</asrwt>
<pdfrwt beam="1">  1        2 0.15752811E+00 0.88975719E+03</pdfrwt>
<pdfrwt beam="2">  1       -2 0.10256749E+00 0.88975719E+03</pdfrwt>
<totfact> 0.18965177E+01</totfact>
</mgrwt>
</event>
<event>
 4    5  0.6615028E-008  0.9470872E+03  0.7818608E-02  0.9454317E-01
         -2   -1    0    0    0  501 -0.00000000000E+00  0.00000000000E+00  0.12714590445E+04  0.12714590445E+04  0.25500000000E-02 0.  1.
          2   -1    0    0  501    0  0.00000000000E+00 -0.00000000000E+00 -0.16856659490E+04  0.16856659490E+04  0.25500000000E-02 0. -1.
    8880023    1    1    2    0    0 -0.57595946205E+03  0.36253924980E+03 -0.14358489687E+04  0.17200687418E+04  0.65864270000E+03 0. -1.
    8880022    1    1    2    0    0  0.57595946205E+03 -0.36253924980E+03  0.10216420641E+04  0.12370562516E+04  0.15294330000E+03 0.  0.
<mgrwt>
<rscale>  0 0.87737257E+03</rscale>
<asrwt>0</asrwt>
<pdfrwt beam="1">  1        2 0.25933322E+00 0.94708723E+03</pdfrwt>
<pdfrwt beam="2">  1       -2 0.19560908E+00 0.94708723E+03</pdfrwt>
<totfact> 0.14236772E+00</totfact>
</mgrwt>
</event>
<event>
 4    5  0.6615028E-008  0.8493298E+03  0.7818608E-02  0.9612833E-01
         -2   -1    0    0    0  501 -0.00000000000E+00  0.00000000000E+00  0.59947256745E+03  0.59947256745E+03  0.25500000000E-02 0.  1.
          2   -1    0    0  501    0  0.00000000000E+00 -0.00000000000E+00 -0.15755578972E+04  0.15755578972E+04  0.25500000000E-02 0. -1.
    8880023    1    1    2    0    0 -0.70551047546E+02 -0.53157633890E+03 -0.12829035226E+04  0.15385715807E+04  0.65864270000E+03 0. -1.
    8880022    1    1    2    0    0  0.70551047546E+02  0.53157633890E+03  0.30681819290E+03  0.63645888390E+03  0.15294330000E+03 0.  0.
<mgrwt>
<rscale>  0 0.76452602E+03</rscale>
<asrwt>0</asrwt>
<pdfrwt beam="1">  1        2 0.24239352E+00 0.84932977E+03</pdfrwt>
<pdfrwt beam="2">  1       -2 0.92226549E-01 0.84932977E+03</pdfrwt>
<totfact> 0.11644649E+01</totfact>
</mgrwt>
</event>
<event>
 4    5  0.6615028E-008  0.9587377E+03  0.7818608E-02  0.9437652E-01
          2   -1    0    0  501    0  0.00000000000E+00  0.00000000000E+00  0.13481149188E+04  0.13481149188E+04  0.25500000000E-02 0. -1.
         -2   -1    0    0    0  501 -0.00000000000E+00 -0.00000000000E+00 -0.17617768575E+04  0.17617768576E+04  0.25500000000E-02 0.  1.
    8880023    1    1    2    0    0 -0.36886812815E+03 -0.59101944265E+03  0.10863631442E+04  0.14489177909E+04  0.65864270000E+03 0.  0.
    8880022    1    1    2    0    0  0.36886812815E+03  0.59101944265E+03 -0.15000250830E+04  0.16609739854E+04  0.15294330000E+03 0.  0.
<mgrwt>
<rscale>  0 0.89040766E+03</rscale>
<asrwt>0</asrwt>
<pdfrwt beam="1">  1        2 0.20740230E+00 0.95873765E+03</pdfrwt>
<pdfrwt beam="2">  1       -2 0.27104259E+00 0.95873765E+03</pdfrwt>
<totfact> 0.74517333E-01</totfact>
</mgrwt>
</event>
<event>
 4    5  0.6615028E-008  0.1457082E+04  0.7818608E-02  0.8940552E-01
          2   -1    0    0  501    0  0.00000000000E+00  0.00000000000E+00  0.36047380403E+04  0.36047380403E+04  0.25500000000E-02 0. -1.
         -2   -1    0    0    0  501 -0.00000000000E+00 -0.00000000000E+00 -0.65772335388E+03  0.65772335388E+03  0.25500000000E-02 0.  1.
    8880023    1    1    2    0    0  0.12951971228E+04 -0.10836472659E+03  0.24734537576E+04  0.28707250301E+04  0.65864270000E+03 0.  0.
    8880022    1    1    2    0    0 -0.12951971228E+04  0.10836472659E+03  0.47356092878E+03  0.13917363641E+04  0.15294330000E+03 0.  0.
<mgrwt>
<rscale>  0 0.14184769E+04</rscale>
<asrwt>0</asrwt>
<pdfrwt beam="1">  1        2 0.55457508E+00 0.14570823E+04</pdfrwt>
<pdfrwt beam="2">  1       -2 0.10118821E+00 0.14570823E+04</pdfrwt>
<totfact> 0.53266638E-01</totfact>
</mgrwt>
</event>
<event>
 4    5  0.6615028E-008  0.6699908E+03  0.7818608E-02  0.1015669E+00
         -2   -1    0    0    0  501 -0.00000000000E+00  0.00000000000E+00  0.38650830076E+04  0.38650830076E+04  0.25500000000E-02 0.  1.
          2   -1    0    0  501    0  0.00000000000E+00 -0.00000000000E+00 -0.24416847174E+03  0.24416847175E+03  0.25500000000E-02 0. -1.
    8880023    1    1    2    0    0  0.34453798793E+02 -0.11785764974E+03  0.22365532839E+03  0.70633519099E+03  0.65864270000E+03 0. -1.
    8880022    1    1    2    0    0 -0.34453798793E+02  0.11785764974E+03  0.33972592075E+04  0.34029162884E+04  0.15294330000E+03 0.  0.
<mgrwt>
<rscale>  0 0.49282270E+03</rscale>
<asrwt>0</asrwt>
<pdfrwt beam="1">  1        2 0.37564382E-01 0.66999082E+03</pdfrwt>
<pdfrwt beam="2">  1       -2 0.59462813E+00 0.66999082E+03</pdfrwt>
<totfact> 0.76248182E-02</totfact>
</mgrwt>
</event>
<event>
 4    5  0.6615028E-008  0.9681155E+03  0.7818608E-02  0.9424515E-01
         -2   -1    0    0    0  501 -0.00000000000E+00  0.00000000000E+00  0.54148232828E+03  0.54148232829E+03  0.25500000000E-02 0.  1.
          2   -1    0    0  501    0  0.00000000000E+00 -0.00000000000E+00 -0.16007025453E+04  0.16007025453E+04  0.25500000000E-02 0. -1.
    8880023    1    1    2    0    0  0.46737945694E+03 -0.53384819183E+03 -0.10331953554E+04  0.14158885187E+04  0.65864270000E+03 0.  0.
    8880022    1    1    2    0    0 -0.46737945694E+03  0.53384819183E+03 -0.26024861604E+02  0.72629635489E+03  0.15294330000E+03 0.  0.
<mgrwt>
<rscale>  0 0.90085337E+03</rscale>
<asrwt>0</asrwt>
<pdfrwt beam="1">  1        2 0.24626193E+00 0.96811552E+03</pdfrwt>
<pdfrwt beam="2">  1       -2 0.83304974E-01 0.96811552E+03</pdfrwt>
<totfact> 0.14065032E+01</totfact>
</mgrwt>
</event>
<event>
 4    5  0.6615028E-008  0.6845423E+03  0.7818608E-02  0.1006863E+00
         -2   -1    0    0    0  501 -0.00000000000E+00  0.00000000000E+00  0.90849590441E+03  0.90849590441E+03  0.25500000000E-02 0.  1.
          2   -1    0    0  501    0  0.00000000000E+00 -0.00000000000E+00 -0.69491434817E+03  0.69491434817E+03  0.25500000000E-02 0. -1.
    8880023    1    1    2    0    0 -0.15863972899E+03 -0.98088843970E+02 -0.50160178344E+03  0.84864747707E+03  0.65864270000E+03 0. -1.
    8880022    1    1    2    0    0  0.15863972899E+03  0.98088843970E+02  0.71518333968E+03  0.75476277552E+03  0.15294330000E+03 0.  0.
<mgrwt>
<rscale>  0 0.52740787E+03</rscale>
<asrwt>0</asrwt>
<pdfrwt beam="1">  1        2 0.10690990E+00 0.68454232E+03</pdfrwt>
<pdfrwt beam="2">  1       -2 0.13976860E+00 0.68454232E+03</pdfrwt>
<totfact> 0.15237487E+01</totfact>
</mgrwt>
</event>
<event>
 4    5  0.6615028E-008  0.7380677E+03  0.7818608E-02  0.9865612E-01
         -2   -1    0    0    0  501 -0.00000000000E+00  0.00000000000E+00  0.37714637463E+03  0.37714637464E+03  0.25500000000E-02 0.  1.
          2   -1    0    0  501    0  0.00000000000E+00 -0.00000000000E+00 -0.15693659094E+04  0.15693659094E+04  0.25500000000E-02 0. -1.
    8880023    1    1    2    0    0  0.33122082549E+03  0.35020335919E+02 -0.13569522389E+04  0.15446887208E+04  0.65864270000E+03 0. -1.
    8880022    1    1    2    0    0 -0.33122082549E+03 -0.35020335919E+02  0.16473270414E+03  0.40182356326E+03  0.15294330000E+03 0.  0.
<mgrwt>
<rscale>  0 0.61957211E+03</rscale>
<asrwt>0</asrwt>
<pdfrwt beam="1">  1        2 0.24144091E+00 0.73806766E+03</pdfrwt>
<pdfrwt beam="2">  1       -2 0.58022520E-01 0.73806766E+03</pdfrwt>
<totfact> 0.33075200E+01</totfact>
</mgrwt>
</event>
<event>
 4    5  0.6615028E-008  0.9640024E+03  0.7818608E-02  0.9430248E-01
         -2   -1    0    0    0  501 -0.00000000000E+00  0.00000000000E+00  0.10481297708E+04  0.10481297708E+04  0.25500000000E-02 0.  1.
          2   -1    0    0  501    0  0.00000000000E+00 -0.00000000000E+00 -0.23324162867E+04  0.23324162867E+04  0.25500000000E-02 0. -1.
    8880023    1    1    2    0    0 -0.43265898522E+03  0.55524465340E+03 -0.20888938782E+04  0.23006038910E+04  0.65864270000E+03 0. -1.
    8880022    1    1    2    0    0  0.43265898522E+03 -0.55524465340E+03  0.80460736227E+03  0.10799421665E+04  0.15294330000E+03 0.  0.
<mgrwt>
<rscale>  0 0.89627683E+03</rscale>
<asrwt>0</asrwt>
<pdfrwt beam="1">  1        2 0.35883327E+00 0.96400240E+03</pdfrwt>
<pdfrwt beam="2">  1       -2 0.16125073E+00 0.96400240E+03</pdfrwt>
<totfact> 0.10803962E+00</totfact>
</mgrwt>
</event>
<event>
 4    5  0.6615028E-008  0.7608869E+03  0.7818608E-02  0.9802817E-01
         -2   -1    0    0    0  501 -0.00000000000E+00  0.00000000000E+00  0.21475977200E+03  0.21475977202E+03  0.25500000000E-02 0.  1.
          2   -1    0    0  501    0  0.00000000000E+00 -0.00000000000E+00 -0.23411010683E+04  0.23411010683E+04  0.25500000000E-02 0. -1.
    8880023    1    1    2    0    0 -0.33557443362E+03  0.18035664478E+03 -0.19780960259E+04  0.21193897267E+04  0.65864270000E+03 0. -1.
    8880022    1    1    2    0    0  0.33557443362E+03 -0.18035664478E+03 -0.14824527043E+03  0.43647111363E+03  0.15294330000E+03 0.  0.
<mgrwt>
<rscale>  0 0.65211602E+03</rscale>
<asrwt>0</asrwt>
<pdfrwt beam="1">  1        2 0.36016938E+00 0.76088693E+03</pdfrwt>
<pdfrwt beam="2">  1       -2 0.33039967E-01 0.76088693E+03</pdfrwt>
<totfact> 0.38084255E+01</totfact>
</mgrwt>
</event>
<event>
 4    5  0.6615028E-008  0.7190584E+03  0.7818608E-02  0.9925785E-01
         -2   -1    0    0    0  501 -0.00000000000E+00  0.00000000000E+00  0.63068401174E+03  0.63068401175E+03  0.25500000000E-02 0.  1.
          2   -1    0    0  501    0  0.00000000000E+00 -0.00000000000E+00 -0.41387841246E+04  0.41387841246E+04  0.25500000000E-02 0. -1.
    8880023    1    1    2    0    0  0.98751099483E+02  0.27107744588E+03 -0.40627195741E+04  0.41258617652E+04  0.65864270000E+03 0. -1.
    8880022    1    1    2    0    0 -0.98751099483E+02 -0.27107744588E+03  0.55461946120E+03  0.64360637121E+03  0.15294330000E+03 0.  0.
<mgrwt>
<rscale>  0 0.59027749E+03</rscale>
<asrwt>0</asrwt>
<pdfrwt beam="1">  1        2 0.63673600E+00 0.71905839E+03</pdfrwt>
<pdfrwt beam="2">  1       -2 0.97028312E-01 0.71905839E+03</pdfrwt>
<totfact> 0.26353163E-01</totfact>
</mgrwt>
</event>
<event>
 4    5  0.6615028E-008  0.6701115E+03  0.7818608E-02  0.1015583E+00
         -2   -1    0    0    0  501 -0.00000000000E+00  0.00000000000E+00  0.15762543415E+03  0.15762543417E+03  0.25500000000E-02 0.  1.
          2   -1    0    0  501    0  0.00000000000E+00 -0.00000000000E+00 -0.24655487657E+04  0.24655487657E+04  0.25500000000E-02 0. -1.
    8880023    1    1    2    0    0 -0.86409654966E+02 -0.88162294208E+02 -0.23308769320E+04  0.24252910541E+04  0.65864270000E+03 0. -1.
    8880022    1    1    2    0    0  0.86409654966E+02  0.88162294208E+02  0.22953600479E+02  0.19788314577E+03  0.15294330000E+03 0.  0.
<mgrwt>
<rscale>  0 0.49314782E+03</rscale>
<asrwt>0</asrwt>
<pdfrwt beam="1">  1        2 0.37931517E+00 0.67011150E+03</pdfrwt>
<pdfrwt beam="2">  1       -2 0.24250069E-01 0.67011150E+03</pdfrwt>
<totfact> 0.58000022E+01</totfact>
</mgrwt>
</event>
<event>
 4    5  0.6615028E-008  0.1122468E+04  0.7818608E-02  0.9236443E-01
         -2   -1    0    0    0  501 -0.00000000000E+00  0.00000000000E+00  0.88965394771E+03  0.88965394772E+03  0.25500000000E-02 0.  1.
          2   -1    0    0  501    0  0.00000000000E+00 -0.00000000000E+00 -0.18927544715E+04  0.18927544715E+04  0.25500000000E-02 0. -1.
    8880023    1    1    2    0    0 -0.89164354533E+03  0.17634298772E+03 -0.13867142866E+04  0.17840716858E+04  0.65864270000E+03 0.  0.
    8880022    1    1    2    0    0  0.89164354533E+03 -0.17634298772E+03  0.38361376280E+03  0.99833673341E+03  0.15294330000E+03 0.  0.
<mgrwt>
<rscale>  0 0.10685063E+04</rscale>
<asrwt>0</asrwt>
<pdfrwt beam="1">  1        2 0.29119300E+00 0.11224684E+04</pdfrwt>
<pdfrwt beam="2">  1       -2 0.13686984E+00 0.11224684E+04</pdfrwt>
<totfact> 0.28669502E+00</totfact>
</mgrwt>
</event>
<event>
 4    5  0.6615028E-008  0.1040507E+04  0.7818608E-02  0.9330381E-01
          2   -1    0    0  501    0  0.00000000000E+00  0.00000000000E+00  0.21424535354E+04  0.21424535354E+04  0.25500000000E-02 0. -1.
         -2   -1    0    0    0  501 -0.00000000000E+00 -0.00000000000E+00 -0.82048863533E+03  0.82048863533E+03  0.25500000000E-02 0.  1.
    8880023    1    1    2    0    0 -0.61212502024E+03  0.52359054308E+03  0.17515657803E+04  0.20373112148E+04  0.65864270000E+03 0.  0.
    8880022    1    1    2    0    0  0.61212502024E+03 -0.52359054308E+03 -0.42960088021E+03  0.92563095589E+03  0.15294330000E+03 0.  0.
<mgrwt>
<rscale>  0 0.98033358E+03</rscale>
<asrwt>0</asrwt>
<pdfrwt beam="1">  1        2 0.32960823E+00 0.10405068E+04</pdfrwt>
<pdfrwt beam="2">  1       -2 0.12622902E+00 0.10405068E+04</pdfrwt>
<totfact> 0.25902526E+00</totfact>
</mgrwt>
</event>
<event>
 4    5  0.6615028E-008  0.7424829E+03  0.7818608E-02  0.9852773E-01
          2   -1    0    0  501    0  0.00000000000E+00  0.00000000000E+00  0.24497053782E+04  0.24497053782E+04  0.25500000000E-02 0. -1.
         -2   -1    0    0    0  501 -0.00000000000E+00 -0.00000000000E+00 -0.17817722166E+03  0.17817722168E+03  0.25500000000E-02 0.  1.
    8880023    1    1    2    0    0  0.16896012096E+03 -0.29819982319E+03  0.20758073760E+04  0.22045990850E+04  0.65864270000E+03 0.  0.
    8880022    1    1    2    0    0 -0.16896012096E+03  0.29819982319E+03  0.19572078052E+03  0.42328351488E+03  0.15294330000E+03 0.  0.
<mgrwt>
<rscale>  0 0.62605746E+03</rscale>
<asrwt>0</asrwt>
<pdfrwt beam="1">  1        2 0.37687775E+00 0.74248290E+03</pdfrwt>
<pdfrwt beam="2">  1       -2 0.27411880E-01 0.74248290E+03</pdfrwt>
<totfact> 0.46942679E+01</totfact>
</mgrwt>
</event>
<event>
 4    5  0.6615028E-008  0.1029522E+04  0.7818608E-02  0.9343914E-01
         -2   -1    0    0    0  501 -0.00000000000E+00  0.00000000000E+00  0.41384911234E+03  0.41384911235E+03  0.25500000000E-02 0.  1.
          2   -1    0    0  501    0  0.00000000000E+00 -0.00000000000E+00 -0.25715412402E+04  0.25715412402E+04  0.25500000000E-02 0. -1.
    8880023    1    1    2    0    0 -0.20146395867E+03 -0.76519084862E+03 -0.18606390100E+04  0.21264741929E+04  0.65864270000E+03 0. -1.
    8880022    1    1    2    0    0  0.20146395867E+03  0.76519084862E+03 -0.29705311791E+03  0.85891615966E+03  0.15294330000E+03 0.  0.
<mgrwt>
<rscale>  0 0.96838651E+03</rscale>
<asrwt>0</asrwt>
<pdfrwt beam="1">  1        2 0.39562172E+00 0.10295217E+04</pdfrwt>
<pdfrwt beam="2">  1       -2 0.63669096E-01 0.10295217E+04</pdfrwt>
<totfact> 0.72837796E+00</totfact>
</mgrwt>
</event>
<event>
 4    5  0.6615028E-008  0.9971619E+03  0.7818608E-02  0.9385280E-01
         -2   -1    0    0    0  501 -0.00000000000E+00  0.00000000000E+00  0.10069060541E+04  0.10069060541E+04  0.25500000000E-02 0.  1.
          2   -1    0    0  501    0  0.00000000000E+00 -0.00000000000E+00 -0.17502930198E+04  0.17502930198E+04  0.25500000000E-02 0. -1.
    8880023    1    1    2    0    0 -0.60293577205E+03 -0.44383561174E+03 -0.14209495717E+04  0.17359232377E+04  0.65864270000E+03 0.  0.
    8880022    1    1    2    0    0  0.60293577205E+03  0.44383561174E+03  0.67756260610E+03  0.10212758362E+04  0.15294330000E+03 0.  0.
<mgrwt>
<rscale>  0 0.93297024E+03</rscale>
<asrwt>0</asrwt>
<pdfrwt beam="1">  1        2 0.26927585E+00 0.99716187E+03</pdfrwt>
<pdfrwt beam="2">  1       -2 0.15490862E+00 0.99716187E+03</pdfrwt>
<totfact> 0.25158665E+00</totfact>
</mgrwt>
</event>
<event>
 4    5  0.6615028E-008  0.7486718E+03  0.7818608E-02  0.9835370E-01
         -2   -1    0    0    0  501 -0.00000000000E+00  0.00000000000E+00  0.80118186480E+03  0.80118186481E+03  0.25500000000E-02 0.  1.
          2   -1    0    0  501    0  0.00000000000E+00 -0.00000000000E+00 -0.83344142928E+03  0.83344142928E+03  0.25500000000E-02 0. -1.
    8880023    1    1    2    0    0  0.43316140813E+02  0.35330299260E+03 -0.59161093850E+03  0.95420804935E+03  0.65864270000E+03 0.  0.
    8880022    1    1    2    0    0 -0.43316140813E+02 -0.35330299260E+03  0.55935137402E+03  0.68041524474E+03  0.15294330000E+03 0.  0.
<mgrwt>
<rscale>  0 0.63498421E+03</rscale>
<asrwt>0</asrwt>
<pdfrwt beam="1">  1        2 0.12822176E+00 0.74867182E+03</pdfrwt>
<pdfrwt beam="2">  1       -2 0.12325875E+00 0.74867182E+03</pdfrwt>
<totfact> 0.16438326E+01</totfact>
</mgrwt>
</event>
<event>
 4    5  0.6615028E-008  0.1468101E+04  0.7818608E-02  0.8932496E-01
         -2   -1    0    0    0  501 -0.00000000000E+00  0.00000000000E+00  0.20652907327E+04  0.20652907327E+04  0.25500000000E-02 0.  1.
          2   -1    0    0  501    0  0.00000000000E+00 -0.00000000000E+00 -0.10602802970E+04  0.10602802970E+04  0.25500000000E-02 0. -1.
    8880023    1    1    2    0    0 -0.10339754019E+04  0.80771550829E+03  0.38661530133E+01  0.14681057957E+04  0.65864270000E+03 0.  0.
    8880022    1    1    2    0    0  0.10339754019E+04 -0.80771550829E+03  0.10011442827E+04  0.16574652340E+04  0.15294330000E+03 0.  0.
<mgrwt>
<rscale>  0 0.14298426E+04</rscale>
<asrwt>0</asrwt>
<pdfrwt beam="1">  1        2 0.16312005E+00 0.14681007E+04</pdfrwt>
<pdfrwt beam="2">  1       -2 0.31773703E+00 0.14681007E+04</pdfrwt>
<totfact> 0.54194224E-01</totfact>
</mgrwt>
</event>
<event>
 4    5  0.6615028E-008  0.7136022E+03  0.7818608E-02  0.9944860E-01
          2   -1    0    0  501    0  0.00000000000E+00  0.00000000000E+00  0.23325526653E+04  0.23325526653E+04  0.25500000000E-02 0. -1.
         -2   -1    0    0    0  501 -0.00000000000E+00 -0.00000000000E+00 -0.16996914310E+03  0.16996914312E+03  0.25500000000E-02 0.  1.
    8880023    1    1    2    0    0 -0.21695491927E+03 -0.16837016370E+03  0.20466436293E+04  0.21674820186E+04  0.65864270000E+03 0. -1.
    8880022    1    1    2    0    0  0.21695491927E+03  0.16837016370E+03  0.11593989287E+03  0.33503978987E+03  0.15294330000E+03 0.  0.
<mgrwt>
<rscale>  0 0.58135585E+03</rscale>
<asrwt>0</asrwt>
<pdfrwt beam="1">  1        2 0.35885423E+00 0.71360224E+03</pdfrwt>
<pdfrwt beam="2">  1       -2 0.26149101E-01 0.71360224E+03</pdfrwt>
<totfact> 0.59721142E+01</totfact>
</mgrwt>
</event>
<event>
 4    5  0.6615028E-008  0.7341106E+03  0.7818608E-02  0.9877447E-01
          2   -1    0    0  501    0  0.00000000000E+00  0.00000000000E+00  0.19781522351E+04  0.19781522351E+04  0.25500000000E-02 0. -1.
         -2   -1    0    0    0  501 -0.00000000000E+00 -0.00000000000E+00 -0.27998032247E+03  0.27998032248E+03  0.25500000000E-02 0.  1.
    8880023    1    1    2    0    0  0.61500937193E+02  0.31831703777E+03  0.17483030000E+04  0.18961755425E+04  0.65864270000E+03 0.  0.
    8880022    1    1    2    0    0 -0.61500937193E+02 -0.31831703777E+03 -0.50131087415E+02  0.36195701506E+03  0.15294330000E+03 0.  0.
<mgrwt>
<rscale>  0 0.61366858E+03</rscale>
<asrwt>0</asrwt>
<pdfrwt beam="1">  1        2 0.30433111E+00 0.73411056E+03</pdfrwt>
<pdfrwt beam="2">  1       -2 0.43073897E-01 0.73411056E+03</pdfrwt>
<totfact> 0.36281011E+01</totfact>
</mgrwt>
</event>
<event>
 4    5  0.6615028E-008  0.7026516E+03  0.7818608E-02  0.9986374E-01
          2   -1    0    0  501    0  0.00000000000E+00  0.00000000000E+00  0.13169518445E+04  0.13169518445E+04  0.25500000000E-02 0. -1.
         -2   -1    0    0    0  501 -0.00000000000E+00 -0.00000000000E+00 -0.12786971098E+04  0.12786971098E+04  0.25500000000E-02 0.  1.
    8880023    1    1    2    0    0 -0.17506193584E+03 -0.17106247956E+03  0.12043657399E+04  0.13943514962E+04  0.65864270000E+03 0.  0.
    8880022    1    1    2    0    0  0.17506193584E+03  0.17106247956E+03 -0.11661110052E+04  0.12012974581E+04  0.15294330000E+03 0.  1.
<mgrwt>
<rscale>  0 0.56251760E+03</rscale>
<asrwt>0</asrwt>
<pdfrwt beam="1">  1        2 0.20260798E+00 0.70265159E+03</pdfrwt>
<pdfrwt beam="2">  1       -2 0.19672263E+00 0.70265159E+03</pdfrwt>
<totfact> 0.23422576E+00</totfact>
</mgrwt>
</event>
<event>
 4    5  0.6615028E-008  0.7599103E+03  0.7818608E-02  0.9805340E-01
         -2   -1    0    0    0  501 -0.00000000000E+00  0.00000000000E+00  0.10536018392E+04  0.10536018392E+04  0.25500000000E-02 0.  1.
          2   -1    0    0  501    0  0.00000000000E+00 -0.00000000000E+00 -0.18652305427E+04  0.18652305427E+04  0.25500000000E-02 0. -1.
    8880023    1    1    2    0    0  0.37606061195E+03 -0.47241979707E+02 -0.17431526600E+04  0.19015900691E+04  0.65864270000E+03 0. -1.
    8880022    1    1    2    0    0 -0.37606061195E+03  0.47241979707E+02  0.93152395645E+03  0.10172423128E+04  0.15294330000E+03 0.  0.
<mgrwt>
<rscale>  0 0.65076761E+03</rscale>
<asrwt>0</asrwt>
<pdfrwt beam="1">  1        2 0.28695855E+00 0.75991025E+03</pdfrwt>
<pdfrwt beam="2">  1       -2 0.16209259E+00 0.75991025E+03</pdfrwt>
<totfact> 0.19950963E+00</totfact>
</mgrwt>
</event>
<event>
 4    5  0.6615028E-008  0.1652271E+04  0.7818608E-02  0.8808982E-01
          2   -1    0    0  501    0  0.00000000000E+00  0.00000000000E+00  0.19308766573E+04  0.19308766573E+04  0.25500000000E-02 0. -1.
         -2   -1    0    0    0  501 -0.00000000000E+00 -0.00000000000E+00 -0.14404164089E+04  0.14404164089E+04  0.25500000000E-02 0.  1.
    8880023    1    1    2    0    0 -0.40085471661E+02 -0.15147880045E+04 -0.26136693187E+03  0.16728157170E+04  0.65864270000E+03 0.  1.
    8880022    1    1    2    0    0  0.40085471661E+02  0.15147880045E+04  0.75182718028E+03  0.16984773492E+04  0.15294330000E+03 0.  0.
<mgrwt>
<rscale>  0 0.16189639E+04</rscale>
<asrwt>0</asrwt>
<pdfrwt beam="1">  1        2 0.29705795E+00 0.16522711E+04</pdfrwt>
<pdfrwt beam="2">  1       -2 0.22160253E+00 0.16522711E+04</pdfrwt>
<totfact> 0.65174644E-01</totfact>
</mgrwt>
</event>
<event>
 4    5  0.6615028E-008  0.9955266E+03  0.7818608E-02  0.9387434E-01
         -2   -1    0    0    0  501 -0.00000000000E+00  0.00000000000E+00  0.11426423718E+04  0.11426423718E+04  0.25500000000E-02 0.  1.
          2   -1    0    0  501    0  0.00000000000E+00 -0.00000000000E+00 -0.10999852184E+04  0.10999852184E+04  0.25500000000E-02 0. -1.
    8880023    1    1    2    0    0  0.62680727644E+03  0.40543261674E+03 -0.66944407042E+03  0.11996785145E+04  0.65864270000E+03 0.  0.
    8880022    1    1    2    0    0 -0.62680727644E+03 -0.40543261674E+03  0.71210122383E+03  0.10429490757E+04  0.15294330000E+03 0.  0.
<mgrwt>
<rscale>  0 0.93117087E+03</rscale>
<asrwt>0</asrwt>
<pdfrwt beam="1">  1        2 0.16922849E+00 0.99552658E+03</pdfrwt>
<pdfrwt beam="2">  1       -2 0.17579113E+00 0.99552658E+03</pdfrwt>
<totfact> 0.41911085E+00</totfact>
</mgrwt>
</event>
<event>
 4    5  0.6615028E-008  0.6650359E+03  0.7818608E-02  0.1019503E+00
         -2   -1    0    0    0  501 -0.00000000000E+00  0.00000000000E+00  0.89003869054E+03  0.89003869054E+03  0.25500000000E-02 0.  1.
          2   -1    0    0  501    0  0.00000000000E+00 -0.00000000000E+00 -0.38460415876E+03  0.38460415877E+03  0.25500000000E-02 0. -1.
    8880023    1    1    2    0    0 -0.72551814510E+02  0.56557909515E+02 -0.73252524067E+02  0.66905807032E+03  0.65864270000E+03 0. -1.
    8880022    1    1    2    0    0  0.72551814510E+02 -0.56557909515E+02  0.57868705585E+03  0.60558477899E+03  0.15294330000E+03 0.  0.
<mgrwt>
<rscale>  0 0.47866281E+03</rscale>
<asrwt>0</asrwt>
<pdfrwt beam="1">  1        2 0.59169871E-01 0.66503592E+03</pdfrwt>
<pdfrwt beam="2">  1       -2 0.13692903E+00 0.66503592E+03</pdfrwt>
<totfact> 0.32204090E+01</totfact>
</mgrwt>
</event>
<event>
 4    5  0.6615028E-008  0.1055922E+04  0.7818608E-02  0.9311796E-01
         -2   -1    0    0    0  501 -0.00000000000E+00  0.00000000000E+00  0.28229680531E+04  0.28229680531E+04  0.25500000000E-02 0.  1.
          2   -1    0    0  501    0  0.00000000000E+00 -0.00000000000E+00 -0.18383083236E+04  0.18383083236E+04  0.25500000000E-02 0. -1.
    8880023    1    1    2    0    0  0.12374435327E+03 -0.81599562842E+03 -0.16149485910E+04  0.19295156617E+04  0.65864270000E+03 0.  0.
    8880022    1    1    2    0    0 -0.12374435327E+03  0.81599562842E+03  0.25996083206E+04  0.27317607150E+04  0.15294330000E+03 0.  0.
<mgrwt>
<rscale>  0 0.99704135E+03</rscale>
<asrwt>0</asrwt>
<pdfrwt beam="1">  1        2 0.28281667E+00 0.10559222E+04</pdfrwt>
<pdfrwt beam="2">  1       -2 0.43430277E+00 0.10559222E+04</pdfrwt>
<totfact> 0.36621024E-02</totfact>
</mgrwt>
</event>
<event>
 4    5  0.6615028E-008  0.8907136E+03  0.7818608E-02  0.9541107E-01
          2   -1    0    0  501    0  0.00000000000E+00  0.00000000000E+00  0.24819156896E+04  0.24819156896E+04  0.25500000000E-02 0. -1.
         -2   -1    0    0    0  501 -0.00000000000E+00 -0.00000000000E+00 -0.35085626542E+03  0.35085626543E+03  0.25500000000E-02 0.  1.
    8880023    1    1    2    0    0  0.59110440750E+03 -0.10077714690E+03  0.20150872996E+04  0.22031676026E+04  0.65864270000E+03 0.  0.
    8880022    1    1    2    0    0 -0.59110440750E+03  0.10077714690E+03  0.11597212457E+03  0.62960435243E+03  0.15294330000E+03 0.  0.
<mgrwt>
<rscale>  0 0.81319857E+03</rscale>
<asrwt>0</asrwt>
<pdfrwt beam="1">  1        2 0.38183317E+00 0.89071357E+03</pdfrwt>
<pdfrwt beam="2">  1       -2 0.53977889E-01 0.89071357E+03</pdfrwt>
<totfact> 0.11825740E+01</totfact>
</mgrwt>
</event>
<event>
 4    5  0.6615028E-008  0.6835352E+03  0.7818608E-02  0.1007391E+00
          2   -1    0    0  501    0  0.00000000000E+00  0.00000000000E+00  0.14090860940E+04  0.14090860940E+04  0.25500000000E-02 0. -1.
         -2   -1    0    0    0  501 -0.00000000000E+00 -0.00000000000E+00 -0.46214056259E+03  0.46214056260E+03  0.25500000000E-02 0.  1.
    8880023    1    1    2    0    0  0.58056332993E+02 -0.17331926816E+03  0.12862449442E+04  0.14565872336E+04  0.65864270000E+03 0. -1.
    8880022    1    1    2    0    0 -0.58056332993E+02  0.17331926816E+03 -0.33929941279E+03  0.41463942293E+03  0.15294330000E+03 0.  0.
<mgrwt>
<rscale>  0 0.52524977E+03</rscale>
<asrwt>0</asrwt>
<pdfrwt beam="1">  1        2 0.21678247E+00 0.68353516E+03</pdfrwt>
<pdfrwt beam="2">  1       -2 0.71098549E-01 0.68353516E+03</pdfrwt>
<totfact> 0.26463236E+01</totfact>
</mgrwt>
</event>
<event>
 4    5  0.6615028E-008  0.1080701E+04  0.7818608E-02  0.9282853E-01
         -2   -1    0    0    0  501 -0.00000000000E+00  0.00000000000E+00  0.44841335372E+03  0.44841335373E+03  0.25500000000E-02 0.  1.
          2   -1    0    0  501    0  0.00000000000E+00 -0.00000000000E+00 -0.26120362739E+04  0.26120362739E+04  0.25500000000E-02 0. -1.
    8880023    1    1    2    0    0 -0.67111687968E+03 -0.53264206326E+03 -0.18360716157E+04  0.21305104125E+04  0.65864270000E+03 0.  0.
    8880022    1    1    2    0    0  0.67111687968E+03  0.53264206326E+03 -0.32755130454E+03  0.92993921514E+03  0.15294330000E+03 0.  0.
<mgrwt>
<rscale>  0 0.10237689E+04</rscale>
<asrwt>0</asrwt>
<pdfrwt beam="1">  1        2 0.40185172E+00 0.10807015E+04</pdfrwt>
<pdfrwt beam="2">  1       -2 0.68986672E-01 0.10807015E+04</pdfrwt>
<totfact> 0.57631200E+00</totfact>
</mgrwt>
</event>
<event>
 4    5  0.6615028E-008  0.1594250E+04  0.7818608E-02  0.8845799E-01
         -2   -1    0    0    0  501 -0.00000000000E+00  0.00000000000E+00  0.21750772086E+04  0.21750772086E+04  0.25500000000E-02 0.  1.
          2   -1    0    0  501    0  0.00000000000E+00 -0.00000000000E+00 -0.13514419078E+04  0.13514419078E+04  0.25500000000E-02 0. -1.
    8880023    1    1    2    0    0 -0.14478895991E+04 -0.10695691992E+03  0.12272213715E+04  0.20118912930E+04  0.65864270000E+03 0.  0.
    8880022    1    1    2    0    0  0.14478895991E+04  0.10695691992E+03 -0.40358607059E+03  0.15146278234E+04  0.15294330000E+03 0.  0.
<mgrwt>
<rscale>  0 0.15595375E+04</rscale>
<asrwt>0</asrwt>
<pdfrwt beam="1">  1        2 0.20791414E+00 0.15942504E+04</pdfrwt>
<pdfrwt beam="2">  1       -2 0.33462726E+00 0.15942504E+04</pdfrwt>
<totfact> 0.28000665E-01</totfact>
</mgrwt>
</event>
<event>
 4    5  0.6615028E-008  0.7321482E+03  0.7818608E-02  0.9883439E-01
         -2   -1    0    0    0  501 -0.00000000000E+00  0.00000000000E+00  0.86819288190E+03  0.86819288190E+03  0.25500000000E-02 0.  1.
          2   -1    0    0  501    0  0.00000000000E+00 -0.00000000000E+00 -0.10459820922E+04  0.10459820922E+04  0.25500000000E-02 0. -1.
    8880023    1    1    2    0    0 -0.13738878625E+03  0.28871276903E+03 -0.86965229708E+03  0.11368095996E+04  0.65864270000E+03 0. -1.
    8880022    1    1    2    0    0  0.13738878625E+03 -0.28871276903E+03  0.69186308681E+03  0.77736537451E+03  0.15294330000E+03 0.  0.
<mgrwt>
<rscale>  0 0.61070661E+03</rscale>
<asrwt>0</asrwt>
<pdfrwt beam="1">  1        2 0.16092032E+00 0.73214817E+03</pdfrwt>
<pdfrwt beam="2">  1       -2 0.13356814E+00 0.73214817E+03</pdfrwt>
<totfact> 0.97392654E+00</totfact>
</mgrwt>
</event>
<event>
 4    5  0.6615028E-008  0.7078063E+03  0.7818608E-02  0.9966239E-01
         -2   -1    0    0    0  501 -0.00000000000E+00  0.00000000000E+00  0.72319053833E+03  0.72319053834E+03  0.25500000000E-02 0.  1.
          2   -1    0    0  501    0  0.00000000000E+00 -0.00000000000E+00 -0.10588163908E+04  0.10588163908E+04  0.25500000000E-02 0. -1.
    8880023    1    1    2    0    0 -0.24004190277E+01  0.25917905969E+03 -0.89845396060E+03  0.11437697638E+04  0.65864270000E+03 0. -1.
    8880022    1    1    2    0    0  0.24004190277E+01 -0.25917905969E+03  0.56282810810E+03  0.63823716538E+03  0.15294330000E+03 0.  0.
<mgrwt>
<rscale>  0 0.57155704E+03</rscale>
<asrwt>0</asrwt>
<pdfrwt beam="1">  1        2 0.16289483E+00 0.70780630E+03</pdfrwt>
<pdfrwt beam="2">  1       -2 0.11126008E+00 0.70780630E+03</pdfrwt>
<totfact> 0.15103052E+01</totfact>
</mgrwt>
</event>
<event>
 4    5  0.6615028E-008  0.1347816E+04  0.7818608E-02  0.9025330E-01
         -2   -1    0    0    0  501 -0.00000000000E+00  0.00000000000E+00  0.96960460348E+03  0.96960460348E+03  0.25500000000E-02 0.  1.
          2   -1    0    0  501    0  0.00000000000E+00 -0.00000000000E+00 -0.22026355958E+04  0.22026355958E+04  0.25500000000E-02 0. -1.
    8880023    1    1    2    0    0  0.11735840444E+04 -0.74149263736E+02 -0.14356928171E+04  0.19692185491E+04  0.65864270000E+03 0.  0.
    8880022    1    1    2    0    0 -0.11735840444E+04  0.74149263736E+02  0.20266182479E+03  0.12030216502E+04  0.15294330000E+03 0.  0.
<mgrwt>
<rscale>  0 0.13053543E+04</rscale>
<asrwt>0</asrwt>
<pdfrwt beam="1">  1        2 0.33886701E+00 0.13478159E+04</pdfrwt>
<pdfrwt beam="2">  1       -2 0.14916994E+00 0.13478159E+04</pdfrwt>
<totfact> 0.15004294E+00</totfact>
</mgrwt>
</event>
<event>
 4    5  0.6615028E-008  0.7116655E+03  0.7818608E-02  0.9951867E-01
          2   -1    0    0  501    0  0.00000000000E+00  0.00000000000E+00  0.29464413032E+04  0.29464413032E+04  0.25500000000E-02 0. -1.
         -2   -1    0    0    0  501 -0.00000000000E+00 -0.00000000000E+00 -0.19768576198E+03  0.19768576200E+03  0.25500000000E-02 0.  1.
    8880023    1    1    2    0    0 -0.26617743880E+03 -0.42511173291E+02  0.27433566299E+04  0.28341618574E+04  0.65864270000E+03 0. -1.
    8880022    1    1    2    0    0  0.26617743880E+03  0.42511173291E+02  0.53989112914E+01  0.30996520779E+03  0.15294330000E+03 0.  0.
<mgrwt>
<rscale>  0 0.57812096E+03</rscale>
<asrwt>0</asrwt>
<pdfrwt beam="1">  1        2 0.45329861E+00 0.71166554E+03</pdfrwt>
<pdfrwt beam="2">  1       -2 0.30413197E-01 0.71166554E+03</pdfrwt>
<totfact> 0.20003826E+01</totfact>
</mgrwt>
</event>
<event>
 4    5  0.6615028E-008  0.7464098E+03  0.7818608E-02  0.9841654E-01
          2   -1    0    0  501    0  0.00000000000E+00  0.00000000000E+00  0.24782794149E+04  0.24782794149E+04  0.25500000000E-02 0. -1.
         -2   -1    0    0    0  501 -0.00000000000E+00 -0.00000000000E+00 -0.20570742463E+03  0.20570742464E+03  0.25500000000E-02 0.  1.
    8880023    1    1    2    0    0 -0.31648905587E+03 -0.15215778564E+03  0.21591423086E+04  0.22845181175E+04  0.65864270000E+03 0. -1.
    8880022    1    1    2    0    0  0.31648905587E+03  0.15215778564E+03  0.11342968174E+03  0.39946872209E+03  0.15294330000E+03 0.  0.
<mgrwt>
<rscale>  0 0.63174245E+03</rscale>
<asrwt>0</asrwt>
<pdfrwt beam="1">  1        2 0.38127375E+00 0.74640975E+03</pdfrwt>
<pdfrwt beam="2">  1       -2 0.31647297E-01 0.74640975E+03</pdfrwt>
<totfact> 0.34651626E+01</totfact>
</mgrwt>
</event>
<event>
 4    5  0.6615028E-008  0.7020893E+03  0.7818608E-02  0.9988642E-01
          2   -1    0    0  501    0  0.00000000000E+00  0.00000000000E+00  0.20769648671E+04  0.20769648671E+04  0.25500000000E-02 0. -1.
         -2   -1    0    0    0  501 -0.00000000000E+00 -0.00000000000E+00 -0.12494785407E+03  0.12494785409E+03  0.25500000000E-02 0.  1.
    8880023    1    1    2    0    0 -0.24156708883E+03 -0.27650043323E+02  0.11216322904E+04  0.13232491770E+04  0.65864270000E+03 0. -1.
    8880022    1    1    2    0    0  0.24156708883E+03  0.27650043323E+02  0.83038472264E+03  0.87866354420E+03  0.15294330000E+03 0.  1.
<mgrwt>
<rscale>  0 0.56151083E+03</rscale>
<asrwt>0</asrwt>
<pdfrwt beam="1">  1        2 0.31953305E+00 0.70208930E+03</pdfrwt>
<pdfrwt beam="2">  1       -2 0.19222747E-01 0.70208930E+03</pdfrwt>
<totfact> 0.14282301E+02</totfact>
</mgrwt>
</event>
<event>
 4    5  0.6615028E-008  0.1282952E+04  0.7818608E-02  0.9080423E-01
         -2   -1    0    0    0  501 -0.00000000000E+00  0.00000000000E+00  0.46265032706E+03  0.46265032707E+03  0.25500000000E-02 0.  1.
          2   -1    0    0  501    0  0.00000000000E+00 -0.00000000000E+00 -0.30989486683E+04  0.30989486683E+04  0.25500000000E-02 0. -1.
    8880023    1    1    2    0    0  0.56322848170E+03  0.94600703091E+03 -0.13860468246E+04  0.18886745700E+04  0.65864270000E+03 0.  0.
    8880022    1    1    2    0    0 -0.56322848170E+03 -0.94600703091E+03 -0.12502515167E+04  0.16729244254E+04  0.15294330000E+03 0. -1.
<mgrwt>
<rscale>  0 0.12377708E+04</rscale>
<asrwt>0</asrwt>
<pdfrwt beam="1">  1        2 0.47676132E+00 0.12829520E+04</pdfrwt>
<pdfrwt beam="2">  1       -2 0.71176975E-01 0.12829520E+04</pdfrwt>
<totfact> 0.26650558E+00</totfact>
</mgrwt>
</event>
<event>
 4    5  0.7872472E-008  0.1462425E+04  0.7818608E-02  0.8936635E-01
         -2   -1    0    0    0  501 -0.00000000000E+00  0.00000000000E+00  0.16679653726E+04  0.16679653726E+04  0.25500000000E-02 0.  1.
          2   -1    0    0  501    0  0.00000000000E+00 -0.00000000000E+00 -0.23198887539E+04  0.23198887539E+04  0.25500000000E-02 0. -1.
    8880023    1    1    2    0    0 -0.12833976893E+04  0.24034578367E+03 -0.17459778115E+04  0.22775259492E+04  0.65864270000E+03 0.  0.
    8880022    1    1    2    0    0  0.12833976893E+04 -0.24034578367E+03  0.10940544302E+04  0.17103281773E+04  0.15294330000E+03 0.  0.
<mgrwt>
<rscale>  0 0.14239885E+04</rscale>
<asrwt>0</asrwt>
<pdfrwt beam="1">  1        2 0.35690596E+00 0.14624247E+04</pdfrwt>
<pdfrwt beam="2">  1       -2 0.25661006E+00 0.14624247E+04</pdfrwt>
<totfact> 0.24343473E-01</totfact>
</mgrwt>
</event>
<event>
 4    5  0.6615028E-008  0.1187756E+04  0.7818608E-02  0.9169117E-01
          2   -1    0    0  501    0  0.00000000000E+00  0.00000000000E+00  0.18280757378E+04  0.18280757378E+04  0.25500000000E-02 0. -1.
         -2   -1    0    0    0  501 -0.00000000000E+00 -0.00000000000E+00 -0.10546908436E+04  0.10546908436E+04  0.25500000000E-02 0.  1.
    8880023    1    1    2    0    0  0.90777432401E+03 -0.39102563866E+03  0.12929435258E+04  0.17556959989E+04  0.65864270000E+03 0.  0.
    8880022    1    1    2    0    0 -0.90777432401E+03  0.39102563866E+03 -0.51955863156E+03  0.11270705826E+04  0.15294330000E+03 0.  0.
<mgrwt>
<rscale>  0 0.11377960E+04</rscale>
<asrwt>0</asrwt>
<pdfrwt beam="1">  1        2 0.28124242E+00 0.11877565E+04</pdfrwt>
<pdfrwt beam="2">  1       -2 0.16226013E+00 0.11877565E+04</pdfrwt>
<totfact> 0.19635863E+00</totfact>
</mgrwt>
</event>
<event>
 4    5  0.6615028E-008  0.6871591E+03  0.7818608E-02  0.1005533E+00
         -2   -1    0    0    0  501 -0.00000000000E+00  0.00000000000E+00  0.45216405630E+03  0.45216405631E+03  0.25500000000E-02 0.  1.
          2   -1    0    0  501    0  0.00000000000E+00 -0.00000000000E+00 -0.12949404000E+04  0.12949404000E+04  0.25500000000E-02 0. -1.
    8880023    1    1    2    0    0 -0.13459427651E+03  0.14234406951E+03 -0.11574862753E+04  0.13460914297E+04  0.65864270000E+03 0. -1.
    8880022    1    1    2    0    0  0.13459427651E+03 -0.14234406951E+03  0.31470993163E+03  0.40101302657E+03  0.15294330000E+03 0.  0.
<mgrwt>
<rscale>  0 0.53289225E+03</rscale>
<asrwt>0</asrwt>
<pdfrwt beam="1">  1        2 0.19922160E+00 0.68715912E+03</pdfrwt>
<pdfrwt beam="2">  1       -2 0.69563702E-01 0.68715912E+03</pdfrwt>
<totfact> 0.32215151E+01</totfact>
</mgrwt>
</event>
<event>
 4    5  0.6615028E-008  0.9135022E+03  0.7818608E-02  0.9504695E-01
         -2   -1    0    0    0  501 -0.00000000000E+00  0.00000000000E+00  0.68471880447E+03  0.68471880447E+03  0.25500000000E-02 0.  1.
          2   -1    0    0  501    0  0.00000000000E+00 -0.00000000000E+00 -0.12020889073E+04  0.12020889073E+04  0.25500000000E-02 0. -1.
    8880023    1    1    2    0    0  0.46094205894E+03 -0.43383001619E+03 -0.76358789529E+03  0.11906102405E+04  0.65864270000E+03 0.  0.
    8880022    1    1    2    0    0 -0.46094205894E+03  0.43383001619E+03  0.24621779249E+03  0.69619747126E+03  0.15294330000E+03 0.  0.
<mgrwt>
<rscale>  0 0.83938577E+03</rscale>
<asrwt>0</asrwt>
<pdfrwt beam="1">  1        2 0.18493675E+00 0.91350220E+03</pdfrwt>
<pdfrwt beam="2">  1       -2 0.10534135E+00 0.91350220E+03</pdfrwt>
<totfact> 0.13799255E+01</totfact>
</mgrwt>
</event>
<event>
 4    5  0.6615028E-008  0.7150205E+03  0.7818608E-02  0.9939810E-01
         -2   -1    0    0    0  501 -0.00000000000E+00  0.00000000000E+00  0.43280091615E+03  0.43280091615E+03  0.25500000000E-02 0.  1.
          2   -1    0    0  501    0  0.00000000000E+00 -0.00000000000E+00 -0.75557822322E+03  0.75557822322E+03  0.25500000000E-02 0. -1.
    8880023    1    1    2    0    0 -0.16412927606E+03  0.22473473427E+03 -0.45160422550E+03  0.84569539599E+03  0.65864270000E+03 0. -1.
    8880022    1    1    2    0    0  0.16412927606E+03 -0.22473473427E+03  0.12882691843E+03  0.34268374338E+03  0.15294330000E+03 0.  0.
<mgrwt>
<rscale>  0 0.58370136E+03</rscale>
<asrwt>0</asrwt>
<pdfrwt beam="1">  1        2 0.11624280E+00 0.71502051E+03</pdfrwt>
<pdfrwt beam="2">  1       -2 0.66584756E-01 0.71502051E+03</pdfrwt>
<totfact> 0.78143073E+01</totfact>
</mgrwt>
</event>
<event>
 4    5  0.6615028E-008  0.7167569E+03  0.7818608E-02  0.9933716E-01
         -2   -1    0    0    0  501 -0.00000000000E+00  0.00000000000E+00  0.12900298932E+04  0.12900298932E+04  0.25500000000E-02 0.  1.
          2   -1    0    0  501    0  0.00000000000E+00 -0.00000000000E+00 -0.58614221123E+03  0.58614221123E+03  0.25500000000E-02 0. -1.
    8880023    1    1    2    0    0  0.23279600748E+03  0.16042504823E+03 -0.33319549288E+03  0.79041737072E+03  0.65864270000E+03 0. -1.
    8880022    1    1    2    0    0 -0.23279600748E+03 -0.16042504823E+03  0.10370831749E+04  0.10857547337E+04  0.15294330000E+03 0.  0.
<mgrwt>
<rscale>  0 0.58654711E+03</rscale>
<asrwt>0</asrwt>
<pdfrwt beam="1">  1        2 0.90175727E-01 0.71675685E+03</pdfrwt>
<pdfrwt beam="2">  1       -2 0.19846613E+00 0.71675685E+03</pdfrwt>
<totfact> 0.71105508E+00</totfact>
</mgrwt>
</event>
<event>
 4    5  0.6615028E-008  0.7190225E+03  0.7818608E-02  0.9925908E-01
          2   -1    0    0  501    0  0.00000000000E+00  0.00000000000E+00  0.48343417178E+03  0.48343417179E+03  0.25500000000E-02 0. -1.
         -2   -1    0    0    0  501 -0.00000000000E+00 -0.00000000000E+00 -0.80677661856E+03  0.80677661856E+03  0.25500000000E-02 0.  1.
    8880023    1    1    2    0    0 -0.18354085866E+03  0.22247666811E+03  0.13088550573E+03  0.73083810555E+03  0.65864270000E+03 0.  0.
    8880022    1    1    2    0    0  0.18354085866E+03 -0.22247666811E+03 -0.45422795250E+03  0.55937268480E+03  0.15294330000E+03 0.  0.
<mgrwt>
<rscale>  0 0.59021963E+03</rscale>
<asrwt>0</asrwt>
<pdfrwt beam="1">  1        2 0.74374488E-01 0.71902248E+03</pdfrwt>
<pdfrwt beam="2">  1       -2 0.12411948E+00 0.71902248E+03</pdfrwt>
<totfact> 0.31711263E+01</totfact>
</mgrwt>
</event>
<event>
 4    5  0.6615028E-008  0.7415617E+03  0.7818608E-02  0.9855421E-01
         -2   -1    0    0    0  501 -0.00000000000E+00  0.00000000000E+00  0.11691333321E+04  0.11691333321E+04  0.25500000000E-02 0.  1.
          2   -1    0    0  501    0  0.00000000000E+00 -0.00000000000E+00 -0.18365363194E+04  0.18365363194E+04  0.25500000000E-02 0. -1.
    8880023    1    1    2    0    0 -0.18067536416E+03 -0.28889425890E+03 -0.17284474348E+04  0.18808094590E+04  0.65864270000E+03 0. -1.
    8880022    1    1    2    0    0  0.18067536416E+03  0.28889425890E+03  0.10610444475E+04  0.11248601925E+04  0.15294330000E+03 0.  0.
<mgrwt>
<rscale>  0 0.62471269E+03</rscale>
<asrwt>0</asrwt>
<pdfrwt beam="1">  1        2 0.28254405E+00 0.74156165E+03</pdfrwt>
<pdfrwt beam="2">  1       -2 0.17986667E+00 0.74156165E+03</pdfrwt>
<totfact> 0.15540765E+00</totfact>
</mgrwt>
</event>
<event>
 4    5  0.6615028E-008  0.9829203E+03  0.7818608E-02  0.9404252E-01
          2   -1    0    0  501    0  0.00000000000E+00  0.00000000000E+00  0.36895009803E+04  0.36895009803E+04  0.25500000000E-02 0. -1.
         -2   -1    0    0    0  501 -0.00000000000E+00 -0.00000000000E+00 -0.25200411922E+03  0.25200411923E+03  0.25500000000E-02 0.  1.
    8880023    1    1    2    0    0  0.71109146590E+03  0.16331276803E+03  0.27759515200E+04  0.29448326235E+04  0.65864270000E+03 0.  0.
    8880022    1    1    2    0    0 -0.71109146590E+03 -0.16331276803E+03  0.66154534112E+03  0.99667247602E+03  0.15294330000E+03 0.  0.
<mgrwt>
<rscale>  0 0.91726565E+03</rscale>
<asrwt>0</asrwt>
<pdfrwt beam="1">  1        2 0.56761551E+00 0.98292031E+03</pdfrwt>
<pdfrwt beam="2">  1       -2 0.38769866E-01 0.98292031E+03</pdfrwt>
<totfact> 0.39077724E+00</totfact>
</mgrwt>
</event>
<event>
 4    5  0.6615028E-008  0.7671931E+03  0.7818608E-02  0.9786829E-01
          2   -1    0    0  501    0  0.00000000000E+00  0.00000000000E+00  0.29686856256E+04  0.29686856256E+04  0.25500000000E-02 0. -1.
         -2   -1    0    0    0  501 -0.00000000000E+00 -0.00000000000E+00 -0.42027652187E+03  0.42027652188E+03  0.25500000000E-02 0.  1.
    8880023    1    1    2    0    0 -0.48769936088E+02  0.39037995511E+03  0.27961785761E+04  0.28995171756E+04  0.65864270000E+03 0.  0.
    8880022    1    1    2    0    0  0.48769936088E+02 -0.39037995511E+03 -0.24776947237E+03  0.48944497185E+03  0.15294330000E+03 0.  0.
<mgrwt>
<rscale>  0 0.66074185E+03</rscale>
<asrwt>0</asrwt>
<pdfrwt beam="1">  1        2 0.45672087E+00 0.76719308E+03</pdfrwt>
<pdfrwt beam="2">  1       -2 0.64657926E-01 0.76719308E+03</pdfrwt>
<totfact> 0.42705491E+00</totfact>
</mgrwt>
</event>
<event>
 4    5  0.6615028E-008  0.6905823E+03  0.7818608E-02  0.1003877E+00
         -2   -1    0    0    0  501 -0.00000000000E+00  0.00000000000E+00  0.78485750291E+03  0.78485750292E+03  0.25500000000E-02 0.  1.
          2   -1    0    0  501    0  0.00000000000E+00 -0.00000000000E+00 -0.13742893900E+04  0.13742893900E+04  0.25500000000E-02 0. -1.
    8880023    1    1    2    0    0 -0.20729521144E+03 -0.11061922874E+02 -0.12621401457E+04  0.14387152687E+04  0.65864270000E+03 0. -1.
    8880022    1    1    2    0    0  0.20729521144E+03  0.11061922874E+02  0.67270825865E+03  0.72043162416E+03  0.15294330000E+03 0.  0.
<mgrwt>
<rscale>  0 0.53982413E+03</rscale>
<asrwt>0</asrwt>
<pdfrwt beam="1">  1        2 0.21142914E+00 0.69058227E+03</pdfrwt>
<pdfrwt beam="2">  1       -2 0.12074731E+00 0.69058227E+03</pdfrwt>
<totfact> 0.80737600E+00</totfact>
</mgrwt>
</event>
<event>
 4    5  0.6615028E-008  0.7047086E+03  0.7818608E-02  0.9978201E-01
         -2   -1    0    0    0  501 -0.00000000000E+00  0.00000000000E+00  0.19806844594E+03  0.19806844596E+03  0.25500000000E-02 0.  1.
          2   -1    0    0  501    0  0.00000000000E+00 -0.00000000000E+00 -0.33326318909E+04  0.33326318909E+04  0.25500000000E-02 0. -1.
    8880023    1    1    2    0    0  0.11537216430E+03 -0.22247091485E+03 -0.31584757603E+04  0.32361371075E+04  0.65864270000E+03 0. -1.
    8880022    1    1    2    0    0 -0.11537216430E+03  0.22247091485E+03  0.23912315286E+02  0.29456322936E+03  0.15294330000E+03 0.  0.
<mgrwt>
<rscale>  0 0.56616483E+03</rscale>
<asrwt>0</asrwt>
<pdfrwt beam="1">  1        2 0.51271256E+00 0.70470863E+03</pdfrwt>
<pdfrwt beam="2">  1       -2 0.30472071E-01 0.70470863E+03</pdfrwt>
<totfact> 0.11415302E+01</totfact>
</mgrwt>
</event>
<event>
 4    5  0.6615028E-008  0.7050554E+03  0.7818608E-02  0.9976842E-01
          2   -1    0    0  501    0  0.00000000000E+00  0.00000000000E+00  0.91991170712E+03  0.91991170713E+03  0.25500000000E-02 0. -1.
         -2   -1    0    0    0  501 -0.00000000000E+00 -0.00000000000E+00 -0.50543486456E+03  0.50543486457E+03  0.25500000000E-02 0.  1.
    8880023    1    1    2    0    0 -0.11729229268E+03 -0.22256543678E+03  0.71533580161E+03  0.10043945295E+04  0.65864270000E+03 0. -1.
    8880022    1    1    2    0    0  0.11729229268E+03  0.22256543678E+03 -0.30085895904E+03  0.42095204219E+03  0.15294330000E+03 0.  0.
<mgrwt>
<rscale>  0 0.56677424E+03</rscale>
<asrwt>0</asrwt>
<pdfrwt beam="1">  1        2 0.14152488E+00 0.70505536E+03</pdfrwt>
<pdfrwt beam="2">  1       -2 0.77759211E-01 0.70505536E+03</pdfrwt>
<totfact> 0.42681015E+01</totfact>
</mgrwt>
</event>
<event>
 4    5  0.6615028E-008  0.1819399E+04  0.7818608E-02  0.8711881E-01
          2   -1    0    0  501    0  0.00000000000E+00  0.00000000000E+00  0.28951774170E+04  0.28951774170E+04  0.25500000000E-02 0. -1.
         -2   -1    0    0    0  501 -0.00000000000E+00 -0.00000000000E+00 -0.15693617760E+04  0.15693617760E+04  0.25500000000E-02 0.  1.
    8880023    1    1    2    0    0  0.93913891101E+03 -0.14122396793E+04  0.19349596489E+04  0.26559898071E+04  0.65864270000E+03 0.  0.
    8880022    1    1    2    0    0 -0.93913891101E+03  0.14122396793E+04 -0.60914400801E+03  0.18085493859E+04  0.15294330000E+03 0.  0.
<mgrwt>
<rscale>  0 0.17895419E+04</rscale>
<asrwt>0</asrwt>
<pdfrwt beam="1">  1        2 0.44541191E+00 0.18193991E+04</pdfrwt>
<pdfrwt beam="2">  1       -2 0.24144028E+00 0.18193991E+04</pdfrwt>
<totfact> 0.13291184E-01</totfact>
</mgrwt>
</event>
<event>
 4    5  0.6615028E-008  0.9491756E+03  0.7818608E-02  0.9451301E-01
         -2   -1    0    0    0  501 -0.00000000000E+00  0.00000000000E+00  0.21119753079E+03  0.21119753081E+03  0.25500000000E-02 0.  1.
          2   -1    0    0  501    0  0.00000000000E+00 -0.00000000000E+00 -0.32209628058E+04  0.32209628058E+04  0.25500000000E-02 0. -1.
    8880023    1    1    2    0    0  0.46017743044E+03 -0.50533242503E+03 -0.17385635948E+04  0.19807921917E+04  0.65864270000E+03 0.  0.
    8880022    1    1    2    0    0 -0.46017743044E+03  0.50533242503E+03 -0.12712016802E+04  0.14513681449E+04  0.15294330000E+03 0. -1.
<mgrwt>
<rscale>  0 0.87971409E+03</rscale>
<asrwt>0</asrwt>
<pdfrwt beam="1">  1        2 0.49553270E+00 0.94917561E+03</pdfrwt>
<pdfrwt beam="2">  1       -2 0.32491930E-01 0.94917561E+03</pdfrwt>
<totfact> 0.11483153E+01</totfact>
</mgrwt>
</event>
<event>
 4    5  0.6615028E-008  0.1588741E+04  0.7818608E-02  0.8849388E-01
          2   -1    0    0  501    0  0.00000000000E+00  0.00000000000E+00  0.31376386851E+04  0.31376386851E+04  0.25500000000E-02 0. -1.
         -2   -1    0    0    0  501 -0.00000000000E+00 -0.00000000000E+00 -0.10724752382E+04  0.10724752382E+04  0.25500000000E-02 0.  1.
    8880023    1    1    2    0    0 -0.73394729397E+03 -0.12456365123E+04 -0.11141044181E+03  0.15926429116E+04  0.65864270000E+03 0.  1.
    8880022    1    1    2    0    0  0.73394729397E+03  0.12456365123E+04  0.21765738888E+04  0.26174710117E+04  0.15294330000E+03 0.  0.
<mgrwt>
<rscale>  0 0.15538884E+04</rscale>
<asrwt>0</asrwt>
<pdfrwt beam="1">  1        2 0.48271363E+00 0.15887414E+04</pdfrwt>
<pdfrwt beam="2">  1       -2 0.16499620E+00 0.15887414E+04</pdfrwt>
<totfact> 0.30890543E-01</totfact>
</mgrwt>
</event>
<event>
 4    5  0.6615028E-008  0.8829021E+03  0.7818608E-02  0.9554056E-01
          2   -1    0    0  501    0  0.00000000000E+00  0.00000000000E+00  0.79930490079E+03  0.79930490079E+03  0.25500000000E-02 0. -1.
         -2   -1    0    0    0  501 -0.00000000000E+00 -0.00000000000E+00 -0.14495634916E+04  0.14495634916E+04  0.25500000000E-02 0.  1.
    8880023    1    1    2    0    0 -0.43301876601E+03 -0.39774457573E+03  0.45079193287E+03  0.99132717719E+03  0.65864270000E+03 0. -1.
    8880022    1    1    2    0    0  0.43301876601E+03  0.39774457573E+03 -0.11010505237E+04  0.12575412152E+04  0.15294330000E+03 0.  0.
<mgrwt>
<rscale>  0 0.80413153E+03</rscale>
<asrwt>0</asrwt>
<pdfrwt beam="1">  1        2 0.12296998E+00 0.88290215E+03</pdfrwt>
<pdfrwt beam="2">  1       -2 0.22300977E+00 0.88290215E+03</pdfrwt>
<totfact> 0.32883508E+00</totfact>
</mgrwt>
</event>
<event>
 4    5  0.6615028E-008  0.1151022E+04  0.7818608E-02  0.9206269E-01
          2   -1    0    0  501    0  0.00000000000E+00  0.00000000000E+00  0.94397139320E+03  0.94397139320E+03  0.25500000000E-02 0. -1.
         -2   -1    0    0    0  501 -0.00000000000E+00 -0.00000000000E+00 -0.22465618332E+04  0.22465618332E+04  0.25500000000E-02 0.  1.
    8880023    1    1    2    0    0 -0.67095019006E+03  0.66397791891E+03  0.41593705358E+03  0.12238687320E+04  0.65864270000E+03 0. -1.
    8880022    1    1    2    0    0  0.67095019006E+03 -0.66397791891E+03 -0.17185274936E+04  0.19666644944E+04  0.15294330000E+03 0.  0.
<mgrwt>
<rscale>  0 0.10988960E+04</rscale>
<asrwt>0</asrwt>
<pdfrwt beam="1">  1        2 0.14522637E+00 0.11510217E+04</pdfrwt>
<pdfrwt beam="2">  1       -2 0.34562489E+00 0.11510217E+04</pdfrwt>
<totfact> 0.44934705E-01</totfact>
</mgrwt>
</event>
<event>
 4    5  0.6615028E-008  0.7055679E+03  0.7818608E-02  0.9974843E-01
         -2   -1    0    0    0  501 -0.00000000000E+00  0.00000000000E+00  0.87028330196E+02  0.87028330234E+02  0.25500000000E-02 0.  1.
          2   -1    0    0  501    0  0.00000000000E+00 -0.00000000000E+00 -0.31664623923E+04  0.31664623923E+04  0.25500000000E-02 0. -1.
    8880023    1    1    2    0    0  0.22638057560E+03 -0.11299422366E+03 -0.25637619053E+04  0.26590790084E+04  0.65864270000E+03 0. -1.
    8880022    1    1    2    0    0 -0.22638057560E+03  0.11299422366E+03 -0.51567215685E+03  0.59441171418E+03  0.15294330000E+03 0.  1.
<mgrwt>
<rscale>  0 0.56767231E+03</rscale>
<asrwt>0</asrwt>
<pdfrwt beam="1">  1        2 0.48714797E+00 0.70556790E+03</pdfrwt>
<pdfrwt beam="2">  1       -2 0.13388976E-01 0.70556790E+03</pdfrwt>
<totfact> 0.61801626E+01</totfact>
</mgrwt>
</event>
<event>
 4    5  0.6615028E-008  0.7650636E+03  0.7818608E-02  0.9792170E-01
          2   -1    0    0  501    0  0.00000000000E+00  0.00000000000E+00  0.15837537581E+04  0.15837537582E+04  0.25500000000E-02 0. -1.
         -2   -1    0    0    0  501 -0.00000000000E+00 -0.00000000000E+00 -0.41446163305E+03  0.41446163306E+03  0.25500000000E-02 0.  1.
    8880023    1    1    2    0    0 -0.30618521543E+03 -0.24033879550E+03  0.13427844160E+04  0.15454424340E+04  0.65864270000E+03 0. -1.
    8880022    1    1    2    0    0  0.30618521543E+03  0.24033879550E+03 -0.17349229087E+03  0.45277295721E+03  0.15294330000E+03 0.  0.
<mgrwt>
<rscale>  0 0.65784421E+03</rscale>
<asrwt>0</asrwt>
<pdfrwt beam="1">  1        2 0.24365442E+00 0.76506361E+03</pdfrwt>
<pdfrwt beam="2">  1       -2 0.63763329E-01 0.76506361E+03</pdfrwt>
<totfact> 0.26509540E+01</totfact>
</mgrwt>
</event>
<event>
 4    5  0.6615028E-008  0.7043712E+03  0.7818608E-02  0.9979529E-01
         -2   -1    0    0    0  501 -0.00000000000E+00  0.00000000000E+00  0.10762490057E+04  0.10762490057E+04  0.25500000000E-02 0.  1.
          2   -1    0    0  501    0  0.00000000000E+00 -0.00000000000E+00 -0.15432703572E+04  0.15432703572E+04  0.25500000000E-02 0. -1.
    8880023    1    1    2    0    0 -0.22099894280E+03 -0.11613814886E+03 -0.14402178018E+04  0.16032361415E+04  0.65864270000E+03 0. -1.
    8880022    1    1    2    0    0  0.22099894280E+03  0.11613814886E+03  0.97319645032E+03  0.10162832215E+04  0.15294330000E+03 0.  0.
<mgrwt>
<rscale>  0 0.56557035E+03</rscale>
<asrwt>0</asrwt>
<pdfrwt beam="1">  1        2 0.23742621E+00 0.70437122E+03</pdfrwt>
<pdfrwt beam="2">  1       -2 0.16557677E+00 0.70437122E+03</pdfrwt>
<totfact> 0.28531205E+00</totfact>
</mgrwt>
</event>
<event>
 4    5  0.6615028E-008  0.8933683E+03  0.7818608E-02  0.9536763E-01
          2   -1    0    0  501    0  0.00000000000E+00  0.00000000000E+00  0.91869716003E+03  0.91869716004E+03  0.25500000000E-02 0. -1.
         -2   -1    0    0    0  501 -0.00000000000E+00 -0.00000000000E+00 -0.78711291396E+03  0.78711291396E+03  0.25500000000E-02 0.  1.
    8880023    1    1    2    0    0  0.58171245527E+03  0.16095736899E+03  0.45676375074E+03  0.10033643334E+04  0.65864270000E+03 0.  0.
    8880022    1    1    2    0    0 -0.58171245527E+03 -0.16095736899E+03 -0.32517950467E+03  0.70244574062E+03  0.15294330000E+03 0.  0.
<mgrwt>
<rscale>  0 0.81626886E+03</rscale>
<asrwt>0</asrwt>
<pdfrwt beam="1">  1        2 0.14133802E+00 0.89336827E+03</pdfrwt>
<pdfrwt beam="2">  1       -2 0.12109430E+00 0.89336827E+03</pdfrwt>
<totfact> 0.14812139E+01</totfact>
</mgrwt>
</event>
<event>
 4    5  0.6615028E-008  0.1524058E+04  0.7818608E-02  0.8892832E-01
          2   -1    0    0  501    0  0.00000000000E+00  0.00000000000E+00  0.27246970342E+04  0.27246970342E+04  0.25500000000E-02 0. -1.
         -2   -1    0    0    0  501 -0.00000000000E+00 -0.00000000000E+00 -0.13146939959E+04  0.13146939959E+04  0.25500000000E-02 0.  1.
    8880023    1    1    2    0    0 -0.72640207665E+03  0.11667402468E+04  0.20179290418E+04  0.25287923213E+04  0.65864270000E+03 0. -1.
    8880022    1    1    2    0    0  0.72640207665E+03 -0.11667402468E+04 -0.60792600340E+03  0.15105987088E+04  0.15294330000E+03 0.  0.
<mgrwt>
<rscale>  0 0.14874645E+04</rscale>
<asrwt>0</asrwt>
<pdfrwt beam="1">  1        2 0.41918416E+00 0.15240581E+04</pdfrwt>
<pdfrwt beam="2">  1       -2 0.20226061E+00 0.15240581E+04</pdfrwt>
<totfact> 0.30942382E-01</totfact>
</mgrwt>
</event>
<event>
 4    5  0.6615028E-008  0.6844293E+03  0.7818608E-02  0.1006922E+00
         -2   -1    0    0    0  501 -0.00000000000E+00  0.00000000000E+00  0.75459938180E+02  0.75459938223E+02  0.25500000000E-02 0.  1.
          2   -1    0    0  501    0  0.00000000000E+00 -0.00000000000E+00 -0.48991377241E+04  0.48991377241E+04  0.25500000000E-02 0. -1.
    8880023    1    1    2    0    0  0.35226080647E+02  0.18273573911E+03 -0.45839103404E+04  0.46347251744E+04  0.65864270000E+03 0. -1.
    8880022    1    1    2    0    0 -0.35226080647E+02 -0.18273573911E+03 -0.23976744553E+03  0.33987248794E+03  0.15294330000E+03 0.  0.
<mgrwt>
<rscale>  0 0.52716700E+03</rscale>
<asrwt>0</asrwt>
<pdfrwt beam="1">  1        2 0.75371325E+00 0.68442928E+03</pdfrwt>
<pdfrwt beam="2">  1       -2 0.11609225E-01 0.68442928E+03</pdfrwt>
<totfact> 0.29026038E+00</totfact>
</mgrwt>
</event>
<event>
 4    5  0.6615028E-008  0.8240758E+03  0.7818608E-02  0.9660971E-01
         -2   -1    0    0    0  501 -0.00000000000E+00  0.00000000000E+00  0.51939223188E+03  0.51939223189E+03  0.25500000000E-02 0.  1.
          2   -1    0    0  501    0  0.00000000000E+00 -0.00000000000E+00 -0.11833479367E+04  0.11833479367E+04  0.25500000000E-02 0. -1.
    8880023    1    1    2    0    0 -0.27623725616E+03  0.41107623696E+03 -0.81886639657E+03  0.11617413981E+04  0.65864270000E+03 0.  0.
    8880022    1    1    2    0    0  0.27623725616E+03 -0.41107623696E+03  0.15491069174E+03  0.54099877053E+03  0.15294330000E+03 0.  0.
<mgrwt>
<rscale>  0 0.73388879E+03</rscale>
<asrwt>0</asrwt>
<pdfrwt beam="1">  1        2 0.18205353E+00 0.82407579E+03</pdfrwt>
<pdfrwt beam="2">  1       -2 0.79906498E-01 0.82407579E+03</pdfrwt>
<totfact> 0.27157797E+01</totfact>
</mgrwt>
</event>
<event>
 4    5  0.6615028E-008  0.8187490E+03  0.7818608E-02  0.9671633E-01
          2   -1    0    0  501    0  0.00000000000E+00  0.00000000000E+00  0.42321559014E+04  0.42321559014E+04  0.25500000000E-02 0. -1.
         -2   -1    0    0    0  501 -0.00000000000E+00 -0.00000000000E+00 -0.15662772808E+03  0.15662772810E+03  0.25500000000E-02 0.  1.
    8880023    1    1    2    0    0 -0.46773182049E+03 -0.13329141564E+03  0.35988872007E+04  0.36908452890E+04  0.65864270000E+03 0.  0.
    8880022    1    1    2    0    0  0.46773182049E+03  0.13329141564E+03  0.47664097257E+03  0.69793834049E+03  0.15294330000E+03 0.  0.
<mgrwt>
<rscale>  0 0.72731140E+03</rscale>
<asrwt>0</asrwt>
<pdfrwt beam="1">  1        2 0.65110086E+00 0.81874896E+03</pdfrwt>
<pdfrwt beam="2">  1       -2 0.24096575E-01 0.81874896E+03</pdfrwt>
<totfact> 0.36745638E+00</totfact>
</mgrwt>
</event>
<event>
 4    5  0.6615028E-008  0.8402185E+03  0.7818608E-02  0.9629768E-01
         -2   -1    0    0    0  501 -0.00000000000E+00  0.00000000000E+00  0.59481820935E+03  0.59481820936E+03  0.25500000000E-02 0.  1.
          2   -1    0    0  501    0  0.00000000000E+00 -0.00000000000E+00 -0.10937221360E+04  0.10937221360E+04  0.25500000000E-02 0. -1.
    8880023    1    1    2    0    0  0.28132010484E+03  0.43933573418E+03 -0.71525356786E+03  0.11034286390E+04  0.65864270000E+03 0. -1.
    8880022    1    1    2    0    0 -0.28132010484E+03 -0.43933573418E+03  0.21634964119E+03  0.58511170641E+03  0.15294330000E+03 0.  0.
<mgrwt>
<rscale>  0 0.75356857E+03</rscale>
<asrwt>0</asrwt>
<pdfrwt beam="1">  1        2 0.16826494E+00 0.84021848E+03</pdfrwt>
<pdfrwt beam="2">  1       -2 0.91510494E-01 0.84021848E+03</pdfrwt>
<totfact> 0.22541655E+01</totfact>
</mgrwt>
</event>
<event>
 4    5  0.6615028E-008  0.1578358E+04  0.7818608E-02  0.8856199E-01
         -2   -1    0    0    0  501 -0.00000000000E+00  0.00000000000E+00  0.98520658619E+03  0.98520658619E+03  0.25500000000E-02 0.  1.
          2   -1    0    0  501    0  0.00000000000E+00 -0.00000000000E+00 -0.23476018127E+04  0.23476018127E+04  0.25500000000E-02 0. -1.
    8880023    1    1    2    0    0  0.10738832715E+04 -0.95088349628E+03 -0.90563995454E+03  0.18197248797E+04  0.65864270000E+03 0.  0.
    8880022    1    1    2    0    0 -0.10738832715E+04  0.95088349628E+03 -0.45675527194E+03  0.15130835191E+04  0.15294330000E+03 0.  0.
<mgrwt>
<rscale>  0 0.15432380E+04</rscale>
<asrwt>0</asrwt>
<pdfrwt beam="1">  1        2 0.36116951E+00 0.15783583E+04</pdfrwt>
<pdfrwt beam="2">  1       -2 0.15157024E+00 0.15783583E+04</pdfrwt>
<totfact> 0.11634901E+00</totfact>
</mgrwt>
</event>
<event>
 4    5  0.6615028E-008  0.1599197E+04  0.7818608E-02  0.8842590E-01
         -2   -1    0    0    0  501 -0.00000000000E+00  0.00000000000E+00  0.10899934574E+04  0.10899934574E+04  0.25500000000E-02 0.  1.
          2   -1    0    0  501    0  0.00000000000E+00 -0.00000000000E+00 -0.36571349709E+04  0.36571349709E+04  0.25500000000E-02 0. -1.
    8880023    1    1    2    0    0 -0.14477926136E+04  0.16588712692E+03 -0.28375045316E+04  0.32571251379E+04  0.65864270000E+03 0.  0.
    8880022    1    1    2    0    0  0.14477926136E+04 -0.16588712692E+03  0.27036301806E+03  0.14900032904E+04  0.15294330000E+03 0.  0.
<mgrwt>
<rscale>  0 0.15646093E+04</rscale>
<asrwt>0</asrwt>
<pdfrwt beam="1">  1        2 0.56263614E+00 0.15991974E+04</pdfrwt>
<pdfrwt beam="2">  1       -2 0.16769130E+00 0.15991974E+04</pdfrwt>
<totfact> 0.13073539E-01</totfact>
</mgrwt>
</event>
<event>
 4    5  0.6615028E-008  0.9293568E+03  0.7818608E-02  0.9480459E-01
         -2   -1    0    0    0  501 -0.00000000000E+00  0.00000000000E+00  0.75581433830E+03  0.75581433831E+03  0.25500000000E-02 0.  1.
          2   -1    0    0  501    0  0.00000000000E+00 -0.00000000000E+00 -0.94600140197E+03  0.94600140197E+03  0.25500000000E-02 0. -1.
    8880023    1    1    2    0    0 -0.60151307014E+03 -0.26091340008E+03  0.15983361679E+03  0.94300093702E+03  0.65864270000E+03 0.  1.
    8880022    1    1    2    0    0  0.60151307014E+03  0.26091340008E+03 -0.35002068045E+03  0.75881480326E+03  0.15294330000E+03 0.  0.
<mgrwt>
<rscale>  0 0.85739968E+03</rscale>
<asrwt>0</asrwt>
<pdfrwt beam="1">  1        2 0.14553868E+00 0.92935676E+03</pdfrwt>
<pdfrwt beam="2">  1       -2 0.11627913E+00 0.92935676E+03</pdfrwt>
<totfact> 0.15657762E+01</totfact>
</mgrwt>
</event>
<event>
 4    5  0.6615028E-008  0.1235023E+04  0.7818608E-02  0.9123808E-01
         -2   -1    0    0    0  501 -0.00000000000E+00  0.00000000000E+00  0.64121801786E+03  0.64121801786E+03  0.25500000000E-02 0.  1.
          2   -1    0    0  501    0  0.00000000000E+00 -0.00000000000E+00 -0.25257164072E+04  0.25257164072E+04  0.25500000000E-02 0. -1.
    8880023    1    1    2    0    0 -0.10153538566E+04 -0.24602256227E+03 -0.16901991779E+04  0.20933356211E+04  0.65864270000E+03 0.  0.
    8880022    1    1    2    0    0  0.10153538566E+04  0.24602256227E+03 -0.19429921143E+03  0.10735988040E+04  0.15294330000E+03 0.  0.
<mgrwt>
<rscale>  0 0.11875689E+04</rscale>
<asrwt>0</asrwt>
<pdfrwt beam="1">  1        2 0.38857175E+00 0.12350226E+04</pdfrwt>
<pdfrwt beam="2">  1       -2 0.98648927E-01 0.12350226E+04</pdfrwt>
<totfact> 0.28114012E+00</totfact>
</mgrwt>
</event>
<event>
 4    5  0.6615028E-008  0.7455557E+03  0.7818608E-02  0.9844050E-01
          2   -1    0    0  501    0  0.00000000000E+00  0.00000000000E+00  0.11322279680E+04  0.11322279680E+04  0.25500000000E-02 0. -1.
         -2   -1    0    0    0  501 -0.00000000000E+00 -0.00000000000E+00 -0.55593534363E+03  0.55593534363E+03  0.25500000000E-02 0.  1.
    8880023    1    1    2    0    0 -0.27339510617E+03  0.21748141199E+03  0.91348400653E+03  0.11791124989E+04  0.65864270000E+03 0. -1.
    8880022    1    1    2    0    0  0.27339510617E+03 -0.21748141199E+03 -0.33719138220E+03  0.50905081268E+03  0.15294330000E+03 0.  0.
<mgrwt>
<rscale>  0 0.63051230E+03</rscale>
<asrwt>0</asrwt>
<pdfrwt beam="1">  1        2 0.17418892E+00 0.74555567E+03</pdfrwt>
<pdfrwt beam="2">  1       -2 0.85528514E-01 0.74555567E+03</pdfrwt>
<totfact> 0.25183585E+01</totfact>
</mgrwt>
</event>
<event>
 4    5  0.6615028E-008  0.7912212E+03  0.7818608E-02  0.9730109E-01
         -2   -1    0    0    0  501 -0.00000000000E+00  0.00000000000E+00  0.34269503249E+03  0.34269503250E+03  0.25500000000E-02 0.  1.
          2   -1    0    0  501    0  0.00000000000E+00 -0.00000000000E+00 -0.21830068713E+04  0.21830068713E+04  0.25500000000E-02 0. -1.
    8880023    1    1    2    0    0  0.68706083656E+02  0.43301301154E+03 -0.18994080320E+04  0.20576155794E+04  0.65864270000E+03 0. -1.
    8880022    1    1    2    0    0 -0.68706083656E+02 -0.43301301154E+03  0.59096193165E+02  0.46808632447E+03  0.15294330000E+03 0.  0.
<mgrwt>
<rscale>  0 0.69252055E+03</rscale>
<asrwt>0</asrwt>
<pdfrwt beam="1">  1        2 0.33584720E+00 0.79122121E+03</pdfrwt>
<pdfrwt beam="2">  1       -2 0.52722314E-01 0.79122121E+03</pdfrwt>
<totfact> 0.18495884E+01</totfact>
</mgrwt>
</event>
<event>
 4    5  0.6615028E-008  0.1147991E+04  0.7818608E-02  0.9209416E-01
          2   -1    0    0  501    0  0.00000000000E+00  0.00000000000E+00  0.18571682160E+04  0.18571682160E+04  0.25500000000E-02 0. -1.
         -2   -1    0    0    0  501 -0.00000000000E+00 -0.00000000000E+00 -0.72340734499E+03  0.72340734499E+03  0.25500000000E-02 0.  1.
    8880023    1    1    2    0    0 -0.94023539298E+03 -0.54743625993E+01  0.66358319357E+02  0.11499070378E+04  0.65864270000E+03 0.  0.
    8880022    1    1    2    0    0  0.94023539298E+03  0.54743625993E+01  0.10674025516E+04  0.14306685231E+04  0.15294330000E+03 0.  0.
<mgrwt>
<rscale>  0 0.10956768E+04</rscale>
<asrwt>0</asrwt>
<pdfrwt beam="1">  1        2 0.28571818E+00 0.11479908E+04</pdfrwt>
<pdfrwt beam="2">  1       -2 0.11129344E+00 0.11479908E+04</pdfrwt>
<totfact> 0.50292175E+00</totfact>
</mgrwt>
</event>
<event>
 4    5  0.6615028E-008  0.7690982E+03  0.7818608E-02  0.9782098E-01
         -2   -1    0    0    0  501 -0.00000000000E+00  0.00000000000E+00  0.10266268030E+04  0.10266268030E+04  0.25500000000E-02 0.  1.
          2   -1    0    0  501    0  0.00000000000E+00 -0.00000000000E+00 -0.57950174697E+03  0.57950174697E+03  0.25500000000E-02 0. -1.
    8880023    1    1    2    0    0 -0.35659512727E+03 -0.17476190502E+03 -0.23319743148E+03  0.80367472061E+03  0.65864270000E+03 0. -1.
    8880022    1    1    2    0    0  0.35659512727E+03  0.17476190502E+03  0.68032248751E+03  0.80245382937E+03  0.15294330000E+03 0.  0.
<mgrwt>
<rscale>  0 0.66332167E+03</rscale>
<asrwt>0</asrwt>
<pdfrwt beam="1">  1        2 0.89154115E-01 0.76909818E+03</pdfrwt>
<pdfrwt beam="2">  1       -2 0.15794259E+00 0.76909818E+03</pdfrwt>
<totfact> 0.13670349E+01</totfact>
</mgrwt>
</event>
<event>
 4    5  0.6615028E-008  0.8977497E+03  0.7818608E-02  0.9529654E-01
          2   -1    0    0  501    0  0.00000000000E+00  0.00000000000E+00  0.17460871152E+04  0.17460871152E+04  0.25500000000E-02 0. -1.
         -2   -1    0    0    0  501 -0.00000000000E+00 -0.00000000000E+00 -0.49772585929E+03  0.49772585930E+03  0.25500000000E-02 0.  1.
    8880023    1    1    2    0    0  0.53273830614E+03 -0.29721074013E+03  0.13351809555E+04  0.16089321667E+04  0.65864270000E+03 0. -1.
    8880022    1    1    2    0    0 -0.53273830614E+03  0.29721074013E+03 -0.86819699565E+02  0.63488080781E+03  0.15294330000E+03 0.  0.
<mgrwt>
<rscale>  0 0.82132436E+03</rscale>
<asrwt>0</asrwt>
<pdfrwt beam="1">  1        2 0.26862878E+00 0.89774971E+03</pdfrwt>
<pdfrwt beam="2">  1       -2 0.76573210E-01 0.89774971E+03</pdfrwt>
<totfact> 0.14243444E+01</totfact>
</mgrwt>
</event>
<event>
 4    5  0.6615028E-008  0.1197339E+04  0.7818608E-02  0.9159713E-01
         -2   -1    0    0    0  501 -0.00000000000E+00  0.00000000000E+00  0.59468310981E+03  0.59468310982E+03  0.25500000000E-02 0.  1.
          2   -1    0    0  501    0  0.00000000000E+00 -0.00000000000E+00 -0.38201415519E+04  0.38201415520E+04  0.25500000000E-02 0. -1.
    8880023    1    1    2    0    0  0.99415508700E+03  0.10707984539E+03 -0.31848415280E+04  0.34024750102E+04  0.65864270000E+03 0.  0.
    8880022    1    1    2    0    0 -0.99415508700E+03 -0.10707984539E+03 -0.40616914134E+02  0.10123496516E+04  0.15294330000E+03 0.  0.
<mgrwt>
<rscale>  0 0.11479105E+04</rscale>
<asrwt>0</asrwt>
<pdfrwt beam="1">  1        2 0.58771407E+00 0.11973390E+04</pdfrwt>
<pdfrwt beam="2">  1       -2 0.91489711E-01 0.11973390E+04</pdfrwt>
<totfact> 0.48719396E-01</totfact>
</mgrwt>
</event>
<event>
 4    5  0.6615028E-008  0.6923396E+03  0.7818608E-02  0.1003060E+00
          2   -1    0    0  501    0  0.00000000000E+00  0.00000000000E+00  0.14866017365E+04  0.14866017365E+04  0.25500000000E-02 0. -1.
         -2   -1    0    0    0  501 -0.00000000000E+00 -0.00000000000E+00 -0.16557835260E+03  0.16557835262E+03  0.25500000000E-02 0.  1.
    8880023    1    1    2    0    0 -0.24935229581E+02  0.21190112239E+03  0.73331790574E+03  0.10085084077E+04  0.65864270000E+03 0.  1.
    8880022    1    1    2    0    0  0.24935229581E+02 -0.21190112239E+03  0.58770547818E+03  0.64367168141E+03  0.15294330000E+03 0.  0.
<mgrwt>
<rscale>  0 0.54328658E+03</rscale>
<asrwt>0</asrwt>
<pdfrwt beam="1">  1        2 0.22870795E+00 0.69233955E+03</pdfrwt>
<pdfrwt beam="2">  1       -2 0.25473594E-01 0.69233955E+03</pdfrwt>
<totfact> 0.18247798E+02</totfact>
</mgrwt>
</event>
<event>
 4    5  0.6615028E-008  0.1007473E+04  0.7818608E-02  0.9371845E-01
         -2   -1    0    0    0  501 -0.00000000000E+00  0.00000000000E+00  0.14548170257E+04  0.14548170257E+04  0.25500000000E-02 0.  1.
          2   -1    0    0  501    0  0.00000000000E+00 -0.00000000000E+00 -0.12831295627E+04  0.12831295628E+04  0.25500000000E-02 0. -1.
    8880023    1    1    2    0    0 -0.34652219917E+03 -0.67905426343E+03 -0.94227849222E+03  0.13794532578E+04  0.65864270000E+03 0.  0.
    8880022    1    1    2    0    0  0.34652219917E+03  0.67905426343E+03  0.11139659551E+04  0.13584933307E+04  0.15294330000E+03 0.  0.
<mgrwt>
<rscale>  0 0.94429405E+03</rscale>
<asrwt>0</asrwt>
<pdfrwt beam="1">  1        2 0.19740455E+00 0.10074733E+04</pdfrwt>
<pdfrwt beam="2">  1       -2 0.22381800E+00 0.10074733E+04</pdfrwt>
<totfact> 0.15705606E+00</totfact>
</mgrwt>
</event>
<event>
 4    5  0.6615028E-008  0.1164574E+04  0.7818608E-02  0.9192353E-01
         -2   -1    0    0    0  501 -0.00000000000E+00  0.00000000000E+00  0.80765634429E+03  0.80765634430E+03  0.25500000000E-02 0.  1.
          2   -1    0    0  501    0  0.00000000000E+00 -0.00000000000E+00 -0.26000396896E+04  0.26000396896E+04  0.25500000000E-02 0. -1.
    8880023    1    1    2    0    0 -0.44288747086E+03  0.85221636346E+03 -0.20883601598E+04  0.23911253429E+04  0.65864270000E+03 0.  0.
    8880022    1    1    2    0    0  0.44288747086E+03 -0.85221636346E+03  0.29597681455E+03  0.10165706910E+04  0.15294330000E+03 0.  0.
<mgrwt>
<rscale>  0 0.11132712E+04</rscale>
<asrwt>0</asrwt>
<pdfrwt beam="1">  1        2 0.40000610E+00 0.11645738E+04</pdfrwt>
<pdfrwt beam="2">  1       -2 0.12425482E+00 0.11645738E+04</pdfrwt>
<totfact> 0.14603086E+00</totfact>
</mgrwt>
</event>
<event>
 4    5  0.6615028E-008  0.6818745E+03  0.7818608E-02  0.1008283E+00
          2   -1    0    0  501    0  0.00000000000E+00  0.00000000000E+00  0.21603268587E+04  0.21603268587E+04  0.25500000000E-02 0. -1.
         -2   -1    0    0    0  501 -0.00000000000E+00 -0.00000000000E+00 -0.16092535842E+03  0.16092535844E+03  0.25500000000E-02 0.  1.
    8880023    1    1    2    0    0 -0.17645728730E+03 -0.23252705288E+01  0.19714723883E+04  0.20860623589E+04  0.65864270000E+03 0. -1.
    8880022    1    1    2    0    0  0.17645728730E+03  0.23252705288E+01  0.27929112022E+02  0.23518985828E+03  0.15294330000E+03 0.  0.
<mgrwt>
<rscale>  0 0.52162929E+03</rscale>
<asrwt>0</asrwt>
<pdfrwt beam="1">  1        2 0.33235797E+00 0.68187447E+03</pdfrwt>
<pdfrwt beam="2">  1       -2 0.24757748E-01 0.68187447E+03</pdfrwt>
<totfact> 0.82390283E+01</totfact>
</mgrwt>
</event>
<event>
 4    5  0.6615028E-008  0.1094544E+04  0.7818608E-02  0.9267155E-01
         -2   -1    0    0    0  501 -0.00000000000E+00  0.00000000000E+00  0.62748845412E+03  0.62748845412E+03  0.25500000000E-02 0.  1.
          2   -1    0    0  501    0  0.00000000000E+00 -0.00000000000E+00 -0.27275157532E+04  0.27275157532E+04  0.25500000000E-02 0. -1.
    8880023    1    1    2    0    0  0.75097999823E+03  0.44748752324E+03 -0.22046325270E+04  0.24613879878E+04  0.65864270000E+03 0.  0.
    8880022    1    1    2    0    0 -0.75097999823E+03 -0.44748752324E+03  0.10460522784E+03  0.89361621958E+03  0.15294330000E+03 0.  0.
<mgrwt>
<rscale>  0 0.10386366E+04</rscale>
<asrwt>0</asrwt>
<pdfrwt beam="1">  1        2 0.41961780E+00 0.10945439E+04</pdfrwt>
<pdfrwt beam="2">  1       -2 0.96536687E-01 0.10945439E+04</pdfrwt>
<totfact> 0.22954143E+00</totfact>
</mgrwt>
</event>
<event>
 4    5  0.6615028E-008  0.7858362E+03  0.7818608E-02  0.9742302E-01
          2   -1    0    0  501    0  0.00000000000E+00  0.00000000000E+00  0.19551319604E+04  0.19551319604E+04  0.25500000000E-02 0. -1.
         -2   -1    0    0    0  501 -0.00000000000E+00 -0.00000000000E+00 -0.22229731911E+03  0.22229731912E+03  0.25500000000E-02 0.  1.
    8880023    1    1    2    0    0  0.18578352754E+03 -0.38628064582E+03  0.14271252004E+04  0.16291791799E+04  0.65864270000E+03 0.  0.
    8880022    1    1    2    0    0 -0.18578352754E+03  0.38628064582E+03  0.30570944089E+03  0.54825009959E+03  0.15294330000E+03 0.  0.
<mgrwt>
<rscale>  0 0.68553043E+03</rscale>
<asrwt>0</asrwt>
<pdfrwt beam="1">  1        2 0.30078952E+00 0.78583616E+03</pdfrwt>
<pdfrwt beam="2">  1       -2 0.34199589E-01 0.78583616E+03</pdfrwt>
<totfact> 0.58023594E+01</totfact>
</mgrwt>
</event>
<event>
 4    5  0.6615028E-008  0.7851569E+03  0.7818608E-02  0.9743860E-01
         -2   -1    0    0    0  501 -0.00000000000E+00  0.00000000000E+00  0.12386126489E+04  0.12386126489E+04  0.25500000000E-02 0.  1.
          2   -1    0    0  501    0  0.00000000000E+00 -0.00000000000E+00 -0.18707382170E+04  0.18707382170E+04  0.25500000000E-02 0. -1.
    8880023    1    1    2    0    0 -0.38349538437E+03 -0.18865961493E+03 -0.17417108312E+04  0.19105046417E+04  0.65864270000E+03 0. -1.
    8880022    1    1    2    0    0  0.38349538437E+03  0.18865961493E+03  0.11095852631E+04  0.11988462242E+04  0.15294330000E+03 0.  0.
<mgrwt>
<rscale>  0 0.68464377E+03</rscale>
<asrwt>0</asrwt>
<pdfrwt beam="1">  1        2 0.28780588E+00 0.78515691E+03</pdfrwt>
<pdfrwt beam="2">  1       -2 0.19055579E+00 0.78515691E+03</pdfrwt>
<totfact> 0.12504182E+00</totfact>
</mgrwt>
</event>
<event>
 4    5  0.6615028E-008  0.1139871E+04  0.7818608E-02  0.9217911E-01
         -2   -1    0    0    0  501 -0.00000000000E+00  0.00000000000E+00  0.76250587039E+03  0.76250587039E+03  0.25500000000E-02 0.  1.
          2   -1    0    0  501    0  0.00000000000E+00 -0.00000000000E+00 -0.17536377028E+04  0.17536377028E+04  0.25500000000E-02 0. -1.
    8880023    1    1    2    0    0 -0.65215799287E+03 -0.66346543429E+03 -0.10785896950E+04  0.15692872161E+04  0.65864270000E+03 0.  0.
    8880022    1    1    2    0    0  0.65215799287E+03  0.66346543429E+03  0.87457862621E+02  0.94685635707E+03  0.15294330000E+03 0.  0.
<mgrwt>
<rscale>  0 0.10870456E+04</rscale>
<asrwt>0</asrwt>
<pdfrwt beam="1">  1        2 0.26979041E+00 0.11398713E+04</pdfrwt>
<pdfrwt beam="2">  1       -2 0.11730860E+00 0.11398713E+04</pdfrwt>
<totfact> 0.50465304E+00</totfact>
</mgrwt>
</event>
<event>
 4    5  0.6615028E-008  0.8567062E+03  0.7818608E-02  0.9599450E-01
          2   -1    0    0  501    0  0.00000000000E+00  0.00000000000E+00  0.47003517961E+03  0.47003517962E+03  0.25500000000E-02 0. -1.
         -2   -1    0    0    0  501 -0.00000000000E+00 -0.00000000000E+00 -0.12500334566E+04  0.12500334566E+04  0.25500000000E-02 0.  1.
    8880023    1    1    2    0    0  0.49250931441E+03  0.23993707539E+03 -0.14728750691E+03  0.86927500877E+03  0.65864270000E+03 0.  0.
    8880022    1    1    2    0    0 -0.49250931441E+03 -0.23993707539E+03 -0.63271077007E+03  0.85079362744E+03  0.15294330000E+03 0.  0.
<mgrwt>
<rscale>  0 0.77332617E+03</rscale>
<asrwt>0</asrwt>
<pdfrwt beam="1">  1        2 0.72313105E-01 0.85670615E+03</pdfrwt>
<pdfrwt beam="2">  1       -2 0.19231284E+00 0.85670615E+03</pdfrwt>
<totfact> 0.99676846E+00</totfact>
</mgrwt>
</event>
<event>
 4    5  0.6615028E-008  0.6677052E+03  0.7818608E-02  0.1017364E+00
         -2   -1    0    0    0  501 -0.00000000000E+00  0.00000000000E+00  0.21056647679E+03  0.21056647681E+03  0.25500000000E-02 0.  1.
          2   -1    0    0  501    0  0.00000000000E+00 -0.00000000000E+00 -0.12137903852E+04  0.12137903852E+04  0.25500000000E-02 0. -1.
    8880023    1    1    2    0    0 -0.10941752646E+03 -0.69205515447E+01 -0.10368038449E+04  0.12332041632E+04  0.65864270000E+03 0. -1.
    8880022    1    1    2    0    0  0.10941752646E+03  0.69205515447E+01  0.33579936427E+02  0.19115269885E+03  0.15294330000E+03 0.  0.
<mgrwt>
<rscale>  0 0.48649906E+03</rscale>
<asrwt>0</asrwt>
<pdfrwt beam="1">  1        2 0.18673698E+00 0.66770525E+03</pdfrwt>
<pdfrwt beam="2">  1       -2 0.32394843E-01 0.66770525E+03</pdfrwt>
<totfact> 0.16801546E+02</totfact>
</mgrwt>
</event>
<event>
 4    5  0.6615028E-008  0.7884489E+03  0.7818608E-02  0.9736352E-01
          2   -1    0    0  501    0  0.00000000000E+00  0.00000000000E+00  0.35170008067E+04  0.35170008067E+04  0.25500000000E-02 0. -1.
         -2   -1    0    0    0  501 -0.00000000000E+00 -0.00000000000E+00 -0.96696809025E+03  0.96696809026E+03  0.25500000000E-02 0.  1.
    8880023    1    1    2    0    0 -0.23455735966E+03  0.36445077182E+03  0.34148073886E+04  0.35046485170E+04  0.65864270000E+03 0. -1.
    8880022    1    1    2    0    0  0.23455735966E+03 -0.36445077182E+03 -0.86477467215E+03  0.97932037999E+03  0.15294330000E+03 0.  0.
<mgrwt>
<rscale>  0 0.68893055E+03</rscale>
<asrwt>0</asrwt>
<pdfrwt beam="1">  1        2 0.54107704E+00 0.78844894E+03</pdfrwt>
<pdfrwt beam="2">  1       -2 0.14876432E+00 0.78844894E+03</pdfrwt>
<totfact> 0.26180907E-01</totfact>
</mgrwt>
</event>
<event>
 4    5  0.6615028E-008  0.8029005E+03  0.7818608E-02  0.9704559E-01
          2   -1    0    0  501    0  0.00000000000E+00  0.00000000000E+00  0.10474588575E+04  0.10474588575E+04  0.25500000000E-02 0. -1.
         -2   -1    0    0    0  501 -0.00000000000E+00 -0.00000000000E+00 -0.13026172785E+04  0.13026172785E+04  0.25500000000E-02 0.  1.
    8880023    1    1    2    0    0  0.12309700816E+03 -0.44236431697E+03  0.83434131745E+03  0.11579182625E+04  0.65864270000E+03 0. -1.
    8880022    1    1    2    0    0 -0.12309700816E+03  0.44236431697E+03 -0.10894997384E+04  0.11921578735E+04  0.15294330000E+03 0.  0.
<mgrwt>
<rscale>  0 0.70745984E+03</rscale>
<asrwt>0</asrwt>
<pdfrwt beam="1">  1        2 0.16114752E+00 0.80290053E+03</pdfrwt>
<pdfrwt beam="2">  1       -2 0.20040266E+00 0.80290053E+03</pdfrwt>
<totfact> 0.31586787E+00</totfact>
</mgrwt>
</event>
<event>
 4    5  0.6615028E-008  0.1541758E+04  0.7818608E-02  0.8880699E-01
         -2   -1    0    0    0  501 -0.00000000000E+00  0.00000000000E+00  0.16812029816E+04  0.16812029816E+04  0.25500000000E-02 0.  1.
          2   -1    0    0  501    0  0.00000000000E+00 -0.00000000000E+00 -0.14458128730E+04  0.14458128730E+04  0.25500000000E-02 0. -1.
    8880023    1    1    2    0    0  0.13912755323E+04  0.86939121136E+02  0.63718159382E+03  0.16682375752E+04  0.65864270000E+03 0.  0.
    8880022    1    1    2    0    0 -0.13912755323E+04 -0.86939121136E+02 -0.40179148523E+03  0.14587782793E+04  0.15294330000E+03 0.  0.
<mgrwt>
<rscale>  0 0.15056586E+04</rscale>
<asrwt>0</asrwt>
<pdfrwt beam="1">  1        2 0.22243275E+00 0.15417575E+04</pdfrwt>
<pdfrwt beam="2">  1       -2 0.25864661E+00 0.15417575E+04</pdfrwt>
<totfact> 0.72613444E-01</totfact>
</mgrwt>
</event>
<event>
 4    5  0.6615028E-008  0.6744918E+03  0.7818608E-02  0.1012628E+00
         -2   -1    0    0    0  501 -0.00000000000E+00  0.00000000000E+00  0.27142232624E+03  0.27142232625E+03  0.25500000000E-02 0.  1.
          2   -1    0    0  501    0  0.00000000000E+00 -0.00000000000E+00 -0.13030954129E+04  0.13030954129E+04  0.25500000000E-02 0. -1.
    8880023    1    1    2    0    0 -0.11177602245E+03 -0.92925468353E+02 -0.11495546145E+04  0.13328222087E+04  0.65864270000E+03 0. -1.
    8880022    1    1    2    0    0  0.11177602245E+03  0.92925468353E+02  0.11788152782E+03  0.24169553053E+03  0.15294330000E+03 0.  0.
<mgrwt>
<rscale>  0 0.50443213E+03</rscale>
<asrwt>0</asrwt>
<pdfrwt beam="1">  1        2 0.20047621E+00 0.67449183E+03</pdfrwt>
<pdfrwt beam="2">  1       -2 0.41757282E-01 0.67449183E+03</pdfrwt>
<totfact> 0.91573018E+01</totfact>
</mgrwt>
</event>
<event>
 4    5  0.6615028E-008  0.9769643E+03  0.7818608E-02  0.9412336E-01
         -2   -1    0    0    0  501 -0.00000000000E+00  0.00000000000E+00  0.65810317562E+03  0.65810317562E+03  0.25500000000E-02 0.  1.
          2   -1    0    0  501    0  0.00000000000E+00 -0.00000000000E+00 -0.19538038011E+04  0.19538038011E+04  0.25500000000E-02 0. -1.
    8880023    1    1    2    0    0 -0.53069282027E+02 -0.71960592071E+03 -0.15495803889E+04  0.18318456861E+04  0.65864270000E+03 0. -1.
    8880022    1    1    2    0    0  0.53069282027E+02  0.71960592071E+03  0.25387976342E+03  0.78006129060E+03  0.15294330000E+03 0.  0.
<mgrwt>
<rscale>  0 0.91067401E+03</rscale>
<asrwt>0</asrwt>
<pdfrwt beam="1">  1        2 0.30058520E+00 0.97696430E+03</pdfrwt>
<pdfrwt beam="2">  1       -2 0.10124664E+00 0.97696430E+03</pdfrwt>
<totfact> 0.56997275E+00</totfact>
</mgrwt>
</event>
<event>
 4    5  0.6615028E-008  0.6783591E+03  0.7818608E-02  0.1010267E+00
          2   -1    0    0  501    0  0.00000000000E+00  0.00000000000E+00  0.30920529926E+04  0.30920529926E+04  0.25500000000E-02 0. -1.
         -2   -1    0    0    0  501 -0.00000000000E+00 -0.00000000000E+00 -0.40108117202E+03  0.40108117203E+03  0.25500000000E-02 0.  1.
    8880023    1    1    2    0    0  0.16081677610E+03 -0.22334510183E+02  0.30202090905E+04  0.30954537668E+04  0.65864270000E+03 0. -1.
    8880022    1    1    2    0    0 -0.16081677610E+03  0.22334510183E+02 -0.32923726997E+03  0.39768039777E+03  0.15294330000E+03 0.  0.
<mgrwt>
<rscale>  0 0.51368470E+03</rscale>
<asrwt>0</asrwt>
<pdfrwt beam="1">  1        2 0.47570045E+00 0.67835910E+03</pdfrwt>
<pdfrwt beam="2">  1       -2 0.61704797E-01 0.67835910E+03</pdfrwt>
<totfact> 0.40358275E+00</totfact>
</mgrwt>
</event>
<event>
 4    5  0.6615028E-008  0.7660917E+03  0.7818608E-02  0.9789584E-01
          2   -1    0    0  501    0  0.00000000000E+00  0.00000000000E+00  0.36900004646E+03  0.36900004647E+03  0.25500000000E-02 0. -1.
         -2   -1    0    0    0  501 -0.00000000000E+00 -0.00000000000E+00 -0.14969925896E+04  0.14969925896E+04  0.25500000000E-02 0.  1.
    8880023    1    1    2    0    0  0.35471036549E+03  0.16512693564E+03 -0.12191579552E+03  0.77573192258E+03  0.65864270000E+03 0. -1.
    8880022    1    1    2    0    0 -0.35471036549E+03 -0.16512693564E+03 -0.10060767476E+04  0.10902607135E+04  0.15294330000E+03 0.  0.
<mgrwt>
<rscale>  0 0.65924509E+03</rscale>
<asrwt>0</asrwt>
<pdfrwt beam="1">  1        2 0.56769239E-01 0.76609174E+03</pdfrwt>
<pdfrwt beam="2">  1       -2 0.23030655E+00 0.76609174E+03</pdfrwt>
<totfact> 0.75756320E+00</totfact>
</mgrwt>
</event>
<event>
 4    5  0.6615028E-008  0.1191407E+04  0.7818608E-02  0.9165521E-01
         -2   -1    0    0    0  501 -0.00000000000E+00  0.00000000000E+00  0.30295557901E+04  0.30295557901E+04  0.25500000000E-02 0.  1.
          2   -1    0    0  501    0  0.00000000000E+00 -0.00000000000E+00 -0.87516671547E+03  0.87516671548E+03  0.25500000000E-02 0. -1.
    8880023    1    1    2    0    0  0.86199186093E+02 -0.98904533501E+03 -0.32048666534E+03  0.12337596538E+04  0.65864270000E+03 0.  0.
    8880022    1    1    2    0    0 -0.86199186093E+02  0.98904533501E+03  0.24748757400E+04  0.26709628518E+04  0.15294330000E+03 0.  0.
<mgrwt>
<rscale>  0 0.11416509E+04</rscale>
<asrwt>0</asrwt>
<pdfrwt beam="1">  1        2 0.13464103E+00 0.11914072E+04</pdfrwt>
<pdfrwt beam="2">  1       -2 0.46608551E+00 0.11914072E+04</pdfrwt>
<totfact> 0.81784293E-02</totfact>
</mgrwt>
</event>
<event>
 4    5  0.6615028E-008  0.1138361E+04  0.7818608E-02  0.9219502E-01
          2   -1    0    0  501    0  0.00000000000E+00  0.00000000000E+00  0.16798544169E+04  0.16798544169E+04  0.25500000000E-02 0. -1.
         -2   -1    0    0    0  501 -0.00000000000E+00 -0.00000000000E+00 -0.16185445464E+04  0.16185445464E+04  0.25500000000E-02 0.  1.
    8880023    1    1    2    0    0  0.92345809893E+03  0.96333794205E+02  0.13095830095E+04  0.17351867120E+04  0.65864270000E+03 0.  0.
    8880022    1    1    2    0    0 -0.92345809893E+03 -0.96333794205E+02 -0.12482731389E+04  0.15632122513E+04  0.15294330000E+03 0.  0.
<mgrwt>
<rscale>  0 0.10854386E+04</rscale>
<asrwt>0</asrwt>
<pdfrwt beam="1">  1        2 0.25843914E+00 0.11383608E+04</pdfrwt>
<pdfrwt beam="2">  1       -2 0.24900685E+00 0.11383608E+04</pdfrwt>
<totfact> 0.64253875E-01</totfact>
</mgrwt>
</event>
<event>
 4    5  0.6615028E-008  0.1392602E+04  0.7818608E-02  0.8989453E-01
          2   -1    0    0  501    0  0.00000000000E+00  0.00000000000E+00  0.39159411999E+04  0.39159411999E+04  0.25500000000E-02 0. -1.
         -2   -1    0    0    0  501 -0.00000000000E+00 -0.00000000000E+00 -0.55958555897E+03  0.55958555898E+03  0.25500000000E-02 0.  1.
    8880023    1    1    2    0    0 -0.61020894363E+03 -0.10645071021E+04  0.27842354197E+04  0.31130864755E+04  0.65864270000E+03 0.  0.
    8880022    1    1    2    0    0  0.61020894363E+03  0.10645071021E+04  0.57212022125E+03  0.13624402834E+04  0.15294330000E+03 0.  0.
<mgrwt>
<rscale>  0 0.13518187E+04</rscale>
<asrwt>0</asrwt>
<pdfrwt beam="1">  1        2 0.60245251E+00 0.13926021E+04</pdfrwt>
<pdfrwt beam="2">  1       -2 0.86090084E-01 0.13926021E+04</pdfrwt>
<totfact> 0.46049960E-01</totfact>
</mgrwt>
</event>
<event>
 4    5  0.6615028E-008  0.1098608E+04  0.7818608E-02  0.9262608E-01
          2   -1    0    0  501    0  0.00000000000E+00  0.00000000000E+00  0.87255358064E+03  0.87255358064E+03  0.25500000000E-02 0. -1.
         -2   -1    0    0    0  501 -0.00000000000E+00 -0.00000000000E+00 -0.18610437059E+04  0.18610437059E+04  0.25500000000E-02 0.  1.
    8880023    1    1    2    0    0  0.87922063578E+03 -0.10006949333E+02  0.32492339854E+03  0.11456502462E+04  0.65864270000E+03 0. -1.
    8880022    1    1    2    0    0 -0.87922063578E+03  0.10006949333E+02 -0.13134135238E+04  0.15879470403E+04  0.15294330000E+03 0.  0.
<mgrwt>
<rscale>  0 0.10429937E+04</rscale>
<asrwt>0</asrwt>
<pdfrwt beam="1">  1        2 0.13423901E+00 0.10986079E+04</pdfrwt>
<pdfrwt beam="2">  1       -2 0.28631442E+00 0.10986079E+04</pdfrwt>
<totfact> 0.11677763E+00</totfact>
</mgrwt>
</event>
<event>
 4    5  0.6615028E-008  0.1560377E+04  0.7818608E-02  0.8868138E-01
          2   -1    0    0  501    0  0.00000000000E+00  0.00000000000E+00  0.10479907979E+04  0.10479907979E+04  0.25500000000E-02 0. -1.
         -2   -1    0    0    0  501 -0.00000000000E+00 -0.00000000000E+00 -0.23171580096E+04  0.23171580096E+04  0.25500000000E-02 0.  1.
    8880023    1    1    2    0    0  0.13687362362E+04 -0.35710985375E+03 -0.17476186284E+03  0.15701331940E+04  0.65864270000E+03 0.  0.
    8880022    1    1    2    0    0 -0.13687362362E+04  0.35710985375E+03 -0.10944053489E+04  0.17950156134E+04  0.15294330000E+03 0.  0.
<mgrwt>
<rscale>  0 0.15247831E+04</rscale>
<asrwt>0</asrwt>
<pdfrwt beam="1">  1        2 0.16122935E+00 0.15603770E+04</pdfrwt>
<pdfrwt beam="2">  1       -2 0.35648585E+00 0.15603770E+04</pdfrwt>
<totfact> 0.31327900E-01</totfact>
</mgrwt>
</event>
<event>
 4    5  0.6615028E-008  0.1148309E+04  0.7818608E-02  0.9209084E-01
          2   -1    0    0  501    0  0.00000000000E+00  0.00000000000E+00  0.20390501677E+04  0.20390501677E+04  0.25500000000E-02 0. -1.
         -2   -1    0    0    0  501 -0.00000000000E+00 -0.00000000000E+00 -0.62933050088E+03  0.62933050088E+03  0.25500000000E-02 0.  1.
    8880023    1    1    2    0    0 -0.91443952027E+03  0.22046427967E+03  0.12581744906E+04  0.17034134524E+04  0.65864270000E+03 0.  0.
    8880022    1    1    2    0    0  0.91443952027E+03 -0.22046427967E+03  0.15154517624E+03  0.96496721618E+03  0.15294330000E+03 0.  0.
<mgrwt>
<rscale>  0 0.10960153E+04</rscale>
<asrwt>0</asrwt>
<pdfrwt beam="1">  1        2 0.31370003E+00 0.11483093E+04</pdfrwt>
<pdfrwt beam="2">  1       -2 0.96820076E-01 0.11483093E+04</pdfrwt>
<totfact> 0.55788858E+00</totfact>
</mgrwt>
</event>
<event>
 4    5  0.6615028E-008  0.1688904E+04  0.7818608E-02  0.8786615E-01
         -2   -1    0    0    0  501 -0.00000000000E+00  0.00000000000E+00  0.18713205597E+04  0.18713205597E+04  0.25500000000E-02 0.  1.
          2   -1    0    0  501    0  0.00000000000E+00 -0.00000000000E+00 -0.18330590118E+04  0.18330590118E+04  0.25500000000E-02 0. -1.
    8880023    1    1    2    0    0  0.62896103660E+03  0.14223205800E+04 -0.86697913811E+03  0.18984337887E+04  0.65864270000E+03 0.  0.
    8880022    1    1    2    0    0 -0.62896103660E+03 -0.14223205800E+04  0.90524068599E+03  0.18059457828E+04  0.15294330000E+03 0.  0.
<mgrwt>
<rscale>  0 0.16564241E+04</rscale>
<asrwt>0</asrwt>
<pdfrwt beam="1">  1        2 0.28200908E+00 0.16889044E+04</pdfrwt>
<pdfrwt beam="2">  1       -2 0.28789547E+00 0.16889044E+04</pdfrwt>
<totfact> 0.28672338E-01</totfact>
</mgrwt>
</event>
<event>
 4    5  0.7683137E-008  0.1046084E+04  0.7818608E-02  0.9323604E-01
          2   -1    0    0  501    0  0.00000000000E+00  0.00000000000E+00  0.22563867816E+04  0.22563867816E+04  0.25500000000E-02 0. -1.
         -2   -1    0    0    0  501 -0.00000000000E+00 -0.00000000000E+00 -0.21988494843E+04  0.21988494843E+04  0.25500000000E-02 0.  1.
    8880023    1    1    2    0    0  0.31597412299E+03  0.74875957557E+03  0.20480698663E+04  0.22997567114E+04  0.65864270000E+03 0. -1.
    8880022    1    1    2    0    0 -0.31597412299E+03 -0.74875957557E+03 -0.19905325690E+04  0.21554795544E+04  0.15294330000E+03 0.  0.
<mgrwt>
<rscale>  0 0.98638542E+03</rscale>
<asrwt>0</asrwt>
<pdfrwt beam="1">  1        2 0.34713643E+00 0.10460835E+04</pdfrwt>
<pdfrwt beam="2">  1       -2 0.33828454E+00 0.10460835E+04</pdfrwt>
<totfact> 0.89377409E-02</totfact>
</mgrwt>
</event>
<event>
 4    5  0.6615028E-008  0.7278704E+03  0.7818608E-02  0.9896803E-01
         -2   -1    0    0    0  501 -0.00000000000E+00  0.00000000000E+00  0.16506849238E+04  0.16506849238E+04  0.25500000000E-02 0.  1.
          2   -1    0    0  501    0  0.00000000000E+00 -0.00000000000E+00 -0.48098260027E+03  0.48098260028E+03  0.25500000000E-02 0. -1.
    8880023    1    1    2    0    0 -0.30610152140E+03  0.47821700090E+02 -0.17055991939E+03  0.74758674999E+03  0.65864270000E+03 0. -1.
    8880022    1    1    2    0    0  0.30610152140E+03 -0.47821700090E+02  0.13402622429E+04  0.13840807741E+04  0.15294330000E+03 0.  0.
<mgrwt>
<rscale>  0 0.60416488E+03</rscale>
<asrwt>0</asrwt>
<pdfrwt beam="1">  1        2 0.73997323E-01 0.72787036E+03</pdfrwt>
<pdfrwt beam="2">  1       -2 0.25395153E+00 0.72787036E+03</pdfrwt>
<totfact> 0.40435335E+00</totfact>
</mgrwt>
</event>
<event>
 4    5  0.6615028E-008  0.1006935E+04  0.7818608E-02  0.9372540E-01
         -2   -1    0    0    0  501 -0.00000000000E+00  0.00000000000E+00  0.19498362632E+04  0.19498362632E+04  0.25500000000E-02 0.  1.
          2   -1    0    0  501    0  0.00000000000E+00 -0.00000000000E+00 -0.79618060034E+03  0.79618060034E+03  0.25500000000E-02 0. -1.
    8880023    1    1    2    0    0 -0.49007111364E+03  0.58304267562E+03 -0.33969276596E+03  0.10626899075E+04  0.65864270000E+03 0. -1.
    8880022    1    1    2    0    0  0.49007111364E+03 -0.58304267562E+03  0.14933484289E+04  0.16833269561E+04  0.15294330000E+03 0.  0.
<mgrwt>
<rscale>  0 0.94370409E+03</rscale>
<asrwt>0</asrwt>
<pdfrwt beam="1">  1        2 0.12248932E+00 0.10069353E+04</pdfrwt>
<pdfrwt beam="2">  1       -2 0.29997481E+00 0.10069353E+04</pdfrwt>
<totfact> 0.11062362E+00</totfact>
</mgrwt>
</event>
<event>
 4    5  0.6615028E-008  0.1283238E+04  0.7818608E-02  0.9080171E-01
         -2   -1    0    0    0  501 -0.00000000000E+00  0.00000000000E+00  0.81672187359E+03  0.81672187359E+03  0.25500000000E-02 0.  1.
          2   -1    0    0  501    0  0.00000000000E+00 -0.00000000000E+00 -0.31203144430E+04  0.31203144430E+04  0.25500000000E-02 0. -1.
    8880023    1    1    2    0    0  0.15723381574E+03 -0.10900313499E+04 -0.24979608641E+04  0.28082929872E+04  0.65864270000E+03 0.  0.
    8880022    1    1    2    0    0 -0.15723381574E+03  0.10900313499E+04  0.19436829475E+03  0.11287433294E+04  0.15294330000E+03 0.  0.
<mgrwt>
<rscale>  0 0.12380701E+04</rscale>
<asrwt>0</asrwt>
<pdfrwt beam="1">  1        2 0.48004837E+00 0.12832385E+04</pdfrwt>
<pdfrwt beam="2">  1       -2 0.12564952E+00 0.12832385E+04</pdfrwt>
<totfact> 0.67603675E-01</totfact>
</mgrwt>
</event>
<event>
 4    5  0.6615028E-008  0.1495136E+04  0.7818608E-02  0.8913078E-01
          2   -1    0    0  501    0  0.00000000000E+00  0.00000000000E+00  0.82910434936E+03  0.82910434936E+03  0.25500000000E-02 0. -1.
         -2   -1    0    0    0  501 -0.00000000000E+00 -0.00000000000E+00 -0.33467008194E+04  0.33467008194E+04  0.25500000000E-02 0.  1.
    8880023    1    1    2    0    0 -0.13400247353E+04  0.77164140868E+02 -0.22105510614E+03  0.15113888190E+04  0.65864270000E+03 0.  0.
    8880022    1    1    2    0    0  0.13400247353E+04 -0.77164140868E+02 -0.22965413639E+04  0.26644163498E+04  0.15294330000E+03 0.  0.
<mgrwt>
<rscale>  0 0.14577018E+04</rscale>
<asrwt>0</asrwt>
<pdfrwt beam="1">  1        2 0.12755452E+00 0.14951357E+04</pdfrwt>
<pdfrwt beam="2">  1       -2 0.51487704E+00 0.14951357E+04</pdfrwt>
<totfact> 0.41393075E-02</totfact>
</mgrwt>
</event>
<event>
 4    5  0.6615028E-008  0.1259879E+04  0.7818608E-02  0.9101006E-01
         -2   -1    0    0    0  501 -0.00000000000E+00  0.00000000000E+00  0.16104220033E+04  0.16104220033E+04  0.25500000000E-02 0.  1.
          2   -1    0    0  501    0  0.00000000000E+00 -0.00000000000E+00 -0.11644403283E+04  0.11644403283E+04  0.25500000000E-02 0. -1.
    8880023    1    1    2    0    0 -0.10718730649E+04 -0.67615218687E+02 -0.48034667396E+03  0.13483422483E+04  0.65864270000E+03 0.  0.
    8880022    1    1    2    0    0  0.10718730649E+04  0.67615218687E+02  0.92632834897E+03  0.14265200833E+04  0.15294330000E+03 0.  0.
<mgrwt>
<rscale>  0 0.12136342E+04</rscale>
<asrwt>0</asrwt>
<pdfrwt beam="1">  1        2 0.17914467E+00 0.12598785E+04</pdfrwt>
<pdfrwt beam="2">  1       -2 0.24775723E+00 0.12598785E+04</pdfrwt>
<totfact> 0.12757374E+00</totfact>
</mgrwt>
</event>
<event>
 4    5  0.6689916E-008  0.7510798E+03  0.7818608E-02  0.9828773E-01
          2   -1    0    0  501    0  0.00000000000E+00  0.00000000000E+00  0.19671008286E+04  0.19671008286E+04  0.25500000000E-02 0. -1.
         -2   -1    0    0    0  501 -0.00000000000E+00 -0.00000000000E+00 -0.23870807462E+04  0.23870807462E+04  0.25500000000E-02 0.  1.
    8880023    1    1    2    0    0 -0.26366755342E+03 -0.24655651130E+03  0.18781960713E+04  0.20228053244E+04  0.65864270000E+03 0.  0.
    8880022    1    1    2    0    0  0.26366755342E+03  0.24655651130E+03 -0.22981759889E+04  0.23313762504E+04  0.15294330000E+03 0.  0.
<mgrwt>
<rscale>  0 0.63840993E+03</rscale>
<asrwt>0</asrwt>
<pdfrwt beam="1">  1        2 0.30263089E+00 0.75107982E+03</pdfrwt>
<pdfrwt beam="2">  1       -2 0.36724319E+00 0.75107982E+03</pdfrwt>
<totfact> 0.91177376E-02</totfact>
</mgrwt>
</event>
<event>
 4    5  0.6615028E-008  0.7343813E+03  0.7818608E-02  0.9876627E-01
          2   -1    0    0  501    0  0.00000000000E+00  0.00000000000E+00  0.17240175921E+04  0.17240175921E+04  0.25500000000E-02 0. -1.
         -2   -1    0    0    0  501 -0.00000000000E+00 -0.00000000000E+00 -0.25313220874E+03  0.25313220876E+03  0.25500000000E-02 0.  1.
    8880023    1    1    2    0    0 -0.15044068680E+03  0.28787729742E+03  0.14404334960E+04  0.16168378401E+04  0.65864270000E+03 0.  0.
    8880022    1    1    2    0    0  0.15044068680E+03 -0.28787729742E+03  0.30451887406E+02  0.36031196077E+03  0.15294330000E+03 0.  0.
<mgrwt>
<rscale>  0 0.61407546E+03</rscale>
<asrwt>0</asrwt>
<pdfrwt beam="1">  1        2 0.26523348E+00 0.73438133E+03</pdfrwt>
<pdfrwt beam="2">  1       -2 0.38943416E-01 0.73438133E+03</pdfrwt>
<totfact> 0.60799146E+01</totfact>
</mgrwt>
</event>
<event>
 4    5  0.6615028E-008  0.6857708E+03  0.7818608E-02  0.1006231E+00
          2   -1    0    0  501    0  0.00000000000E+00  0.00000000000E+00  0.38641203076E+03  0.38641203077E+03  0.25500000000E-02 0. -1.
         -2   -1    0    0    0  501 -0.00000000000E+00 -0.00000000000E+00 -0.12750709722E+04  0.12750709722E+04  0.25500000000E-02 0.  1.
    8880023    1    1    2    0    0 -0.15368638771E+03 -0.11336605980E+03  0.53709181595E+02  0.68787081035E+03  0.65864270000E+03 0. -1.
    8880022    1    1    2    0    0  0.15368638771E+03  0.11336605980E+03 -0.94236812307E+03  0.97361219265E+03  0.15294330000E+03 0.  0.
<mgrwt>
<rscale>  0 0.53000390E+03</rscale>
<asrwt>0</asrwt>
<pdfrwt beam="1">  1        2 0.59448006E-01 0.68577079E+03</pdfrwt>
<pdfrwt beam="2">  1       -2 0.19616476E+00 0.68577079E+03</pdfrwt>
<totfact> 0.11943428E+01</totfact>
</mgrwt>
</event>
<event>
 4    5  0.8888039E-008  0.1230466E+04  0.7818608E-02  0.9128061E-01
         -2   -1    0    0    0  501 -0.00000000000E+00  0.00000000000E+00  0.15730862581E+04  0.15730862581E+04  0.25500000000E-02 0.  1.
          2   -1    0    0  501    0  0.00000000000E+00 -0.00000000000E+00 -0.26339205129E+04  0.26339205129E+04  0.25500000000E-02 0. -1.
    8880023    1    1    2    0    0 -0.33002067280E+03  0.98555733258E+03 -0.22841640326E+04  0.25945042753E+04  0.65864270000E+03 0.  0.
    8880022    1    1    2    0    0  0.33002067280E+03 -0.98555733258E+03  0.12233297778E+04  0.16125024957E+04  0.15294330000E+03 0.  0.
<mgrwt>
<rscale>  0 0.11827832E+04</rscale>
<asrwt>0</asrwt>
<pdfrwt beam="1">  1        2 0.40521854E+00 0.12304662E+04</pdfrwt>
<pdfrwt beam="2">  1       -2 0.24201327E+00 0.12304662E+04</pdfrwt>
<totfact> 0.20375143E-01</totfact>
</mgrwt>
</event>
<event>
 4    5  0.6615028E-008  0.8559482E+03  0.7818608E-02  0.9600812E-01
          2   -1    0    0  501    0  0.00000000000E+00  0.00000000000E+00  0.14307722368E+04  0.14307722368E+04  0.25500000000E-02 0. -1.
         -2   -1    0    0    0  501 -0.00000000000E+00 -0.00000000000E+00 -0.46105126152E+03  0.46105126152E+03  0.25500000000E-02 0.  1.
    8880023    1    1    2    0    0 -0.27886427034E+03 -0.47018280192E+03  0.10085948278E+04  0.13228419715E+04  0.65864270000E+03 0.  0.
    8880022    1    1    2    0    0  0.27886427034E+03  0.47018280192E+03 -0.38873852532E+02  0.56898152687E+03  0.15294330000E+03 0.  0.
<mgrwt>
<rscale>  0 0.77242472E+03</rscale>
<asrwt>0</asrwt>
<pdfrwt beam="1">  1        2 0.22011880E+00 0.85594822E+03</pdfrwt>
<pdfrwt beam="2">  1       -2 0.70930965E-01 0.85594822E+03</pdfrwt>
<totfact> 0.25366741E+01</totfact>
</mgrwt>
</event>
<event>
 4    5  0.6615028E-008  0.7562036E+03  0.7818608E-02  0.9815037E-01
          2   -1    0    0  501    0  0.00000000000E+00  0.00000000000E+00  0.38558564917E+04  0.38558564917E+04  0.25500000000E-02 0. -1.
         -2   -1    0    0    0  501 -0.00000000000E+00 -0.00000000000E+00 -0.47229751400E+03  0.47229751401E+03  0.25500000000E-02 0.  1.
    8880023    1    1    2    0    0  0.27685180250E+03 -0.24776357663E+03  0.37249430872E+04  0.38009268501E+04  0.65864270000E+03 0. -1.
    8880022    1    1    2    0    0 -0.27685180250E+03  0.24776357663E+03 -0.34138410948E+03  0.52722715567E+03  0.15294330000E+03 0.  0.
<mgrwt>
<rscale>  0 0.64561786E+03</rscale>
<asrwt>0</asrwt>
<pdfrwt beam="1">  1        2 0.59320870E+00 0.75620362E+03</pdfrwt>
<pdfrwt beam="2">  1       -2 0.72661155E-01 0.75620362E+03</pdfrwt>
<totfact> 0.84124874E-01</totfact>
</mgrwt>
</event>
<event>
 4    5  0.6615028E-008  0.1091322E+04  0.7818608E-02  0.9270780E-01
          2   -1    0    0  501    0  0.00000000000E+00  0.00000000000E+00  0.27232367207E+04  0.27232367207E+04  0.25500000000E-02 0. -1.
         -2   -1    0    0    0  501 -0.00000000000E+00 -0.00000000000E+00 -0.38686630666E+03  0.38686630667E+03  0.25500000000E-02 0.  1.
    8880023    1    1    2    0    0 -0.48836079081E+03  0.72019301244E+03  0.17043926438E+04  0.20238425649E+04  0.65864270000E+03 0.  0.
    8880022    1    1    2    0    0  0.48836079081E+03 -0.72019301244E+03  0.63197777025E+03  0.10862604624E+04  0.15294330000E+03 0.  0.
<mgrwt>
<rscale>  0 0.10351803E+04</rscale>
<asrwt>0</asrwt>
<pdfrwt beam="1">  1        2 0.41895952E+00 0.10913223E+04</pdfrwt>
<pdfrwt beam="2">  1       -2 0.59517890E-01 0.10913223E+04</pdfrwt>
<totfact> 0.68078136E+00</totfact>
</mgrwt>
</event>
<event>
 4    5  0.6615028E-008  0.8436652E+03  0.7818608E-02  0.9623308E-01
         -2   -1    0    0    0  501 -0.00000000000E+00  0.00000000000E+00  0.18680465313E+03  0.18680465315E+03  0.25500000000E-02 0.  1.
          2   -1    0    0  501    0  0.00000000000E+00 -0.00000000000E+00 -0.32214951898E+04  0.32214951898E+04  0.25500000000E-02 0. -1.
    8880023    1    1    2    0    0  0.17374001857E+03  0.49777015861E+03 -0.25135998998E+04  0.26514063037E+04  0.65864270000E+03 0. -1.
    8880022    1    1    2    0    0 -0.17374001857E+03 -0.49777015861E+03 -0.52109063682E+03  0.75689353918E+03  0.15294330000E+03 0.  0.
<mgrwt>
<rscale>  0 0.75772553E+03</rscale>
<asrwt>0</asrwt>
<pdfrwt beam="1">  1        2 0.49561460E+00 0.84366518E+03</pdfrwt>
<pdfrwt beam="2">  1       -2 0.28739180E-01 0.84366518E+03</pdfrwt>
<totfact> 0.14656163E+01</totfact>
</mgrwt>
</event>
<event>
 4    5  0.6615028E-008  0.8049200E+03  0.7818608E-02  0.9700257E-01
         -2   -1    0    0    0  501 -0.00000000000E+00  0.00000000000E+00  0.40857506163E+03  0.40857506164E+03  0.25500000000E-02 0.  1.
          2   -1    0    0  501    0  0.00000000000E+00 -0.00000000000E+00 -0.15461723615E+04  0.15461723615E+04  0.25500000000E-02 0. -1.
    8880023    1    1    2    0    0  0.37888288315E+03 -0.26558182309E+03 -0.12189057331E+04  0.14606941282E+04  0.65864270000E+03 0. -1.
    8880022    1    1    2    0    0 -0.37888288315E+03  0.26558182309E+03  0.81308433178E+02  0.49405329493E+03  0.15294330000E+03 0.  0.
<mgrwt>
<rscale>  0 0.71001472E+03</rscale>
<asrwt>0</asrwt>
<pdfrwt beam="1">  1        2 0.23787267E+00 0.80491997E+03</pdfrwt>
<pdfrwt beam="2">  1       -2 0.62857703E-01 0.80491997E+03</pdfrwt>
<totfact> 0.28545657E+01</totfact>
</mgrwt>
</event>
<event>
 4    5  0.6615028E-008  0.1224887E+04  0.7818608E-02  0.9133302E-01
          2   -1    0    0  501    0  0.00000000000E+00  0.00000000000E+00  0.29697763163E+04  0.29697763163E+04  0.25500000000E-02 0. -1.
         -2   -1    0    0    0  501 -0.00000000000E+00 -0.00000000000E+00 -0.58071056659E+03  0.58071056660E+03  0.25500000000E-02 0.  1.
    8880023    1    1    2    0    0 -0.83605688156E+03 -0.60625702526E+03  0.37346236821E+03  0.12805557530E+04  0.65864270000E+03 0.  1.
    8880022    1    1    2    0    0  0.83605688156E+03  0.60625702526E+03  0.20156033815E+04  0.22699311299E+04  0.15294330000E+03 0.  0.
<mgrwt>
<rscale>  0 0.11769200E+04</rscale>
<asrwt>0</asrwt>
<pdfrwt beam="1">  1        2 0.45688866E+00 0.12248873E+04</pdfrwt>
<pdfrwt beam="2">  1       -2 0.89340087E-01 0.12248873E+04</pdfrwt>
<totfact> 0.19323140E+00</totfact>
</mgrwt>
</event>
<event>
 4    5  0.6615028E-008  0.1034119E+04  0.7818608E-02  0.9338221E-01
          2   -1    0    0  501    0  0.00000000000E+00  0.00000000000E+00  0.12957078487E+04  0.12957078487E+04  0.25500000000E-02 0. -1.
         -2   -1    0    0    0  501 -0.00000000000E+00 -0.00000000000E+00 -0.20758338762E+04  0.20758338762E+04  0.25500000000E-02 0.  1.
    8880023    1    1    2    0    0  0.37108414890E+03  0.70561180417E+03  0.98533792785E+03  0.14283880783E+04  0.65864270000E+03 0.  0.
    8880022    1    1    2    0    0 -0.37108414890E+03 -0.70561180417E+03 -0.17654639554E+04  0.19431536467E+04  0.15294330000E+03 0.  0.
<mgrwt>
<rscale>  0 0.97339051E+03</rscale>
<asrwt>0</asrwt>
<pdfrwt beam="1">  1        2 0.19933967E+00 0.10341188E+04</pdfrwt>
<pdfrwt beam="2">  1       -2 0.31935906E+00 0.10341188E+04</pdfrwt>
<totfact> 0.40244375E-01</totfact>
</mgrwt>
</event>
<event>
 4    5  0.6615028E-008  0.1124829E+04  0.7818608E-02  0.9233903E-01
          2   -1    0    0  501    0  0.00000000000E+00  0.00000000000E+00  0.18541626647E+04  0.18541626647E+04  0.25500000000E-02 0. -1.
         -2   -1    0    0    0  501 -0.00000000000E+00 -0.00000000000E+00 -0.78778391732E+03  0.78778391732E+03  0.25500000000E-02 0.  1.
    8880023    1    1    2    0    0  0.84378024776E+03 -0.34563790281E+03  0.12686658232E+04  0.16955099067E+04  0.65864270000E+03 0.  0.
    8880022    1    1    2    0    0 -0.84378024776E+03  0.34563790281E+03 -0.20228707584E+03  0.94643667534E+03  0.15294330000E+03 0.  0.
<mgrwt>
<rscale>  0 0.10710246E+04</rscale>
<asrwt>0</asrwt>
<pdfrwt beam="1">  1        2 0.28525579E+00 0.11248293E+04</pdfrwt>
<pdfrwt beam="2">  1       -2 0.12119753E+00 0.11248293E+04</pdfrwt>
<totfact> 0.41004375E+00</totfact>
</mgrwt>
</event>
<event>
 4    5  0.6615028E-008  0.1004577E+04  0.7818608E-02  0.9375593E-01
         -2   -1    0    0    0  501 -0.00000000000E+00  0.00000000000E+00  0.18448109689E+04  0.18448109689E+04  0.25500000000E-02 0.  1.
          2   -1    0    0  501    0  0.00000000000E+00 -0.00000000000E+00 -0.81073294683E+03  0.81073294683E+03  0.25500000000E-02 0. -1.
    8880023    1    1    2    0    0 -0.49823309623E+03  0.57195227062E+03 -0.35502034646E+03  0.10654648144E+04  0.65864270000E+03 0.  0.
    8880022    1    1    2    0    0  0.49823309623E+03 -0.57195227062E+03  0.13890983686E+04  0.15900791014E+04  0.15294330000E+03 0.  0.
<mgrwt>
<rscale>  0 0.94111764E+03</rscale>
<asrwt>0</asrwt>
<pdfrwt beam="1">  1        2 0.12472815E+00 0.10045774E+04</pdfrwt>
<pdfrwt beam="2">  1       -2 0.28381707E+00 0.10045774E+04</pdfrwt>
<totfact> 0.13526004E+00</totfact>
</mgrwt>
</event>
<event>
 4    5  0.6615028E-008  0.8679790E+03  0.7818608E-02  0.9579525E-01
          2   -1    0    0  501    0  0.00000000000E+00  0.00000000000E+00  0.16227031529E+04  0.16227031529E+04  0.25500000000E-02 0. -1.
         -2   -1    0    0    0  501 -0.00000000000E+00 -0.00000000000E+00 -0.44752168260E+03  0.44752168260E+03  0.25500000000E-02 0.  1.
    8880023    1    1    2    0    0 -0.32762805452E+03  0.46069205887E+03  0.12035683703E+04  0.14839017297E+04  0.65864270000E+03 0. -1.
    8880022    1    1    2    0    0  0.32762805452E+03 -0.46069205887E+03 -0.28386900035E+02  0.58632310574E+03  0.15294330000E+03 0.  0.
<mgrwt>
<rscale>  0 0.78666307E+03</rscale>
<asrwt>0</asrwt>
<pdfrwt beam="1">  1        2 0.24964664E+00 0.86797899E+03</pdfrwt>
<pdfrwt beam="2">  1       -2 0.68849490E-01 0.86797899E+03</pdfrwt>
<totfact> 0.21128511E+01</totfact>
</mgrwt>
</event>
<event>
 4    5  0.6615028E-008  0.8561621E+03  0.7818608E-02  0.9600427E-01
          2   -1    0    0  501    0  0.00000000000E+00  0.00000000000E+00  0.20860000578E+04  0.20860000578E+04  0.25500000000E-02 0. -1.
         -2   -1    0    0    0  501 -0.00000000000E+00 -0.00000000000E+00 -0.65506868604E+03  0.65506868604E+03  0.25500000000E-02 0.  1.
    8880023    1    1    2    0    0  0.54517578537E+03 -0.44572082068E+02  0.18478126644E+04  0.20365228102E+04  0.65864270000E+03 0. -1.
    8880022    1    1    2    0    0 -0.54517578537E+03  0.44572082068E+02 -0.41688129264E+03  0.70454593365E+03  0.15294330000E+03 0.  0.
<mgrwt>
<rscale>  0 0.77267914E+03</rscale>
<asrwt>0</asrwt>
<pdfrwt beam="1">  1        2 0.32092308E+00 0.85616208E+03</pdfrwt>
<pdfrwt beam="2">  1       -2 0.10077980E+00 0.85616208E+03</pdfrwt>
<totfact> 0.49537877E+00</totfact>
</mgrwt>
</event>
<event>
 4    5  0.6615028E-008  0.1571883E+04  0.7818608E-02  0.8860476E-01
         -2   -1    0    0    0  501 -0.00000000000E+00  0.00000000000E+00  0.75220556931E+03  0.75220556931E+03  0.25500000000E-02 0.  1.
          2   -1    0    0  501    0  0.00000000000E+00 -0.00000000000E+00 -0.30722264551E+04  0.30722264551E+04  0.25500000000E-02 0. -1.
    8880023    1    1    2    0    0  0.11943303389E+04 -0.78139750759E+03 -0.93054162210E+03  0.18266704519E+04  0.65864270000E+03 0.  1.
    8880022    1    1    2    0    0 -0.11943303389E+04  0.78139750759E+03 -0.13894792637E+04  0.19977615725E+04  0.15294330000E+03 0. -1.
<mgrwt>
<rscale>  0 0.15365940E+04</rscale>
<asrwt>0</asrwt>
<pdfrwt beam="1">  1        2 0.47265022E+00 0.15718833E+04</pdfrwt>
<pdfrwt beam="2">  1       -2 0.11572394E+00 0.15718833E+04</pdfrwt>
<totfact> 0.86182967E-01</totfact>
</mgrwt>
</event>
<event>
 4    5  0.6615028E-008  0.1374925E+04  0.7818608E-02  0.9003416E-01
         -2   -1    0    0    0  501 -0.00000000000E+00  0.00000000000E+00  0.82345604769E+03  0.82345604769E+03  0.25500000000E-02 0.  1.
          2   -1    0    0  501    0  0.00000000000E+00 -0.00000000000E+00 -0.37945330329E+04  0.37945330329E+04  0.25500000000E-02 0. -1.
    8880023    1    1    2    0    0  0.11936510944E+04 -0.17834195600E+03  0.34688481689E+02  0.13753626014E+04  0.65864270000E+03 0.  0.
    8880022    1    1    2    0    0 -0.11936510944E+04  0.17834195600E+03 -0.30057654669E+04  0.32426264792E+04  0.15294330000E+03 0.  0.
<mgrwt>
<rscale>  0 0.13334969E+04</rscale>
<asrwt>0</asrwt>
<pdfrwt beam="1">  1        2 0.58377430E+00 0.13749251E+04</pdfrwt>
<pdfrwt beam="2">  1       -2 0.12668555E+00 0.13749251E+04</pdfrwt>
<totfact> 0.22476667E-01</totfact>
</mgrwt>
</event>
<event>
 4    5  0.6615028E-008  0.8948304E+03  0.7818608E-02  0.9534382E-01
         -2   -1    0    0    0  501 -0.00000000000E+00  0.00000000000E+00  0.31171195696E+03  0.31171195697E+03  0.25500000000E-02 0.  1.
          2   -1    0    0  501    0  0.00000000000E+00 -0.00000000000E+00 -0.27926521345E+04  0.27926521345E+04  0.25500000000E-02 0. -1.
    8880023    1    1    2    0    0  0.77263113328E+02  0.60078424143E+03 -0.22780612886E+04  0.24475058190E+04  0.65864270000E+03 0.  0.
    8880022    1    1    2    0    0 -0.77263113328E+02 -0.60078424143E+03 -0.20287888894E+03  0.65685827241E+03  0.15294330000E+03 0.  0.
<mgrwt>
<rscale>  0 0.81795759E+03</rscale>
<asrwt>0</asrwt>
<pdfrwt beam="1">  1        2 0.42963877E+00 0.89483043E+03</pdfrwt>
<pdfrwt beam="2">  1       -2 0.47955687E-01 0.89483043E+03</pdfrwt>
<totfact> 0.99416634E+00</totfact>
</mgrwt>
</event>
<event>
 4    5  0.6615028E-008  0.1217281E+04  0.7818608E-02  0.9140504E-01
          2   -1    0    0  501    0  0.00000000000E+00  0.00000000000E+00  0.19822307786E+04  0.19822307786E+04  0.25500000000E-02 0. -1.
         -2   -1    0    0    0  501 -0.00000000000E+00 -0.00000000000E+00 -0.91166523882E+03  0.91166523882E+03  0.25500000000E-02 0.  1.
    8880023    1    1    2    0    0  0.97196750432E+03 -0.32131286275E+03  0.13539895262E+04  0.18207307952E+04  0.65864270000E+03 0.  0.
    8880022    1    1    2    0    0 -0.97196750432E+03  0.32131286275E+03 -0.28342398637E+03  0.10731652223E+04  0.15294330000E+03 0.  0.
<mgrwt>
<rscale>  0 0.11689200E+04</rscale>
<asrwt>0</asrwt>
<pdfrwt beam="1">  1        2 0.30495858E+00 0.12172810E+04</pdfrwt>
<pdfrwt beam="2">  1       -2 0.14025619E+00 0.12172810E+04</pdfrwt>
<totfact> 0.23753931E+00</totfact>
</mgrwt>
</event>
<event>
 4    5  0.6615028E-008  0.7081053E+03  0.7818608E-02  0.9965105E-01
          2   -1    0    0  501    0  0.00000000000E+00  0.00000000000E+00  0.15710941654E+04  0.15710941654E+04  0.25500000000E-02 0. -1.
         -2   -1    0    0    0  501 -0.00000000000E+00 -0.00000000000E+00 -0.30522652507E+03  0.30522652508E+03  0.25500000000E-02 0.  1.
    8880023    1    1    2    0    0 -0.22278883820E+03  0.13404504627E+03  0.13821896020E+04  0.15530168200E+04  0.65864270000E+03 0.  0.
    8880022    1    1    2    0    0  0.22278883820E+03 -0.13404504627E+03 -0.11632196176E+03  0.32330387046E+03  0.15294330000E+03 0.  0.
<mgrwt>
<rscale>  0 0.57207154E+03</rscale>
<asrwt>0</asrwt>
<pdfrwt beam="1">  1        2 0.24170679E+00 0.70810532E+03</pdfrwt>
<pdfrwt beam="2">  1       -2 0.46957927E-01 0.70810532E+03</pdfrwt>
<totfact> 0.51125068E+01</totfact>
</mgrwt>
</event>
<event>
 4    5  0.6615028E-008  0.1073987E+04  0.7818608E-02  0.9290587E-01
          2   -1    0    0  501    0  0.00000000000E+00  0.00000000000E+00  0.17494481384E+04  0.17494481384E+04  0.25500000000E-02 0. -1.
         -2   -1    0    0    0  501 -0.00000000000E+00 -0.00000000000E+00 -0.82776452784E+03  0.82776452785E+03  0.25500000000E-02 0.  1.
    8880023    1    1    2    0    0  0.62029098524E+03  0.57868468895E+03  0.12560822554E+04  0.16526311489E+04  0.65864270000E+03 0. -1.
    8880022    1    1    2    0    0 -0.62029098524E+03 -0.57868468895E+03 -0.33439864485E+03  0.92458151738E+03  0.15294330000E+03 0.  0.
<mgrwt>
<rscale>  0 0.10165408E+04</rscale>
<asrwt>0</asrwt>
<pdfrwt beam="1">  1        2 0.26914587E+00 0.10739865E+04</pdfrwt>
<pdfrwt beam="2">  1       -2 0.12734839E+00 0.10739865E+04</pdfrwt>
<totfact> 0.41579896E+00</totfact>
</mgrwt>
</event>
<event>
 4    5  0.6615028E-008  0.7505329E+03  0.7818608E-02  0.9830264E-01
         -2   -1    0    0    0  501 -0.00000000000E+00  0.00000000000E+00  0.17900162627E+03  0.17900162629E+03  0.25500000000E-02 0.  1.
          2   -1    0    0  501    0  0.00000000000E+00 -0.00000000000E+00 -0.28172516169E+04  0.28172516169E+04  0.25500000000E-02 0. -1.
    8880023    1    1    2    0    0 -0.13235335845E+03 -0.33462228318E+03 -0.24498353122E+04  0.25622241797E+04  0.65864270000E+03 0. -1.
    8880022    1    1    2    0    0  0.13235335845E+03  0.33462228318E+03 -0.18841467846E+03  0.43402906350E+03  0.15294330000E+03 0.  0.
<mgrwt>
<rscale>  0 0.63763413E+03</rscale>
<asrwt>0</asrwt>
<pdfrwt beam="1">  1        2 0.43342329E+00 0.75053294E+03</pdfrwt>
<pdfrwt beam="2">  1       -2 0.27538714E-01 0.75053294E+03</pdfrwt>
<totfact> 0.28528704E+01</totfact>
</mgrwt>
</event>
<event>
 4    5  0.6615028E-008  0.6673054E+03  0.7818608E-02  0.1017673E+00
         -2   -1    0    0    0  501 -0.00000000000E+00  0.00000000000E+00  0.52428064014E+03  0.52428064015E+03  0.25500000000E-02 0.  1.
          2   -1    0    0  501    0  0.00000000000E+00 -0.00000000000E+00 -0.38178887343E+03  0.38178887344E+03  0.25500000000E-02 0. -1.
    8880023    1    1    2    0    0 -0.96696983746E+02 -0.46216717163E+02 -0.62243914679E+01  0.66733442960E+03  0.65864270000E+03 0. -1.
    8880022    1    1    2    0    0  0.96696983746E+02  0.46216717163E+02  0.14871615818E+03  0.23873508399E+03  0.15294330000E+03 0. -1.
<mgrwt>
<rscale>  0 0.48535817E+03</rscale>
<asrwt>0</asrwt>
<pdfrwt beam="1">  1        2 0.58736750E-01 0.66730540E+03</pdfrwt>
<pdfrwt beam="2">  1       -2 0.80658559E-01 0.66730540E+03</pdfrwt>
<totfact> 0.11534873E+02</totfact>
</mgrwt>
</event>
<event>
 4    5  0.6615028E-008  0.1079465E+04  0.7818608E-02  0.9284271E-01
          2   -1    0    0  501    0  0.00000000000E+00  0.00000000000E+00  0.80942896668E+03  0.80942896668E+03  0.25500000000E-02 0. -1.
         -2   -1    0    0    0  501 -0.00000000000E+00 -0.00000000000E+00 -0.18315908027E+04  0.18315908027E+04  0.25500000000E-02 0.  1.
    8880023    1    1    2    0    0 -0.74031510014E+03  0.42821427203E+03  0.24279993954E+03  0.11064338784E+04  0.65864270000E+03 0. -1.
    8880022    1    1    2    0    0  0.74031510014E+03 -0.42821427203E+03 -0.12649617755E+04  0.15345858910E+04  0.15294330000E+03 0.  0.
<mgrwt>
<rscale>  0 0.10224384E+04</rscale>
<asrwt>0</asrwt>
<pdfrwt beam="1">  1        2 0.12452753E+00 0.10794647E+04</pdfrwt>
<pdfrwt beam="2">  1       -2 0.28178320E+00 0.10794647E+04</pdfrwt>
<totfact> 0.13816837E+00</totfact>
</mgrwt>
</event>
<event>
 4    5  0.6615028E-008  0.8012346E+03  0.7818608E-02  0.9708133E-01
         -2   -1    0    0    0  501 -0.00000000000E+00  0.00000000000E+00  0.17562547001E+04  0.17562547001E+04  0.25500000000E-02 0.  1.
          2   -1    0    0  501    0  0.00000000000E+00 -0.00000000000E+00 -0.31507847184E+03  0.31507847185E+03  0.25500000000E-02 0. -1.
    8880023    1    1    2    0    0 -0.11982885940E+03 -0.44023590465E+03  0.34149089820E+03  0.87097235725E+03  0.65864270000E+03 0.  0.
    8880022    1    1    2    0    0  0.11982885940E+03  0.44023590465E+03  0.10996853301E+04  0.12003608147E+04  0.15294330000E+03 0.  0.
<mgrwt>
<rscale>  0 0.70534613E+03</rscale>
<asrwt>0</asrwt>
<pdfrwt beam="1">  1        2 0.48473610E-01 0.80123456E+03</pdfrwt>
<pdfrwt beam="2">  1       -2 0.27019304E+00 0.80123456E+03</pdfrwt>
<totfact> 0.51542007E+00</totfact>
</mgrwt>
</event>
<event>
 4    5  0.6615028E-008  0.1532493E+04  0.7818608E-02  0.8887026E-01
          2   -1    0    0  501    0  0.00000000000E+00  0.00000000000E+00  0.16384878024E+04  0.16384878024E+04  0.25500000000E-02 0. -1.
         -2   -1    0    0    0  501 -0.00000000000E+00 -0.00000000000E+00 -0.16988860715E+04  0.16988860715E+04  0.25500000000E-02 0.  1.
    8880023    1    1    2    0    0 -0.12302938607E+04  0.63332661150E+03 -0.83397700454E+03  0.17447215912E+04  0.65864270000E+03 0.  0.
    8880022    1    1    2    0    0  0.12302938607E+04 -0.63332661150E+03  0.77357873538E+03  0.15926522826E+04  0.15294330000E+03 0.  0.
<mgrwt>
<rscale>  0 0.14961373E+04</rscale>
<asrwt>0</asrwt>
<pdfrwt beam="1">  1        2 0.25207505E+00 0.15324933E+04</pdfrwt>
<pdfrwt beam="2">  1       -2 0.26136709E+00 0.15324933E+04</pdfrwt>
<totfact> 0.54371583E-01</totfact>
</mgrwt>
</event>
<event>
 4    5  0.6615028E-008  0.8078914E+03  0.7818608E-02  0.9693986E-01
         -2   -1    0    0    0  501 -0.00000000000E+00  0.00000000000E+00  0.70943758277E+03  0.70943758277E+03  0.25500000000E-02 0.  1.
          2   -1    0    0  501    0  0.00000000000E+00 -0.00000000000E+00 -0.20359183551E+04  0.20359183551E+04  0.25500000000E-02 0. -1.
    8880023    1    1    2    0    0  0.36141502928E+03  0.29708163425E+03 -0.18549045405E+04  0.20232052247E+04  0.65864270000E+03 0. -1.
    8880022    1    1    2    0    0 -0.36141502928E+03 -0.29708163425E+03  0.52842376813E+03  0.72215071317E+03  0.15294330000E+03 0.  0.
<mgrwt>
<rscale>  0 0.71375998E+03</rscale>
<asrwt>0</asrwt>
<pdfrwt beam="1">  1        2 0.31321821E+00 0.80789141E+03</pdfrwt>
<pdfrwt beam="2">  1       -2 0.10914424E+00 0.80789141E+03</pdfrwt>
<totfact> 0.43893228E+00</totfact>
</mgrwt>
</event>
<event>
 4    5  0.6615028E-008  0.1177294E+04  0.7818608E-02  0.9179517E-01
         -2   -1    0    0    0  501 -0.00000000000E+00  0.00000000000E+00  0.13796692379E+04  0.13796692379E+04  0.25500000000E-02 0.  1.
          2   -1    0    0  501    0  0.00000000000E+00 -0.00000000000E+00 -0.10593080497E+04  0.10593080497E+04  0.25500000000E-02 0. -1.
    8880023    1    1    2    0    0  0.78228294539E+03  0.58330407527E+03 -0.36981416615E+03  0.12340109297E+04  0.65864270000E+03 0.  0.
    8880022    1    1    2    0    0 -0.78228294539E+03 -0.58330407527E+03  0.69017535440E+03  0.12049663579E+04  0.15294330000E+03 0.  0.
<mgrwt>
<rscale>  0 0.11267374E+04</rscale>
<asrwt>0</asrwt>
<pdfrwt beam="1">  1        2 0.16297047E+00 0.11772937E+04</pdfrwt>
<pdfrwt beam="2">  1       -2 0.21225681E+00 0.11772937E+04</pdfrwt>
<totfact> 0.24919868E+00</totfact>
</mgrwt>
</event>
<event>
 4    5  0.6615028E-008  0.6825740E+03  0.7818608E-02  0.1007904E+00
         -2   -1    0    0    0  501 -0.00000000000E+00  0.00000000000E+00  0.25784152808E+03  0.25784152810E+03  0.25500000000E-02 0.  1.
          2   -1    0    0  501    0  0.00000000000E+00 -0.00000000000E+00 -0.13479389340E+04  0.13479389340E+04  0.25500000000E-02 0. -1.
    8880023    1    1    2    0    0  0.11568037253E+03  0.13680335397E+03 -0.11720914993E+04  0.13563575470E+04  0.65864270000E+03 0. -1.
    8880022    1    1    2    0    0 -0.11568037253E+03 -0.13680335397E+03  0.81994093344E+02  0.24942291516E+03  0.15294330000E+03 0.  0.
<mgrwt>
<rscale>  0 0.52316412E+03</rscale>
<asrwt>0</asrwt>
<pdfrwt beam="1">  1        2 0.20737522E+00 0.68257403E+03</pdfrwt>
<pdfrwt beam="2">  1       -2 0.39667928E-01 0.68257403E+03</pdfrwt>
<totfact> 0.95357180E+01</totfact>
</mgrwt>
</event>
<event>
 4    5  0.6615028E-008  0.7870511E+03  0.7818608E-02  0.9739527E-01
         -2   -1    0    0    0  501 -0.00000000000E+00  0.00000000000E+00  0.14916293219E+04  0.14916293219E+04  0.25500000000E-02 0.  1.
          2   -1    0    0  501    0  0.00000000000E+00 -0.00000000000E+00 -0.69305111196E+03  0.69305111197E+03  0.25500000000E-02 0. -1.
    8880023    1    1    2    0    0  0.42411373036E+03  0.75939102955E+02 -0.41362730694E+03  0.88912145343E+03  0.65864270000E+03 0. -1.
    8880022    1    1    2    0    0 -0.42411373036E+03 -0.75939102955E+02  0.12122055168E+04  0.12955589804E+04  0.15294330000E+03 0.  0.
<mgrwt>
<rscale>  0 0.68711352E+03</rscale>
<asrwt>0</asrwt>
<pdfrwt beam="1">  1        2 0.10662325E+00 0.78705108E+03</pdfrwt>
<pdfrwt beam="2">  1       -2 0.22948143E+00 0.78705108E+03</pdfrwt>
<totfact> 0.36497874E+00</totfact>
</mgrwt>
</event>
<event>
 4    5  0.6615028E-008  0.6761419E+03  0.7818608E-02  0.1011596E+00
          2   -1    0    0  501    0  0.00000000000E+00  0.00000000000E+00  0.69899400985E+03  0.69899400986E+03  0.25500000000E-02 0. -1.
         -2   -1    0    0    0  501 -0.00000000000E+00 -0.00000000000E+00 -0.54190626883E+03  0.54190626883E+03  0.25500000000E-02 0.  1.
    8880023    1    1    2    0    0 -0.31109745401E+02 -0.14963225763E+03  0.49623088044E+03  0.83869715735E+03  0.65864270000E+03 0. -1.
    8880022    1    1    2    0    0  0.31109745401E+02  0.14963225763E+03 -0.33914313942E+03  0.40220312134E+03  0.15294330000E+03 0.  0.
<mgrwt>
<rscale>  0 0.50845233E+03</rscale>
<asrwt>0</asrwt>
<pdfrwt beam="1">  1        2 0.10753754E+00 0.67614187E+03</pdfrwt>
<pdfrwt beam="2">  1       -2 0.83370196E-01 0.67614187E+03</pdfrwt>
<totfact> 0.52652918E+01</totfact>
</mgrwt>
</event>
<event>
 4    5  0.6615028E-008  0.9831660E+03  0.7818608E-02  0.9403921E-01
          2   -1    0    0  501    0  0.00000000000E+00  0.00000000000E+00  0.20366034581E+04  0.20366034581E+04  0.25500000000E-02 0. -1.
         -2   -1    0    0    0  501 -0.00000000000E+00 -0.00000000000E+00 -0.66108792893E+03  0.66108792894E+03  0.25500000000E-02 0.  1.
    8880023    1    1    2    0    0  0.56252622218E+03  0.46515528279E+03  0.16351823940E+04  0.19079928867E+04  0.65864270000E+03 0.  0.
    8880022    1    1    2    0    0 -0.56252622218E+03 -0.46515528279E+03 -0.25966686484E+03  0.78969850035E+03  0.15294330000E+03 0.  0.
<mgrwt>
<rscale>  0 0.91753725E+03</rscale>
<asrwt>0</asrwt>
<pdfrwt beam="1">  1        2 0.31332361E+00 0.98316601E+03</pdfrwt>
<pdfrwt beam="2">  1       -2 0.10170584E+00 0.98316601E+03</pdfrwt>
<totfact> 0.50726906E+00</totfact>
</mgrwt>
</event>
<event>
 4    5  0.6615028E-008  0.9125213E+03  0.7818608E-02  0.9506223E-01
          2   -1    0    0  501    0  0.00000000000E+00  0.00000000000E+00  0.16764213353E+04  0.16764213353E+04  0.25500000000E-02 0. -1.
         -2   -1    0    0    0  501 -0.00000000000E+00 -0.00000000000E+00 -0.69554246132E+03  0.69554246132E+03  0.25500000000E-02 0.  1.
    8880023    1    1    2    0    0 -0.63148758682E+03  0.10406119851E+02  0.13463188807E+04  0.16264284782E+04  0.65864270000E+03 0.  0.
    8880022    1    1    2    0    0  0.63148758682E+03 -0.10406119851E+02 -0.36544000672E+03  0.74553531852E+03  0.15294330000E+03 0.  0.
<mgrwt>
<rscale>  0 0.83826602E+03</rscale>
<asrwt>0</asrwt>
<pdfrwt beam="1">  1        2 0.25791097E+00 0.91252127E+03</pdfrwt>
<pdfrwt beam="2">  1       -2 0.10700653E+00 0.91252127E+03</pdfrwt>
<totfact> 0.71447413E+00</totfact>
</mgrwt>
</event>
<event>
 4    5  0.6615028E-008  0.6837993E+03  0.7818608E-02  0.1007251E+00
          2   -1    0    0  501    0  0.00000000000E+00  0.00000000000E+00  0.17936701067E+04  0.17936701067E+04  0.25500000000E-02 0. -1.
         -2   -1    0    0    0  501 -0.00000000000E+00 -0.00000000000E+00 -0.12073818691E+03  0.12073818694E+03  0.25500000000E-02 0.  1.
    8880023    1    1    2    0    0  0.49842949827E+02  0.17688112690E+03  0.13417005042E+04  0.15059022883E+04  0.65864270000E+03 0.  0.
    8880022    1    1    2    0    0 -0.49842949827E+02 -0.17688112690E+03  0.33123141561E+03  0.40850600534E+03  0.15294330000E+03 0. -1.
<mgrwt>
<rscale>  0 0.52581839E+03</rscale>
<asrwt>0</asrwt>
<pdfrwt beam="1">  1        2 0.27594924E+00 0.68379928E+03</pdfrwt>
<pdfrwt beam="2">  1       -2 0.18575106E-01 0.68379928E+03</pdfrwt>
<totfact> 0.21654765E+02</totfact>
</mgrwt>
</event>
<event>
 4    5  0.6615028E-008  0.9068168E+03  0.7818608E-02  0.9515176E-01
         -2   -1    0    0    0  501 -0.00000000000E+00  0.00000000000E+00  0.29561762821E+03  0.29561762822E+03  0.25500000000E-02 0.  1.
          2   -1    0    0  501    0  0.00000000000E+00 -0.00000000000E+00 -0.24137650523E+04  0.24137650523E+04  0.25500000000E-02 0. -1.
    8880023    1    1    2    0    0 -0.61538749441E+03 -0.99019258106E+02 -0.67658133276E+03  0.11314058016E+04  0.65864270000E+03 0.  1.
    8880022    1    1    2    0    0  0.61538749441E+03  0.99019258106E+02 -0.14415660913E+04  0.15779768789E+04  0.15294330000E+03 0.  0.
<mgrwt>
<rscale>  0 0.83174160E+03</rscale>
<asrwt>0</asrwt>
<pdfrwt beam="1">  1        2 0.37134846E+00 0.90681684E+03</pdfrwt>
<pdfrwt beam="2">  1       -2 0.45479637E-01 0.90681684E+03</pdfrwt>
<totfact> 0.18287133E+01</totfact>
</mgrwt>
</event>
<event>
 4    5  0.6615028E-008  0.6841515E+03  0.7818608E-02  0.1007066E+00
          2   -1    0    0  501    0  0.00000000000E+00  0.00000000000E+00  0.19506313804E+04  0.19506313804E+04  0.25500000000E-02 0. -1.
         -2   -1    0    0    0  501 -0.00000000000E+00 -0.00000000000E+00 -0.72362365260E+03  0.72362365261E+03  0.25500000000E-02 0.  1.
    8880023    1    1    2    0    0 -0.12705644310E+03  0.13457244752E+03  0.18682289742E+04  0.19895584409E+04  0.65864270000E+03 0. -1.
    8880022    1    1    2    0    0  0.12705644310E+03 -0.13457244752E+03 -0.64122124642E+03  0.68469659211E+03  0.15294330000E+03 0.  0.
<mgrwt>
<rscale>  0 0.52657371E+03</rscale>
<asrwt>0</asrwt>
<pdfrwt beam="1">  1        2 0.30009714E+00 0.68415151E+03</pdfrwt>
<pdfrwt beam="2">  1       -2 0.11132672E+00 0.68415151E+03</pdfrwt>
<totfact> 0.47549560E+00</totfact>
</mgrwt>
</event>
<event>
 4    5  0.6615028E-008  0.1406420E+04  0.7818608E-02  0.8978710E-01
         -2   -1    0    0    0  501 -0.00000000000E+00  0.00000000000E+00  0.24602938562E+04  0.24602938562E+04  0.25500000000E-02 0.  1.
          2   -1    0    0  501    0  0.00000000000E+00 -0.00000000000E+00 -0.13182883820E+04  0.13182883820E+04  0.25500000000E-02 0. -1.
    8880023    1    1    2    0    0 -0.12426540284E+04 -0.42520341463E+01 -0.68449999218E+03  0.15641475505E+04  0.65864270000E+03 0.  0.
    8880022    1    1    2    0    0  0.12426540284E+04  0.42520341463E+01  0.18265054664E+04  0.22144346877E+04  0.15294330000E+03 0.  0.
<mgrwt>
<rscale>  0 0.13661257E+04</rscale>
<asrwt>0</asrwt>
<pdfrwt beam="1">  1        2 0.20281360E+00 0.14064200E+04</pdfrwt>
<pdfrwt beam="2">  1       -2 0.37850675E+00 0.14064200E+04</pdfrwt>
<totfact> 0.15778511E-01</totfact>
</mgrwt>
</event>
<event>
 4    5  0.6615028E-008  0.1267801E+04  0.7818608E-02  0.9093877E-01
         -2   -1    0    0    0  501 -0.00000000000E+00  0.00000000000E+00  0.34912859165E+03  0.34912859166E+03  0.25500000000E-02 0.  1.
          2   -1    0    0  501    0  0.00000000000E+00 -0.00000000000E+00 -0.44336891906E+04  0.44336891906E+04  0.25500000000E-02 0. -1.
    8880023    1    1    2    0    0  0.46526810712E+03  0.97828152985E+03 -0.29285537535E+04  0.31911982791E+04  0.65864270000E+03 0. -1.
    8880022    1    1    2    0    0 -0.46526810712E+03 -0.97828152985E+03 -0.11560068455E+04  0.15916195032E+04  0.15294330000E+03 0.  0.
<mgrwt>
<rscale>  0 0.12219279E+04</rscale>
<asrwt>0</asrwt>
<pdfrwt beam="1">  1        2 0.68210599E+00 0.12678010E+04</pdfrwt>
<pdfrwt beam="2">  1       -2 0.53712094E-01 0.12678010E+04</pdfrwt>
<totfact> 0.47657098E-01</totfact>
</mgrwt>
</event>
<event>
 4    5  0.6615028E-008  0.1093232E+04  0.7818608E-02  0.9268629E-01
         -2   -1    0    0    0  501 -0.00000000000E+00  0.00000000000E+00  0.87946881014E+03  0.87946881014E+03  0.25500000000E-02 0.  1.
          2   -1    0    0  501    0  0.00000000000E+00 -0.00000000000E+00 -0.11326749018E+04  0.11326749018E+04  0.25500000000E-02 0. -1.
    8880023    1    1    2    0    0 -0.29140046527E+02 -0.87206449945E+03 -0.27019579924E+03  0.11261268178E+04  0.65864270000E+03 0. -1.
    8880022    1    1    2    0    0  0.29140046527E+02  0.87206449945E+03  0.16989707612E+02  0.88601689414E+03  0.15294330000E+03 0.  0.
<mgrwt>
<rscale>  0 0.10372292E+04</rscale>
<asrwt>0</asrwt>
<pdfrwt beam="1">  1        2 0.17425768E+00 0.10932318E+04</pdfrwt>
<pdfrwt beam="2">  1       -2 0.13530289E+00 0.10932318E+04</pdfrwt>
<totfact> 0.80242463E+00</totfact>
</mgrwt>
</event>
<event>
 4    5  0.6615028E-008  0.1263157E+04  0.7818608E-02  0.9098047E-01
         -2   -1    0    0    0  501 -0.00000000000E+00  0.00000000000E+00  0.48371032820E+03  0.48371032820E+03  0.25500000000E-02 0.  1.
          2   -1    0    0  501    0  0.00000000000E+00 -0.00000000000E+00 -0.36835616318E+04  0.36835616318E+04  0.25500000000E-02 0. -1.
    8880023    1    1    2    0    0 -0.41770649573E+03 -0.99361808474E+03 -0.70811464273E+03  0.14480995022E+04  0.65864270000E+03 0.  0.
    8880022    1    1    2    0    0  0.41770649573E+03  0.99361808474E+03 -0.24917366609E+04  0.27191724578E+04  0.15294330000E+03 0.  0.
<mgrwt>
<rscale>  0 0.12170672E+04</rscale>
<asrwt>0</asrwt>
<pdfrwt beam="1">  1        2 0.56670177E+00 0.12631571E+04</pdfrwt>
<pdfrwt beam="2">  1       -2 0.74416976E-01 0.12631571E+04</pdfrwt>
<totfact> 0.97482519E-01</totfact>
</mgrwt>
</event>
<event>
 4    5  0.6615028E-008  0.1374067E+04  0.7818608E-02  0.9004100E-01
          2   -1    0    0  501    0  0.00000000000E+00  0.00000000000E+00  0.20641683803E+04  0.20641683803E+04  0.25500000000E-02 0. -1.
         -2   -1    0    0    0  501 -0.00000000000E+00 -0.00000000000E+00 -0.18245113653E+04  0.18245113653E+04  0.25500000000E-02 0.  1.
    8880023    1    1    2    0    0  0.16183161843E+03  0.11950143209E+04  0.15701583916E+04  0.20864937769E+04  0.65864270000E+03 0.  0.
    8880022    1    1    2    0    0 -0.16183161843E+03 -0.11950143209E+04 -0.13305013765E+04  0.18021859688E+04  0.15294330000E+03 0.  0.
<mgrwt>
<rscale>  0 0.13326065E+04</rscale>
<asrwt>0</asrwt>
<pdfrwt beam="1">  1        2 0.31756436E+00 0.13740666E+04</pdfrwt>
<pdfrwt beam="2">  1       -2 0.28069406E+00 0.13740666E+04</pdfrwt>
<totfact> 0.24436558E-01</totfact>
</mgrwt>
</event>
<event>
 4    5  0.6615028E-008  0.8168949E+03  0.7818608E-02  0.9675390E-01
          2   -1    0    0  501    0  0.00000000000E+00  0.00000000000E+00  0.12916756203E+04  0.12916756203E+04  0.25500000000E-02 0. -1.
         -2   -1    0    0    0  501 -0.00000000000E+00 -0.00000000000E+00 -0.34614282157E+03  0.34614282158E+03  0.25500000000E-02 0.  1.
    8880023    1    1    2    0    0  0.38349800137E+03  0.29400049026E+03  0.46806442560E+03  0.94148898990E+03  0.65864270000E+03 0.  1.
    8880022    1    1    2    0    0 -0.38349800137E+03 -0.29400049026E+03  0.47746837308E+03  0.69632945194E+03  0.15294330000E+03 0. -1.
<mgrwt>
<rscale>  0 0.72501143E+03</rscale>
<asrwt>0</asrwt>
<pdfrwt beam="1">  1        2 0.19871933E+00 0.81689486E+03</pdfrwt>
<pdfrwt beam="2">  1       -2 0.53252741E-01 0.81689486E+03</pdfrwt>
<totfact> 0.56258532E+01</totfact>
</mgrwt>
</event>
<event>
 4    5  0.6615028E-008  0.9197606E+03  0.7818608E-02  0.9495026E-01
         -2   -1    0    0    0  501 -0.00000000000E+00  0.00000000000E+00  0.71843856063E+03  0.71843856063E+03  0.25500000000E-02 0.  1.
          2   -1    0    0  501    0  0.00000000000E+00 -0.00000000000E+00 -0.14963735322E+04  0.14963735322E+04  0.25500000000E-02 0. -1.
    8880023    1    1    2    0    0 -0.59631793267E+03 -0.23781144698E+03 -0.11378451991E+04  0.14630964645E+04  0.65864270000E+03 0.  0.
    8880022    1    1    2    0    0  0.59631793267E+03  0.23781144698E+03  0.35991022744E+03  0.75171562839E+03  0.15294330000E+03 0.  0.
<mgrwt>
<rscale>  0 0.84651515E+03</rscale>
<asrwt>0</asrwt>
<pdfrwt beam="1">  1        2 0.23021131E+00 0.91976060E+03</pdfrwt>
<pdfrwt beam="2">  1       -2 0.11052901E+00 0.91976060E+03</pdfrwt>
<totfact> 0.83099458E+00</totfact>
</mgrwt>
</event>
<event>
 4    5  0.6615028E-008  0.7646176E+03  0.7818608E-02  0.9793296E-01
          2   -1    0    0  501    0  0.00000000000E+00  0.00000000000E+00  0.14712404479E+04  0.14712404479E+04  0.25500000000E-02 0. -1.
         -2   -1    0    0    0  501 -0.00000000000E+00 -0.00000000000E+00 -0.32750831938E+03  0.32750831939E+03  0.25500000000E-02 0.  1.
    8880023    1    1    2    0    0  0.70026932753E+02  0.38200269490E+03  0.11503664443E+04  0.13812975757E+04  0.65864270000E+03 0.  0.
    8880022    1    1    2    0    0 -0.70026932753E+02 -0.38200269490E+03 -0.66343157494E+01  0.41745119161E+03  0.15294330000E+03 0.  0.
<mgrwt>
<rscale>  0 0.65723536E+03</rscale>
<asrwt>0</asrwt>
<pdfrwt beam="1">  1        2 0.22634468E+00 0.76461758E+03</pdfrwt>
<pdfrwt beam="2">  1       -2 0.50385895E-01 0.76461758E+03</pdfrwt>
<totfact> 0.50064378E+01</totfact>
</mgrwt>
</event>
<event>
 4    5  0.6615028E-008  0.7876475E+03  0.7818608E-02  0.9738170E-01
          2   -1    0    0  501    0  0.00000000000E+00  0.00000000000E+00  0.34414590943E+03  0.34414590944E+03  0.25500000000E-02 0. -1.
         -2   -1    0    0    0  501 -0.00000000000E+00 -0.00000000000E+00 -0.12350823158E+04  0.12350823158E+04  0.25500000000E-02 0.  1.
    8880023    1    1    2    0    0  0.34873904523E+03  0.25487134515E+03 -0.32759416319E+03  0.85305712954E+03  0.65864270000E+03 0. -1.
    8880022    1    1    2    0    0 -0.34873904523E+03 -0.25487134515E+03 -0.56334224313E+03  0.72617109565E+03  0.15294330000E+03 0.  0.
<mgrwt>
<rscale>  0 0.68788931E+03</rscale>
<asrwt>0</asrwt>
<pdfrwt beam="1">  1        2 0.52945525E-01 0.78764747E+03</pdfrwt>
<pdfrwt beam="2">  1       -2 0.19001266E+00 0.78764747E+03</pdfrwt>
<totfact> 0.14785822E+01</totfact>
</mgrwt>
</event>
<event>
 4    5  0.6615028E-008  0.8782778E+03  0.7818608E-02  0.9561843E-01
         -2   -1    0    0    0  501 -0.00000000000E+00  0.00000000000E+00  0.60717343678E+03  0.60717343678E+03  0.25500000000E-02 0.  1.
          2   -1    0    0  501    0  0.00000000000E+00 -0.00000000000E+00 -0.18333420171E+04  0.18333420171E+04  0.25500000000E-02 0. -1.
    8880023    1    1    2    0    0  0.47476566375E+03 -0.33490192509E+03 -0.15323492044E+04  0.17662010150E+04  0.65864270000E+03 0.  0.
    8880022    1    1    2    0    0 -0.47476566375E+03  0.33490192509E+03  0.30618062408E+03  0.67431443888E+03  0.15294330000E+03 0.  0.
<mgrwt>
<rscale>  0 0.79873981E+03</rscale>
<asrwt>0</asrwt>
<pdfrwt beam="1">  1        2 0.28205262E+00 0.87827783E+03</pdfrwt>
<pdfrwt beam="2">  1       -2 0.93411299E-01 0.87827783E+03</pdfrwt>
<totfact> 0.81245461E+00</totfact>
</mgrwt>
</event>
<event>
 4    5  0.6615028E-008  0.7064999E+03  0.7818608E-02  0.9971235E-01
          2   -1    0    0  501    0  0.00000000000E+00  0.00000000000E+00  0.19237819185E+04  0.19237819185E+04  0.25500000000E-02 0. -1.
         -2   -1    0    0    0  501 -0.00000000000E+00 -0.00000000000E+00 -0.48137966838E+03  0.48137966838E+03  0.25500000000E-02 0.  1.
    8880023    1    1    2    0    0 -0.79701767477E+02  0.24285713523E+03  0.18035702209E+04  0.19370099917E+04  0.65864270000E+03 0. -1.
    8880022    1    1    2    0    0  0.79701767477E+02 -0.24285713523E+03 -0.36116797084E+03  0.46815159515E+03  0.15294330000E+03 0.  0.
<mgrwt>
<rscale>  0 0.56929714E+03</rscale>
<asrwt>0</asrwt>
<pdfrwt beam="1">  1        2 0.29596646E+00 0.70649994E+03</pdfrwt>
<pdfrwt beam="2">  1       -2 0.74058408E-01 0.70649994E+03</pdfrwt>
<totfact> 0.12580350E+01</totfact>
</mgrwt>
</event>
<event>
 4    5  0.6615028E-008  0.1515253E+04  0.7818608E-02  0.8898940E-01
          2   -1    0    0  501    0  0.00000000000E+00  0.00000000000E+00  0.50736921680E+04  0.50736921680E+04  0.25500000000E-02 0. -1.
         -2   -1    0    0    0  501 -0.00000000000E+00 -0.00000000000E+00 -0.96532131546E+03  0.96532131547E+03  0.25500000000E-02 0.  1.
    8880023    1    1    2    0    0 -0.13487491832E+04 -0.20750359942E+03  0.43839885795E+04  0.46384639887E+04  0.65864270000E+03 0.  0.
    8880022    1    1    2    0    0  0.13487491832E+04  0.20750359942E+03 -0.27561772699E+03  0.14005494948E+04  0.15294330000E+03 0.  0.
<mgrwt>
<rscale>  0 0.14784082E+04</rscale>
<asrwt>0</asrwt>
<pdfrwt beam="1">  1        2 0.78056803E+00 0.15152532E+04</pdfrwt>
<pdfrwt beam="2">  1       -2 0.14851097E+00 0.15152532E+04</pdfrwt>
<totfact> 0.83605885E-03</totfact>
</mgrwt>
</event>
<event>
 4    5  0.6615028E-008  0.8171408E+03  0.7818608E-02  0.9674890E-01
          2   -1    0    0  501    0  0.00000000000E+00  0.00000000000E+00  0.26147783061E+04  0.26147783061E+04  0.25500000000E-02 0. -1.
         -2   -1    0    0    0  501 -0.00000000000E+00 -0.00000000000E+00 -0.93040549770E+03  0.93040549771E+03  0.25500000000E-02 0.  1.
    8880023    1    1    2    0    0  0.17203315389E+03 -0.45201054154E+03  0.24746773994E+04  0.26060981127E+04  0.65864270000E+03 0.  0.
    8880022    1    1    2    0    0 -0.17203315389E+03  0.45201054154E+03 -0.79030459099E+03  0.93908569111E+03  0.15294330000E+03 0.  0.
<mgrwt>
<rscale>  0 0.72531688E+03</rscale>
<asrwt>0</asrwt>
<pdfrwt beam="1">  1        2 0.40227358E+00 0.81714083E+03</pdfrwt>
<pdfrwt beam="2">  1       -2 0.14313931E+00 0.81714083E+03</pdfrwt>
<totfact> 0.10527991E+00</totfact>
</mgrwt>
</event>
<event>
 4    5  0.6615028E-008  0.1745299E+04  0.7818608E-02  0.8753414E-01
         -2   -1    0    0    0  501 -0.00000000000E+00  0.00000000000E+00  0.23627597068E+04  0.23627597068E+04  0.25500000000E-02 0.  1.
          2   -1    0    0  501    0  0.00000000000E+00 -0.00000000000E+00 -0.18390720747E+04  0.18390720747E+04  0.25500000000E-02 0. -1.
    8880023    1    1    2    0    0  0.16023075450E+04  0.21182431984E+03 -0.96915723411E+03  0.19963303739E+04  0.65864270000E+03 0.  0.
    8880022    1    1    2    0    0 -0.16023075450E+04 -0.21182431984E+03  0.14928448662E+04  0.22055014076E+04  0.15294330000E+03 0.  0.
<mgrwt>
<rscale>  0 0.17140102E+04</rscale>
<asrwt>0</asrwt>
<pdfrwt beam="1">  1        2 0.28293416E+00 0.17452992E+04</pdfrwt>
<pdfrwt beam="2">  1       -2 0.36350149E+00 0.17452992E+04</pdfrwt>
<totfact> 0.95773273E-02</totfact>
</mgrwt>
</event>
<event>
 4    5  0.6615028E-008  0.7726907E+03  0.7818608E-02  0.9773295E-01
         -2   -1    0    0    0  501 -0.00000000000E+00  0.00000000000E+00  0.37777642924E+03  0.37777642925E+03  0.25500000000E-02 0.  1.
          2   -1    0    0  501    0  0.00000000000E+00 -0.00000000000E+00 -0.37204769732E+04  0.37204769732E+04  0.25500000000E-02 0. -1.
    8880023    1    1    2    0    0  0.37890531625E+03 -0.14025522176E+03 -0.35399815624E+04  0.36233300200E+04  0.65864270000E+03 0. -1.
    8880022    1    1    2    0    0 -0.37890531625E+03  0.14025522176E+03  0.19728101842E+03  0.47492338240E+03  0.15294330000E+03 0.  0.
<mgrwt>
<rscale>  0 0.66815568E+03</rscale>
<asrwt>0</asrwt>
<pdfrwt beam="1">  1        2 0.57238105E+00 0.77269074E+03</pdfrwt>
<pdfrwt beam="2">  1       -2 0.58119453E-01 0.77269074E+03</pdfrwt>
<totfact> 0.17046491E+00</totfact>
</mgrwt>
</event>
<event>
 4    5  0.6615028E-008  0.6897375E+03  0.7818608E-02  0.1004278E+00
          2   -1    0    0  501    0  0.00000000000E+00  0.00000000000E+00  0.14936039980E+04  0.14936039980E+04  0.25500000000E-02 0. -1.
         -2   -1    0    0    0  501 -0.00000000000E+00 -0.00000000000E+00 -0.95364756671E+03  0.95364756671E+03  0.25500000000E-02 0.  1.
    8880023    1    1    2    0    0 -0.14797943605E+03 -0.14152618469E+03  0.13942597333E+04  0.15555378442E+04  0.65864270000E+03 0. -1.
    8880022    1    1    2    0    0  0.14797943605E+03  0.14152618469E+03 -0.85430330205E+03  0.89171372052E+03  0.15294330000E+03 0.  0.
<mgrwt>
<rscale>  0 0.53813718E+03</rscale>
<asrwt>0</asrwt>
<pdfrwt beam="1">  1        2 0.22978523E+00 0.68973747E+03</pdfrwt>
<pdfrwt beam="2">  1       -2 0.14671501E+00 0.68973747E+03</pdfrwt>
<totfact> 0.42140618E+00</totfact>
</mgrwt>
</event>
<event>
 4    5  0.6615028E-008  0.8232844E+03  0.7818608E-02  0.9662543E-01
         -2   -1    0    0    0  501 -0.00000000000E+00  0.00000000000E+00  0.21626498349E+04  0.21626498349E+04  0.25500000000E-02 0.  1.
          2   -1    0    0  501    0  0.00000000000E+00 -0.00000000000E+00 -0.34219721682E+03  0.34219721683E+03  0.25500000000E-02 0. -1.
    8880023    1    1    2    0    0  0.33069085205E+02  0.49284213268E+03  0.26373342305E+03  0.86449549266E+03  0.65864270000E+03 0.  0.
    8880022    1    1    2    0    0 -0.33069085205E+02 -0.49284213268E+03  0.15567191951E+04  0.16403515591E+04  0.15294330000E+03 0.  0.
<mgrwt>
<rscale>  0 0.73291435E+03</rscale>
<asrwt>0</asrwt>
<pdfrwt beam="1">  1        2 0.52645727E-01 0.82328436E+03</pdfrwt>
<pdfrwt beam="2">  1       -2 0.33271535E+00 0.82328436E+03</pdfrwt>
<totfact> 0.19625451E+00</totfact>
</mgrwt>
</event>
<event>
 4    5  0.6615028E-008  0.1163610E+04  0.7818608E-02  0.9193334E-01
         -2   -1    0    0    0  501 -0.00000000000E+00  0.00000000000E+00  0.18143277622E+04  0.18143277622E+04  0.25500000000E-02 0.  1.
          2   -1    0    0  501    0  0.00000000000E+00 -0.00000000000E+00 -0.80399192834E+03  0.80399192835E+03  0.25500000000E-02 0. -1.
    8880023    1    1    2    0    0 -0.25967574450E+01 -0.95925546041E+03 -0.69730037749E+02  0.11656973303E+04  0.65864270000E+03 0.  1.
    8880022    1    1    2    0    0  0.25967574450E+01  0.95925546041E+03  0.10800658716E+04  0.14526223603E+04  0.15294330000E+03 0.  0.
<mgrwt>
<rscale>  0 0.11122497E+04</rscale>
<asrwt>0</asrwt>
<pdfrwt beam="1">  1        2 0.12369107E+00 0.11636099E+04</pdfrwt>
<pdfrwt beam="2">  1       -2 0.27912735E+00 0.11636099E+04</pdfrwt>
<totfact> 0.14332682E+00</totfact>
</mgrwt>
</event>
<event>
 4    5  0.6615028E-008  0.7248789E+03  0.7818608E-02  0.9906410E-01
         -2   -1    0    0    0  501 -0.00000000000E+00  0.00000000000E+00  0.56279531677E+03  0.56279531678E+03  0.25500000000E-02 0.  1.
          2   -1    0    0  501    0  0.00000000000E+00 -0.00000000000E+00 -0.67047349810E+03  0.67047349811E+03  0.25500000000E-02 0. -1.
    8880023    1    1    2    0    0 -0.19984312420E+03 -0.22738056528E+03 -0.36114246500E+03  0.80986003856E+03  0.65864270000E+03 0. -1.
    8880022    1    1    2    0    0  0.19984312420E+03  0.22738056528E+03  0.25346428368E+03  0.42340877633E+03  0.15294330000E+03 0.  0.
<mgrwt>
<rscale>  0 0.59951614E+03</rscale>
<asrwt>0</asrwt>
<pdfrwt beam="1">  1        2 0.10314977E+00 0.72487889E+03</pdfrwt>
<pdfrwt beam="2">  1       -2 0.86583895E-01 0.72487889E+03</pdfrwt>
<totfact> 0.50701309E+01</totfact>
</mgrwt>
</event>
<event>
 4    5  0.6615028E-008  0.1337375E+04  0.7818608E-02  0.9033938E-01
         -2   -1    0    0    0  501 -0.00000000000E+00  0.00000000000E+00  0.10816046524E+04  0.10816046524E+04  0.25500000000E-02 0.  1.
          2   -1    0    0  501    0  0.00000000000E+00 -0.00000000000E+00 -0.24497577145E+04  0.24497577145E+04  0.25500000000E-02 0. -1.
    8880023    1    1    2    0    0  0.31955685696E+02  0.11635030694E+04 -0.18327537670E+04  0.22688228522E+04  0.65864270000E+03 0. -1.
    8880022    1    1    2    0    0 -0.31955685696E+02 -0.11635030694E+04  0.46460070489E+03  0.12625395147E+04  0.15294330000E+03 0.  0.
<mgrwt>
<rscale>  0 0.12944997E+04</rscale>
<asrwt>0</asrwt>
<pdfrwt beam="1">  1        2 0.37688580E+00 0.13373746E+04</pdfrwt>
<pdfrwt beam="2">  1       -2 0.16640072E+00 0.13373746E+04</pdfrwt>
<totfact> 0.80788155E-01</totfact>
</mgrwt>
</event>
<event>
 4    5  0.6615028E-008  0.7833078E+03  0.7818608E-02  0.9748123E-01
          2   -1    0    0  501    0  0.00000000000E+00  0.00000000000E+00  0.13496853938E+04  0.13496853938E+04  0.25500000000E-02 0. -1.
         -2   -1    0    0    0  501 -0.00000000000E+00 -0.00000000000E+00 -0.58535978063E+03  0.58535978063E+03  0.25500000000E-02 0.  1.
    8880023    1    1    2    0    0 -0.40730563762E+03  0.11774154280E+03  0.11159270649E+04  0.13634017653E+04  0.65864270000E+03 0.  0.
    8880022    1    1    2    0    0  0.40730563762E+03 -0.11774154280E+03 -0.35160145169E+03  0.57164340911E+03  0.15294330000E+03 0.  0.
<mgrwt>
<rscale>  0 0.68222425E+03</rscale>
<asrwt>0</asrwt>
<pdfrwt beam="1">  1        2 0.20764391E+00 0.78330783E+03</pdfrwt>
<pdfrwt beam="2">  1       -2 0.90055351E-01 0.78330783E+03</pdfrwt>
<totfact> 0.16611018E+01</totfact>
</mgrwt>
</event>
<event>
 4    5  0.6615028E-008  0.6709860E+03  0.7818608E-02  0.1014966E+00
          2   -1    0    0  501    0  0.00000000000E+00  0.00000000000E+00  0.16096006219E+04  0.16096006219E+04  0.25500000000E-02 0. -1.
         -2   -1    0    0    0  501 -0.00000000000E+00 -0.00000000000E+00 -0.10449003519E+04  0.10449003519E+04  0.25500000000E-02 0.  1.
    8880023    1    1    2    0    0  0.12481718702E+03  0.28856994727E+02  0.15290155043E+04  0.16697636584E+04  0.65864270000E+03 0. -1.
    8880022    1    1    2    0    0 -0.12481718702E+03 -0.28856994727E+02 -0.96431523431E+03  0.98473731546E+03  0.15294330000E+03 0.  0.
<mgrwt>
<rscale>  0 0.49547935E+03</rscale>
<asrwt>0</asrwt>
<pdfrwt beam="1">  1        2 0.24763087E+00 0.67098604E+03</pdfrwt>
<pdfrwt beam="2">  1       -2 0.16075390E+00 0.67098604E+03</pdfrwt>
<totfact> 0.28604890E+00</totfact>
</mgrwt>
</event>
<event>
 4    5  0.6615028E-008  0.9219001E+03  0.7818608E-02  0.9491752E-01
         -2   -1    0    0    0  501 -0.00000000000E+00  0.00000000000E+00  0.92547211640E+03  0.92547211640E+03  0.25500000000E-02 0.  1.
          2   -1    0    0  501    0  0.00000000000E+00 -0.00000000000E+00 -0.11362793495E+04  0.11362793495E+04  0.25500000000E-02 0. -1.
    8880023    1    1    2    0    0  0.46973290243E+03  0.44208672989E+03 -0.76477963174E+03  0.11978262678E+04  0.65864270000E+03 0.  0.
    8880022    1    1    2    0    0 -0.46973290243E+03 -0.44208672989E+03  0.55397239869E+03  0.86392519809E+03  0.15294330000E+03 0.  0.
<mgrwt>
<rscale>  0 0.84894678E+03</rscale>
<asrwt>0</asrwt>
<pdfrwt beam="1">  1        2 0.17481221E+00 0.92190015E+03</pdfrwt>
<pdfrwt beam="2">  1       -2 0.14238033E+00 0.92190015E+03</pdfrwt>
<totfact> 0.71094658E+00</totfact>
</mgrwt>
</event>
<event>
 4    5  0.6615028E-008  0.8887077E+03  0.7818608E-02  0.9544408E-01
          2   -1    0    0  501    0  0.00000000000E+00  0.00000000000E+00  0.25212284577E+04  0.25212284577E+04  0.25500000000E-02 0. -1.
         -2   -1    0    0    0  501 -0.00000000000E+00 -0.00000000000E+00 -0.49488292984E+03  0.49488292985E+03  0.25500000000E-02 0.  1.
    8880023    1    1    2    0    0 -0.23138612059E+03  0.54995607246E+03  0.22028641111E+04  0.23753761211E+04  0.65864270000E+03 0. -1.
    8880022    1    1    2    0    0  0.23138612059E+03 -0.54995607246E+03 -0.17651858324E+03  0.64073526646E+03  0.15294330000E+03 0.  0.
<mgrwt>
<rscale>  0 0.81087504E+03</rscale>
<asrwt>0</asrwt>
<pdfrwt beam="1">  1        2 0.38788130E+00 0.88870773E+03</pdfrwt>
<pdfrwt beam="2">  1       -2 0.76135836E-01 0.88870773E+03</pdfrwt>
<totfact> 0.53658639E+00</totfact>
</mgrwt>
</event>
<event>
 4    5  0.6615028E-008  0.6832209E+03  0.7818608E-02  0.1007557E+00
         -2   -1    0    0    0  501 -0.00000000000E+00  0.00000000000E+00  0.13919686417E+03  0.13919686420E+03  0.25500000000E-02 0.  1.
          2   -1    0    0  501    0  0.00000000000E+00 -0.00000000000E+00 -0.40762899083E+04  0.40762899083E+04  0.25500000000E-02 0. -1.
    8880023    1    1    2    0    0  0.17246197273E+03 -0.56898470638E+02 -0.39181855988E+04  0.39773067723E+04  0.65864270000E+03 0.  0.
    8880022    1    1    2    0    0 -0.17246197273E+03  0.56898470638E+02 -0.18907445331E+02  0.23818000021E+03  0.15294330000E+03 0.  0.
<mgrwt>
<rscale>  0 0.52457066E+03</rscale>
<asrwt>0</asrwt>
<pdfrwt beam="1">  1        2 0.62712143E+00 0.68322088E+03</pdfrwt>
<pdfrwt beam="2">  1       -2 0.21414905E-01 0.68322088E+03</pdfrwt>
<totfact> 0.62967252E+00</totfact>
</mgrwt>
</event>
<event>
 4    5  0.6615028E-008  0.1041052E+04  0.7818608E-02  0.9329717E-01
          2   -1    0    0  501    0  0.00000000000E+00  0.00000000000E+00  0.66699193309E+03  0.66699193310E+03  0.25500000000E-02 0. -1.
         -2   -1    0    0    0  501 -0.00000000000E+00 -0.00000000000E+00 -0.29192351964E+04  0.29192351964E+04  0.25500000000E-02 0.  1.
    8880023    1    1    2    0    0 -0.77365121844E+03  0.22680851683E+03  0.14622203446E+03  0.10512703747E+04  0.65864270000E+03 0.  0.
    8880022    1    1    2    0    0  0.77365121844E+03 -0.22680851683E+03 -0.23984652978E+04  0.25349567548E+04  0.15294330000E+03 0.  0.
<mgrwt>
<rscale>  0 0.98092527E+03</rscale>
<asrwt>0</asrwt>
<pdfrwt beam="1">  1        2 0.10261415E+00 0.10410516E+04</pdfrwt>
<pdfrwt beam="2">  1       -2 0.44911310E+00 0.10410516E+04</pdfrwt>
<totfact> 0.15510439E-01</totfact>
</mgrwt>
</event>
<event>
 4    5  0.6615028E-008  0.7622229E+03  0.7818608E-02  0.9799386E-01
         -2   -1    0    0    0  501 -0.00000000000E+00  0.00000000000E+00  0.78030785947E+03  0.78030785947E+03  0.25500000000E-02 0.  1.
          2   -1    0    0  501    0  0.00000000000E+00 -0.00000000000E+00 -0.77551755044E+03  0.77551755045E+03  0.25500000000E-02 0. -1.
    8880023    1    1    2    0    0 -0.19863895928E+03 -0.32820133610E+03 -0.49395559516E+03  0.90828183369E+03  0.65864270000E+03 0. -1.
    8880022    1    1    2    0    0  0.19863895928E+03  0.32820133610E+03  0.49874590418E+03  0.64754357623E+03  0.15294330000E+03 0.  0.
<mgrwt>
<rscale>  0 0.65395491E+03</rscale>
<asrwt>0</asrwt>
<pdfrwt beam="1">  1        2 0.11931039E+00 0.76222291E+03</pdfrwt>
<pdfrwt beam="2">  1       -2 0.12004736E+00 0.76222291E+03</pdfrwt>
<totfact> 0.19293330E+01</totfact>
</mgrwt>
</event>
<event>
 4    5  0.6615028E-008  0.7534461E+03  0.7818608E-02  0.9822380E-01
          2   -1    0    0  501    0  0.00000000000E+00  0.00000000000E+00  0.99370375219E+03  0.99370375219E+03  0.25500000000E-02 0. -1.
         -2   -1    0    0    0  501 -0.00000000000E+00 -0.00000000000E+00 -0.17664978633E+04  0.17664978633E+04  0.25500000000E-02 0.  1.
    8880023    1    1    2    0    0 -0.24419794278E+02 -0.36506775129E+03  0.82304180953E+03  0.11158309979E+04  0.65864270000E+03 0. -1.
    8880022    1    1    2    0    0  0.24419794278E+02  0.36506775129E+03 -0.15958359206E+04  0.16443706176E+04  0.15294330000E+03 0.  0.
<mgrwt>
<rscale>  0 0.64175204E+03</rscale>
<asrwt>0</asrwt>
<pdfrwt beam="1">  1        2 0.15287750E+00 0.75344608E+03</pdfrwt>
<pdfrwt beam="2">  1       -2 0.27176890E+00 0.75344608E+03</pdfrwt>
<totfact> 0.12482850E+00</totfact>
</mgrwt>
</event>
<event>
 4    5  0.6615028E-008  0.1471362E+04  0.7818608E-02  0.8930128E-01
         -2   -1    0    0    0  501 -0.00000000000E+00  0.00000000000E+00  0.12888147636E+04  0.12888147636E+04  0.25500000000E-02 0.  1.
          2   -1    0    0  501    0  0.00000000000E+00 -0.00000000000E+00 -0.19643950395E+04  0.19643950395E+04  0.25500000000E-02 0. -1.
    8880023    1    1    2    0    0 -0.12897491095E+04  0.26008074083E+03 -0.11274777123E+04  0.18536749864E+04  0.65864270000E+03 0.  0.
    8880022    1    1    2    0    0  0.12897491095E+04 -0.26008074083E+03  0.45189743640E+03  0.13995348167E+04  0.15294330000E+03 0.  0.
<mgrwt>
<rscale>  0 0.14332050E+04</rscale>
<asrwt>0</asrwt>
<pdfrwt beam="1">  1        2 0.30221462E+00 0.14713616E+04</pdfrwt>
<pdfrwt beam="2">  1       -2 0.19827919E+00 0.14713616E+04</pdfrwt>
<totfact> 0.89957659E-01</totfact>
</mgrwt>
</event>
<event>
 4    5  0.6615028E-008  0.7807972E+03  0.7818608E-02  0.9753968E-01
          2   -1    0    0  501    0  0.00000000000E+00  0.00000000000E+00  0.13059360042E+04  0.13059360042E+04  0.25500000000E-02 0. -1.
         -2   -1    0    0    0  501 -0.00000000000E+00 -0.00000000000E+00 -0.61589657369E+03  0.61589657370E+03  0.25500000000E-02 0.  1.
    8880023    1    1    2    0    0  0.41918154138E+03  0.10996682888E+02  0.10775785152E+04  0.13307215165E+04  0.65864270000E+03 0. -1.
    8880022    1    1    2    0    0 -0.41918154138E+03 -0.10996682888E+02 -0.38753908475E+03  0.59111106139E+03  0.15294330000E+03 0.  0.
<mgrwt>
<rscale>  0 0.67892512E+03</rscale>
<asrwt>0</asrwt>
<pdfrwt beam="1">  1        2 0.20091323E+00 0.78079722E+03</pdfrwt>
<pdfrwt beam="2">  1       -2 0.94753320E-01 0.78079722E+03</pdfrwt>
<totfact> 0.15643391E+01</totfact>
</mgrwt>
</event>
<event>
 4    5  0.6615028E-008  0.8980905E+03  0.7818608E-02  0.9529104E-01
         -2   -1    0    0    0  501 -0.00000000000E+00  0.00000000000E+00  0.64134155879E+03  0.64134155879E+03  0.25500000000E-02 0.  1.
          2   -1    0    0  501    0  0.00000000000E+00 -0.00000000000E+00 -0.26576700356E+04  0.26576700356E+04  0.25500000000E-02 0. -1.
    8880023    1    1    2    0    0 -0.58869817204E+03 -0.16183575305E+03  0.26185226435E+03  0.93548552278E+03  0.65864270000E+03 0.  1.
    8880022    1    1    2    0    0  0.58869817204E+03  0.16183575305E+03 -0.22781807412E+04  0.23635260716E+04  0.15294330000E+03 0.  0.
<mgrwt>
<rscale>  0 0.82171698E+03</rscale>
<asrwt>0</asrwt>
<pdfrwt beam="1">  1        2 0.40887231E+00 0.89809050E+03</pdfrwt>
<pdfrwt beam="2">  1       -2 0.98667934E-01 0.89809050E+03</pdfrwt>
<totfact> 0.24659839E+00</totfact>
</mgrwt>
</event>
<event>
 4    5  0.6615028E-008  0.8867641E+03  0.7818608E-02  0.9547622E-01
         -2   -1    0    0    0  501 -0.00000000000E+00  0.00000000000E+00  0.43761492604E+03  0.43761492605E+03  0.25500000000E-02 0.  1.
          2   -1    0    0  501    0  0.00000000000E+00 -0.00000000000E+00 -0.16635994321E+04  0.16635994321E+04  0.25500000000E-02 0. -1.
    8880023    1    1    2    0    0 -0.38996944534E+03 -0.44773229000E+03 -0.11939638146E+04  0.14872458333E+04  0.65864270000E+03 0.  0.
    8880022    1    1    2    0    0  0.38996944534E+03  0.44773229000E+03 -0.32020691441E+02  0.61396852484E+03  0.15294330000E+03 0.  0.
<mgrwt>
<rscale>  0 0.80862049E+03</rscale>
<asrwt>0</asrwt>
<pdfrwt beam="1">  1        2 0.25593837E+00 0.88676411E+03</pdfrwt>
<pdfrwt beam="2">  1       -2 0.67325374E-01 0.88676411E+03</pdfrwt>
<totfact> 0.21016640E+01</totfact>
</mgrwt>
</event>
<event>
 4    5  0.6615028E-008  0.6722404E+03  0.7818608E-02  0.1014105E+00
          2   -1    0    0  501    0  0.00000000000E+00  0.00000000000E+00  0.76196322415E+03  0.76196322415E+03  0.25500000000E-02 0. -1.
         -2   -1    0    0    0  501 -0.00000000000E+00 -0.00000000000E+00 -0.32176886419E+04  0.32176886419E+04  0.25500000000E-02 0.  1.
    8880023    1    1    2    0    0  0.49272156992E+02 -0.12517648267E+03  0.60965203941E+03  0.90751457987E+03  0.65864270000E+03 0. -1.
    8880022    1    1    2    0    0 -0.49272156992E+02  0.12517648267E+03 -0.30653774572E+04  0.30721372862E+04  0.15294330000E+03 0.  0.
<mgrwt>
<rscale>  0 0.49875179E+03</rscale>
<asrwt>0</asrwt>
<pdfrwt beam="1">  1        2 0.11722511E+00 0.67224036E+03</pdfrwt>
<pdfrwt beam="2">  1       -2 0.49502901E+00 0.67224036E+03</pdfrwt>
<totfact> 0.70413874E-02</totfact>
</mgrwt>
</event>
<event>
 4    5  0.6615028E-008  0.1654785E+04  0.7818608E-02  0.8807426E-01
         -2   -1    0    0    0  501 -0.00000000000E+00  0.00000000000E+00  0.82681656347E+03  0.82681656348E+03  0.25500000000E-02 0.  1.
          2   -1    0    0  501    0  0.00000000000E+00 -0.00000000000E+00 -0.34658943714E+04  0.34658943714E+04  0.25500000000E-02 0. -1.
    8880023    1    1    2    0    0 -0.10522070476E+04 -0.10942408304E+04 -0.21019874180E+04  0.26751941943E+04  0.65864270000E+03 0.  0.
    8880022    1    1    2    0    0  0.10522070476E+04  0.10942408304E+04 -0.53709038997E+03  0.16175167405E+04  0.15294330000E+03 0.  0.
<mgrwt>
<rscale>  0 0.16215359E+04</rscale>
<asrwt>0</asrwt>
<pdfrwt beam="1">  1        2 0.53321451E+00 0.16547848E+04</pdfrwt>
<pdfrwt beam="2">  1       -2 0.12720255E+00 0.16547848E+04</pdfrwt>
<totfact> 0.37021568E-01</totfact>
</mgrwt>
</event>
<event>
 4    5  0.6615028E-008  0.7567925E+03  0.7818608E-02  0.9813483E-01
         -2   -1    0    0    0  501 -0.00000000000E+00  0.00000000000E+00  0.10638246170E+04  0.10638246170E+04  0.25500000000E-02 0.  1.
          2   -1    0    0  501    0  0.00000000000E+00 -0.00000000000E+00 -0.77909672291E+03  0.77909672291E+03  0.25500000000E-02 0. -1.
    8880023    1    1    2    0    0 -0.15559471617E+03  0.33869589025E+03 -0.53685460039E+03  0.92787266906E+03  0.65864270000E+03 0. -1.
    8880022    1    1    2    0    0  0.15559471617E+03 -0.33869589025E+03  0.82158249448E+03  0.91504867085E+03  0.15294330000E+03 0.  0.
<mgrwt>
<rscale>  0 0.64643946E+03</rscale>
<asrwt>0</asrwt>
<pdfrwt beam="1">  1        2 0.11986104E+00 0.75679246E+03</pdfrwt>
<pdfrwt beam="2">  1       -2 0.16366532E+00 0.75679246E+03</pdfrwt>
<totfact> 0.85844069E+00</totfact>
</mgrwt>
</event>
<event>
 4    5  0.6615028E-008  0.6909392E+03  0.7818608E-02  0.1003709E+00
          2   -1    0    0  501    0  0.00000000000E+00  0.00000000000E+00  0.10906615665E+04  0.10906615665E+04  0.25500000000E-02 0. -1.
         -2   -1    0    0    0  501 -0.00000000000E+00 -0.00000000000E+00 -0.86659005960E+03  0.86659005960E+03  0.25500000000E-02 0.  1.
    8880023    1    1    2    0    0  0.20083114894E+03 -0.57040276760E+02  0.95678004524E+03  0.11801800730E+04  0.65864270000E+03 0. -1.
    8880022    1    1    2    0    0 -0.20083114894E+03  0.57040276760E+02 -0.73270853829E+03  0.77707155311E+03  0.15294330000E+03 0.  0.
<mgrwt>
<rscale>  0 0.54053237E+03</rscale>
<asrwt>0</asrwt>
<pdfrwt beam="1">  1        2 0.16779409E+00 0.69093918E+03</pdfrwt>
<pdfrwt beam="2">  1       -2 0.13332155E+00 0.69093918E+03</pdfrwt>
<totfact> 0.92313795E+00</totfact>
</mgrwt>
</event>
<event>
 4    5  0.6615028E-008  0.7335349E+03  0.7818608E-02  0.9879196E-01
         -2   -1    0    0    0  501 -0.00000000000E+00  0.00000000000E+00  0.24255741733E+03  0.24255741735E+03  0.25500000000E-02 0.  1.
          2   -1    0    0  501    0  0.00000000000E+00 -0.00000000000E+00 -0.26549865690E+04  0.26549865690E+04  0.25500000000E-02 0. -1.
    8880023    1    1    2    0    0  0.33684701315E+02  0.32113634043E+03 -0.24315097483E+04  0.25397466548E+04  0.65864270000E+03 0.  0.
    8880022    1    1    2    0    0 -0.33684701315E+02 -0.32113634043E+03  0.19080596667E+02  0.35779733151E+03  0.15294330000E+03 0.  0.
<mgrwt>
<rscale>  0 0.61280210E+03</rscale>
<asrwt>0</asrwt>
<pdfrwt beam="1">  1        2 0.40845945E+00 0.73353488E+03</pdfrwt>
<pdfrwt beam="2">  1       -2 0.37316528E-01 0.73353488E+03</pdfrwt>
<totfact> 0.20124207E+01</totfact>
</mgrwt>
</event>
<event>
 4    5  0.6615028E-008  0.6747192E+03  0.7818608E-02  0.1012484E+00
          2   -1    0    0  501    0  0.00000000000E+00  0.00000000000E+00  0.29255430864E+04  0.29255430864E+04  0.25500000000E-02 0. -1.
         -2   -1    0    0    0  501 -0.00000000000E+00 -0.00000000000E+00 -0.11505518418E+03  0.11505518421E+03  0.25500000000E-02 0.  1.
    8880023    1    1    2    0    0 -0.30833451988E+02 -0.14312613923E+03  0.27331339986E+04  0.28151851545E+04  0.65864270000E+03 0. -1.
    8880022    1    1    2    0    0  0.30833451988E+02  0.14312613923E+03  0.77353903592E+02  0.22541311610E+03  0.15294330000E+03 0. -1.
<mgrwt>
<rscale>  0 0.50499293E+03</rscale>
<asrwt>0</asrwt>
<pdfrwt beam="1">  1        2 0.45008352E+00 0.67471920E+03</pdfrwt>
<pdfrwt beam="2">  1       -2 0.17700799E-01 0.67471920E+03</pdfrwt>
<totfact> 0.54455987E+01</totfact>
</mgrwt>
</event>
<event>
 4    5  0.6615028E-008  0.1473947E+04  0.7818608E-02  0.8928255E-01
          2   -1    0    0  501    0  0.00000000000E+00  0.00000000000E+00  0.18223830587E+04  0.18223830587E+04  0.25500000000E-02 0. -1.
         -2   -1    0    0    0  501 -0.00000000000E+00 -0.00000000000E+00 -0.14541263450E+04  0.14541263450E+04  0.25500000000E-02 0.  1.
    8880023    1    1    2    0    0 -0.76698092104E+03 -0.10725901116E+04  0.10251775824E+04  0.17954132011E+04  0.65864270000E+03 0.  0.
    8880022    1    1    2    0    0  0.76698092104E+03  0.10725901116E+04 -0.65692086863E+03  0.14810962026E+04  0.15294330000E+03 0.  0.
<mgrwt>
<rscale>  0 0.14358704E+04</rscale>
<asrwt>0</asrwt>
<pdfrwt beam="1">  1        2 0.28036662E+00 0.14739469E+04</pdfrwt>
<pdfrwt beam="2">  1       -2 0.22371175E+00 0.14739469E+04</pdfrwt>
<totfact> 0.73907745E-01</totfact>
</mgrwt>
</event>
<event>
 4    5  0.6615028E-008  0.7689338E+03  0.7818608E-02  0.9782505E-01
          2   -1    0    0  501    0  0.00000000000E+00  0.00000000000E+00  0.16904724451E+04  0.16904724451E+04  0.25500000000E-02 0. -1.
         -2   -1    0    0    0  501 -0.00000000000E+00 -0.00000000000E+00 -0.34709926429E+03  0.34709926430E+03  0.25500000000E-02 0.  1.
    8880023    1    1    2    0    0  0.11573977354E+03  0.37954349659E+03  0.14110561200E+04  0.16069656315E+04  0.65864270000E+03 0.  0.
    8880022    1    1    2    0    0 -0.11573977354E+03 -0.37954349659E+03 -0.67682939203E+02  0.43060607782E+03  0.15294330000E+03 0.  1.
<mgrwt>
<rscale>  0 0.66309951E+03</rscale>
<asrwt>0</asrwt>
<pdfrwt beam="1">  1        2 0.26007268E+00 0.76893379E+03</pdfrwt>
<pdfrwt beam="2">  1       -2 0.53399887E-01 0.76893379E+03</pdfrwt>
<totfact> 0.33601016E+01</totfact>
</mgrwt>
</event>
<event>
 4    5  0.6615028E-008  0.1061852E+04  0.7818608E-02  0.9304768E-01
         -2   -1    0    0    0  501 -0.00000000000E+00  0.00000000000E+00  0.63766477041E+03  0.63766477041E+03  0.25500000000E-02 0.  1.
          2   -1    0    0  501    0  0.00000000000E+00 -0.00000000000E+00 -0.45481318522E+04  0.45481318522E+04  0.25500000000E-02 0. -1.
    8880023    1    1    2    0    0 -0.80372995887E+03 -0.21848800330E+03 -0.41676386673E+04  0.43007837799E+04  0.65864270000E+03 0.  0.
    8880022    1    1    2    0    0  0.80372995887E+03  0.21848800330E+03  0.25717158546E+03  0.88501284271E+03  0.15294330000E+03 0.  0.
<mgrwt>
<rscale>  0 0.10034510E+04</rscale>
<asrwt>0</asrwt>
<pdfrwt beam="1">  1        2 0.69971257E+00 0.10618517E+04</pdfrwt>
<pdfrwt beam="2">  1       -2 0.98102275E-01 0.10618517E+04</pdfrwt>
<totfact> 0.10109292E-01</totfact>
</mgrwt>
</event>
<event>
 4    5  0.6615028E-008  0.6983600E+03  0.7818608E-02  0.1000407E+00
          2   -1    0    0  501    0  0.00000000000E+00  0.00000000000E+00  0.11331585100E+04  0.11331585100E+04  0.25500000000E-02 0. -1.
         -2   -1    0    0    0  501 -0.00000000000E+00 -0.00000000000E+00 -0.80461532701E+03  0.80461532701E+03  0.25500000000E-02 0.  1.
    8880023    1    1    2    0    0 -0.10767844916E+03 -0.20567404851E+03  0.99502129023E+03  0.12156372966E+04  0.65864270000E+03 0. -1.
    8880022    1    1    2    0    0  0.10767844916E+03  0.20567404851E+03 -0.66647810720E+03  0.72213654044E+03  0.15294330000E+03 0.  0.
<mgrwt>
<rscale>  0 0.55471971E+03</rscale>
<asrwt>0</asrwt>
<pdfrwt beam="1">  1        2 0.17433208E+00 0.69835999E+03</pdfrwt>
<pdfrwt beam="2">  1       -2 0.12378697E+00 0.69835999E+03</pdfrwt>
<totfact> 0.10476126E+01</totfact>
</mgrwt>
</event>
<event>
 4    5  0.7176176E-008  0.1087417E+04  0.7818608E-02  0.9275196E-01
          2   -1    0    0  501    0  0.00000000000E+00  0.00000000000E+00  0.27449082729E+04  0.27449082729E+04  0.25500000000E-02 0. -1.
         -2   -1    0    0    0  501 -0.00000000000E+00 -0.00000000000E+00 -0.13347966127E+04  0.13347966127E+04  0.25500000000E-02 0.  1.
    8880023    1    1    2    0    0  0.43351362389E+03 -0.74882074287E+03  0.24724850462E+04  0.27010477739E+04  0.65864270000E+03 0.  0.
    8880022    1    1    2    0    0 -0.43351362389E+03  0.74882074287E+03 -0.10623733860E+04  0.13786571116E+04  0.15294330000E+03 0.  0.
<mgrwt>
<rscale>  0 0.10309877E+04</rscale>
<asrwt>0</asrwt>
<pdfrwt beam="1">  1        2 0.42229358E+00 0.10874175E+04</pdfrwt>
<pdfrwt beam="2">  1       -2 0.20535333E+00 0.10874175E+04</pdfrwt>
<totfact> 0.30528037E-01</totfact>
</mgrwt>
</event>
<event>
 4    5  0.6615028E-008  0.8063377E+03  0.7818608E-02  0.9697257E-01
          2   -1    0    0  501    0  0.00000000000E+00  0.00000000000E+00  0.56635485249E+03  0.56635485249E+03  0.25500000000E-02 0. -1.
         -2   -1    0    0    0  501 -0.00000000000E+00 -0.00000000000E+00 -0.12354277432E+04  0.12354277432E+04  0.25500000000E-02 0.  1.
    8880023    1    1    2    0    0  0.77365990412E+02 -0.45867721662E+03  0.17579349378E+03  0.82527804056E+03  0.65864270000E+03 0. -1.
    8880022    1    1    2    0    0 -0.77365990412E+02  0.45867721662E+03 -0.84486638447E+03  0.97650455510E+03  0.15294330000E+03 0.  0.
<mgrwt>
<rscale>  0 0.71180372E+03</rscale>
<asrwt>0</asrwt>
<pdfrwt beam="1">  1        2 0.87131516E-01 0.80633770E+03</pdfrwt>
<pdfrwt beam="2">  1       -2 0.19006581E+00 0.80633770E+03</pdfrwt>
<totfact> 0.83327200E+00</totfact>
</mgrwt>
</event>
<event>
 4    5  0.6615028E-008  0.9033520E+03  0.7818608E-02  0.9520672E-01
          2   -1    0    0  501    0  0.00000000000E+00  0.00000000000E+00  0.28320802444E+04  0.28320802444E+04  0.25500000000E-02 0. -1.
         -2   -1    0    0    0  501 -0.00000000000E+00 -0.00000000000E+00 -0.68339489898E+03  0.68339489899E+03  0.25500000000E-02 0.  1.
    8880023    1    1    2    0    0 -0.39239914892E+03  0.47776301937E+03  0.25884221367E+04  0.27415276688E+04  0.65864270000E+03 0.  0.
    8880022    1    1    2    0    0  0.39239914892E+03 -0.47776301937E+03 -0.43973679131E+03  0.77394747457E+03  0.15294330000E+03 0.  0.
<mgrwt>
<rscale>  0 0.82776776E+03</rscale>
<asrwt>0</asrwt>
<pdfrwt beam="1">  1        2 0.43570466E+00 0.90335198E+03</pdfrwt>
<pdfrwt beam="2">  1       -2 0.10513768E+00 0.90335198E+03</pdfrwt>
<totfact> 0.16708059E+00</totfact>
</mgrwt>
</event>
<event>
 4    5  0.6615028E-008  0.1090193E+04  0.7818608E-02  0.9272054E-01
         -2   -1    0    0    0  501 -0.00000000000E+00  0.00000000000E+00  0.11185849504E+04  0.11185849504E+04  0.25500000000E-02 0.  1.
          2   -1    0    0  501    0  0.00000000000E+00 -0.00000000000E+00 -0.10317517281E+04  0.10317517281E+04  0.25500000000E-02 0. -1.
    8880023    1    1    2    0    0  0.35893965402E+03  0.79112191429E+03 -0.37722942804E+03  0.11536133694E+04  0.65864270000E+03 0.  0.
    8880022    1    1    2    0    0 -0.35893965402E+03 -0.79112191429E+03  0.46406265031E+03  0.99672330911E+03  0.15294330000E+03 0.  0.
<mgrwt>
<rscale>  0 0.10339685E+04</rscale>
<asrwt>0</asrwt>
<pdfrwt beam="1">  1        2 0.15873103E+00 0.10901935E+04</pdfrwt>
<pdfrwt beam="2">  1       -2 0.17208999E+00 0.10901935E+04</pdfrwt>
<totfact> 0.48646764E+00</totfact>
</mgrwt>
</event>
<event>
 4    5  0.6615028E-008  0.6705783E+03  0.7818608E-02  0.1015252E+00
         -2   -1    0    0    0  501 -0.00000000000E+00  0.00000000000E+00  0.30960335780E+03  0.30960335781E+03  0.25500000000E-02 0.  1.
          2   -1    0    0  501    0  0.00000000000E+00 -0.00000000000E+00 -0.19347540195E+04  0.19347540195E+04  0.25500000000E-02 0. -1.
    8880023    1    1    2    0    0 -0.10586720186E+03 -0.68243492906E+02 -0.18362369347E+04  0.19548507169E+04  0.65864270000E+03 0. -1.
    8880022    1    1    2    0    0  0.10586720186E+03  0.68243492906E+02  0.21108627301E+03  0.28950666041E+03  0.15294330000E+03 0.  0.
<mgrwt>
<rscale>  0 0.49439757E+03</rscale>
<asrwt>0</asrwt>
<pdfrwt beam="1">  1        2 0.29765446E+00 0.67057829E+03</pdfrwt>
<pdfrwt beam="2">  1       -2 0.47631287E-01 0.67057829E+03</pdfrwt>
<totfact> 0.31617793E+01</totfact>
</mgrwt>
</event>
<event>
 4    5  0.6615028E-008  0.8114190E+03  0.7818608E-02  0.9686629E-01
         -2   -1    0    0    0  501 -0.00000000000E+00  0.00000000000E+00  0.43597696518E+03  0.43597696519E+03  0.25500000000E-02 0.  1.
          2   -1    0    0  501    0  0.00000000000E+00 -0.00000000000E+00 -0.15153575207E+04  0.15153575207E+04  0.25500000000E-02 0. -1.
    8880023    1    1    2    0    0 -0.34659373162E+03 -0.32320793084E+03 -0.56147799814E+02  0.81335930746E+03  0.65864270000E+03 0.  1.
    8880022    1    1    2    0    0  0.34659373162E+03  0.32320793084E+03 -0.10232327557E+04  0.11379751784E+04  0.15294330000E+03 0.  0.
<mgrwt>
<rscale>  0 0.71818520E+03</rscale>
<asrwt>0</asrwt>
<pdfrwt beam="1">  1        2 0.23313192E+00 0.81141900E+03</pdfrwt>
<pdfrwt beam="2">  1       -2 0.67073380E-01 0.81141900E+03</pdfrwt>
<totfact> 0.25808613E+01</totfact>
</mgrwt>
</event>
<event>
 4    5  0.6615028E-008  0.7551360E+03  0.7818608E-02  0.9817867E-01
         -2   -1    0    0    0  501 -0.00000000000E+00  0.00000000000E+00  0.25615221950E+03  0.25615221951E+03  0.25500000000E-02 0.  1.
          2   -1    0    0  501    0  0.00000000000E+00 -0.00000000000E+00 -0.52786488851E+04  0.52786488851E+04  0.25500000000E-02 0. -1.
    8880023    1    1    2    0    0  0.17453640673E+03 -0.32551064230E+03 -0.50756522797E+04  0.51315179437E+04  0.65864270000E+03 0. -1.
    8880022    1    1    2    0    0 -0.17453640673E+03  0.32551064230E+03  0.53155614151E+02  0.40328316089E+03  0.15294330000E+03 0.  0.
<mgrwt>
<rscale>  0 0.64412473E+03</rscale>
<asrwt>0</asrwt>
<pdfrwt beam="1">  1        2 0.81209975E+00 0.75513598E+03</pdfrwt>
<pdfrwt beam="2">  1       -2 0.39408038E-01 0.75513598E+03</pdfrwt>
<totfact> 0.10349003E-01</totfact>
</mgrwt>
</event>
<event>
 4    5  0.6640900E-008  0.1230850E+04  0.7818608E-02  0.9127702E-01
         -2   -1    0    0    0  501 -0.00000000000E+00  0.00000000000E+00  0.12785226105E+04  0.12785226105E+04  0.25500000000E-02 0.  1.
          2   -1    0    0  501    0  0.00000000000E+00 -0.00000000000E+00 -0.32006698542E+04  0.32006698542E+04  0.25500000000E-02 0. -1.
    8880023    1    1    2    0    0 -0.90741511170E+03  0.50771921408E+03 -0.28327434068E+04  0.30885961860E+04  0.65864270000E+03 0. -1.
    8880022    1    1    2    0    0  0.90741511170E+03 -0.50771921408E+03  0.91059616299E+03  0.13905962787E+04  0.15294330000E+03 0.  0.
<mgrwt>
<rscale>  0 0.11831861E+04</rscale>
<asrwt>0</asrwt>
<pdfrwt beam="1">  1        2 0.49241074E+00 0.12308498E+04</pdfrwt>
<pdfrwt beam="2">  1       -2 0.19669579E+00 0.12308498E+04</pdfrwt>
<totfact> 0.17783495E-01</totfact>
</mgrwt>
</event>
<event>
 4    5  0.6615028E-008  0.6916682E+03  0.7818608E-02  0.1003370E+00
         -2   -1    0    0    0  501 -0.00000000000E+00  0.00000000000E+00  0.26530711364E+03  0.26530711365E+03  0.25500000000E-02 0.  1.
          2   -1    0    0  501    0  0.00000000000E+00 -0.00000000000E+00 -0.27668649402E+04  0.27668649402E+04  0.25500000000E-02 0. -1.
    8880023    1    1    2    0    0  0.21116192780E+03 -0.23152236276E+01 -0.26454399541E+04  0.27343660101E+04  0.65864270000E+03 0.  0.
    8880022    1    1    2    0    0 -0.21116192780E+03  0.23152236276E+01  0.14388212761E+03  0.29780604371E+03  0.15294330000E+03 0.  1.
<mgrwt>
<rscale>  0 0.54197106E+03</rscale>
<asrwt>0</asrwt>
<pdfrwt beam="1">  1        2 0.42567151E+00 0.69166822E+03</pdfrwt>
<pdfrwt beam="2">  1       -2 0.40816481E-01 0.69166822E+03</pdfrwt>
<totfact> 0.14660807E+01</totfact>
</mgrwt>
</event>
<event>
 4    5  0.6615028E-008  0.1465438E+04  0.7818608E-02  0.8934435E-01
          2   -1    0    0  501    0  0.00000000000E+00  0.00000000000E+00  0.22138878229E+04  0.22138878229E+04  0.25500000000E-02 0. -1.
         -2   -1    0    0    0  501 -0.00000000000E+00 -0.00000000000E+00 -0.12806604430E+04  0.12806604430E+04  0.25500000000E-02 0.  1.
    8880023    1    1    2    0    0  0.96604369442E+03 -0.88343505454E+03  0.14661037567E+04  0.20729130099E+04  0.65864270000E+03 0.  0.
    8880022    1    1    2    0    0 -0.96604369442E+03  0.88343505454E+03 -0.53287637677E+03  0.14216352560E+04  0.15294330000E+03 0.  0.
<mgrwt>
<rscale>  0 0.14270965E+04</rscale>
<asrwt>0</asrwt>
<pdfrwt beam="1">  1        2 0.34059813E+00 0.14654379E+04</pdfrwt>
<pdfrwt beam="2">  1       -2 0.19702468E+00 0.14654379E+04</pdfrwt>
<totfact> 0.66535340E-01</totfact>
</mgrwt>
</event>
<event>
 4    5  0.6615028E-008  0.8180221E+03  0.7818608E-02  0.9673103E-01
          2   -1    0    0  501    0  0.00000000000E+00  0.00000000000E+00  0.18709229002E+04  0.18709229002E+04  0.25500000000E-02 0. -1.
         -2   -1    0    0    0  501 -0.00000000000E+00 -0.00000000000E+00 -0.42023918789E+03  0.42023918789E+03  0.25500000000E-02 0.  1.
    8880023    1    1    2    0    0 -0.23601806944E+03 -0.42384590429E+03  0.15685289197E+04  0.17690231932E+04  0.65864270000E+03 0. -1.
    8880022    1    1    2    0    0  0.23601806944E+03  0.42384590429E+03 -0.11784520741E+03  0.52213889493E+03  0.15294330000E+03 0.  0.
<mgrwt>
<rscale>  0 0.72641036E+03</rscale>
<asrwt>0</asrwt>
<pdfrwt beam="1">  1        2 0.28783430E+00 0.81802206E+03</pdfrwt>
<pdfrwt beam="2">  1       -2 0.64652181E-01 0.81802206E+03</pdfrwt>
<totfact> 0.17794833E+01</totfact>
</mgrwt>
</event>
<event>
 4    5  0.6615028E-008  0.1316857E+04  0.7818608E-02  0.9051138E-01
         -2   -1    0    0    0  501 -0.00000000000E+00  0.00000000000E+00  0.13985165665E+04  0.13985165665E+04  0.25500000000E-02 0.  1.
          2   -1    0    0  501    0  0.00000000000E+00 -0.00000000000E+00 -0.19099191733E+04  0.19099191733E+04  0.25500000000E-02 0. -1.
    8880023    1    1    2    0    0  0.88206653087E+03 -0.72267564282E+03 -0.13491044108E+04  0.18852571090E+04  0.65864270000E+03 0.  0.
    8880022    1    1    2    0    0 -0.88206653087E+03  0.72267564282E+03  0.83770180400E+03  0.14231786308E+04  0.15294330000E+03 0.  0.
<mgrwt>
<rscale>  0 0.12731434E+04</rscale>
<asrwt>0</asrwt>
<pdfrwt beam="1">  1        2 0.29383372E+00 0.13168567E+04</pdfrwt>
<pdfrwt beam="2">  1       -2 0.21515640E+00 0.13168567E+04</pdfrwt>
<totfact> 0.76169919E-01</totfact>
</mgrwt>
</event>
<event>
 4    5  0.6615028E-008  0.1167646E+04  0.7818608E-02  0.9189233E-01
         -2   -1    0    0    0  501 -0.00000000000E+00  0.00000000000E+00  0.62652314022E+03  0.62652314023E+03  0.25500000000E-02 0.  1.
          2   -1    0    0  501    0  0.00000000000E+00 -0.00000000000E+00 -0.27202021923E+04  0.27202021923E+04  0.25500000000E-02 0. -1.
    8880023    1    1    2    0    0 -0.77694905533E+03  0.57090927446E+03 -0.20624236570E+04  0.23700187302E+04  0.65864270000E+03 0.  1.
    8880022    1    1    2    0    0  0.77694905533E+03 -0.57090927446E+03 -0.31255395035E+02  0.97670660230E+03  0.15294330000E+03 0.  0.
<mgrwt>
<rscale>  0 0.11165260E+04</rscale>
<asrwt>0</asrwt>
<pdfrwt beam="1">  1        2 0.41849264E+00 0.11676461E+04</pdfrwt>
<pdfrwt beam="2">  1       -2 0.96388177E-01 0.11676461E+04</pdfrwt>
<totfact> 0.23050065E+00</totfact>
</mgrwt>
</event>
<event>
 4    5  0.6615028E-008  0.6808120E+03  0.7818608E-02  0.1008868E+00
         -2   -1    0    0    0  501 -0.00000000000E+00  0.00000000000E+00  0.20362164382E+04  0.20362164382E+04  0.25500000000E-02 0.  1.
          2   -1    0    0  501    0  0.00000000000E+00 -0.00000000000E+00 -0.49385950460E+03  0.49385950460E+03  0.25500000000E-02 0. -1.
    8880023    1    1    2    0    0 -0.15371335979E+03  0.77890932041E+02 -0.24828418805E+03  0.72467236636E+03  0.65864270000E+03 0. -1.
    8880022    1    1    2    0    0  0.15371335979E+03 -0.77890932041E+02  0.17906411216E+04  0.18054035764E+04  0.15294330000E+03 0.  0.
<mgrwt>
<rscale>  0 0.51927016E+03</rscale>
<asrwt>0</asrwt>
<pdfrwt beam="1">  1        2 0.75978387E-01 0.68081202E+03</pdfrwt>
<pdfrwt beam="2">  1       -2 0.31326406E+00 0.68081202E+03</pdfrwt>
<totfact> 0.17403059E+00</totfact>
</mgrwt>
</event>
<event>
 4    5  0.6615028E-008  0.1513414E+04  0.7818608E-02  0.8900222E-01
          2   -1    0    0  501    0  0.00000000000E+00  0.00000000000E+00  0.35448023843E+04  0.35448023843E+04  0.25500000000E-02 0. -1.
         -2   -1    0    0    0  501 -0.00000000000E+00 -0.00000000000E+00 -0.83328630007E+03  0.83328630007E+03  0.25500000000E-02 0.  1.
    8880023    1    1    2    0    0  0.59982804464E+03  0.12234446462E+04  0.25923572673E+04  0.30017889488E+04  0.65864270000E+03 0.  0.
    8880022    1    1    2    0    0 -0.59982804464E+03 -0.12234446462E+04  0.11915881696E+03  0.13762997356E+04  0.15294330000E+03 0.  0.
<mgrwt>
<rscale>  0 0.14765155E+04</rscale>
<asrwt>0</asrwt>
<pdfrwt beam="1">  1        2 0.54535421E+00 0.15134136E+04</pdfrwt>
<pdfrwt beam="2">  1       -2 0.12819789E+00 0.15134136E+04</pdfrwt>
<totfact> 0.32500975E-01</totfact>
</mgrwt>
</event>
<event>
 4    5  0.1609785E-007  0.1819343E+04  0.7818608E-02  0.8711911E-01
          2   -1    0    0  501    0  0.00000000000E+00  0.00000000000E+00  0.22479080008E+04  0.22479080008E+04  0.25500000000E-02 0. -1.
         -2   -1    0    0    0  501 -0.00000000000E+00 -0.00000000000E+00 -0.32720394420E+04  0.32720394420E+04  0.25500000000E-02 0.  1.
    8880023    1    1    2    0    0  0.26010810705E+03  0.16758710467E+04  0.15792312958E+04  0.24091454262E+04  0.65864270000E+03 0.  0.
    8880022    1    1    2    0    0 -0.26010810705E+03 -0.16758710467E+04 -0.26033627371E+04  0.31108020166E+04  0.15294330000E+03 0.  0.
<mgrwt>
<rscale>  0 0.17894852E+04</rscale>
<asrwt>0</asrwt>
<pdfrwt beam="1">  1        2 0.34583200E+00 0.18193433E+04</pdfrwt>
<pdfrwt beam="2">  1       -2 0.50339068E+00 0.18193433E+04</pdfrwt>
<totfact> 0.67976396E-03</totfact>
</mgrwt>
</event>
<event>
 4    5  0.6615028E-008  0.7626994E+03  0.7818608E-02  0.9798168E-01
         -2   -1    0    0    0  501 -0.00000000000E+00  0.00000000000E+00  0.76798646723E+03  0.76798646723E+03  0.25500000000E-02 0.  1.
          2   -1    0    0  501    0  0.00000000000E+00 -0.00000000000E+00 -0.29177992196E+04  0.29177992196E+04  0.25500000000E-02 0. -1.
    8880023    1    1    2    0    0 -0.56076592603E+02 -0.38046767524E+03 -0.28071997105E+04  0.29089655648E+04  0.65864270000E+03 0. -1.
    8880022    1    1    2    0    0  0.56076592603E+02  0.38046767524E+03  0.65738695819E+03  0.77682012200E+03  0.15294330000E+03 0.  0.
<mgrwt>
<rscale>  0 0.65460930E+03</rscale>
<asrwt>0</asrwt>
<pdfrwt beam="1">  1        2 0.44889218E+00 0.76269944E+03</pdfrwt>
<pdfrwt beam="2">  1       -2 0.11815177E+00 0.76269944E+03</pdfrwt>
<totfact> 0.11482639E+00</totfact>
</mgrwt>
</event>
<event>
 4    5  0.6615028E-008  0.8506356E+03  0.7818608E-02  0.9610443E-01
         -2   -1    0    0    0  501 -0.00000000000E+00  0.00000000000E+00  0.27784245226E+03  0.27784245227E+03  0.25500000000E-02 0.  1.
          2   -1    0    0  501    0  0.00000000000E+00 -0.00000000000E+00 -0.24864285185E+04  0.24864285185E+04  0.25500000000E-02 0. -1.
    8880023    1    1    2    0    0 -0.16240852990E+03  0.51321943010E+03 -0.19887470313E+04  0.21630292820E+04  0.65864270000E+03 0. -1.
    8880022    1    1    2    0    0  0.16240852990E+03 -0.51321943010E+03 -0.21983903493E+03  0.60124168877E+03  0.15294330000E+03 0.  1.
<mgrwt>
<rscale>  0 0.76608836E+03</rscale>
<asrwt>0</asrwt>
<pdfrwt beam="1">  1        2 0.38252745E+00 0.85063560E+03</pdfrwt>
<pdfrwt beam="2">  1       -2 0.42744994E-01 0.85063560E+03</pdfrwt>
<totfact> 0.18955709E+01</totfact>
</mgrwt>
</event>
<event>
 4    5  0.6615028E-008  0.1163541E+04  0.7818608E-02  0.9193405E-01
          2   -1    0    0  501    0  0.00000000000E+00  0.00000000000E+00  0.65728262948E+03  0.65728262949E+03  0.25500000000E-02 0. -1.
         -2   -1    0    0    0  501 -0.00000000000E+00 -0.00000000000E+00 -0.21227387732E+04  0.21227387732E+04  0.25500000000E-02 0.  1.
    8880023    1    1    2    0    0 -0.82431908143E+03  0.49042261700E+03 -0.19334024163E+03  0.11794943606E+04  0.65864270000E+03 0.  0.
    8880022    1    1    2    0    0  0.82431908143E+03 -0.49042261700E+03 -0.12721159021E+04  0.16005270422E+04  0.15294330000E+03 0.  0.
<mgrwt>
<rscale>  0 0.11121761E+04</rscale>
<asrwt>0</asrwt>
<pdfrwt beam="1">  1        2 0.10112041E+00 0.11635405E+04</pdfrwt>
<pdfrwt beam="2">  1       -2 0.32657519E+00 0.11635405E+04</pdfrwt>
<totfact> 0.95658813E-01</totfact>
</mgrwt>
</event>
<event>
 4    5  0.6615028E-008  0.6743413E+03  0.7818608E-02  0.1012725E+00
         -2   -1    0    0    0  501 -0.00000000000E+00  0.00000000000E+00  0.28315573057E+03  0.28315573058E+03  0.25500000000E-02 0.  1.
          2   -1    0    0  501    0  0.00000000000E+00 -0.00000000000E+00 -0.25581102431E+04  0.25581102431E+04  0.25500000000E-02 0. -1.
    8880023    1    1    2    0    0 -0.33335524123E+02  0.14076494857E+03 -0.24662719847E+04  0.25568014660E+04  0.65864270000E+03 0. -1.
    8880022    1    1    2    0    0  0.33335524123E+02 -0.14076494857E+03  0.19131747220E+03  0.28446450762E+03  0.15294330000E+03 0.  0.
<mgrwt>
<rscale>  0 0.50405968E+03</rscale>
<asrwt>0</asrwt>
<pdfrwt beam="1">  1        2 0.39355541E+00 0.67434133E+03</pdfrwt>
<pdfrwt beam="2">  1       -2 0.43562422E-01 0.67434133E+03</pdfrwt>
<totfact> 0.17078980E+01</totfact>
</mgrwt>
</event>
<event>
 4    5  0.6615028E-008  0.7517746E+03  0.7818608E-02  0.9826887E-01
         -2   -1    0    0    0  501 -0.00000000000E+00  0.00000000000E+00  0.30762602936E+03  0.30762602937E+03  0.25500000000E-02 0.  1.
          2   -1    0    0  501    0  0.00000000000E+00 -0.00000000000E+00 -0.34538303657E+04  0.34538303657E+04  0.25500000000E-02 0. -1.
    8880023    1    1    2    0    0  0.36242289378E+03 -0.21208240557E+01 -0.32650796145E+04  0.33505089087E+04  0.65864270000E+03 0.  0.
    8880022    1    1    2    0    0 -0.36242289378E+03  0.21208240557E+01  0.11887527814E+03  0.41094748642E+03  0.15294330000E+03 0.  0.
<mgrwt>
<rscale>  0 0.63939369E+03</rscale>
<asrwt>0</asrwt>
<pdfrwt beam="1">  1        2 0.53135849E+00 0.75177461E+03</pdfrwt>
<pdfrwt beam="2">  1       -2 0.47327084E-01 0.75177461E+03</pdfrwt>
<totfact> 0.40111170E+00</totfact>
</mgrwt>
</event>
<event>
 4    5  0.6615028E-008  0.6619321E+03  0.7818608E-02  0.1022259E+00
         -2   -1    0    0    0  501 -0.00000000000E+00  0.00000000000E+00  0.15697565537E+04  0.15697565537E+04  0.25500000000E-02 0.  1.
          2   -1    0    0  501    0  0.00000000000E+00 -0.00000000000E+00 -0.47689497266E+03  0.47689497267E+03  0.25500000000E-02 0. -1.
    8880023    1    1    2    0    0  0.14560482945E+02  0.64279949183E+02 -0.23949552772E+03  0.70392629841E+03  0.65864270000E+03 0. -1.
    8880022    1    1    2    0    0 -0.14560482945E+02 -0.64279949183E+02  0.13323571088E+04  0.13427252280E+04  0.15294330000E+03 0.  0.
<mgrwt>
<rscale>  0 0.46880230E+03</rscale>
<asrwt>0</asrwt>
<pdfrwt beam="1">  1        2 0.73368458E-01 0.66193212E+03</pdfrwt>
<pdfrwt beam="2">  1       -2 0.24150100E+00 0.66193212E+03</pdfrwt>
<totfact> 0.49032622E+00</totfact>
</mgrwt>
</event>
<event>
 4    5  0.6615028E-008  0.6721810E+03  0.7818608E-02  0.1014145E+00
          2   -1    0    0  501    0  0.00000000000E+00  0.00000000000E+00  0.13492021903E+04  0.13492021903E+04  0.25500000000E-02 0. -1.
         -2   -1    0    0    0  501 -0.00000000000E+00 -0.00000000000E+00 -0.14300270556E+04  0.14300270556E+04  0.25500000000E-02 0.  1.
    8880023    1    1    2    0    0 -0.70122090391E+02 -0.11445504966E+03  0.12573088837E+04  0.14257113668E+04  0.65864270000E+03 0. -1.
    8880022    1    1    2    0    0  0.70122090391E+02  0.11445504966E+03 -0.13381337491E+04  0.13535178792E+04  0.15294330000E+03 0.  0.
<mgrwt>
<rscale>  0 0.49859870E+03</rscale>
<asrwt>0</asrwt>
<pdfrwt beam="1">  1        2 0.20756957E+00 0.67218098E+03</pdfrwt>
<pdfrwt beam="2">  1       -2 0.22000416E+00 0.67218098E+03</pdfrwt>
<totfact> 0.16038348E+00</totfact>
</mgrwt>
</event>
<event>
 4    5  0.6615028E-008  0.2195935E+04  0.7818608E-02  0.8530320E-01
         -2   -1    0    0    0  501 -0.00000000000E+00  0.00000000000E+00  0.10361083446E+04  0.10361083446E+04  0.25500000000E-02 0.  1.
          2   -1    0    0  501    0  0.00000000000E+00 -0.00000000000E+00 -0.52017726803E+04  0.52017726803E+04  0.25500000000E-02 0. -1.
    8880023    1    1    2    0    0  0.25936034870E+02 -0.20946712189E+04 -0.33049173500E+04  0.39679477176E+04  0.65864270000E+03 0.  0.
    8880022    1    1    2    0    0 -0.25936034870E+02  0.20946712189E+04 -0.86074698576E+03  0.22699333073E+04  0.15294330000E+03 0.  0.
<mgrwt>
<rscale>  0 0.21716533E+04</rscale>
<asrwt>0</asrwt>
<pdfrwt beam="1">  1        2 0.80027270E+00 0.21959350E+04</pdfrwt>
<pdfrwt beam="2">  1       -2 0.15940129E+00 0.21959350E+04</pdfrwt>
<totfact> 0.41694427E-03</totfact>
</mgrwt>
</event>
<event>
 4    5  0.6615028E-008  0.1392581E+04  0.7818608E-02  0.8989469E-01
          2   -1    0    0  501    0  0.00000000000E+00  0.00000000000E+00  0.14129116442E+04  0.14129116442E+04  0.25500000000E-02 0. -1.
         -2   -1    0    0    0  501 -0.00000000000E+00 -0.00000000000E+00 -0.15101516406E+04  0.15101516406E+04  0.25500000000E-02 0.  1.
    8880023    1    1    2    0    0  0.79663586539E+03 -0.93318894385E+03  0.58545523279E+03  0.15106416990E+04  0.65864270000E+03 0.  0.
    8880022    1    1    2    0    0 -0.79663586539E+03  0.93318894385E+03 -0.68269522924E+03  0.14124215858E+04  0.15294330000E+03 0.  0.
<mgrwt>
<rscale>  0 0.13517964E+04</rscale>
<asrwt>0</asrwt>
<pdfrwt beam="1">  1        2 0.21737102E+00 0.13925805E+04</pdfrwt>
<pdfrwt beam="2">  1       -2 0.23233102E+00 0.13925805E+04</pdfrwt>
<totfact> 0.11189160E+00</totfact>
</mgrwt>
</event>
<event>
 4    5  0.6615028E-008  0.1020876E+04  0.7818608E-02  0.9354741E-01
         -2   -1    0    0    0  501 -0.00000000000E+00  0.00000000000E+00  0.10814028766E+04  0.10814028766E+04  0.25500000000E-02 0.  1.
          2   -1    0    0  501    0  0.00000000000E+00 -0.00000000000E+00 -0.13483602798E+04  0.13483602798E+04  0.25500000000E-02 0. -1.
    8880023    1    1    2    0    0 -0.21184874392E+03  0.75066428899E+03 -0.94039303210E+03  0.13879935253E+04  0.65864270000E+03 0.  0.
    8880022    1    1    2    0    0  0.21184874392E+03 -0.75066428899E+03  0.67343562894E+03  0.10417696312E+04  0.15294330000E+03 0.  1.
<mgrwt>
<rscale>  0 0.95895749E+03</rscale>
<asrwt>0</asrwt>
<pdfrwt beam="1">  1        2 0.20744004E+00 0.10208756E+04</pdfrwt>
<pdfrwt beam="2">  1       -2 0.16636967E+00 0.10208756E+04</pdfrwt>
<totfact> 0.34693077E+00</totfact>
</mgrwt>
</event>
<event>
 4    5  0.6615028E-008  0.8551414E+03  0.7818608E-02  0.9602265E-01
         -2   -1    0    0    0  501 -0.00000000000E+00  0.00000000000E+00  0.65952764564E+03  0.65952764565E+03  0.25500000000E-02 0.  1.
          2   -1    0    0  501    0  0.00000000000E+00 -0.00000000000E+00 -0.24484890774E+04  0.24484890774E+04  0.25500000000E-02 0. -1.
    8880023    1    1    2    0    0  0.30066905117E+03  0.45503263677E+03 -0.22311551924E+04  0.23894183974E+04  0.65864270000E+03 0. -1.
    8880022    1    1    2    0    0 -0.30066905117E+03 -0.45503263677E+03  0.44219376058E+03  0.71859832575E+03  0.15294330000E+03 0.  0.
<mgrwt>
<rscale>  0 0.77146442E+03</rscale>
<asrwt>0</asrwt>
<pdfrwt beam="1">  1        2 0.37669062E+00 0.85514138E+03</pdfrwt>
<pdfrwt beam="2">  1       -2 0.10146579E+00 0.85514138E+03</pdfrwt>
<totfact> 0.30628544E+00</totfact>
</mgrwt>
</event>
<event>
 4    5  0.6615028E-008  0.7650637E+03  0.7818608E-02  0.9792170E-01
          2   -1    0    0  501    0  0.00000000000E+00  0.00000000000E+00  0.12962642301E+04  0.12962642301E+04  0.25500000000E-02 0. -1.
         -2   -1    0    0    0  501 -0.00000000000E+00 -0.00000000000E+00 -0.55948280178E+03  0.55948280178E+03  0.25500000000E-02 0.  1.
    8880023    1    1    2    0    0 -0.21851611019E+03  0.32212271561E+03  0.10739153630E+04  0.13185661711E+04  0.65864270000E+03 0. -1.
    8880022    1    1    2    0    0  0.21851611019E+03 -0.32212271561E+03 -0.33713393467E+03  0.53718086083E+03  0.15294330000E+03 0.  0.
<mgrwt>
<rscale>  0 0.65784440E+03</rscale>
<asrwt>0</asrwt>
<pdfrwt beam="1">  1        2 0.19942527E+00 0.76506375E+03</pdfrwt>
<pdfrwt beam="2">  1       -2 0.86074278E-01 0.76506375E+03</pdfrwt>
<totfact> 0.19819276E+01</totfact>
</mgrwt>
</event>
<event>
 4    5  0.6955756E-008  0.1138102E+04  0.7818608E-02  0.9219774E-01
          2   -1    0    0  501    0  0.00000000000E+00  0.00000000000E+00  0.30471463716E+04  0.30471463716E+04  0.25500000000E-02 0. -1.
         -2   -1    0    0    0  501 -0.00000000000E+00 -0.00000000000E+00 -0.12152488873E+04  0.12152488873E+04  0.25500000000E-02 0.  1.
    8880023    1    1    2    0    0 -0.69307513850E+03 -0.61734373227E+03  0.27325446933E+04  0.29600805966E+04  0.65864270000E+03 0.  0.
    8880022    1    1    2    0    0  0.69307513850E+03  0.61734373227E+03 -0.90064720900E+03  0.13023146622E+04  0.15294330000E+03 0.  0.
<mgrwt>
<rscale>  0 0.10851634E+04</rscale>
<asrwt>0</asrwt>
<pdfrwt beam="1">  1        2 0.46879175E+00 0.11381022E+04</pdfrwt>
<pdfrwt beam="2">  1       -2 0.18696137E+00 0.11381022E+04</pdfrwt>
<totfact> 0.26255013E-01</totfact>
</mgrwt>
</event>
<event>
 4    5  0.6615028E-008  0.7529216E+03  0.7818608E-02  0.9823790E-01
          2   -1    0    0  501    0  0.00000000000E+00  0.00000000000E+00  0.45149283575E+04  0.45149283575E+04  0.25500000000E-02 0. -1.
         -2   -1    0    0    0  501 -0.00000000000E+00 -0.00000000000E+00 -0.21665363786E+03  0.21665363788E+03  0.25500000000E-02 0.  1.
    8880023    1    1    2    0    0  0.21069772672E+03  0.29780399684E+03  0.42690510464E+04  0.43349380383E+04  0.65864270000E+03 0. -1.
    8880022    1    1    2    0    0 -0.21069772672E+03 -0.29780399684E+03  0.29223673179E+02  0.39664395706E+03  0.15294330000E+03 0.  0.
<mgrwt>
<rscale>  0 0.64101330E+03</rscale>
<asrwt>0</asrwt>
<pdfrwt beam="1">  1        2 0.69460426E+00 0.75292162E+03</pdfrwt>
<pdfrwt beam="2">  1       -2 0.33331334E-01 0.75292162E+03</pdfrwt>
<totfact> 0.11383502E+00</totfact>
</mgrwt>
</event>
<event>
 4    5  0.6615028E-008  0.8861902E+03  0.7818608E-02  0.9548575E-01
          2   -1    0    0  501    0  0.00000000000E+00  0.00000000000E+00  0.32517140867E+04  0.32517140867E+04  0.25500000000E-02 0. -1.
         -2   -1    0    0    0  501 -0.00000000000E+00 -0.00000000000E+00 -0.37083078761E+03  0.37083078762E+03  0.25500000000E-02 0.  1.
    8880023    1    1    2    0    0  0.21481123420E+03 -0.55261111573E+03  0.28768288394E+04  0.30102287769E+04  0.65864270000E+03 0. -1.
    8880022    1    1    2    0    0 -0.21481123420E+03  0.55261111573E+03  0.40544597030E+01  0.61231609748E+03  0.15294330000E+03 0.  0.
<mgrwt>
<rscale>  0 0.80795422E+03</rscale>
<asrwt>0</asrwt>
<pdfrwt beam="1">  1        2 0.50026369E+00 0.88619023E+03</pdfrwt>
<pdfrwt beam="2">  1       -2 0.57050893E-01 0.88619023E+03</pdfrwt>
<totfact> 0.36216173E+00</totfact>
</mgrwt>
</event>
<event>
 4    5  0.7393344E-008  0.9685016E+03  0.7818608E-02  0.9423980E-01
         -2   -1    0    0    0  501 -0.00000000000E+00  0.00000000000E+00  0.12425019974E+04  0.12425019974E+04  0.25500000000E-02 0.  1.
          2   -1    0    0  501    0  0.00000000000E+00 -0.00000000000E+00 -0.21550905214E+04  0.21550905214E+04  0.25500000000E-02 0. -1.
    8880023    1    1    2    0    0 -0.92158629717E+02  0.70405388878E+03 -0.19230482084E+04  0.21531627225E+04  0.65864270000E+03 0. -1.
    8880022    1    1    2    0    0  0.92158629717E+02 -0.70405388878E+03  0.10104596844E+04  0.12444297964E+04  0.15294330000E+03 0.  0.
<mgrwt>
<rscale>  0 0.90128253E+03</rscale>
<asrwt>0</asrwt>
<pdfrwt beam="1">  1        2 0.33155239E+00 0.96850157E+03</pdfrwt>
<pdfrwt beam="2">  1       -2 0.19115415E+00 0.96850157E+03</pdfrwt>
<totfact> 0.83779850E-01</totfact>
</mgrwt>
</event>
<event>
 4    5  0.6615028E-008  0.9292370E+03  0.7818608E-02  0.9480639E-01
         -2   -1    0    0    0  501 -0.00000000000E+00  0.00000000000E+00  0.10407432443E+04  0.10407432443E+04  0.25500000000E-02 0.  1.
          2   -1    0    0  501    0  0.00000000000E+00 -0.00000000000E+00 -0.28872871094E+04  0.28872871094E+04  0.25500000000E-02 0. -1.
    8880023    1    1    2    0    0  0.61688475387E+03 -0.22164020487E+03 -0.26917038181E+04  0.28475868434E+04  0.65864270000E+03 0. -1.
    8880022    1    1    2    0    0 -0.61688475387E+03  0.22164020487E+03  0.84515995300E+03  0.10804435104E+04  0.15294330000E+03 0.  0.
<mgrwt>
<rscale>  0 0.85726417E+03</rscale>
<asrwt>0</asrwt>
<pdfrwt beam="1">  1        2 0.44419801E+00 0.92923699E+03</pdfrwt>
<pdfrwt beam="2">  1       -2 0.16011435E+00 0.92923699E+03</pdfrwt>
<totfact> 0.52813362E-01</totfact>
</mgrwt>
</event>
<event>
 4    5  0.6615028E-008  0.8690790E+03  0.7818608E-02  0.9577613E-01
          2   -1    0    0  501    0  0.00000000000E+00  0.00000000000E+00  0.24893310009E+04  0.24893310009E+04  0.25500000000E-02 0. -1.
         -2   -1    0    0    0  501 -0.00000000000E+00 -0.00000000000E+00 -0.25988662103E+03  0.25988662104E+03  0.25500000000E-02 0.  1.
    8880023    1    1    2    0    0 -0.13385026810E+03  0.55097386474E+03  0.18663341816E+04  0.20587621469E+04  0.65864270000E+03 0. -1.
    8880022    1    1    2    0    0  0.13385026810E+03 -0.55097386474E+03  0.36311019827E+03  0.69045547503E+03  0.15294330000E+03 0.  0.
<mgrwt>
<rscale>  0 0.78795770E+03</rscale>
<asrwt>0</asrwt>
<pdfrwt beam="1">  1        2 0.38297399E+00 0.86907900E+03</pdfrwt>
<pdfrwt beam="2">  1       -2 0.39982558E-01 0.86907900E+03</pdfrwt>
<totfact> 0.21482192E+01</totfact>
</mgrwt>
</event>
<event>
 4    5  0.6615028E-008  0.1588909E+04  0.7818608E-02  0.8849279E-01
         -2   -1    0    0    0  501 -0.00000000000E+00  0.00000000000E+00  0.15848752090E+04  0.15848752090E+04  0.25500000000E-02 0.  1.
          2   -1    0    0  501    0  0.00000000000E+00 -0.00000000000E+00 -0.15406683528E+04  0.15406683528E+04  0.25500000000E-02 0. -1.
    8880023    1    1    2    0    0 -0.12991507295E+04 -0.63484458966E+03 -0.33289294999E+03  0.16234063550E+04  0.65864270000E+03 0.  0.
    8880022    1    1    2    0    0  0.12991507295E+04  0.63484458966E+03  0.37709980622E+03  0.15021372068E+04  0.15294330000E+03 0.  0.
<mgrwt>
<rscale>  0 0.15540599E+04</rscale>
<asrwt>0</asrwt>
<pdfrwt beam="1">  1        2 0.23702590E+00 0.15889086E+04</pdfrwt>
<pdfrwt beam="2">  1       -2 0.24382696E+00 0.15889086E+04</pdfrwt>
<totfact> 0.78751726E-01</totfact>
</mgrwt>
</event>
<event>
 4    5  0.6615028E-008  0.1352380E+04  0.7818608E-02  0.9021597E-01
         -2   -1    0    0    0  501 -0.00000000000E+00  0.00000000000E+00  0.12085167521E+04  0.12085167521E+04  0.25500000000E-02 0.  1.
          2   -1    0    0  501    0  0.00000000000E+00 -0.00000000000E+00 -0.31226740173E+04  0.31226740173E+04  0.25500000000E-02 0. -1.
    8880023    1    1    2    0    0 -0.98197817826E+03 -0.65638466760E+03 -0.26187738280E+04  0.29473561955E+04  0.65864270000E+03 0.  0.
    8880022    1    1    2    0    0  0.98197817826E+03  0.65638466760E+03  0.70461656275E+03  0.13838345739E+04  0.15294330000E+03 0.  0.
<mgrwt>
<rscale>  0 0.13100965E+04</rscale>
<asrwt>0</asrwt>
<pdfrwt beam="1">  1        2 0.48041138E+00 0.13523802E+04</pdfrwt>
<pdfrwt beam="2">  1       -2 0.18592566E+00 0.13523802E+04</pdfrwt>
<totfact> 0.23151063E-01</totfact>
</mgrwt>
</event>
<event>
 4    5  0.6615028E-008  0.1108003E+04  0.7818608E-02  0.9252198E-01
         -2   -1    0    0    0  501 -0.00000000000E+00  0.00000000000E+00  0.66853193289E+03  0.66853193289E+03  0.25500000000E-02 0.  1.
          2   -1    0    0  501    0  0.00000000000E+00 -0.00000000000E+00 -0.17343040535E+04  0.17343040535E+04  0.25500000000E-02 0. -1.
    8880023    1    1    2    0    0 -0.76784398640E+03 -0.45196842475E+03 -0.10064578988E+04  0.14968725907E+04  0.65864270000E+03 0.  0.
    8880022    1    1    2    0    0  0.76784398640E+03  0.45196842475E+03 -0.59314221817E+02  0.90596339570E+03  0.15294330000E+03 0.  0.
<mgrwt>
<rscale>  0 0.10530527E+04</rscale>
<asrwt>0</asrwt>
<pdfrwt beam="1">  1        2 0.26681601E+00 0.11080027E+04</pdfrwt>
<pdfrwt beam="2">  1       -2 0.10285107E+00 0.11080027E+04</pdfrwt>
<totfact> 0.71482099E+00</totfact>
</mgrwt>
</event>
<event>
 4    5  0.6615028E-008  0.1131185E+04  0.7818608E-02  0.9227105E-01
         -2   -1    0    0    0  501 -0.00000000000E+00  0.00000000000E+00  0.21569134578E+04  0.21569134578E+04  0.25500000000E-02 0.  1.
          2   -1    0    0  501    0  0.00000000000E+00 -0.00000000000E+00 -0.10500634859E+04  0.10500634859E+04  0.25500000000E-02 0. -1.
    8880023    1    1    2    0    0  0.88966423078E+03 -0.23295274354E+03 -0.58631948960E+03  0.12741075992E+04  0.65864270000E+03 0.  0.
    8880022    1    1    2    0    0 -0.88966423078E+03  0.23295274354E+03  0.16931694615E+04  0.19328693444E+04  0.15294330000E+03 0.  1.
<mgrwt>
<rscale>  0 0.10777990E+04</rscale>
<asrwt>0</asrwt>
<pdfrwt beam="1">  1        2 0.16154823E+00 0.11311851E+04</pdfrwt>
<pdfrwt beam="2">  1       -2 0.33183283E+00 0.11311851E+04</pdfrwt>
<totfact> 0.46839124E-01</totfact>
</mgrwt>
</event>
<event>
 4    5  0.6615028E-008  0.7666124E+03  0.7818608E-02  0.9788280E-01
          2   -1    0    0  501    0  0.00000000000E+00  0.00000000000E+00  0.10413525499E+04  0.10413525499E+04  0.25500000000E-02 0. -1.
         -2   -1    0    0    0  501 -0.00000000000E+00 -0.00000000000E+00 -0.43765402617E+03  0.43765402618E+03  0.25500000000E-02 0.  1.
    8880023    1    1    2    0    0  0.38480840292E+03 -0.76202696035E+02  0.70985222130E+03  0.10447893281E+04  0.65864270000E+03 0. -1.
    8880022    1    1    2    0    0 -0.38480840292E+03  0.76202696035E+02 -0.10615369761E+03  0.43421724790E+03  0.15294330000E+03 0.  1.
<mgrwt>
<rscale>  0 0.65995318E+03</rscale>
<asrwt>0</asrwt>
<pdfrwt beam="1">  1        2 0.16020808E+00 0.76661239E+03</pdfrwt>
<pdfrwt beam="2">  1       -2 0.67331390E-01 0.76661239E+03</pdfrwt>
<totfact> 0.48650383E+01</totfact>
</mgrwt>
</event>
<event>
 4    5  0.6615028E-008  0.1261154E+04  0.7818608E-02  0.9099854E-01
          2   -1    0    0  501    0  0.00000000000E+00  0.00000000000E+00  0.18635258619E+04  0.18635258619E+04  0.25500000000E-02 0. -1.
         -2   -1    0    0    0  501 -0.00000000000E+00 -0.00000000000E+00 -0.77653912319E+03  0.77653912320E+03  0.25500000000E-02 0.  1.
    8880023    1    1    2    0    0  0.27552726384E+03  0.10396073559E+04  0.87043162161E+03  0.15323707586E+04  0.65864270000E+03 0.  0.
    8880022    1    1    2    0    0 -0.27552726384E+03 -0.10396073559E+04  0.21655511705E+03  0.11076942265E+04  0.15294330000E+03 0.  0.
<mgrwt>
<rscale>  0 0.12149697E+04</rscale>
<asrwt>0</asrwt>
<pdfrwt beam="1">  1        2 0.28669628E+00 0.12611538E+04</pdfrwt>
<pdfrwt beam="2">  1       -2 0.11946756E+00 0.12611538E+04</pdfrwt>
<totfact> 0.41427589E+00</totfact>
</mgrwt>
</event>
<event>
 4    5  0.6615028E-008  0.6616502E+03  0.7818608E-02  0.1022526E+00
         -2   -1    0    0    0  501 -0.00000000000E+00  0.00000000000E+00  0.39535482731E+03  0.39535482732E+03  0.25500000000E-02 0.  1.
          2   -1    0    0  501    0  0.00000000000E+00 -0.00000000000E+00 -0.21076967100E+04  0.21076967100E+04  0.25500000000E-02 0. -1.
    8880023    1    1    2    0    0  0.41718697202E+01  0.62876099012E+02 -0.20353266796E+04  0.21401718874E+04  0.65864270000E+03 0. -1.
    8880022    1    1    2    0    0 -0.41718697202E+01 -0.62876099012E+02  0.32298479692E+03  0.36287964999E+03  0.15294330000E+03 0.  0.
<mgrwt>
<rscale>  0 0.46785981E+03</rscale>
<asrwt>0</asrwt>
<pdfrwt beam="1">  1        2 0.32426103E+00 0.66165022E+03</pdfrwt>
<pdfrwt beam="2">  1       -2 0.60823821E-01 0.66165022E+03</pdfrwt>
<totfact> 0.15395910E+01</totfact>
</mgrwt>
</event>
<event>
 4    5  0.6615028E-008  0.8501704E+03  0.7818608E-02  0.9611293E-01
         -2   -1    0    0    0  501 -0.00000000000E+00  0.00000000000E+00  0.14929801484E+03  0.14929801486E+03  0.25500000000E-02 0.  1.
          2   -1    0    0  501    0  0.00000000000E+00 -0.00000000000E+00 -0.40698018992E+04  0.40698018992E+04  0.25500000000E-02 0. -1.
    8880023    1    1    2    0    0  0.47076066855E+03  0.25954568561E+03 -0.31780088068E+04  0.32897613519E+04  0.65864270000E+03 0.  0.
    8880022    1    1    2    0    0 -0.47076066855E+03 -0.25954568561E+03 -0.74249507760E+03  0.92933856222E+03  0.15294330000E+03 0.  0.
<mgrwt>
<rscale>  0 0.76553205E+03</rscale>
<asrwt>0</asrwt>
<pdfrwt beam="1">  1        2 0.62612328E+00 0.85017044E+03</pdfrwt>
<pdfrwt beam="2">  1       -2 0.22968928E-01 0.85017044E+03</pdfrwt>
<totfact> 0.54320807E+00</totfact>
</mgrwt>
</event>
<event>
 4    5  0.6615028E-008  0.7714626E+03  0.7818608E-02  0.9776288E-01
          2   -1    0    0  501    0  0.00000000000E+00  0.00000000000E+00  0.63745272879E+03  0.63745272879E+03  0.25500000000E-02 0. -1.
         -2   -1    0    0    0  501 -0.00000000000E+00 -0.00000000000E+00 -0.12666595012E+04  0.12666595012E+04  0.25500000000E-02 0.  1.
    8880023    1    1    2    0    0  0.32207106089E+03  0.24003027330E+03  0.34061838847E+03  0.84331215644E+03  0.65864270000E+03 0. -1.
    8880022    1    1    2    0    0 -0.32207106089E+03 -0.24003027330E+03 -0.96982516083E+03  0.10608000735E+04  0.15294330000E+03 0.  0.
<mgrwt>
<rscale>  0 0.66650755E+03</rscale>
<asrwt>0</asrwt>
<pdfrwt beam="1">  1        2 0.98069651E-01 0.77146258E+03</pdfrwt>
<pdfrwt beam="2">  1       -2 0.19487069E+00 0.77146258E+03</pdfrwt>
<totfact> 0.67365270E+00</totfact>
</mgrwt>
</event>
<event>
 4    5  0.6615028E-008  0.8972016E+03  0.7818608E-02  0.9530539E-01
          2   -1    0    0  501    0  0.00000000000E+00  0.00000000000E+00  0.84039026536E+03  0.84039026537E+03  0.25500000000E-02 0. -1.
         -2   -1    0    0    0  501 -0.00000000000E+00 -0.00000000000E+00 -0.82179151036E+03  0.82179151036E+03  0.25500000000E-02 0.  1.
    8880023    1    1    2    0    0  0.57733437299E+03  0.19453910784E+03  0.33644350425E+03  0.95820920499E+03  0.65864270000E+03 0. -1.
    8880022    1    1    2    0    0 -0.57733437299E+03 -0.19453910784E+03 -0.31784474925E+03  0.70397257074E+03  0.15294330000E+03 0.  0.
<mgrwt>
<rscale>  0 0.82069268E+03</rscale>
<asrwt>0</asrwt>
<pdfrwt beam="1">  1        2 0.12929081E+00 0.89720157E+03</pdfrwt>
<pdfrwt beam="2">  1       -2 0.12642946E+00 0.89720157E+03</pdfrwt>
<totfact> 0.15037608E+01</totfact>
</mgrwt>
</event>
<event>
 4    5  0.6615028E-008  0.1800839E+04  0.7818608E-02  0.8722072E-01
         -2   -1    0    0    0  501 -0.00000000000E+00  0.00000000000E+00  0.12179764623E+04  0.12179764623E+04  0.25500000000E-02 0.  1.
          2   -1    0    0  501    0  0.00000000000E+00 -0.00000000000E+00 -0.25979664148E+04  0.25979664148E+04  0.25500000000E-02 0. -1.
    8880023    1    1    2    0    0  0.11720845731E+04 -0.11980944966E+04 -0.10987641387E+04  0.21095747221E+04  0.65864270000E+03 0.  0.
    8880022    1    1    2    0    0 -0.11720845731E+04  0.11980944966E+04 -0.28122581379E+03  0.17063681551E+04  0.15294330000E+03 0.  0.
<mgrwt>
<rscale>  0 0.17706368E+04</rscale>
<asrwt>0</asrwt>
<pdfrwt beam="1">  1        2 0.39968714E+00 0.18008395E+04</pdfrwt>
<pdfrwt beam="2">  1       -2 0.18738100E+00 0.18008395E+04</pdfrwt>
<totfact> 0.44969218E-01</totfact>
</mgrwt>
</event>
<event>
 4    5  0.6615028E-008  0.8314398E+03  0.7818608E-02  0.9646537E-01
         -2   -1    0    0    0  501 -0.00000000000E+00  0.00000000000E+00  0.31029751078E+03  0.31029751079E+03  0.25500000000E-02 0.  1.
          2   -1    0    0  501    0  0.00000000000E+00 -0.00000000000E+00 -0.21470801580E+04  0.21470801580E+04  0.25500000000E-02 0. -1.
    8880023    1    1    2    0    0  0.34309113716E+03  0.37385879156E+03 -0.17261827059E+04  0.19159850899E+04  0.65864270000E+03 0. -1.
    8880022    1    1    2    0    0 -0.34309113716E+03 -0.37385879156E+03 -0.11059994135E+03  0.54139257888E+03  0.15294330000E+03 0.  0.
<mgrwt>
<rscale>  0 0.74291130E+03</rscale>
<asrwt>0</asrwt>
<pdfrwt beam="1">  1        2 0.33032002E+00 0.83143979E+03</pdfrwt>
<pdfrwt beam="2">  1       -2 0.47738080E-01 0.83143979E+03</pdfrwt>
<totfact> 0.23579969E+01</totfact>
</mgrwt>
</event>
<event>
 4    5  0.6615028E-008  0.7229167E+03  0.7818608E-02  0.9912838E-01
         -2   -1    0    0    0  501 -0.00000000000E+00  0.00000000000E+00  0.11026171842E+03  0.11026171845E+03  0.25500000000E-02 0.  1.
          2   -1    0    0  501    0  0.00000000000E+00 -0.00000000000E+00 -0.25486542806E+04  0.25486542806E+04  0.25500000000E-02 0. -1.
    8880023    1    1    2    0    0 -0.92236147309E+02  0.28335629313E+03 -0.15818355975E+04  0.17391987694E+04  0.65864270000E+03 0.  1.
    8880022    1    1    2    0    0  0.92236147309E+02 -0.28335629313E+03 -0.85655696470E+03  0.91971722965E+03  0.15294330000E+03 0. -1.
<mgrwt>
<rscale>  0 0.59643129E+03</rscale>
<asrwt>0</asrwt>
<pdfrwt beam="1">  1        2 0.39210061E+00 0.72291666E+03</pdfrwt>
<pdfrwt beam="2">  1       -2 0.16963343E-01 0.72291666E+03</pdfrwt>
<totfact> 0.96640454E+01</totfact>
</mgrwt>
</event>
<event>
 4    5  0.6615028E-008  0.1278644E+04  0.7818608E-02  0.9084225E-01
         -2   -1    0    0    0  501 -0.00000000000E+00  0.00000000000E+00  0.15863010820E+04  0.15863010820E+04  0.25500000000E-02 0.  1.
          2   -1    0    0  501    0  0.00000000000E+00 -0.00000000000E+00 -0.17821708981E+04  0.17821708981E+04  0.25500000000E-02 0. -1.
    8880023    1    1    2    0    0 -0.10183198460E+04 -0.40514731457E+03 -0.12871605686E+04  0.18143076340E+04  0.65864270000E+03 0.  0.
    8880022    1    1    2    0    0  0.10183198460E+04  0.40514731457E+03  0.10912907525E+04  0.15541643461E+04  0.15294330000E+03 0.  0.
<mgrwt>
<rscale>  0 0.12332682E+04</rscale>
<asrwt>0</asrwt>
<pdfrwt beam="1">  1        2 0.27418014E+00 0.12786438E+04</pdfrwt>
<pdfrwt beam="2">  1       -2 0.24404632E+00 0.12786438E+04</pdfrwt>
<totfact> 0.59385699E-01</totfact>
</mgrwt>
</event>
<event>
 4    5  0.6615028E-008  0.1933951E+04  0.7818608E-02  0.8651848E-01
         -2   -1    0    0    0  501 -0.00000000000E+00  0.00000000000E+00  0.27182951222E+04  0.27182951222E+04  0.25500000000E-02 0.  1.
          2   -1    0    0  501    0  0.00000000000E+00 -0.00000000000E+00 -0.21178461847E+04  0.21178461847E+04  0.25500000000E-02 0. -1.
    8880023    1    1    2    0    0  0.17366331983E+04 -0.53894407144E+03  0.18084461096E+04  0.26477619068E+04  0.65864270000E+03 0.  0.
    8880022    1    1    2    0    0 -0.17366331983E+04  0.53894407144E+03 -0.12079971722E+04  0.21883794001E+04  0.15294330000E+03 0.  0.
<mgrwt>
<rscale>  0 0.19060552E+04</rscale>
<asrwt>0</asrwt>
<pdfrwt beam="1">  1        2 0.32582249E+00 0.19339508E+04</pdfrwt>
<pdfrwt beam="2">  1       -2 0.41819925E+00 0.19339508E+04</pdfrwt>
<totfact> 0.28800082E-02</totfact>
</mgrwt>
</event>
<event>
 4    5  0.6615028E-008  0.6678438E+03  0.7818608E-02  0.1017258E+00
          2   -1    0    0  501    0  0.00000000000E+00  0.00000000000E+00  0.14631543776E+04  0.14631543776E+04  0.25500000000E-02 0. -1.
         -2   -1    0    0    0  501 -0.00000000000E+00 -0.00000000000E+00 -0.21808126783E+03  0.21808126785E+03  0.25500000000E-02 0.  1.
    8880023    1    1    2    0    0  0.10705599997E+03 -0.27279550457E+02  0.13191279789E+04  0.14785513153E+04  0.65864270000E+03 0. -1.
    8880022    1    1    2    0    0 -0.10705599997E+03  0.27279550457E+02 -0.74054869182E+02  0.20268433010E+03  0.15294330000E+03 0.  0.
<mgrwt>
<rscale>  0 0.48689193E+03</rscale>
<asrwt>0</asrwt>
<pdfrwt beam="1">  1        2 0.22510067E+00 0.66784382E+03</pdfrwt>
<pdfrwt beam="2">  1       -2 0.33550965E-01 0.66784382E+03</pdfrwt>
<totfact> 0.11334964E+02</totfact>
</mgrwt>
</event>
<event>
 4    5  0.6615028E-008  0.1393746E+04  0.7818608E-02  0.8988557E-01
         -2   -1    0    0    0  501 -0.00000000000E+00  0.00000000000E+00  0.10079344182E+04  0.10079344182E+04  0.25500000000E-02 0.  1.
          2   -1    0    0  501    0  0.00000000000E+00 -0.00000000000E+00 -0.17884308419E+04  0.17884308419E+04  0.25500000000E-02 0. -1.
    8880023    1    1    2    0    0 -0.95946170328E+03  0.76691017461E+03 -0.13469718660E+03  0.14002398060E+04  0.65864270000E+03 0.  0.
    8880022    1    1    2    0    0  0.95946170328E+03 -0.76691017461E+03 -0.64579923708E+03  0.13961254541E+04  0.15294330000E+03 0.  0.
<mgrwt>
<rscale>  0 0.13530037E+04</rscale>
<asrwt>0</asrwt>
<pdfrwt beam="1">  1        2 0.27514320E+00 0.13937461E+04</pdfrwt>
<pdfrwt beam="2">  1       -2 0.15506683E+00 0.13937461E+04</pdfrwt>
<totfact> 0.22899416E+00</totfact>
</mgrwt>
</event>
<event>
 4    5  0.6615028E-008  0.8035442E+03  0.7818608E-02  0.9703184E-01
         -2   -1    0    0    0  501 -0.00000000000E+00  0.00000000000E+00  0.30305405161E+04  0.30305405161E+04  0.25500000000E-02 0.  1.
          2   -1    0    0  501    0  0.00000000000E+00 -0.00000000000E+00 -0.14542181151E+04  0.14542181151E+04  0.25500000000E-02 0. -1.
    8880023    1    1    2    0    0 -0.45629239196E+03  0.60583608297E+02 -0.13214996384E+04  0.15466236197E+04  0.65864270000E+03 0.  0.
    8880022    1    1    2    0    0  0.45629239196E+03 -0.60583608297E+02  0.28978220394E+04  0.29381350114E+04  0.15294330000E+03 0.  0.
<mgrwt>
<rscale>  0 0.70827506E+03</rscale>
<asrwt>0</asrwt>
<pdfrwt beam="1">  1        2 0.22372587E+00 0.80354423E+03</pdfrwt>
<pdfrwt beam="2">  1       -2 0.46623700E+00 0.80354423E+03</pdfrwt>
<totfact> 0.38870786E-02</totfact>
</mgrwt>
</event>
<event>
 4    5  0.6615028E-008  0.7220292E+03  0.7818608E-02  0.9915779E-01
          2   -1    0    0  501    0  0.00000000000E+00  0.00000000000E+00  0.20427964268E+04  0.20427964268E+04  0.25500000000E-02 0. -1.
         -2   -1    0    0    0  501 -0.00000000000E+00 -0.00000000000E+00 -0.18765884905E+03  0.18765884907E+03  0.25500000000E-02 0.  1.
    8880023    1    1    2    0    0 -0.26281117177E+03 -0.13581695426E+03  0.17301150838E+04  0.18747331454E+04  0.65864270000E+03 0. -1.
    8880022    1    1    2    0    0  0.26281117177E+03  0.13581695426E+03  0.12502249392E+03  0.35572213042E+03  0.15294330000E+03 0.  0.
<mgrwt>
<rscale>  0 0.59502641E+03</rscale>
<asrwt>0</asrwt>
<pdfrwt beam="1">  1        2 0.31427639E+00 0.72202920E+03</pdfrwt>
<pdfrwt beam="2">  1       -2 0.28870590E-01 0.72202920E+03</pdfrwt>
<totfact> 0.71860402E+01</totfact>
</mgrwt>
</event>
<event>
 4    5  0.6615028E-008  0.7121466E+03  0.7818608E-02  0.9950114E-01
         -2   -1    0    0    0  501 -0.00000000000E+00  0.00000000000E+00  0.32098754237E+03  0.32098754238E+03  0.25500000000E-02 0.  1.
          2   -1    0    0  501    0  0.00000000000E+00 -0.00000000000E+00 -0.18097918707E+04  0.18097918707E+04  0.25500000000E-02 0. -1.
    8880023    1    1    2    0    0  0.88461878057E+02  0.25596305590E+03 -0.16377871040E+04  0.17859169617E+04  0.65864270000E+03 0. -1.
    8880022    1    1    2    0    0 -0.88461878057E+02 -0.25596305590E+03  0.14898277571E+03  0.34486245132E+03  0.15294330000E+03 0.  0.
<mgrwt>
<rscale>  0 0.57892805E+03</rscale>
<asrwt>0</asrwt>
<pdfrwt beam="1">  1        2 0.27842951E+00 0.71214661E+03</pdfrwt>
<pdfrwt beam="2">  1       -2 0.49382700E-01 0.71214661E+03</pdfrwt>
<totfact> 0.34173844E+01</totfact>
</mgrwt>
</event>
<event>
 4    5  0.6615028E-008  0.8366680E+03  0.7818608E-02  0.9636495E-01
          2   -1    0    0  501    0  0.00000000000E+00  0.00000000000E+00  0.18007650350E+04  0.18007650350E+04  0.25500000000E-02 0. -1.
         -2   -1    0    0    0  501 -0.00000000000E+00 -0.00000000000E+00 -0.57131298923E+03  0.57131298924E+03  0.25500000000E-02 0.  1.
    8880023    1    1    2    0    0 -0.13224875428E+03 -0.49871181081E+03  0.15386636876E+04  0.17514278041E+04  0.65864270000E+03 0.  0.
    8880022    1    1    2    0    0  0.13224875428E+03  0.49871181081E+03 -0.30921164185E+03  0.62065022011E+03  0.15294330000E+03 0.  0.
<mgrwt>
<rscale>  0 0.74927068E+03</rscale>
<asrwt>0</asrwt>
<pdfrwt beam="1">  1        2 0.27704078E+00 0.83666804E+03</pdfrwt>
<pdfrwt beam="2">  1       -2 0.87894306E-01 0.83666804E+03</pdfrwt>
<totfact> 0.97993623E+00</totfact>
</mgrwt>
</event>
<event>
 4    5  0.6615028E-008  0.1267670E+04  0.7818608E-02  0.9093994E-01
         -2   -1    0    0    0  501 -0.00000000000E+00  0.00000000000E+00  0.76357098408E+03  0.76357098408E+03  0.25500000000E-02 0.  1.
          2   -1    0    0  501    0  0.00000000000E+00 -0.00000000000E+00 -0.35526271585E+04  0.35526271585E+04  0.25500000000E-02 0. -1.
    8880023    1    1    2    0    0 -0.38481376336E+03 -0.10124694386E+04 -0.29497231452E+04  0.32105845007E+04  0.65864270000E+03 0. -1.
    8880022    1    1    2    0    0  0.38481376336E+03  0.10124694386E+04  0.16066697076E+03  0.11056136419E+04  0.15294330000E+03 0.  0.
<mgrwt>
<rscale>  0 0.12217904E+04</rscale>
<asrwt>0</asrwt>
<pdfrwt beam="1">  1        2 0.54655802E+00 0.12676696E+04</pdfrwt>
<pdfrwt beam="2">  1       -2 0.11747246E+00 0.12676696E+04</pdfrwt>
<totfact> 0.41323227E-01</totfact>
</mgrwt>
</event>
<event>
 4    5  0.6615028E-008  0.7308005E+03  0.7818608E-02  0.9887603E-01
          2   -1    0    0  501    0  0.00000000000E+00  0.00000000000E+00  0.26253906988E+03  0.26253906990E+03  0.25500000000E-02 0. -1.
         -2   -1    0    0    0  501 -0.00000000000E+00 -0.00000000000E+00 -0.15772443564E+04  0.15772443564E+04  0.25500000000E-02 0.  1.
    8880023    1    1    2    0    0  0.73353218892E+02 -0.30802337257E+03 -0.34471305042E+03  0.80802004069E+03  0.65864270000E+03 0.  1.
    8880022    1    1    2    0    0 -0.73353218892E+02  0.30802337257E+03 -0.96999223609E+03  0.10317633856E+04  0.15294330000E+03 0.  1.
<mgrwt>
<rscale>  0 0.60865851E+03</rscale>
<asrwt>0</asrwt>
<pdfrwt beam="1">  1        2 0.40390627E-01 0.73080045E+03</pdfrwt>
<pdfrwt beam="2">  1       -2 0.24265297E+00 0.73080045E+03</pdfrwt>
<totfact> 0.93352273E+00</totfact>
</mgrwt>
</event>
<event>
 4    5  0.6615028E-008  0.8610949E+03  0.7818608E-02  0.9591619E-01
          2   -1    0    0  501    0  0.00000000000E+00  0.00000000000E+00  0.28995386731E+04  0.28995386731E+04  0.25500000000E-02 0. -1.
         -2   -1    0    0    0  501 -0.00000000000E+00 -0.00000000000E+00 -0.20441399469E+03  0.20441399471E+03  0.25500000000E-02 0.  1.
    8880023    1    1    2    0    0 -0.54921812884E+03  0.77677175781E+02  0.10317469819E+04  0.13438699110E+04  0.65864270000E+03 0. -1.
    8880022    1    1    2    0    0  0.54921812884E+03 -0.77677175781E+02  0.16633776964E+04  0.17600827568E+04  0.15294330000E+03 0.  0.
<mgrwt>
<rscale>  0 0.77853402E+03</rscale>
<asrwt>0</asrwt>
<pdfrwt beam="1">  1        2 0.44608292E+00 0.86109494E+03</pdfrwt>
<pdfrwt beam="2">  1       -2 0.31448303E-01 0.86109494E+03</pdfrwt>
<totfact> 0.19597229E+01</totfact>
</mgrwt>
</event>
<event>
 4    5  0.6615028E-008  0.1453050E+04  0.7818608E-02  0.8943521E-01
          2   -1    0    0  501    0  0.00000000000E+00  0.00000000000E+00  0.24958053410E+04  0.24958053410E+04  0.25500000000E-02 0. -1.
         -2   -1    0    0    0  501 -0.00000000000E+00 -0.00000000000E+00 -0.11824552275E+04  0.11824552275E+04  0.25500000000E-02 0.  1.
    8880023    1    1    2    0    0  0.10558412611E+04  0.75016126559E+03  0.17757823339E+04  0.22945055669E+04  0.65864270000E+03 0.  0.
    8880022    1    1    2    0    0 -0.10558412611E+04 -0.75016126559E+03 -0.46243222043E+03  0.13837550016E+04  0.15294330000E+03 0.  0.
<mgrwt>
<rscale>  0 0.14143153E+04</rscale>
<asrwt>0</asrwt>
<pdfrwt beam="1">  1        2 0.38397005E+00 0.14530495E+04</pdfrwt>
<pdfrwt beam="2">  1       -2 0.18191619E+00 0.14530495E+04</pdfrwt>
<totfact> 0.58251222E-01</totfact>
</mgrwt>
</event>
<event>
 4    5  0.6615028E-008  0.9209817E+03  0.7818608E-02  0.9493155E-01
         -2   -1    0    0    0  501 -0.00000000000E+00  0.00000000000E+00  0.60362795593E+03  0.60362795593E+03  0.25500000000E-02 0.  1.
          2   -1    0    0  501    0  0.00000000000E+00 -0.00000000000E+00 -0.29712150403E+04  0.29712150403E+04  0.25500000000E-02 0. -1.
    8880023    1    1    2    0    0 -0.40000301789E+03 -0.50437558971E+03 -0.26867606026E+04  0.28402270846E+04  0.65864270000E+03 0. -1.
    8880022    1    1    2    0    0  0.40000301789E+03  0.50437558971E+03  0.31917351830E+03  0.73461591162E+03  0.15294330000E+03 0.  0.
<mgrwt>
<rscale>  0 0.84790334E+03</rscale>
<asrwt>0</asrwt>
<pdfrwt beam="1">  1        2 0.45711000E+00 0.92098173E+03</pdfrwt>
<pdfrwt beam="2">  1       -2 0.92865841E-01 0.92098173E+03</pdfrwt>
<totfact> 0.18417346E+00</totfact>
</mgrwt>
</event>
<event>
 4    5  0.6615028E-008  0.8893909E+03  0.7818608E-02  0.9543282E-01
          2   -1    0    0  501    0  0.00000000000E+00  0.00000000000E+00  0.30228189157E+04  0.30228189157E+04  0.25500000000E-02 0. -1.
         -2   -1    0    0    0  501 -0.00000000000E+00 -0.00000000000E+00 -0.54342990205E+03  0.54342990205E+03  0.25500000000E-02 0.  1.
    8880023    1    1    2    0    0 -0.35911063821E+03 -0.47775053056E+03  0.27517250908E+04  0.28918864434E+04  0.65864270000E+03 0.  0.
    8880022    1    1    2    0    0  0.35911063821E+03  0.47775053056E+03 -0.27233607720E+03  0.67436237431E+03  0.15294330000E+03 0.  0.
<mgrwt>
<rscale>  0 0.81166681E+03</rscale>
<asrwt>0</asrwt>
<pdfrwt beam="1">  1        2 0.46504907E+00 0.88939093E+03</pdfrwt>
<pdfrwt beam="2">  1       -2 0.83604599E-01 0.88939093E+03</pdfrwt>
<totfact> 0.21922945E+00</totfact>
</mgrwt>
</event>
<event>
 4    5  0.6615028E-008  0.1333319E+04  0.7818608E-02  0.9037308E-01
          2   -1    0    0  501    0  0.00000000000E+00  0.00000000000E+00  0.24332351354E+04  0.24332351354E+04  0.25500000000E-02 0. -1.
         -2   -1    0    0    0  501 -0.00000000000E+00 -0.00000000000E+00 -0.72798627298E+03  0.72798627299E+03  0.25500000000E-02 0.  1.
    8880023    1    1    2    0    0  0.76171504695E+03 -0.87390981778E+03  0.36459577306E+03  0.13822693176E+04  0.65864270000E+03 0.  0.
    8880022    1    1    2    0    0 -0.76171504695E+03  0.87390981778E+03  0.13406530894E+04  0.17789520908E+04  0.15294330000E+03 0.  0.
<mgrwt>
<rscale>  0 0.12902807E+04</rscale>
<asrwt>0</asrwt>
<pdfrwt beam="1">  1        2 0.37434387E+00 0.13333186E+04</pdfrwt>
<pdfrwt beam="2">  1       -2 0.11199789E+00 0.13333186E+04</pdfrwt>
<totfact> 0.23130954E+00</totfact>
</mgrwt>
</event>
<event>
 4    5  0.6615028E-008  0.8905139E+03  0.7818608E-02  0.9541435E-01
          2   -1    0    0  501    0  0.00000000000E+00  0.00000000000E+00  0.14937761224E+04  0.14937761224E+04  0.25500000000E-02 0. -1.
         -2   -1    0    0    0  501 -0.00000000000E+00 -0.00000000000E+00 -0.95076339119E+03  0.95076339119E+03  0.25500000000E-02 0.  1.
    8880023    1    1    2    0    0  0.59927047841E+03  0.89320726915E+01  0.12310285340E+04  0.15193572148E+04  0.65864270000E+03 0.  0.
    8880022    1    1    2    0    0 -0.59927047841E+03 -0.89320726915E+01 -0.68801580278E+03  0.92518229885E+03  0.15294330000E+03 0.  0.
<mgrwt>
<rscale>  0 0.81296748E+03</rscale>
<asrwt>0</asrwt>
<pdfrwt beam="1">  1        2 0.22981171E+00 0.89051395E+03</pdfrwt>
<pdfrwt beam="2">  1       -2 0.14627129E+00 0.89051395E+03</pdfrwt>
<totfact> 0.41229154E+00</totfact>
</mgrwt>
</event>
<event>
 4    5  0.6615028E-008  0.1566774E+04  0.7818608E-02  0.8863869E-01
         -2   -1    0    0    0  501 -0.00000000000E+00  0.00000000000E+00  0.15704729250E+04  0.15704729251E+04  0.25500000000E-02 0.  1.
          2   -1    0    0  501    0  0.00000000000E+00 -0.00000000000E+00 -0.17633127957E+04  0.17633127957E+04  0.25500000000E-02 0. -1.
    8880023    1    1    2    0    0  0.10534963486E+04  0.95452425865E+03 -0.82471445686E+03  0.17705748384E+04  0.65864270000E+03 0.  0.
    8880022    1    1    2    0    0 -0.10534963486E+04 -0.95452425865E+03  0.63187458624E+03  0.15632108823E+04  0.15294330000E+03 0.  0.
<mgrwt>
<rscale>  0 0.15313503E+04</rscale>
<asrwt>0</asrwt>
<pdfrwt beam="1">  1        2 0.27127889E+00 0.15667742E+04</pdfrwt>
<pdfrwt beam="2">  1       -2 0.24161122E+00 0.15667742E+04</pdfrwt>
<totfact> 0.61041281E-01</totfact>
</mgrwt>
</event>
<event>
 4    5  0.6615028E-008  0.7342237E+03  0.7818608E-02  0.9877104E-01
          2   -1    0    0  501    0  0.00000000000E+00  0.00000000000E+00  0.29340327525E+04  0.29340327525E+04  0.25500000000E-02 0. -1.
         -2   -1    0    0    0  501 -0.00000000000E+00 -0.00000000000E+00 -0.72054902450E+03  0.72054902451E+03  0.25500000000E-02 0.  1.
    8880023    1    1    2    0    0  0.29701195640E+03  0.13060678469E+03  0.28396043720E+04  0.29329912086E+04  0.65864270000E+03 0. -1.
    8880022    1    1    2    0    0 -0.29701195640E+03 -0.13060678469E+03 -0.62612064400E+03  0.72159056833E+03  0.15294330000E+03 0.  0.
<mgrwt>
<rscale>  0 0.61383864E+03</rscale>
<asrwt>0</asrwt>
<pdfrwt beam="1">  1        2 0.45138966E+00 0.73422370E+03</pdfrwt>
<pdfrwt beam="2">  1       -2 0.11085369E+00 0.73422370E+03</pdfrwt>
<totfact> 0.13197139E+00</totfact>
</mgrwt>
</event>
<event>
 4    5  0.6615028E-008  0.8284605E+03  0.7818608E-02  0.9652335E-01
         -2   -1    0    0    0  501 -0.00000000000E+00  0.00000000000E+00  0.95188310135E+03  0.95188310136E+03  0.25500000000E-02 0.  1.
          2   -1    0    0  501    0  0.00000000000E+00 -0.00000000000E+00 -0.20453712729E+04  0.20453712729E+04  0.25500000000E-02 0. -1.
    8880023    1    1    2    0    0 -0.34559441880E+03 -0.36483023403E+03 -0.18782897053E+04  0.20528806652E+04  0.65864270000E+03 0. -1.
    8880022    1    1    2    0    0  0.34559441880E+03  0.36483023403E+03  0.78480153379E+03  0.94437370909E+03  0.15294330000E+03 0.  0.
<mgrwt>
<rscale>  0 0.73927050E+03</rscale>
<asrwt>0</asrwt>
<pdfrwt beam="1">  1        2 0.31467250E+00 0.82846050E+03</pdfrwt>
<pdfrwt beam="2">  1       -2 0.14644355E+00 0.82846050E+03</pdfrwt>
<totfact> 0.20619751E+00</totfact>
</mgrwt>
</event>
<event>
 4    5  0.6615028E-008  0.7593259E+03  0.7818608E-02  0.9806856E-01
          2   -1    0    0  501    0  0.00000000000E+00  0.00000000000E+00  0.26260784163E+04  0.26260784163E+04  0.25500000000E-02 0. -1.
         -2   -1    0    0    0  501 -0.00000000000E+00 -0.00000000000E+00 -0.96254069039E+03  0.96254069039E+03  0.25500000000E-02 0.  1.
    8880023    1    1    2    0    0 -0.33082361045E+03  0.18254154204E+03  0.25243994293E+04  0.26361275312E+04  0.65864270000E+03 0. -1.
    8880022    1    1    2    0    0  0.33082361045E+03 -0.18254154204E+03 -0.86086170345E+03  0.95249157544E+03  0.15294330000E+03 0.  0.
<mgrwt>
<rscale>  0 0.64995923E+03</rscale>
<asrwt>0</asrwt>
<pdfrwt beam="1">  1        2 0.40401206E+00 0.75932594E+03</pdfrwt>
<pdfrwt beam="2">  1       -2 0.14808319E+00 0.75932594E+03</pdfrwt>
<totfact> 0.96004540E-01</totfact>
</mgrwt>
</event>
<event>
 4    5  0.6615028E-008  0.1420067E+04  0.7818608E-02  0.8968245E-01
          2   -1    0    0  501    0  0.00000000000E+00  0.00000000000E+00  0.19832548320E+04  0.19832548320E+04  0.25500000000E-02 0. -1.
         -2   -1    0    0    0  501 -0.00000000000E+00 -0.00000000000E+00 -0.20733286644E+04  0.20733286644E+04  0.25500000000E-02 0.  1.
    8880023    1    1    2    0    0 -0.11609879384E+04  0.48465029608E+03  0.14718167588E+04  0.20451977118E+04  0.65864270000E+03 0.  0.
    8880022    1    1    2    0    0  0.11609879384E+04 -0.48465029608E+03 -0.15618905913E+04  0.20113857846E+04  0.15294330000E+03 0.  0.
<mgrwt>
<rscale>  0 0.13802428E+04</rscale>
<asrwt>0</asrwt>
<pdfrwt beam="1">  1        2 0.30511613E+00 0.14200666E+04</pdfrwt>
<pdfrwt beam="2">  1       -2 0.31897364E+00 0.14200666E+04</pdfrwt>
<totfact> 0.15725780E-01</totfact>
</mgrwt>
</event>
<event>
 4    5  0.6615028E-008  0.1011194E+04  0.7818608E-02  0.9367056E-01
          2   -1    0    0  501    0  0.00000000000E+00  0.00000000000E+00  0.88859475221E+03  0.88859475221E+03  0.25500000000E-02 0. -1.
         -2   -1    0    0    0  501 -0.00000000000E+00 -0.00000000000E+00 -0.12738661009E+04  0.12738661009E+04  0.25500000000E-02 0.  1.
    8880023    1    1    2    0    0  0.20450466256E+03 -0.73951444927E+03 -0.78851410883E+03  0.12822903274E+04  0.65864270000E+03 0.  0.
    8880022    1    1    2    0    0 -0.20450466256E+03  0.73951444927E+03  0.40324276014E+03  0.88017052570E+03  0.15294330000E+03 0.  0.
<mgrwt>
<rscale>  0 0.94837121E+03</rscale>
<asrwt>0</asrwt>
<pdfrwt beam="1">  1        2 0.13670689E+00 0.10111943E+04</pdfrwt>
<pdfrwt beam="2">  1       -2 0.19597940E+00 0.10111943E+04</pdfrwt>
<totfact> 0.41827637E+00</totfact>
</mgrwt>
</event>
<event>
 4    5  0.6615028E-008  0.1582876E+04  0.7818608E-02  0.8853228E-01
         -2   -1    0    0    0  501 -0.00000000000E+00  0.00000000000E+00  0.11599221801E+04  0.11599221801E+04  0.25500000000E-02 0.  1.
          2   -1    0    0  501    0  0.00000000000E+00 -0.00000000000E+00 -0.46930609935E+04  0.46930609935E+04  0.25500000000E-02 0. -1.
    8880023    1    1    2    0    0  0.12327373677E+03  0.14340462357E+04 -0.40243608085E+04  0.43244624110E+04  0.65864270000E+03 0.  0.
    8880022    1    1    2    0    0 -0.12327373677E+03 -0.14340462357E+04  0.49122199506E+03  0.15285207626E+04  0.15294330000E+03 0.  0.
<mgrwt>
<rscale>  0 0.15478721E+04</rscale>
<asrwt>0</asrwt>
<pdfrwt beam="1">  1        2 0.72200937E+00 0.15828756E+04</pdfrwt>
<pdfrwt beam="2">  1       -2 0.17844957E+00 0.15828756E+04</pdfrwt>
<totfact> 0.13927576E-02</totfact>
</mgrwt>
</event>
<event>
 4    5  0.6615028E-008  0.2214437E+04  0.7818608E-02  0.8522445E-01
         -2   -1    0    0    0  501 -0.00000000000E+00  0.00000000000E+00  0.15222985063E+04  0.15222985063E+04  0.25500000000E-02 0.  1.
          2   -1    0    0  501    0  0.00000000000E+00 -0.00000000000E+00 -0.39147303996E+04  0.39147303996E+04  0.25500000000E-02 0. -1.
    8880023    1    1    2    0    0 -0.17944785919E+04 -0.11179290928E+04 -0.24681354134E+04  0.33159344834E+04  0.65864270000E+03 0.  0.
    8880022    1    1    2    0    0  0.17944785919E+04  0.11179290928E+04  0.75703520016E+02  0.21210944225E+04  0.15294330000E+03 0.  0.
<mgrwt>
<rscale>  0 0.21903738E+04</rscale>
<asrwt>0</asrwt>
<pdfrwt beam="1">  1        2 0.60226621E+00 0.22144365E+04</pdfrwt>
<pdfrwt beam="2">  1       -2 0.23419977E+00 0.22144365E+04</pdfrwt>
<totfact> 0.28058464E-02</totfact>
</mgrwt>
</event>
<event>
 4    5  0.6615028E-008  0.1186681E+04  0.7818608E-02  0.9170180E-01
         -2   -1    0    0    0  501 -0.00000000000E+00  0.00000000000E+00  0.18804966961E+04  0.18804966961E+04  0.25500000000E-02 0.  1.
          2   -1    0    0  501    0  0.00000000000E+00 -0.00000000000E+00 -0.87344633590E+03  0.87344633590E+03  0.25500000000E-02 0. -1.
    8880023    1    1    2    0    0  0.94601239982E+03 -0.28188915948E+03 -0.18248323972E+03  0.12006295423E+04  0.65864270000E+03 0. -1.
    8880022    1    1    2    0    0 -0.94601239982E+03  0.28188915948E+03  0.11895335999E+04  0.15533134897E+04  0.15294330000E+03 0.  0.
<mgrwt>
<rscale>  0 0.11366597E+04</rscale>
<asrwt>0</asrwt>
<pdfrwt beam="1">  1        2 0.13437636E+00 0.11866807E+04</pdfrwt>
<pdfrwt beam="2">  1       -2 0.28930718E+00 0.11866807E+04</pdfrwt>
<totfact> 0.11071006E+00</totfact>
</mgrwt>
</event>
<event>
 4    5  0.6615028E-008  0.8822693E+03  0.7818608E-02  0.9555116E-01
          2   -1    0    0  501    0  0.00000000000E+00  0.00000000000E+00  0.12256632936E+04  0.12256632936E+04  0.25500000000E-02 0. -1.
         -2   -1    0    0    0  501 -0.00000000000E+00 -0.00000000000E+00 -0.12209233239E+04  0.12209233239E+04  0.25500000000E-02 0.  1.
    8880023    1    1    2    0    0 -0.45114842095E+03  0.37557162156E+03  0.96704774687E+03  0.13090380024E+04  0.65864270000E+03 0.  0.
    8880022    1    1    2    0    0  0.45114842095E+03 -0.37557162156E+03 -0.96230777721E+03  0.11375486151E+04  0.15294330000E+03 0.  0.
<mgrwt>
<rscale>  0 0.80339476E+03</rscale>
<asrwt>0</asrwt>
<pdfrwt beam="1">  1        2 0.18856358E+00 0.88226932E+03</pdfrwt>
<pdfrwt beam="2">  1       -2 0.18783436E+00 0.88226932E+03</pdfrwt>
<totfact> 0.29494548E+00</totfact>
</mgrwt>
</event>
<event>
 4    5  0.6615028E-008  0.1562860E+04  0.7818608E-02  0.8866478E-01
         -2   -1    0    0    0  501 -0.00000000000E+00  0.00000000000E+00  0.21222281782E+04  0.21222281782E+04  0.25500000000E-02 0.  1.
          2   -1    0    0  501    0  0.00000000000E+00 -0.00000000000E+00 -0.17709946021E+04  0.17709946021E+04  0.25500000000E-02 0. -1.
    8880023    1    1    2    0    0  0.33351342991E+03  0.13774941025E+04 -0.10591205857E+04  0.18879268607E+04  0.65864270000E+03 0.  0.
    8880022    1    1    2    0    0 -0.33351342991E+03 -0.13774941025E+04  0.14103541618E+04  0.20052959195E+04  0.15294330000E+03 0.  0.
<mgrwt>
<rscale>  0 0.15273323E+04</rscale>
<asrwt>0</asrwt>
<pdfrwt beam="1">  1        2 0.27246071E+00 0.15628600E+04</pdfrwt>
<pdfrwt beam="2">  1       -2 0.32649664E+00 0.15628600E+04</pdfrwt>
<totfact> 0.18228584E-01</totfact>
</mgrwt>
</event>
<event>
 4    5  0.6840434E-008  0.6817950E+03  0.7818608E-02  0.1008326E+00
         -2   -1    0    0    0  501 -0.00000000000E+00  0.00000000000E+00  0.90071884768E+03  0.90071884769E+03  0.25500000000E-02 0.  1.
          2   -1    0    0  501    0  0.00000000000E+00 -0.00000000000E+00 -0.18061371396E+04  0.18061371396E+04  0.25500000000E-02 0. -1.
    8880023    1    1    2    0    0 -0.12181983577E+03  0.12725602710E+03 -0.17249298398E+04  0.18547849815E+04  0.65864270000E+03 0. -1.
    8880022    1    1    2    0    0  0.12181983577E+03 -0.12725602710E+03  0.81951154791E+03  0.85207100584E+03  0.15294330000E+03 0.  0.
<mgrwt>
<rscale>  0 0.52145396E+03</rscale>
<asrwt>0</asrwt>
<pdfrwt beam="1">  1        2 0.27786725E+00 0.68179497E+03</pdfrwt>
<pdfrwt beam="2">  1       -2 0.13857213E+00 0.68179497E+03</pdfrwt>
<totfact> 0.33001870E+00</totfact>
</mgrwt>
</event>
<event>
 4    5  0.6615028E-008  0.9658973E+03  0.7818608E-02  0.9427601E-01
         -2   -1    0    0    0  501 -0.00000000000E+00  0.00000000000E+00  0.13638555079E+04  0.13638555079E+04  0.25500000000E-02 0.  1.
          2   -1    0    0  501    0  0.00000000000E+00 -0.00000000000E+00 -0.21607677754E+04  0.21607677754E+04  0.25500000000E-02 0. -1.
    8880023    1    1    2    0    0  0.68541514764E+03 -0.17132844525E+03 -0.19428688236E+04  0.21697227548E+04  0.65864270000E+03 0. -1.
    8880022    1    1    2    0    0 -0.68541514764E+03  0.17132844525E+03  0.11459565561E+04  0.13549005285E+04  0.15294330000E+03 0.  0.
<mgrwt>
<rscale>  0 0.89838615E+03</rscale>
<asrwt>0</asrwt>
<pdfrwt beam="1">  1        2 0.33242581E+00 0.96589729E+03</pdfrwt>
<pdfrwt beam="2">  1       -2 0.20982392E+00 0.96589729E+03</pdfrwt>
<totfact> 0.62824467E-01</totfact>
</mgrwt>
</event>
<event>
 4    5  0.6615028E-008  0.7126926E+03  0.7818608E-02  0.9948135E-01
          2   -1    0    0  501    0  0.00000000000E+00  0.00000000000E+00  0.95799460608E+03  0.95799460608E+03  0.25500000000E-02 0. -1.
         -2   -1    0    0    0  501 -0.00000000000E+00 -0.00000000000E+00 -0.38709817509E+03  0.38709817510E+03  0.25500000000E-02 0.  1.
    8880023    1    1    2    0    0  0.26453195085E+03 -0.64369122590E+02  0.70751542363E+03  0.10042453973E+04  0.65864270000E+03 0. -1.
    8880022    1    1    2    0    0 -0.26453195085E+03  0.64369122590E+02 -0.13661899264E+03  0.34084738393E+03  0.15294330000E+03 0.  0.
<mgrwt>
<rscale>  0 0.57984117E+03</rscale>
<asrwt>0</asrwt>
<pdfrwt beam="1">  1        2 0.14738378E+00 0.71269260E+03</pdfrwt>
<pdfrwt beam="2">  1       -2 0.59553567E-01 0.71269260E+03</pdfrwt>
<totfact> 0.71800462E+01</totfact>
</mgrwt>
</event>
<event>
 4    5  0.6615028E-008  0.1005911E+04  0.7818608E-02  0.9373865E-01
         -2   -1    0    0    0  501 -0.00000000000E+00  0.00000000000E+00  0.36997650912E+03  0.36997650913E+03  0.25500000000E-02 0.  1.
          2   -1    0    0  501    0  0.00000000000E+00 -0.00000000000E+00 -0.34410269666E+04  0.34410269666E+04  0.25500000000E-02 0. -1.
    8880023    1    1    2    0    0 -0.71604685177E+03  0.25558297997E+03 -0.28228641808E+04  0.29967345800E+04  0.65864270000E+03 0.  0.
    8880022    1    1    2    0    0  0.71604685177E+03 -0.25558297997E+03 -0.24818627667E+03  0.81426889571E+03  0.15294330000E+03 0.  0.
<mgrwt>
<rscale>  0 0.94258020E+03</rscale>
<asrwt>0</asrwt>
<pdfrwt beam="1">  1        2 0.52938874E+00 0.10059105E+04</pdfrwt>
<pdfrwt beam="2">  1       -2 0.56919465E-01 0.10059105E+04</pdfrwt>
<totfact> 0.26739663E+00</totfact>
</mgrwt>
</event>
<event>
 4    5  0.6615028E-008  0.1625572E+04  0.7818608E-02  0.8825705E-01
         -2   -1    0    0    0  501 -0.00000000000E+00  0.00000000000E+00  0.33674322371E+04  0.33674322371E+04  0.25500000000E-02 0.  1.
          2   -1    0    0  501    0  0.00000000000E+00 -0.00000000000E+00 -0.12340009486E+04  0.12340009486E+04  0.25500000000E-02 0. -1.
    8880023    1    1    2    0    0  0.50534767012E+03 -0.13976042156E+04 -0.38743414336E+03  0.16711041957E+04  0.65864270000E+03 0.  0.
    8880022    1    1    2    0    0 -0.50534767012E+03  0.13976042156E+04  0.25208654319E+04  0.29303289900E+04  0.15294330000E+03 0.  0.
<mgrwt>
<rscale>  0 0.15916333E+04</rscale>
<asrwt>0</asrwt>
<pdfrwt beam="1">  1        2 0.18984630E+00 0.16255719E+04</pdfrwt>
<pdfrwt beam="2">  1       -2 0.51806649E+00 0.16255719E+04</pdfrwt>
<totfact> 0.21311724E-02</totfact>
</mgrwt>
</event>
<event>
 4    5  0.7627372E-008  0.1661102E+04  0.7818608E-02  0.8803530E-01
          2   -1    0    0  501    0  0.00000000000E+00  0.00000000000E+00  0.27503166548E+04  0.27503166548E+04  0.25500000000E-02 0. -1.
         -2   -1    0    0    0  501 -0.00000000000E+00 -0.00000000000E+00 -0.20935142452E+04  0.20935142452E+04  0.25500000000E-02 0.  1.
    8880023    1    1    2    0    0 -0.14215197757E+04 -0.55202604093E+03  0.21413632041E+04  0.27101102931E+04  0.65864270000E+03 0. -1.
    8880022    1    1    2    0    0  0.14215197757E+04  0.55202604093E+03 -0.14845607945E+04  0.21337206069E+04  0.15294330000E+03 0.  0.
<mgrwt>
<rscale>  0 0.16279987E+04</rscale>
<asrwt>0</asrwt>
<pdfrwt beam="1">  1        2 0.42312564E+00 0.16611025E+04</pdfrwt>
<pdfrwt beam="2">  1       -2 0.32207912E+00 0.16611025E+04</pdfrwt>
<totfact> 0.52969561E-02</totfact>
</mgrwt>
</event>
<event>
 4    5  0.6615028E-008  0.8255003E+03  0.7818608E-02  0.9658152E-01
         -2   -1    0    0    0  501 -0.00000000000E+00  0.00000000000E+00  0.91486098352E+03  0.91486098352E+03  0.25500000000E-02 0.  1.
          2   -1    0    0  501    0  0.00000000000E+00 -0.00000000000E+00 -0.56385562294E+03  0.56385562295E+03  0.25500000000E-02 0. -1.
    8880023    1    1    2    0    0  0.25309975344E+03 -0.42846353547E+03 -0.41779813953E+02  0.82655686165E+03  0.65864270000E+03 0.  0.
    8880022    1    1    2    0    0 -0.25309975344E+03  0.42846353547E+03  0.39278517453E+03  0.65215974482E+03  0.15294330000E+03 0.  0.
<mgrwt>
<rscale>  0 0.73564030E+03</rscale>
<asrwt>0</asrwt>
<pdfrwt beam="1">  1        2 0.86747020E-01 0.82550027E+03</pdfrwt>
<pdfrwt beam="2">  1       -2 0.14074784E+00 0.82550027E+03</pdfrwt>
<totfact> 0.19063686E+01</totfact>
</mgrwt>
</event>
<event>
 4    5  0.6615028E-008  0.7088083E+03  0.7818608E-02  0.9962453E-01
         -2   -1    0    0    0  501 -0.00000000000E+00  0.00000000000E+00  0.34529618931E+03  0.34529618932E+03  0.25500000000E-02 0.  1.
          2   -1    0    0  501    0  0.00000000000E+00 -0.00000000000E+00 -0.23559271976E+04  0.23559271976E+04  0.25500000000E-02 0. -1.
    8880023    1    1    2    0    0  0.64744389612E+01 -0.26183400950E+03 -0.22214899985E+04  0.23318291075E+04  0.65864270000E+03 0. -1.
    8880022    1    1    2    0    0 -0.64744389612E+01  0.26183400950E+03  0.21085899022E+03  0.36939427941E+03  0.15294330000E+03 0.  0.
<mgrwt>
<rscale>  0 0.57327701E+03</rscale>
<asrwt>0</asrwt>
<pdfrwt beam="1">  1        2 0.36245033E+00 0.70880828E+03</pdfrwt>
<pdfrwt beam="2">  1       -2 0.53122492E-01 0.70880828E+03</pdfrwt>
<totfact> 0.14785520E+01</totfact>
</mgrwt>
</event>
<event>
 4    5  0.6615028E-008  0.7335355E+03  0.7818608E-02  0.9879194E-01
          2   -1    0    0  501    0  0.00000000000E+00  0.00000000000E+00  0.26488312129E+04  0.26488312129E+04  0.25500000000E-02 0. -1.
         -2   -1    0    0    0  501 -0.00000000000E+00 -0.00000000000E+00 -0.21243700227E+03  0.21243700228E+03  0.25500000000E-02 0.  1.
    8880023    1    1    2    0    0  0.32169630125E+03 -0.27850076380E+02  0.23911393425E+04  0.25011240870E+04  0.65864270000E+03 0. -1.
    8880022    1    1    2    0    0 -0.32169630125E+03  0.27850076380E+02  0.45254868167E+02  0.36014412823E+03  0.15294330000E+03 0.  0.
<mgrwt>
<rscale>  0 0.61280305E+03</rscale>
<asrwt>0</asrwt>
<pdfrwt beam="1">  1        2 0.40751250E+00 0.73353551E+03</pdfrwt>
<pdfrwt beam="2">  1       -2 0.32682615E-01 0.73353551E+03</pdfrwt>
<totfact> 0.26113664E+01</totfact>
</mgrwt>
</event>
<event>
 4    5  0.6615028E-008  0.9579895E+03  0.7818608E-02  0.9438711E-01
         -2   -1    0    0    0  501 -0.00000000000E+00  0.00000000000E+00  0.21637142010E+04  0.21637142010E+04  0.25500000000E-02 0.  1.
          2   -1    0    0  501    0  0.00000000000E+00 -0.00000000000E+00 -0.95425616686E+03  0.95425616687E+03  0.25500000000E-02 0. -1.
    8880023    1    1    2    0    0  0.63832250724E+03 -0.27654660153E+03 -0.62922174388E+03  0.11461517593E+04  0.65864270000E+03 0.  0.
    8880022    1    1    2    0    0 -0.63832250724E+03  0.27654660153E+03  0.18386797780E+04  0.19718186086E+04  0.15294330000E+03 0.  0.
<mgrwt>
<rscale>  0 0.88957255E+03</rscale>
<asrwt>0</asrwt>
<pdfrwt beam="1">  1        2 0.14680864E+00 0.95798948E+03</pdfrwt>
<pdfrwt beam="2">  1       -2 0.33287911E+00 0.95798948E+03</pdfrwt>
<totfact> 0.54570911E-01</totfact>
</mgrwt>
</event>
<event>
 4    5  0.6615028E-008  0.8643844E+03  0.7818608E-02  0.9585812E-01
          2   -1    0    0  501    0  0.00000000000E+00  0.00000000000E+00  0.15604047832E+04  0.15604047832E+04  0.25500000000E-02 0. -1.
         -2   -1    0    0    0  501 -0.00000000000E+00 -0.00000000000E+00 -0.34210198170E+03  0.34210198171E+03  0.25500000000E-02 0.  1.
    8880023    1    1    2    0    0 -0.28779473105E+03 -0.48012954135E+03  0.86638947226E+03  0.12238427626E+04  0.65864270000E+03 0. -1.
    8880022    1    1    2    0    0  0.28779473105E+03  0.48012954135E+03  0.35191332923E+03  0.67866400229E+03  0.15294330000E+03 0.  1.
<mgrwt>
<rscale>  0 0.78242429E+03</rscale>
<asrwt>0</asrwt>
<pdfrwt beam="1">  1        2 0.24006227E+00 0.86438440E+03</pdfrwt>
<pdfrwt beam="2">  1       -2 0.52631076E-01 0.86438440E+03</pdfrwt>
<totfact> 0.40432379E+01</totfact>
</mgrwt>
</event>
<event>
 4    5  0.6615028E-008  0.6932750E+03  0.7818608E-02  0.1002633E+00
          2   -1    0    0  501    0  0.00000000000E+00  0.00000000000E+00  0.23824280436E+04  0.23824280436E+04  0.25500000000E-02 0. -1.
         -2   -1    0    0    0  501 -0.00000000000E+00 -0.00000000000E+00 -0.63405647935E+03  0.63405647935E+03  0.25500000000E-02 0.  1.
    8880023    1    1    2    0    0 -0.17098209248E+03 -0.13260906938E+03  0.23012384002E+04  0.24033993472E+04  0.65864270000E+03 0. -1.
    8880022    1    1    2    0    0  0.17098209248E+03  0.13260906938E+03 -0.55286683604E+03  0.61308517568E+03  0.15294330000E+03 0.  0.
<mgrwt>
<rscale>  0 0.54510522E+03</rscale>
<asrwt>0</asrwt>
<pdfrwt beam="1">  1        2 0.36652739E+00 0.69327502E+03</pdfrwt>
<pdfrwt beam="2">  1       -2 0.97547150E-01 0.69327502E+03</pdfrwt>
<totfact> 0.37703599E+00</totfact>
</mgrwt>
</event>
<event>
 4    5  0.6615028E-008  0.1365577E+04  0.7818608E-02  0.9010902E-01
          2   -1    0    0  501    0  0.00000000000E+00  0.00000000000E+00  0.31271950326E+04  0.31271950326E+04  0.25500000000E-02 0. -1.
         -2   -1    0    0    0  501 -0.00000000000E+00 -0.00000000000E+00 -0.62519862493E+03  0.62519862493E+03  0.25500000000E-02 0.  1.
    8880023    1    1    2    0    0  0.67270232035E+03  0.98917253374E+03  0.20527068597E+04  0.24654424291E+04  0.65864270000E+03 0.  0.
    8880022    1    1    2    0    0 -0.67270232035E+03 -0.98917253374E+03  0.44928954798E+03  0.12869512284E+04  0.15294330000E+03 0.  0.
<mgrwt>
<rscale>  0 0.13237989E+04</rscale>
<asrwt>0</asrwt>
<pdfrwt beam="1">  1        2 0.48110693E+00 0.13655771E+04</pdfrwt>
<pdfrwt beam="2">  1       -2 0.96184404E-01 0.13655771E+04</pdfrwt>
<totfact> 0.12734435E+00</totfact>
</mgrwt>
</event>
<event>
 4    5  0.6615028E-008  0.6934509E+03  0.7818608E-02  0.1002554E+00
          2   -1    0    0  501    0  0.00000000000E+00  0.00000000000E+00  0.70474499175E+03  0.70474499175E+03  0.25500000000E-02 0. -1.
         -2   -1    0    0    0  501 -0.00000000000E+00 -0.00000000000E+00 -0.94578330252E+03  0.94578330252E+03  0.25500000000E-02 0.  1.
    8880023    1    1    2    0    0 -0.21416102277E+03 -0.34626924445E+02  0.50554285188E+03  0.85816533892E+03  0.65864270000E+03 0. -1.
    8880022    1    1    2    0    0  0.21416102277E+03  0.34626924445E+02 -0.74658116266E+03  0.79236295535E+03  0.15294330000E+03 0.  0.
<mgrwt>
<rscale>  0 0.54544536E+03</rscale>
<asrwt>0</asrwt>
<pdfrwt beam="1">  1        2 0.10842231E+00 0.69345092E+03</pdfrwt>
<pdfrwt beam="2">  1       -2 0.14550512E+00 0.69345092E+03</pdfrwt>
<totfact> 0.13469254E+01</totfact>
</mgrwt>
</event>
<event>
 4    5  0.6615028E-008  0.6656077E+03  0.7818608E-02  0.1019029E+00
          2   -1    0    0  501    0  0.00000000000E+00  0.00000000000E+00  0.19578756515E+04  0.19578756515E+04  0.25500000000E-02 0. -1.
         -2   -1    0    0    0  501 -0.00000000000E+00 -0.00000000000E+00 -0.92017881626E+02  0.92017881661E+02  0.25500000000E-02 0.  1.
    8880023    1    1    2    0    0  0.26127828403E+02 -0.92415889561E+02  0.15312913158E+04  0.16696965773E+04  0.65864270000E+03 0. -1.
    8880022    1    1    2    0    0 -0.26127828403E+02  0.92415889561E+02  0.33456645409E+03  0.38019695590E+03  0.15294330000E+03 0.  1.
<mgrwt>
<rscale>  0 0.48038665E+03</rscale>
<asrwt>0</asrwt>
<pdfrwt beam="1">  1        2 0.30121162E+00 0.66560767E+03</pdfrwt>
<pdfrwt beam="2">  1       -2 0.14156598E-01 0.66560767E+03</pdfrwt>
<totfact> 0.28056251E+02</totfact>
</mgrwt>
</event>
<event>
 4    5  0.6615028E-008  0.1895951E+04  0.7818608E-02  0.8671238E-01
         -2   -1    0    0    0  501 -0.00000000000E+00  0.00000000000E+00  0.34268408714E+04  0.34268408714E+04  0.25500000000E-02 0.  1.
          2   -1    0    0  501    0  0.00000000000E+00 -0.00000000000E+00 -0.11774250508E+04  0.11774250508E+04  0.25500000000E-02 0. -1.
    8880023    1    1    2    0    0 -0.17452058983E+04 -0.33923175964E+03  0.23070350575E+03  0.19099361581E+04  0.65864270000E+03 0.  0.
    8880022    1    1    2    0    0  0.17452058983E+04  0.33923175964E+03  0.20187123149E+04  0.26943297641E+04  0.15294330000E+03 0.  0.
<mgrwt>
<rscale>  0 0.18674358E+04</rscale>
<asrwt>0</asrwt>
<pdfrwt beam="1">  1        2 0.18114231E+00 0.18959515E+04</pdfrwt>
<pdfrwt beam="2">  1       -2 0.52720629E+00 0.18959515E+04</pdfrwt>
<totfact> 0.19829502E-02</totfact>
</mgrwt>
</event>
<event>
 4    5  0.6615028E-008  0.1438961E+04  0.7818608E-02  0.8953985E-01
         -2   -1    0    0    0  501 -0.00000000000E+00  0.00000000000E+00  0.20302824978E+04  0.20302824978E+04  0.25500000000E-02 0.  1.
          2   -1    0    0  501    0  0.00000000000E+00 -0.00000000000E+00 -0.15961096542E+04  0.15961096542E+04  0.25500000000E-02 0. -1.
    8880023    1    1    2    0    0  0.11455191044E+04  0.56972356510E+03 -0.95860001022E+03  0.17290237549E+04  0.65864270000E+03 0.  0.
    8880022    1    1    2    0    0 -0.11455191044E+04 -0.56972356510E+03  0.13927728538E+04  0.18973683972E+04  0.15294330000E+03 0.  0.
<mgrwt>
<rscale>  0 0.13997696E+04</rscale>
<asrwt>0</asrwt>
<pdfrwt beam="1">  1        2 0.24555533E+00 0.14389611E+04</pdfrwt>
<pdfrwt beam="2">  1       -2 0.31235116E+00 0.14389611E+04</pdfrwt>
<totfact> 0.28331079E-01</totfact>
</mgrwt>
</event>
<event>
 4    5  0.6615028E-008  0.9192220E+03  0.7818608E-02  0.9495853E-01
         -2   -1    0    0    0  501 -0.00000000000E+00  0.00000000000E+00  0.73100174337E+03  0.73100174338E+03  0.25500000000E-02 0.  1.
          2   -1    0    0  501    0  0.00000000000E+00 -0.00000000000E+00 -0.15366447196E+04  0.15366447196E+04  0.25500000000E-02 0. -1.
    8880023    1    1    2    0    0  0.53458384460E+03 -0.35408887706E+03 -0.11906854917E+04  0.15042276976E+04  0.65864270000E+03 0.  0.
    8880022    1    1    2    0    0 -0.53458384460E+03  0.35408887706E+03  0.38504251540E+03  0.76341876546E+03  0.15294330000E+03 0.  0.
<mgrwt>
<rscale>  0 0.84590253E+03</rscale>
<asrwt>0</asrwt>
<pdfrwt beam="1">  1        2 0.23640688E+00 0.91922197E+03</pdfrwt>
<pdfrwt beam="2">  1       -2 0.11246181E+00 0.91922197E+03</pdfrwt>
<totfact> 0.75640350E+00</totfact>
</mgrwt>
</event>
<event>
 4    5  0.6615028E-008  0.1599861E+04  0.7818608E-02  0.8842160E-01
          2   -1    0    0  501    0  0.00000000000E+00  0.00000000000E+00  0.22381328978E+04  0.22381328978E+04  0.25500000000E-02 0. -1.
         -2   -1    0    0    0  501 -0.00000000000E+00 -0.00000000000E+00 -0.14649734114E+04  0.14649734114E+04  0.25500000000E-02 0.  1.
    8880023    1    1    2    0    0  0.27066688741E+03  0.14326496226E+04  0.13835383211E+04  0.21151203269E+04  0.65864270000E+03 0.  0.
    8880022    1    1    2    0    0 -0.27066688741E+03 -0.14326496226E+04 -0.61037883471E+03  0.15879859823E+04  0.15294330000E+03 0.  0.
<mgrwt>
<rscale>  0 0.15652897E+04</rscale>
<asrwt>0</asrwt>
<pdfrwt beam="1">  1        2 0.34432813E+00 0.15998612E+04</pdfrwt>
<pdfrwt beam="2">  1       -2 0.22538053E+00 0.15998612E+04</pdfrwt>
<totfact> 0.41680635E-01</totfact>
</mgrwt>
</event>
<event>
 4    5  0.6615028E-008  0.6677950E+03  0.7818608E-02  0.1017295E+00
         -2   -1    0    0    0  501 -0.00000000000E+00  0.00000000000E+00  0.16971658345E+04  0.16971658345E+04  0.25500000000E-02 0.  1.
          2   -1    0    0  501    0  0.00000000000E+00 -0.00000000000E+00 -0.14010132438E+04  0.14010132438E+04  0.25500000000E-02 0. -1.
    8880023    1    1    2    0    0 -0.87384286695E+02  0.67111629162E+02 -0.13156311643E+04  0.14754102992E+04  0.65864270000E+03 0. -1.
    8880022    1    1    2    0    0  0.87384286695E+02 -0.67111629162E+02  0.16117837550E+04  0.16227687791E+04  0.15294330000E+03 0.  0.
<mgrwt>
<rscale>  0 0.48675373E+03</rscale>
<asrwt>0</asrwt>
<pdfrwt beam="1">  1        2 0.21554050E+00 0.66779502E+03</pdfrwt>
<pdfrwt beam="2">  1       -2 0.26110243E+00 0.66779502E+03</pdfrwt>
<totfact> 0.84271669E-01</totfact>
</mgrwt>
</event>
<event>
 4    5  0.6615028E-008  0.9588311E+03  0.7818608E-02  0.9437520E-01
          2   -1    0    0  501    0  0.00000000000E+00  0.00000000000E+00  0.26066187140E+04  0.26066187140E+04  0.25500000000E-02 0. -1.
         -2   -1    0    0    0  501 -0.00000000000E+00 -0.00000000000E+00 -0.39274428343E+03  0.39274428344E+03  0.25500000000E-02 0.  1.
    8880023    1    1    2    0    0  0.45361020889E+03  0.52894678667E+03  0.20561671780E+04  0.22687398693E+04  0.65864270000E+03 0. -1.
    8880022    1    1    2    0    0 -0.45361020889E+03 -0.52894678667E+03  0.15770725257E+03  0.73062312806E+03  0.15294330000E+03 0.  0.
<mgrwt>
<rscale>  0 0.89051198E+03</rscale>
<asrwt>0</asrwt>
<pdfrwt beam="1">  1        2 0.40101826E+00 0.95883113E+03</pdfrwt>
<pdfrwt beam="2">  1       -2 0.60422198E-01 0.95883113E+03</pdfrwt>
<totfact> 0.78451710E+00</totfact>
</mgrwt>
</event>
<event>
 4    5  0.6615028E-008  0.1206461E+04  0.7818608E-02  0.9150867E-01
          2   -1    0    0  501    0  0.00000000000E+00  0.00000000000E+00  0.14915225314E+04  0.14915225314E+04  0.25500000000E-02 0. -1.
         -2   -1    0    0    0  501 -0.00000000000E+00 -0.00000000000E+00 -0.10918970988E+04  0.10918970988E+04  0.25500000000E-02 0.  1.
    8880023    1    1    2    0    0 -0.45784603950E+03 -0.90117474998E+03  0.84021095316E+03  0.14702052843E+04  0.65864270000E+03 0.  0.
    8880022    1    1    2    0    0  0.45784603950E+03  0.90117474998E+03 -0.44058552058E+03  0.11132143459E+04  0.15294330000E+03 0.  0.
<mgrwt>
<rscale>  0 0.11575277E+04</rscale>
<asrwt>0</asrwt>
<pdfrwt beam="1">  1        2 0.22946500E+00 0.12064614E+04</pdfrwt>
<pdfrwt beam="2">  1       -2 0.16798417E+00 0.12064614E+04</pdfrwt>
<totfact> 0.27437282E+00</totfact>
</mgrwt>
</event>
<event>
 4    5  0.6615028E-008  0.9724600E+03  0.7818608E-02  0.9418510E-01
         -2   -1    0    0    0  501 -0.00000000000E+00  0.00000000000E+00  0.54260991210E+03  0.54260991211E+03  0.25500000000E-02 0.  1.
          2   -1    0    0  501    0  0.00000000000E+00 -0.00000000000E+00 -0.20912110792E+04  0.20912110792E+04  0.25500000000E-02 0. -1.
    8880023    1    1    2    0    0 -0.40835574178E+03  0.58746391257E+03 -0.16296348940E+04  0.18977324244E+04  0.65864270000E+03 0.  0.
    8880022    1    1    2    0    0  0.40835574178E+03 -0.58746391257E+03  0.81033726951E+02  0.73608856691E+03  0.15294330000E+03 0.  0.
<mgrwt>
<rscale>  0 0.90567922E+03</rscale>
<asrwt>0</asrwt>
<pdfrwt beam="1">  1        2 0.32172478E+00 0.97246001E+03</pdfrwt>
<pdfrwt beam="2">  1       -2 0.83478449E-01 0.97246001E+03</pdfrwt>
<totfact> 0.75088678E+00</totfact>
</mgrwt>
</event>
<event>
 4    5  0.6615028E-008  0.1053374E+04  0.7818608E-02  0.9314837E-01
         -2   -1    0    0    0  501 -0.00000000000E+00  0.00000000000E+00  0.11321280054E+04  0.11321280054E+04  0.25500000000E-02 0.  1.
          2   -1    0    0  501    0  0.00000000000E+00 -0.00000000000E+00 -0.10647233826E+04  0.10647233826E+04  0.25500000000E-02 0. -1.
    8880023    1    1    2    0    0 -0.63018381397E+03  0.52787692246E+03 -0.52024325006E+03  0.11748399594E+04  0.65864270000E+03 0.  0.
    8880022    1    1    2    0    0  0.63018381397E+03 -0.52787692246E+03  0.58764787293E+03  0.10220114286E+04  0.15294330000E+03 0.  0.
<mgrwt>
<rscale>  0 0.99428350E+03</rscale>
<asrwt>0</asrwt>
<pdfrwt beam="1">  1        2 0.16380360E+00 0.10533736E+04</pdfrwt>
<pdfrwt beam="2">  1       -2 0.17417354E+00 0.10533736E+04</pdfrwt>
<totfact> 0.44982149E+00</totfact>
</mgrwt>
</event>
<event>
 4    5  0.6615028E-008  0.7619302E+03  0.7818608E-02  0.9800136E-01
         -2   -1    0    0    0  501 -0.00000000000E+00  0.00000000000E+00  0.46563348186E+03  0.46563348186E+03  0.25500000000E-02 0.  1.
          2   -1    0    0  501    0  0.00000000000E+00 -0.00000000000E+00 -0.16100360938E+04  0.16100360938E+04  0.25500000000E-02 0. -1.
    8880023    1    1    2    0    0  0.10110892343E+03  0.36946494228E+03  0.96499097219E+02  0.76801669252E+03  0.65864270000E+03 0.  0.
    8880022    1    1    2    0    0 -0.10110892343E+03 -0.36946494228E+03 -0.12409017092E+04  0.13076528832E+04  0.15294330000E+03 0.  0.
<mgrwt>
<rscale>  0 0.65355250E+03</rscale>
<asrwt>0</asrwt>
<pdfrwt beam="1">  1        2 0.24769786E+00 0.76193016E+03</pdfrwt>
<pdfrwt beam="2">  1       -2 0.71635921E-01 0.76193016E+03</pdfrwt>
<totfact> 0.19929835E+01</totfact>
</mgrwt>
</event>
<event>
 4    5  0.6615028E-008  0.1088687E+04  0.7818608E-02  0.9273757E-01
          2   -1    0    0  501    0  0.00000000000E+00  0.00000000000E+00  0.27084257795E+04  0.27084257795E+04  0.25500000000E-02 0. -1.
         -2   -1    0    0    0  501 -0.00000000000E+00 -0.00000000000E+00 -0.39430827195E+03  0.39430827196E+03  0.25500000000E-02 0.  1.
    8880023    1    1    2    0    0 -0.74891609321E+03 -0.43652560206E+03  0.17376498443E+04  0.20505284938E+04  0.65864270000E+03 0.  0.
    8880022    1    1    2    0    0  0.74891609321E+03  0.43652560206E+03  0.57646766321E+03  0.10522055577E+04  0.15294330000E+03 0.  0.
<mgrwt>
<rscale>  0 0.10323515E+04</rscale>
<asrwt>0</asrwt>
<pdfrwt beam="1">  1        2 0.41668088E+00 0.10886873E+04</pdfrwt>
<pdfrwt beam="2">  1       -2 0.60662812E-01 0.10886873E+04</pdfrwt>
<totfact> 0.66727791E+00</totfact>
</mgrwt>
</event>
<event>
 4    5  0.6615028E-008  0.8387432E+03  0.7818608E-02  0.9632555E-01
          2   -1    0    0  501    0  0.00000000000E+00  0.00000000000E+00  0.21041762302E+04  0.21041762302E+04  0.25500000000E-02 0. -1.
         -2   -1    0    0    0  501 -0.00000000000E+00 -0.00000000000E+00 -0.22681340646E+03  0.22681340647E+03  0.25500000000E-02 0.  1.
    8880023    1    1    2    0    0  0.40917031655E+03  0.31978053268E+03  0.11947206300E+04  0.14597422810E+04  0.65864270000E+03 0. -1.
    8880022    1    1    2    0    0 -0.40917031655E+03 -0.31978053268E+03  0.68264219379E+03  0.87124735568E+03  0.15294330000E+03 0.  1.
<mgrwt>
<rscale>  0 0.75178468E+03</rscale>
<asrwt>0</asrwt>
<pdfrwt beam="1">  1        2 0.32371943E+00 0.83874319E+03</pdfrwt>
<pdfrwt beam="2">  1       -2 0.34894369E-01 0.83874319E+03</pdfrwt>
<totfact> 0.46003091E+01</totfact>
</mgrwt>
</event>
<event>
 4    5  0.6615028E-008  0.7479733E+03  0.7818608E-02  0.9837302E-01
         -2   -1    0    0    0  501 -0.00000000000E+00  0.00000000000E+00  0.12192276299E+04  0.12192276299E+04  0.25500000000E-02 0.  1.
          2   -1    0    0  501    0  0.00000000000E+00 -0.00000000000E+00 -0.19243991885E+04  0.19243991885E+04  0.25500000000E-02 0. -1.
    8880023    1    1    2    0    0 -0.35291955030E+03 -0.33190911648E+02 -0.18179347226E+04  0.19657951845E+04  0.65864270000E+03 0.  0.
    8880022    1    1    2    0    0  0.35291955030E+03  0.33190911648E+02  0.11127631640E+04  0.11778316339E+04  0.15294330000E+03 0.  1.
<mgrwt>
<rscale>  0 0.63398565E+03</rscale>
<asrwt>0</asrwt>
<pdfrwt beam="1">  1        2 0.29606141E+00 0.74797330E+03</pdfrwt>
<pdfrwt beam="2">  1       -2 0.18757348E+00 0.74797330E+03</pdfrwt>
<totfact> 0.12325280E+00</totfact>
</mgrwt>
</event>
<event>
 4    5  0.6615028E-008  0.6640459E+03  0.7818608E-02  0.1020348E+00
         -2   -1    0    0    0  501 -0.00000000000E+00  0.00000000000E+00  0.51660033023E+03  0.51660033023E+03  0.25500000000E-02 0.  1.
          2   -1    0    0  501    0  0.00000000000E+00 -0.00000000000E+00 -0.79609332036E+03  0.79609332036E+03  0.25500000000E-02 0. -1.
    8880023    1    1    2    0    0 -0.78731276197E+02  0.30792328779E+02 -0.63359174903E+03  0.91782105667E+03  0.65864270000E+03 0. -1.
    8880022    1    1    2    0    0  0.78731276197E+02 -0.30792328779E+02  0.35409875890E+03  0.39487259393E+03  0.15294330000E+03 0.  0.
<mgrwt>
<rscale>  0 0.47561378E+03</rscale>
<asrwt>0</asrwt>
<pdfrwt beam="1">  1        2 0.12247590E+00 0.66404592E+03</pdfrwt>
<pdfrwt beam="2">  1       -2 0.79476974E-01 0.66404592E+03</pdfrwt>
<totfact> 0.49659906E+01</totfact>
</mgrwt>
</event>
<event>
 4    5  0.6615028E-008  0.9797326E+03  0.7818608E-02  0.9408567E-01
         -2   -1    0    0    0  501 -0.00000000000E+00  0.00000000000E+00  0.11356235149E+04  0.11356235149E+04  0.25500000000E-02 0.  1.
          2   -1    0    0  501    0  0.00000000000E+00 -0.00000000000E+00 -0.20901502121E+04  0.20901502121E+04  0.25500000000E-02 0. -1.
    8880023    1    1    2    0    0  0.70355307372E+03  0.17629184313E+03 -0.18317523712E+04  0.20773041899E+04  0.65864270000E+03 0.  0.
    8880022    1    1    2    0    0 -0.70355307372E+03 -0.17629184313E+03  0.87722567404E+03  0.11484695371E+04  0.15294330000E+03 0.  0.
<mgrwt>
<rscale>  0 0.91373954E+03</rscale>
<asrwt>0</asrwt>
<pdfrwt beam="1">  1        2 0.32156157E+00 0.97973259E+03</pdfrwt>
<pdfrwt beam="2">  1       -2 0.17471131E+00 0.97973259E+03</pdfrwt>
<totfact> 0.11769796E+00</totfact>
</mgrwt>
</event>
<event>
 4    5  0.6615028E-008  0.8563458E+03  0.7818608E-02  0.9600097E-01
          2   -1    0    0  501    0  0.00000000000E+00  0.00000000000E+00  0.40269285405E+04  0.40269285405E+04  0.25500000000E-02 0. -1.
         -2   -1    0    0    0  501 -0.00000000000E+00 -0.00000000000E+00 -0.14108583681E+03  0.14108583683E+03  0.25500000000E-02 0.  1.
    8880023    1    1    2    0    0 -0.21306121378E+03 -0.50410595538E+03  0.29628403085E+04  0.30841126430E+04  0.65864270000E+03 0. -1.
    8880022    1    1    2    0    0  0.21306121378E+03  0.50410595538E+03  0.92300239526E+03  0.10839017344E+04  0.15294330000E+03 0.  0.
<mgrwt>
<rscale>  0 0.77289764E+03</rscale>
<asrwt>0</asrwt>
<pdfrwt beam="1">  1        2 0.61952737E+00 0.85634578E+03</pdfrwt>
<pdfrwt beam="2">  1       -2 0.21705517E-01 0.85634578E+03</pdfrwt>
<totfact> 0.64960858E+00</totfact>
</mgrwt>
</event>
<event>
 4    5  0.6615028E-008  0.8530019E+03  0.7818608E-02  0.9606135E-01
          2   -1    0    0  501    0  0.00000000000E+00  0.00000000000E+00  0.15288426933E+04  0.15288426933E+04  0.25500000000E-02 0. -1.
         -2   -1    0    0    0  501 -0.00000000000E+00 -0.00000000000E+00 -0.79588849954E+03  0.79588849954E+03  0.25500000000E-02 0.  1.
    8880023    1    1    2    0    0 -0.53964228588E+03 -0.50874352577E+02  0.12809163907E+04  0.15389473684E+04  0.65864270000E+03 0.  0.
    8880022    1    1    2    0    0  0.53964228588E+03  0.50874352577E+02 -0.54796219695E+03  0.78578382444E+03  0.15294330000E+03 0.  0.
<mgrwt>
<rscale>  0 0.76891450E+03</rscale>
<asrwt>0</asrwt>
<pdfrwt beam="1">  1        2 0.23520657E+00 0.85300188E+03</pdfrwt>
<pdfrwt beam="2">  1       -2 0.12244439E+00 0.85300188E+03</pdfrwt>
<totfact> 0.62443057E+00</totfact>
</mgrwt>
</event>
<event>
 4    5  0.6615028E-008  0.7120586E+03  0.7818608E-02  0.9950434E-01
         -2   -1    0    0    0  501 -0.00000000000E+00  0.00000000000E+00  0.20245132933E+03  0.20245132934E+03  0.25500000000E-02 0.  1.
          2   -1    0    0  501    0  0.00000000000E+00 -0.00000000000E+00 -0.22080708681E+04  0.22080708681E+04  0.25500000000E-02 0. -1.
    8880023    1    1    2    0    0  0.25763059659E+03 -0.82727020714E+02 -0.19735206098E+04  0.20980493530E+04  0.65864270000E+03 0. -1.
    8880022    1    1    2    0    0 -0.25763059659E+03  0.82727020714E+02 -0.32098929029E+02  0.31247284445E+03  0.15294330000E+03 0.  0.
<mgrwt>
<rscale>  0 0.57878062E+03</rscale>
<asrwt>0</asrwt>
<pdfrwt beam="1">  1        2 0.33970319E+00 0.71205863E+03</pdfrwt>
<pdfrwt beam="2">  1       -2 0.31146360E-01 0.71205863E+03</pdfrwt>
<totfact> 0.50738573E+01</totfact>
</mgrwt>
</event>
<event>
 4    5  0.6615028E-008  0.1040438E+04  0.7818608E-02  0.9330465E-01
          2   -1    0    0  501    0  0.00000000000E+00  0.00000000000E+00  0.16316096650E+04  0.16316096650E+04  0.25500000000E-02 0. -1.
         -2   -1    0    0    0  501 -0.00000000000E+00 -0.00000000000E+00 -0.86887687407E+03  0.86887687407E+03  0.25500000000E-02 0.  1.
    8880023    1    1    2    0    0  0.22531177992E+03 -0.77326294790E+03  0.11861364508E+04  0.15777930380E+04  0.65864270000E+03 0.  0.
    8880022    1    1    2    0    0 -0.22531177992E+03  0.77326294790E+03 -0.42340365981E+03  0.92269350107E+03  0.15294330000E+03 0.  0.
<mgrwt>
<rscale>  0 0.98025889E+03</rscale>
<asrwt>0</asrwt>
<pdfrwt beam="1">  1        2 0.25101687E+00 0.10404380E+04</pdfrwt>
<pdfrwt beam="2">  1       -2 0.13367337E+00 0.10404380E+04</pdfrwt>
<totfact> 0.42872455E+00</totfact>
</mgrwt>
</event>
<event>
 4    5  0.6615028E-008  0.7804547E+03  0.7818608E-02  0.9754770E-01
          2   -1    0    0  501    0  0.00000000000E+00  0.00000000000E+00  0.27367635320E+04  0.27367635320E+04  0.25500000000E-02 0. -1.
         -2   -1    0    0    0  501 -0.00000000000E+00 -0.00000000000E+00 -0.28764644046E+03  0.28764644047E+03  0.25500000000E-02 0.  1.
    8880023    1    1    2    0    0  0.23324587682E+03  0.34770063985E+03  0.24576349938E+04  0.25785808778E+04  0.65864270000E+03 0. -1.
    8880022    1    1    2    0    0 -0.23324587682E+03 -0.34770063985E+03 -0.85179023025E+01  0.44582909470E+03  0.15294330000E+03 0.  0.
<mgrwt>
<rscale>  0 0.67847378E+03</rscale>
<asrwt>0</asrwt>
<pdfrwt beam="1">  1        2 0.42104052E+00 0.78045473E+03</pdfrwt>
<pdfrwt beam="2">  1       -2 0.44253301E-01 0.78045473E+03</pdfrwt>
<totfact> 0.12823646E+01</totfact>
</mgrwt>
</event>
<event>
 4    5  0.6615028E-008  0.1014924E+04  0.7818608E-02  0.9362287E-01
          2   -1    0    0  501    0  0.00000000000E+00  0.00000000000E+00  0.30198452178E+04  0.30198452178E+04  0.25500000000E-02 0. -1.
         -2   -1    0    0    0  501 -0.00000000000E+00 -0.00000000000E+00 -0.58243886507E+03  0.58243886507E+03  0.25500000000E-02 0.  1.
    8880023    1    1    2    0    0  0.67980888414E+02 -0.76918114848E+03  0.26065186474E+04  0.27971433116E+04  0.65864270000E+03 0.  0.
    8880022    1    1    2    0    0 -0.67980888414E+02  0.76918114848E+03 -0.16911229462E+03  0.80514077128E+03  0.15294330000E+03 0.  0.
<mgrwt>
<rscale>  0 0.95245347E+03</rscale>
<asrwt>0</asrwt>
<pdfrwt beam="1">  1        2 0.46459156E+00 0.10149243E+04</pdfrwt>
<pdfrwt beam="2">  1       -2 0.89605981E-01 0.10149243E+04</pdfrwt>
<totfact> 0.18396418E+00</totfact>
</mgrwt>
</event>
<event>
 4    5  0.7292007E-008  0.6963181E+03  0.7818608E-02  0.1001283E+00
          2   -1    0    0  501    0  0.00000000000E+00  0.00000000000E+00  0.16192446408E+04  0.16192446408E+04  0.25500000000E-02 0. -1.
         -2   -1    0    0    0  501 -0.00000000000E+00 -0.00000000000E+00 -0.10652830956E+04  0.10652830956E+04  0.25500000000E-02 0.  1.
    8880023    1    1    2    0    0 -0.52030813649E+02 -0.21986686905E+03  0.15246994698E+04  0.16761764003E+04  0.65864270000E+03 0. -1.
    8880022    1    1    2    0    0  0.52030813649E+02  0.21986686905E+03 -0.97073792457E+03  0.10083513360E+04  0.15294330000E+03 0.  0.
<mgrwt>
<rscale>  0 0.55091140E+03</rscale>
<asrwt>0</asrwt>
<pdfrwt beam="1">  1        2 0.24911456E+00 0.69631807E+03</pdfrwt>
<pdfrwt beam="2">  1       -2 0.16388971E+00 0.69631807E+03</pdfrwt>
<totfact> 0.26685320E+00</totfact>
</mgrwt>
</event>
<event>
 4    5  0.6615028E-008  0.8375794E+03  0.7818608E-02  0.9634762E-01
         -2   -1    0    0    0  501 -0.00000000000E+00  0.00000000000E+00  0.43866416292E+03  0.43866416292E+03  0.25500000000E-02 0.  1.
          2   -1    0    0  501    0  0.00000000000E+00 -0.00000000000E+00 -0.16863303380E+04  0.16863303380E+04  0.25500000000E-02 0. -1.
    8880023    1    1    2    0    0 -0.50425321997E+03 -0.11600738004E+03 -0.13373978048E+04  0.15780279201E+04  0.65864270000E+03 0. -1.
    8880022    1    1    2    0    0  0.50425321997E+03  0.11600738004E+03  0.89731629779E+02  0.54696658076E+03  0.15294330000E+03 0.  0.
<mgrwt>
<rscale>  0 0.75037545E+03</rscale>
<asrwt>0</asrwt>
<pdfrwt beam="1">  1        2 0.25943543E+00 0.83757939E+03</pdfrwt>
<pdfrwt beam="2">  1       -2 0.67486795E-01 0.83757939E+03</pdfrwt>
<totfact> 0.20424237E+01</totfact>
</mgrwt>
</event>
<event>
 4    5  0.6615028E-008  0.6942516E+03  0.7818608E-02  0.1002194E+00
          2   -1    0    0  501    0  0.00000000000E+00  0.00000000000E+00  0.96836637396E+03  0.96836637396E+03  0.25500000000E-02 0. -1.
         -2   -1    0    0    0  501 -0.00000000000E+00 -0.00000000000E+00 -0.34372361240E+03  0.34372361241E+03  0.25500000000E-02 0.  1.
    8880023    1    1    2    0    0  0.75280208402E+02  0.20617475572E+03  0.74535502790E+03  0.10185968111E+04  0.65864270000E+03 0. -1.
    8880022    1    1    2    0    0 -0.75280208402E+02 -0.20617475572E+03 -0.12071226635E+03  0.29349317528E+03  0.15294330000E+03 0.  0.
<mgrwt>
<rscale>  0 0.54698653E+03</rscale>
<asrwt>0</asrwt>
<pdfrwt beam="1">  1        2 0.14897944E+00 0.69425164E+03</pdfrwt>
<pdfrwt beam="2">  1       -2 0.52880555E-01 0.69425164E+03</pdfrwt>
<totfact> 0.90675197E+01</totfact>
</mgrwt>
</event>
<event>
 4    5  0.6615028E-008  0.7146610E+03  0.7818608E-02  0.9941084E-01
          2   -1    0    0  501    0  0.00000000000E+00  0.00000000000E+00  0.72767302548E+03  0.72767302549E+03  0.25500000000E-02 0. -1.
         -2   -1    0    0    0  501 -0.00000000000E+00 -0.00000000000E+00 -0.48774821009E+03  0.48774821010E+03  0.25500000000E-02 0.  1.
    8880023    1    1    2    0    0  0.23769593380E+03  0.14293603870E+03  0.44144845789E+03  0.84001012812E+03  0.65864270000E+03 0. -1.
    8880022    1    1    2    0    0 -0.23769593380E+03 -0.14293603870E+03 -0.20152364250E+03  0.37541110747E+03  0.15294330000E+03 0.  0.
<mgrwt>
<rscale>  0 0.58310855E+03</rscale>
<asrwt>0</asrwt>
<pdfrwt beam="1">  1        2 0.11194970E+00 0.71466095E+03</pdfrwt>
<pdfrwt beam="2">  1       -2 0.75038186E-01 0.71466095E+03</pdfrwt>
<totfact> 0.63157898E+01</totfact>
</mgrwt>
</event>
<event>
 4    5  0.6615028E-008  0.7649766E+03  0.7818608E-02  0.9792390E-01
          2   -1    0    0  501    0  0.00000000000E+00  0.00000000000E+00  0.48791135910E+03  0.48791135911E+03  0.25500000000E-02 0. -1.
         -2   -1    0    0    0  501 -0.00000000000E+00 -0.00000000000E+00 -0.81935099312E+03  0.81935099312E+03  0.25500000000E-02 0.  1.
    8880023    1    1    2    0    0 -0.21058105065E+03  0.32716145139E+03 -0.43027526125E+03  0.87768217532E+03  0.65864270000E+03 0.  1.
    8880022    1    1    2    0    0  0.21058105065E+03 -0.32716145139E+03  0.98835627236E+02  0.42958017691E+03  0.15294330000E+03 0. -1.
<mgrwt>
<rscale>  0 0.65772549E+03</rscale>
<asrwt>0</asrwt>
<pdfrwt beam="1">  1        2 0.75063286E-01 0.76497660E+03</pdfrwt>
<pdfrwt beam="2">  1       -2 0.12605400E+00 0.76497660E+03</pdfrwt>
<totfact> 0.30075261E+01</totfact>
</mgrwt>
</event>
<event>
 4    5  0.6615028E-008  0.1095342E+04  0.7818608E-02  0.9266260E-01
          2   -1    0    0  501    0  0.00000000000E+00  0.00000000000E+00  0.15306685954E+04  0.15306685954E+04  0.25500000000E-02 0. -1.
         -2   -1    0    0    0  501 -0.00000000000E+00 -0.00000000000E+00 -0.18459487650E+04  0.18459487650E+04  0.25500000000E-02 0.  1.
    8880023    1    1    2    0    0 -0.26026985479E+03  0.83559744905E+03  0.11970888339E+04  0.16225890967E+04  0.65864270000E+03 0. -1.
    8880022    1    1    2    0    0  0.26026985479E+03 -0.83559744905E+03 -0.15123690035E+04  0.17540282637E+04  0.15294330000E+03 0.  0.
<mgrwt>
<rscale>  0 0.10394924E+04</rscale>
<asrwt>0</asrwt>
<pdfrwt beam="1">  1        2 0.23548748E+00 0.10953418E+04</pdfrwt>
<pdfrwt beam="2">  1       -2 0.28399212E+00 0.10953418E+04</pdfrwt>
<totfact> 0.48009091E-01</totfact>
</mgrwt>
</event>
<event>
 4    5  0.6615028E-008  0.7139748E+03  0.7818608E-02  0.9943527E-01
         -2   -1    0    0    0  501 -0.00000000000E+00  0.00000000000E+00  0.11311880658E+04  0.11311880659E+04  0.25500000000E-02 0.  1.
          2   -1    0    0  501    0  0.00000000000E+00 -0.00000000000E+00 -0.31586041647E+04  0.31586041648E+04  0.25500000000E-02 0. -1.
    8880023    1    1    2    0    0 -0.20630172028E+03  0.18272752430E+03 -0.30951909487E+04  0.31764708346E+04  0.65864270000E+03 0. -1.
    8880022    1    1    2    0    0  0.20630172028E+03 -0.18272752430E+03  0.10677748498E+04  0.11133213960E+04  0.15294330000E+03 0.  0.
<mgrwt>
<rscale>  0 0.58197379E+03</rscale>
<asrwt>0</asrwt>
<pdfrwt beam="1">  1        2 0.48593910E+00 0.71397476E+03</pdfrwt>
<pdfrwt beam="2">  1       -2 0.17402893E+00 0.71397476E+03</pdfrwt>
<totfact> 0.29980496E-01</totfact>
</mgrwt>
</event>
<event>
 4    5  0.6615028E-008  0.9572517E+03  0.7818608E-02  0.9439756E-01
          2   -1    0    0  501    0  0.00000000000E+00  0.00000000000E+00  0.18602072650E+04  0.18602072650E+04  0.25500000000E-02 0. -1.
         -2   -1    0    0    0  501 -0.00000000000E+00 -0.00000000000E+00 -0.63623563439E+03  0.63623563439E+03  0.25500000000E-02 0.  1.
    8880023    1    1    2    0    0 -0.56822375570E+03 -0.39955278557E+03  0.14610384438E+04  0.17467009491E+04  0.65864270000E+03 0.  0.
    8880022    1    1    2    0    0  0.56822375570E+03  0.39955278557E+03 -0.23706681326E+03  0.74974195025E+03  0.15294330000E+03 0.  0.
<mgrwt>
<rscale>  0 0.88874880E+03</rscale>
<asrwt>0</asrwt>
<pdfrwt beam="1">  1        2 0.28618573E+00 0.95725173E+03</pdfrwt>
<pdfrwt beam="2">  1       -2 0.97882407E-01 0.95725173E+03</pdfrwt>
<totfact> 0.69692421E+00</totfact>
</mgrwt>
</event>
<event>
 4    5  0.6615028E-008  0.7281985E+03  0.7818608E-02  0.9895762E-01
         -2   -1    0    0    0  501 -0.00000000000E+00  0.00000000000E+00  0.62791338114E+03  0.62791338114E+03  0.25500000000E-02 0.  1.
          2   -1    0    0  501    0  0.00000000000E+00 -0.00000000000E+00 -0.12147254091E+04  0.12147254091E+04  0.25500000000E-02 0. -1.
    8880023    1    1    2    0    0  0.92923319539E+02 -0.29635798668E+03 -0.10417035070E+04  0.12709914249E+04  0.65864270000E+03 0. -1.
    8880022    1    1    2    0    0 -0.92923319539E+02  0.29635798668E+03  0.45489147900E+03  0.57164736531E+03  0.15294330000E+03 0.  0.
<mgrwt>
<rscale>  0 0.60467093E+03</rscale>
<asrwt>0</asrwt>
<pdfrwt beam="1">  1        2 0.18688083E+00 0.72819847E+03</pdfrwt>
<pdfrwt beam="2">  1       -2 0.96602059E-01 0.72819847E+03</pdfrwt>
<totfact> 0.17001277E+01</totfact>
</mgrwt>
</event>
<event>
 4    5  0.6615028E-008  0.7691074E+03  0.7818608E-02  0.9782075E-01
         -2   -1    0    0    0  501 -0.00000000000E+00  0.00000000000E+00  0.20060526268E+03  0.20060526270E+03  0.25500000000E-02 0.  1.
          2   -1    0    0  501    0  0.00000000000E+00 -0.00000000000E+00 -0.24848633560E+04  0.24848633560E+04  0.25500000000E-02 0. -1.
    8880023    1    1    2    0    0 -0.38326802505E+03  0.10402693324E+03 -0.20715243164E+04  0.22096921011E+04  0.65864270000E+03 0. -1.
    8880022    1    1    2    0    0  0.38326802505E+03 -0.10402693324E+03 -0.21273377692E+03  0.47577651763E+03  0.15294330000E+03 0.  0.
<mgrwt>
<rscale>  0 0.66333412E+03</rscale>
<asrwt>0</asrwt>
<pdfrwt beam="1">  1        2 0.38228665E+00 0.76910740E+03</pdfrwt>
<pdfrwt beam="2">  1       -2 0.30862350E-01 0.76910740E+03</pdfrwt>
<totfact> 0.35894213E+01</totfact>
</mgrwt>
</event>
<event>
 4    5  0.6615028E-008  0.8851892E+03  0.7818608E-02  0.9550239E-01
          2   -1    0    0  501    0  0.00000000000E+00  0.00000000000E+00  0.14074882256E+04  0.14074882256E+04  0.25500000000E-02 0. -1.
         -2   -1    0    0    0  501 -0.00000000000E+00 -0.00000000000E+00 -0.19313135760E+04  0.19313135760E+04  0.25500000000E-02 0.  1.
    8880023    1    1    2    0    0 -0.38509808275E+03 -0.44883087385E+03  0.12107410177E+04  0.14998178906E+04  0.65864270000E+03 0. -1.
    8880022    1    1    2    0    0  0.38509808275E+03  0.44883087385E+03 -0.17345663681E+04  0.18389839110E+04  0.15294330000E+03 0.  0.
<mgrwt>
<rscale>  0 0.80679137E+03</rscale>
<asrwt>0</asrwt>
<pdfrwt beam="1">  1        2 0.21653665E+00 0.88518918E+03</pdfrwt>
<pdfrwt beam="2">  1       -2 0.29712516E+00 0.88518918E+03</pdfrwt>
<totfact> 0.48571862E-01</totfact>
</mgrwt>
</event>
<event>
 4    5  0.6615028E-008  0.1080102E+04  0.7818608E-02  0.9283540E-01
         -2   -1    0    0    0  501 -0.00000000000E+00  0.00000000000E+00  0.17800784172E+04  0.17800784172E+04  0.25500000000E-02 0.  1.
          2   -1    0    0  501    0  0.00000000000E+00 -0.00000000000E+00 -0.12605891358E+04  0.12605891358E+04  0.25500000000E-02 0. -1.
    8880023    1    1    2    0    0  0.45774106480E+03 -0.72338295337E+03 -0.87986913993E+03  0.13931222808E+04  0.65864270000E+03 0. -1.
    8880022    1    1    2    0    0 -0.45774106480E+03  0.72338295337E+03  0.13993584214E+04  0.16475452722E+04  0.15294330000E+03 0.  0.
<mgrwt>
<rscale>  0 0.10231239E+04</rscale>
<asrwt>0</asrwt>
<pdfrwt beam="1">  1        2 0.19393679E+00 0.10801018E+04</pdfrwt>
<pdfrwt beam="2">  1       -2 0.27385822E+00 0.10801018E+04</pdfrwt>
<totfact> 0.79163050E-01</totfact>
</mgrwt>
</event>
<event>
 4    5  0.6615028E-008  0.6662185E+03  0.7818608E-02  0.1018532E+00
          2   -1    0    0  501    0  0.00000000000E+00  0.00000000000E+00  0.34716089633E+04  0.34716089633E+04  0.25500000000E-02 0. -1.
         -2   -1    0    0    0  501 -0.00000000000E+00 -0.00000000000E+00 -0.10200108705E+04  0.10200108705E+04  0.25500000000E-02 0.  1.
    8880023    1    1    2    0    0 -0.64257408287E+02  0.76862482626E+02  0.34311093734E+04  0.34951907808E+04  0.65864270000E+03 0. -1.
    8880022    1    1    2    0    0  0.64257408287E+02 -0.76862482626E+02 -0.97951128057E+03  0.99642905294E+03  0.15294330000E+03 0.  0.
<mgrwt>
<rscale>  0 0.48219992E+03</rscale>
<asrwt>0</asrwt>
<pdfrwt beam="1">  1        2 0.53409369E+00 0.66621848E+03</pdfrwt>
<pdfrwt beam="2">  1       -2 0.15692475E+00 0.66621848E+03</pdfrwt>
<totfact> 0.25228696E-01</totfact>
</mgrwt>
</event>
<event>
 4    5  0.7542645E-008  0.9395965E+03  0.7818608E-02  0.9465243E-01
          2   -1    0    0  501    0  0.00000000000E+00  0.00000000000E+00  0.21828305902E+04  0.21828305902E+04  0.25500000000E-02 0. -1.
         -2   -1    0    0    0  501 -0.00000000000E+00 -0.00000000000E+00 -0.11896202112E+04  0.11896202112E+04  0.25500000000E-02 0.  1.
    8880023    1    1    2    0    0 -0.15003700021E+03 -0.65308522439E+03  0.19673674243E+04  0.21802238876E+04  0.65864270000E+03 0. -1.
    8880022    1    1    2    0    0  0.15003700021E+03  0.65308522439E+03 -0.97415704537E+03  0.11922269137E+04  0.15294330000E+03 0.  0.
<mgrwt>
<rscale>  0 0.86895530E+03</rscale>
<asrwt>0</asrwt>
<pdfrwt beam="1">  1        2 0.33582009E+00 0.93959652E+03</pdfrwt>
<pdfrwt beam="2">  1       -2 0.18301849E+00 0.93959652E+03</pdfrwt>
<totfact> 0.92197035E-01</totfact>
</mgrwt>
</event>
<event>
 4    5  0.6615028E-008  0.1027415E+04  0.7818608E-02  0.9346538E-01
         -2   -1    0    0    0  501 -0.00000000000E+00  0.00000000000E+00  0.60858056153E+03  0.60858056154E+03  0.25500000000E-02 0.  1.
          2   -1    0    0  501    0  0.00000000000E+00 -0.00000000000E+00 -0.16857900415E+04  0.16857900415E+04  0.25500000000E-02 0. -1.
    8880023    1    1    2    0    0 -0.32435680270E+03 -0.71872373338E+03 -0.10423577557E+03  0.10326889384E+04  0.65864270000E+03 0.  0.
    8880022    1    1    2    0    0  0.32435680270E+03  0.71872373338E+03 -0.97297370443E+03  0.12616816646E+04  0.15294330000E+03 0.  0.
<mgrwt>
<rscale>  0 0.96609104E+03</rscale>
<asrwt>0</asrwt>
<pdfrwt beam="1">  1        2 0.25935231E+00 0.10274149E+04</pdfrwt>
<pdfrwt beam="2">  1       -2 0.93627780E-01 0.10274149E+04</pdfrwt>
<totfact> 0.95781478E+00</totfact>
</mgrwt>
</event>
<event>
 4    5  0.6615028E-008  0.6672149E+03  0.7818608E-02  0.1017743E+00
         -2   -1    0    0    0  501 -0.00000000000E+00  0.00000000000E+00  0.89098203705E+03  0.89098203705E+03  0.25500000000E-02 0.  1.
          2   -1    0    0  501    0  0.00000000000E+00 -0.00000000000E+00 -0.14994830895E+04  0.14994830895E+04  0.25500000000E-02 0. -1.
    8880023    1    1    2    0    0  0.66218736128E+02 -0.83550084958E+02 -0.14140851966E+04  0.15635896800E+04  0.65864270000E+03 0.  0.
    8880022    1    1    2    0    0 -0.66218736128E+02  0.83550084958E+02  0.80558414420E+03  0.82687544655E+03  0.15294330000E+03 0.  1.
<mgrwt>
<rscale>  0 0.48509846E+03</rscale>
<asrwt>0</asrwt>
<pdfrwt beam="1">  1        2 0.23068971E+00 0.66721492E+03</pdfrwt>
<pdfrwt beam="2">  1       -2 0.13707416E+00 0.66721492E+03</pdfrwt>
<totfact> 0.50093289E+00</totfact>
</mgrwt>
</event>
<event>
 4    5  0.6615028E-008  0.7226744E+03  0.7818608E-02  0.9913639E-01
          2   -1    0    0  501    0  0.00000000000E+00  0.00000000000E+00  0.31955239827E+04  0.31955239827E+04  0.25500000000E-02 0. -1.
         -2   -1    0    0    0  501 -0.00000000000E+00 -0.00000000000E+00 -0.37302449496E+03  0.37302449497E+03  0.25500000000E-02 0.  1.
    8880023    1    1    2    0    0  0.27594910681E+03 -0.11090604317E+03  0.30690996015E+04  0.31530351457E+04  0.65864270000E+03 0. -1.
    8880022    1    1    2    0    0 -0.27594910681E+03  0.11090604317E+03 -0.24660011372E+03  0.41551333199E+03  0.15294330000E+03 0.  0.
<mgrwt>
<rscale>  0 0.59604837E+03</rscale>
<asrwt>0</asrwt>
<pdfrwt beam="1">  1        2 0.49161908E+00 0.72267438E+03</pdfrwt>
<pdfrwt beam="2">  1       -2 0.57388383E-01 0.72267438E+03</pdfrwt>
<totfact> 0.40092817E+00</totfact>
</mgrwt>
</event>
<event>
 4    5  0.6615028E-008  0.8563150E+03  0.7818608E-02  0.9600152E-01
         -2   -1    0    0    0  501 -0.00000000000E+00  0.00000000000E+00  0.11336654052E+04  0.11336654052E+04  0.25500000000E-02 0.  1.
          2   -1    0    0  501    0  0.00000000000E+00 -0.00000000000E+00 -0.99097294002E+03  0.99097294002E+03  0.25500000000E-02 0. -1.
    8880023    1    1    2    0    0 -0.51489799536E+03 -0.18532443347E+03 -0.70154560571E+03  0.11069966280E+04  0.65864270000E+03 0. -1.
    8880022    1    1    2    0    0  0.51489799536E+03  0.18532443347E+03  0.84423807086E+03  0.10176417172E+04  0.15294330000E+03 0.  0.
<mgrwt>
<rscale>  0 0.77286097E+03</rscale>
<asrwt>0</asrwt>
<pdfrwt beam="1">  1        2 0.15245738E+00 0.85631495E+03</pdfrwt>
<pdfrwt beam="2">  1       -2 0.17441006E+00 0.85631495E+03</pdfrwt>
<totfact> 0.50989031E+00</totfact>
</mgrwt>
</event>
<event>
 4    5  0.6615028E-008  0.9671421E+03  0.7818608E-02  0.9425868E-01
         -2   -1    0    0    0  501 -0.00000000000E+00  0.00000000000E+00  0.42317257641E+03  0.42317257642E+03  0.25500000000E-02 0.  1.
          2   -1    0    0  501    0  0.00000000000E+00 -0.00000000000E+00 -0.40290448445E+04  0.40290448445E+04  0.25500000000E-02 0. -1.
    8880023    1    1    2    0    0  0.12293492926E+02 -0.70809782406E+03 -0.36000145731E+04  0.37276626445E+04  0.65864270000E+03 0.  0.
    8880022    1    1    2    0    0 -0.12293492926E+02  0.70809782406E+03 -0.58576949769E+01  0.72455477641E+03  0.15294330000E+03 0.  0.
<mgrwt>
<rscale>  0 0.89977097E+03</rscale>
<asrwt>0</asrwt>
<pdfrwt beam="1">  1        2 0.61985303E+00 0.96714211E+03</pdfrwt>
<pdfrwt beam="2">  1       -2 0.65103476E-01 0.96714211E+03</pdfrwt>
<totfact> 0.74856397E-01</totfact>
</mgrwt>
</event>
<event>
 4    5  0.6615028E-008  0.6928936E+03  0.7818608E-02  0.1002806E+00
         -2   -1    0    0    0  501 -0.00000000000E+00  0.00000000000E+00  0.41472841564E+03  0.41472841565E+03  0.25500000000E-02 0.  1.
          2   -1    0    0  501    0  0.00000000000E+00 -0.00000000000E+00 -0.18821614562E+04  0.18821614562E+04  0.25500000000E-02 0. -1.
    8880023    1    1    2    0    0 -0.21511616948E+03  0.40536957209E+01 -0.17667708563E+04  0.18977831446E+04  0.65864270000E+03 0. -1.
    8880022    1    1    2    0    0  0.21511616948E+03 -0.40536957209E+01  0.29933781575E+03  0.39910672730E+03  0.15294330000E+03 0.  0.
<mgrwt>
<rscale>  0 0.54436580E+03</rscale>
<asrwt>0</asrwt>
<pdfrwt beam="1">  1        2 0.28956329E+00 0.69289365E+03</pdfrwt>
<pdfrwt beam="2">  1       -2 0.63804373E-01 0.69289365E+03</pdfrwt>
<totfact> 0.18358126E+01</totfact>
</mgrwt>
</event>
<event>
 4    5  0.6615028E-008  0.7778989E+03  0.7818608E-02  0.9760796E-01
          2   -1    0    0  501    0  0.00000000000E+00  0.00000000000E+00  0.17792074520E+04  0.17792074520E+04  0.25500000000E-02 0. -1.
         -2   -1    0    0    0  501 -0.00000000000E+00 -0.00000000000E+00 -0.32461173512E+03  0.32461173513E+03  0.25500000000E-02 0.  1.
    8880023    1    1    2    0    0 -0.40739844429E+03 -0.73096257922E+02  0.14690794301E+04  0.16623240158E+04  0.65864270000E+03 0. -1.
    8880022    1    1    2    0    0  0.40739844429E+03  0.73096257922E+02 -0.14483713241E+02  0.44149517131E+03  0.15294330000E+03 0.  0.
<mgrwt>
<rscale>  0 0.67509582E+03</rscale>
<asrwt>0</asrwt>
<pdfrwt beam="1">  1        2 0.27372423E+00 0.77789894E+03</pdfrwt>
<pdfrwt beam="2">  1       -2 0.49940267E-01 0.77789894E+03</pdfrwt>
<totfact> 0.34433494E+01</totfact>
</mgrwt>
</event>
<event>
 4    5  0.6615028E-008  0.1920301E+04  0.7818608E-02  0.8658756E-01
         -2   -1    0    0    0  501 -0.00000000000E+00  0.00000000000E+00  0.23354639685E+04  0.23354639685E+04  0.25500000000E-02 0.  1.
          2   -1    0    0  501    0  0.00000000000E+00 -0.00000000000E+00 -0.19493001001E+04  0.19493001001E+04  0.25500000000E-02 0. -1.
    8880023    1    1    2    0    0  0.16353301974E+04 -0.76121036646E+03 -0.84240687496E+03  0.20969515078E+04  0.65864270000E+03 0.  0.
    8880022    1    1    2    0    0 -0.16353301974E+04  0.76121036646E+03  0.12285707434E+04  0.21878125608E+04  0.15294330000E+03 0.  0.
<mgrwt>
<rscale>  0 0.18921860E+04</rscale>
<asrwt>0</asrwt>
<pdfrwt beam="1">  1        2 0.29989232E+00 0.19203011E+04</pdfrwt>
<pdfrwt beam="2">  1       -2 0.35930215E+00 0.19203011E+04</pdfrwt>
<totfact> 0.86760432E-02</totfact>
</mgrwt>
</event>
<event>
 4    5  0.6615028E-008  0.6797859E+03  0.7818608E-02  0.1009445E+00
         -2   -1    0    0    0  501 -0.00000000000E+00  0.00000000000E+00  0.42671405818E+03  0.42671405819E+03  0.25500000000E-02 0.  1.
          2   -1    0    0  501    0  0.00000000000E+00 -0.00000000000E+00 -0.20244016861E+04  0.20244016861E+04  0.25500000000E-02 0. -1.
    8880023    1    1    2    0    0 -0.10573314384E+03  0.13084023707E+03 -0.19312741196E+04  0.20474199854E+04  0.65864270000E+03 0. -1.
    8880022    1    1    2    0    0  0.10573314384E+03 -0.13084023707E+03  0.33358649165E+03  0.40369575892E+03  0.15294330000E+03 0.  0.
<mgrwt>
<rscale>  0 0.51695801E+03</rscale>
<asrwt>0</asrwt>
<pdfrwt beam="1">  1        2 0.31144641E+00 0.67978590E+03</pdfrwt>
<pdfrwt beam="2">  1       -2 0.65648318E-01 0.67978590E+03</pdfrwt>
<totfact> 0.14482681E+01</totfact>
</mgrwt>
</event>
<event>
 4    5  0.6615028E-008  0.8800177E+03  0.7818608E-02  0.9558902E-01
          2   -1    0    0  501    0  0.00000000000E+00  0.00000000000E+00  0.61416822828E+03  0.61416822829E+03  0.25500000000E-02 0. -1.
         -2   -1    0    0    0  501 -0.00000000000E+00 -0.00000000000E+00 -0.14440138444E+04  0.14440138444E+04  0.25500000000E-02 0.  1.
    8880023    1    1    2    0    0  0.15814679834E+03  0.56179218732E+03  0.16435548938E+03  0.89523393854E+03  0.65864270000E+03 0. -1.
    8880022    1    1    2    0    0 -0.15814679834E+03 -0.56179218732E+03 -0.99420110554E+03  0.11629481342E+04  0.15294330000E+03 0.  0.
<mgrwt>
<rscale>  0 0.80077053E+03</rscale>
<asrwt>0</asrwt>
<pdfrwt beam="1">  1        2 0.94487420E-01 0.88001766E+03</pdfrwt>
<pdfrwt beam="2">  1       -2 0.22215597E+00 0.88001766E+03</pdfrwt>
<totfact> 0.46556219E+00</totfact>
</mgrwt>
</event>
<event>
 4    5  0.6615028E-008  0.1196791E+04  0.7818608E-02  0.9160248E-01
         -2   -1    0    0    0  501 -0.00000000000E+00  0.00000000000E+00  0.52381345863E+03  0.52381345864E+03  0.25500000000E-02 0.  1.
          2   -1    0    0  501    0  0.00000000000E+00 -0.00000000000E+00 -0.35569060783E+04  0.35569060783E+04  0.25500000000E-02 0. -1.
    8880023    1    1    2    0    0  0.13077543475E+03  0.99065473889E+03 -0.27974932651E+04  0.30427418229E+04  0.65864270000E+03 0.  0.
    8880022    1    1    2    0    0 -0.13077543475E+03 -0.99065473889E+03 -0.23559935456E+03  0.10379777141E+04  0.15294330000E+03 0.  0.
<mgrwt>
<rscale>  0 0.11473326E+04</rscale>
<asrwt>0</asrwt>
<pdfrwt beam="1">  1        2 0.54721630E+00 0.11967912E+04</pdfrwt>
<pdfrwt beam="2">  1       -2 0.80586688E-01 0.11967912E+04</pdfrwt>
<totfact> 0.10129955E+00</totfact>
</mgrwt>
</event>
<event>
 4    5  0.7514046E-008  0.1157072E+04  0.7818608E-02  0.9200025E-01
         -2   -1    0    0    0  501 -0.00000000000E+00  0.00000000000E+00  0.13513948388E+04  0.13513948388E+04  0.25500000000E-02 0.  1.
          2   -1    0    0  501    0  0.00000000000E+00 -0.00000000000E+00 -0.21705978882E+04  0.21705978882E+04  0.25500000000E-02 0. -1.
    8880023    1    1    2    0    0  0.46171784678E+03 -0.83175846001E+03 -0.18046746823E+04  0.21437505501E+04  0.65864270000E+03 0. -1.
    8880022    1    1    2    0    0 -0.46171784678E+03  0.83175846001E+03  0.98547163298E+03  0.13782421769E+04  0.15294330000E+03 0.  0.
<mgrwt>
<rscale>  0 0.11053174E+04</rscale>
<asrwt>0</asrwt>
<pdfrwt beam="1">  1        2 0.33393814E+00 0.11570720E+04</pdfrwt>
<pdfrwt beam="2">  1       -2 0.20790690E+00 0.11570720E+04</pdfrwt>
<totfact> 0.61989562E-01</totfact>
</mgrwt>
</event>
<event>
 4    5  0.6615028E-008  0.1112226E+04  0.7818608E-02  0.9247565E-01
         -2   -1    0    0    0  501 -0.00000000000E+00  0.00000000000E+00  0.12934337087E+04  0.12934337087E+04  0.25500000000E-02 0.  1.
          2   -1    0    0  501    0  0.00000000000E+00 -0.00000000000E+00 -0.10448321519E+04  0.10448321519E+04  0.25500000000E-02 0. -1.
    8880023    1    1    2    0    0  0.31220083898E+03  0.84009946787E+03  0.70916549955E+03  0.13190763404E+04  0.65864270000E+03 0.  0.
    8880022    1    1    2    0    0 -0.31220083898E+03 -0.84009946787E+03 -0.46056394278E+03  0.10191895202E+04  0.15294330000E+03 0.  0.
<mgrwt>
<rscale>  0 0.10575686E+04</rscale>
<asrwt>0</asrwt>
<pdfrwt beam="1">  1        2 0.16074341E+00 0.11122260E+04</pdfrwt>
<pdfrwt beam="2">  1       -2 0.19898980E+00 0.11122260E+04</pdfrwt>
<totfact> 0.31228056E+00</totfact>
</mgrwt>
</event>
<event>
 4    5  0.6615028E-008  0.7174956E+03  0.7818608E-02  0.9931153E-01
         -2   -1    0    0    0  501 -0.00000000000E+00  0.00000000000E+00  0.78592917529E+03  0.78592917530E+03  0.25500000000E-02 0.  1.
          2   -1    0    0  501    0  0.00000000000E+00 -0.00000000000E+00 -0.33531077493E+04  0.33531077493E+04  0.25500000000E-02 0. -1.
    8880023    1    1    2    0    0 -0.27343397317E+03  0.78889493692E+02 -0.32793946103E+04  0.33569672185E+04  0.65864270000E+03 0. -1.
    8880022    1    1    2    0    0  0.27343397317E+03 -0.78889493692E+02  0.71221603626E+03  0.78206970611E+03  0.15294330000E+03 0.  0.
<mgrwt>
<rscale>  0 0.58774951E+03</rscale>
<asrwt>0</asrwt>
<pdfrwt beam="1">  1        2 0.51586272E+00 0.71749557E+03</pdfrwt>
<pdfrwt beam="2">  1       -2 0.12091218E+00 0.71749557E+03</pdfrwt>
<totfact> 0.58355316E-01</totfact>
</mgrwt>
</event>
<event>
 4    5  0.6615028E-008  0.8754543E+03  0.7818608E-02  0.9566643E-01
         -2   -1    0    0    0  501 -0.00000000000E+00  0.00000000000E+00  0.42491296091E+03  0.42491296091E+03  0.25500000000E-02 0.  1.
          2   -1    0    0  501    0  0.00000000000E+00 -0.00000000000E+00 -0.19762820643E+04  0.19762820643E+04  0.25500000000E-02 0. -1.
    8880023    1    1    2    0    0  0.54707156513E+03 -0.18254517214E+03 -0.15773070032E+04  0.18039727342E+04  0.65864270000E+03 0. -1.
    8880022    1    1    2    0    0 -0.54707156513E+03  0.18254517214E+03  0.25937899760E+02  0.59722229103E+03  0.15294330000E+03 0.  1.
<mgrwt>
<rscale>  0 0.79543852E+03</rscale>
<asrwt>0</asrwt>
<pdfrwt beam="1">  1        2 0.30404339E+00 0.87545431E+03</pdfrwt>
<pdfrwt beam="2">  1       -2 0.65371226E-01 0.87545431E+03</pdfrwt>
<totfact> 0.15108220E+01</totfact>
</mgrwt>
</event>
<event>
 4    5  0.6615028E-008  0.1205196E+04  0.7818608E-02  0.9152088E-01
          2   -1    0    0  501    0  0.00000000000E+00  0.00000000000E+00  0.14487502676E+04  0.14487502676E+04  0.25500000000E-02 0. -1.
         -2   -1    0    0    0  501 -0.00000000000E+00 -0.00000000000E+00 -0.21057722607E+04  0.21057722607E+04  0.25500000000E-02 0.  1.
    8880023    1    1    2    0    0 -0.98675958495E+03 -0.21211443845E+03  0.10282194879E+04  0.15842135383E+04  0.65864270000E+03 0. -1.
    8880022    1    1    2    0    0  0.98675958495E+03  0.21211443845E+03 -0.16852414810E+04  0.19703089899E+04  0.15294330000E+03 0.  0.
<mgrwt>
<rscale>  0 0.11561942E+04</rscale>
<asrwt>0</asrwt>
<pdfrwt beam="1">  1        2 0.22288466E+00 0.12051959E+04</pdfrwt>
<pdfrwt beam="2">  1       -2 0.32396496E+00 0.12051959E+04</pdfrwt>
<totfact> 0.30012413E-01</totfact>
</mgrwt>
</event>
<event>
 4    5  0.6615028E-008  0.7661645E+03  0.7818608E-02  0.9789402E-01
         -2   -1    0    0    0  501 -0.00000000000E+00  0.00000000000E+00  0.96497902283E+03  0.96497902283E+03  0.25500000000E-02 0.  1.
          2   -1    0    0  501    0  0.00000000000E+00 -0.00000000000E+00 -0.54212248298E+03  0.54212248298E+03  0.25500000000E-02 0. -1.
    8880023    1    1    2    0    0 -0.37065505672E+03 -0.12574830738E+03 -0.16574327590E+03  0.78388701205E+03  0.65864270000E+03 0. -1.
    8880022    1    1    2    0    0  0.37065505672E+03  0.12574830738E+03  0.58859981575E+03  0.72321449377E+03  0.15294330000E+03 0.  1.
<mgrwt>
<rscale>  0 0.65934408E+03</rscale>
<asrwt>0</asrwt>
<pdfrwt beam="1">  1        2 0.83403458E-01 0.76616448E+03</pdfrwt>
<pdfrwt beam="2">  1       -2 0.14845831E+00 0.76616448E+03</pdfrwt>
<totfact> 0.17458363E+01</totfact>
</mgrwt>
</event>
<event>
 4    5  0.6615028E-008  0.1134935E+04  0.7818608E-02  0.9223122E-01
         -2   -1    0    0    0  501 -0.00000000000E+00  0.00000000000E+00  0.38733470092E+03  0.38733470093E+03  0.25500000000E-02 0.  1.
          2   -1    0    0  501    0  0.00000000000E+00 -0.00000000000E+00 -0.32019306056E+04  0.32019306056E+04  0.25500000000E-02 0. -1.
    8880023    1    1    2    0    0  0.78534541472E+02  0.92092323304E+03 -0.21799763019E+04  0.24577172657E+04  0.65864270000E+03 0. -1.
    8880022    1    1    2    0    0 -0.78534541472E+02 -0.92092323304E+03 -0.63461960285E+03  0.11315480408E+04  0.15294330000E+03 0.  0.
<mgrwt>
<rscale>  0 0.10817925E+04</rscale>
<asrwt>0</asrwt>
<pdfrwt beam="1">  1        2 0.49260469E+00 0.11349350E+04</pdfrwt>
<pdfrwt beam="2">  1       -2 0.59589956E-01 0.11349350E+04</pdfrwt>
<totfact> 0.34272484E+00</totfact>
</mgrwt>
</event>
<event>
 4    5  0.6615028E-008  0.9885375E+03  0.7818608E-02  0.9396710E-01
         -2   -1    0    0    0  501 -0.00000000000E+00  0.00000000000E+00  0.18955297036E+04  0.18955297036E+04  0.25500000000E-02 0.  1.
          2   -1    0    0  501    0  0.00000000000E+00 -0.00000000000E+00 -0.72686076520E+03  0.72686076520E+03  0.25500000000E-02 0. -1.
    8880023    1    1    2    0    0  0.73583213416E+03 -0.44128003033E+02 -0.24705089610E+03  0.10189409020E+04  0.65864270000E+03 0.  0.
    8880022    1    1    2    0    0 -0.73583213416E+03  0.44128003033E+02  0.14157198345E+04  0.16034495667E+04  0.15294330000E+03 0.  0.
<mgrwt>
<rscale>  0 0.92346924E+03</rscale>
<asrwt>0</asrwt>
<pdfrwt beam="1">  1        2 0.11182473E+00 0.98853751E+03</pdfrwt>
<pdfrwt beam="2">  1       -2 0.29161995E+00 0.98853751E+03</pdfrwt>
<totfact> 0.14039089E+00</totfact>
</mgrwt>
</event>
<event>
 4    5  0.6615028E-008  0.1055964E+04  0.7818608E-02  0.9311747E-01
         -2   -1    0    0    0  501 -0.00000000000E+00  0.00000000000E+00  0.77828647738E+03  0.77828647738E+03  0.25500000000E-02 0.  1.
          2   -1    0    0  501    0  0.00000000000E+00 -0.00000000000E+00 -0.17607288958E+04  0.17607288958E+04  0.25500000000E-02 0. -1.
    8880023    1    1    2    0    0  0.35559613339E+03  0.74484911220E+03 -0.12700419699E+04  0.16516856909E+04  0.65864270000E+03 0.  1.
    8880022    1    1    2    0    0 -0.35559613339E+03 -0.74484911220E+03  0.28759955146E+03  0.88732968227E+03  0.15294330000E+03 0.  0.
<mgrwt>
<rscale>  0 0.99708606E+03</rscale>
<asrwt>0</asrwt>
<pdfrwt beam="1">  1        2 0.27088137E+00 0.10559635E+04</pdfrwt>
<pdfrwt beam="2">  1       -2 0.11973638E+00 0.10559635E+04</pdfrwt>
<totfact> 0.47953283E+00</totfact>
</mgrwt>
</event>
<event>
 4    5  0.6615028E-008  0.7133331E+03  0.7818608E-02  0.9945826E-01
         -2   -1    0    0    0  501 -0.00000000000E+00  0.00000000000E+00  0.44654162825E+03  0.44654162826E+03  0.25500000000E-02 0.  1.
          2   -1    0    0  501    0  0.00000000000E+00 -0.00000000000E+00 -0.14303844364E+04  0.14303844364E+04  0.25500000000E-02 0. -1.
    8880023    1    1    2    0    0  0.15797117273E+03  0.22378337941E+03 -0.12671978950E+04  0.14541783259E+04  0.65864270000E+03 0. -1.
    8880022    1    1    2    0    0 -0.15797117273E+03 -0.22378337941E+03  0.28335508685E+03  0.42274773870E+03  0.15294330000E+03 0.  0.
<mgrwt>
<rscale>  0 0.58090853E+03</rscale>
<asrwt>0</asrwt>
<pdfrwt beam="1">  1        2 0.22005914E+00 0.71333309E+03</pdfrwt>
<pdfrwt beam="2">  1       -2 0.68698712E-01 0.71333309E+03</pdfrwt>
<totfact> 0.27643100E+01</totfact>
</mgrwt>
</event>
<event>
 4    5  0.6615028E-008  0.1090371E+04  0.7818608E-02  0.9271853E-01
         -2   -1    0    0    0  501 -0.00000000000E+00  0.00000000000E+00  0.14698902754E+04  0.14698902754E+04  0.25500000000E-02 0.  1.
          2   -1    0    0  501    0  0.00000000000E+00 -0.00000000000E+00 -0.14127328694E+04  0.14127328694E+04  0.25500000000E-02 0. -1.
    8880023    1    1    2    0    0 -0.46717642077E+03  0.73269674369E+03 -0.10180381415E+04  0.14917473614E+04  0.65864270000E+03 0.  0.
    8880022    1    1    2    0    0  0.46717642077E+03 -0.73269674369E+03  0.10751955475E+04  0.13908757834E+04  0.15294330000E+03 0.  0.
<mgrwt>
<rscale>  0 0.10341589E+04</rscale>
<asrwt>0</asrwt>
<pdfrwt beam="1">  1        2 0.21734352E+00 0.10903708E+04</pdfrwt>
<pdfrwt beam="2">  1       -2 0.22613697E+00 0.10903708E+04</pdfrwt>
<totfact> 0.12650615E+00</totfact>
</mgrwt>
</event>
<event>
 4    5  0.6615028E-008  0.1119824E+04  0.7818608E-02  0.9239299E-01
         -2   -1    0    0    0  501 -0.00000000000E+00  0.00000000000E+00  0.87107252453E+03  0.87107252453E+03  0.25500000000E-02 0.  1.
          2   -1    0    0  501    0  0.00000000000E+00 -0.00000000000E+00 -0.48073877872E+04  0.48073877872E+04  0.25500000000E-02 0. -1.
    8880023    1    1    2    0    0 -0.69086362982E+03 -0.58557898338E+03 -0.44754672956E+04  0.46134383080E+04  0.65864270000E+03 0. -1.
    8880022    1    1    2    0    0  0.69086362982E+03  0.58557898338E+03  0.53915203298E+03  0.10650220037E+04  0.15294330000E+03 0.  0.
<mgrwt>
<rscale>  0 0.10656842E+04</rscale>
<asrwt>0</asrwt>
<pdfrwt beam="1">  1        2 0.73959810E+00 0.11198239E+04</pdfrwt>
<pdfrwt beam="2">  1       -2 0.13401116E+00 0.11198239E+04</pdfrwt>
<totfact> 0.24791145E-02</totfact>
</mgrwt>
</event>
<event>
 4    5  0.6615028E-008  0.7400712E+03  0.7818608E-02  0.9859740E-01
         -2   -1    0    0    0  501 -0.00000000000E+00  0.00000000000E+00  0.99716187977E+03  0.99716187977E+03  0.25500000000E-02 0.  1.
          2   -1    0    0  501    0  0.00000000000E+00 -0.00000000000E+00 -0.64637309659E+03  0.64637309659E+03  0.25500000000E-02 0. -1.
    8880023    1    1    2    0    0  0.33030346977E+03 -0.69244878007E+02 -0.37424130554E+03  0.82931417226E+03  0.65864270000E+03 0.  0.
    8880022    1    1    2    0    0 -0.33030346977E+03  0.69244878007E+02  0.72503008872E+03  0.81422080411E+03  0.15294330000E+03 0.  1.
<mgrwt>
<rscale>  0 0.62252784E+03</rscale>
<asrwt>0</asrwt>
<pdfrwt beam="1">  1        2 0.99442015E-01 0.74007124E+03</pdfrwt>
<pdfrwt beam="2">  1       -2 0.15340952E+00 0.74007124E+03</pdfrwt>
<totfact> 0.12982618E+01</totfact>
</mgrwt>
</event>
<event>
 4    5  0.6615028E-008  0.7105564E+03  0.7818608E-02  0.9955941E-01
          2   -1    0    0  501    0  0.00000000000E+00  0.00000000000E+00  0.17753733935E+04  0.17753733935E+04  0.25500000000E-02 0. -1.
         -2   -1    0    0    0  501 -0.00000000000E+00 -0.00000000000E+00 -0.18614270942E+03  0.18614270944E+03  0.25500000000E-02 0.  1.
    8880023    1    1    2    0    0  0.10408134013E+03  0.24545311124E+03  0.14683464048E+04  0.16312361956E+04  0.65864270000E+03 0.  0.
    8880022    1    1    2    0    0 -0.10408134013E+03 -0.24545311124E+03  0.12088427927E+03  0.33027990730E+03  0.15294330000E+03 0.  0.
<mgrwt>
<rscale>  0 0.57625099E+03</rscale>
<asrwt>0</asrwt>
<pdfrwt beam="1">  1        2 0.27313438E+00 0.71055637E+03</pdfrwt>
<pdfrwt beam="2">  1       -2 0.28637339E-01 0.71055637E+03</pdfrwt>
<totfact> 0.10213124E+02</totfact>
</mgrwt>
</event>
<event>
 4    5  0.6615028E-008  0.6850054E+03  0.7818608E-02  0.1006623E+00
         -2   -1    0    0    0  501 -0.00000000000E+00  0.00000000000E+00  0.12814932575E+04  0.12814932575E+04  0.25500000000E-02 0.  1.
          2   -1    0    0  501    0  0.00000000000E+00 -0.00000000000E+00 -0.14279156039E+04  0.14279156039E+04  0.25500000000E-02 0. -1.
    8880023    1    1    2    0    0 -0.43839205242E+02  0.18303082942E+03 -0.13327834452E+04  0.14985139567E+04  0.65864270000E+03 0. -1.
    8880022    1    1    2    0    0  0.43839205242E+02 -0.18303082942E+03  0.11863610988E+04  0.12108949046E+04  0.15294330000E+03 0.  0.
<mgrwt>
<rscale>  0 0.52839099E+03</rscale>
<asrwt>0</asrwt>
<pdfrwt beam="1">  1        2 0.21967932E+00 0.68500538E+03</pdfrwt>
<pdfrwt beam="2">  1       -2 0.19715281E+00 0.68500538E+03</pdfrwt>
<totfact> 0.20200012E+00</totfact>
</mgrwt>
</event>
<event>
 4    5  0.6615028E-008  0.1266762E+04  0.7818608E-02  0.9094808E-01
          2   -1    0    0  501    0  0.00000000000E+00  0.00000000000E+00  0.15090876864E+04  0.15090876864E+04  0.25500000000E-02 0. -1.
         -2   -1    0    0    0  501 -0.00000000000E+00 -0.00000000000E+00 -0.10389670988E+04  0.10389670988E+04  0.25500000000E-02 0.  1.
    8880023    1    1    2    0    0 -0.10790540326E+04 -0.80740482215E+02  0.67623758353E+03  0.14359610393E+04  0.65864270000E+03 0. -1.
    8880022    1    1    2    0    0  0.10790540326E+04  0.80740482215E+02 -0.20611699591E+03  0.11120937459E+04  0.15294330000E+03 0.  0.
<mgrwt>
<rscale>  0 0.12208410E+04</rscale>
<asrwt>0</asrwt>
<pdfrwt beam="1">  1        2 0.23216734E+00 0.12667623E+04</pdfrwt>
<pdfrwt beam="2">  1       -2 0.15984109E+00 0.12667623E+04</pdfrwt>
<totfact> 0.30578997E+00</totfact>
</mgrwt>
</event>
<event>
 4    5  0.6615028E-008  0.8277307E+03  0.7818608E-02  0.9653764E-01
         -2   -1    0    0    0  501 -0.00000000000E+00  0.00000000000E+00  0.72902227329E+03  0.72902227329E+03  0.25500000000E-02 0.  1.
          2   -1    0    0  501    0  0.00000000000E+00 -0.00000000000E+00 -0.12731847233E+04  0.12731847233E+04  0.25500000000E-02 0. -1.
    8880023    1    1    2    0    0 -0.31087128124E+03  0.39330269311E+03 -0.10066075136E+04  0.13032255578E+04  0.65864270000E+03 0. -1.
    8880022    1    1    2    0    0  0.31087128124E+03 -0.39330269311E+03  0.46244506357E+03  0.69898143877E+03  0.15294330000E+03 0.  0.
<mgrwt>
<rscale>  0 0.73837676E+03</rscale>
<asrwt>0</asrwt>
<pdfrwt beam="1">  1        2 0.19587457E+00 0.82773073E+03</pdfrwt>
<pdfrwt beam="2">  1       -2 0.11215727E+00 0.82773073E+03</pdfrwt>
<totfact> 0.10864019E+01</totfact>
</mgrwt>
</event>
<event>
 4    5  0.6615028E-008  0.8278492E+03  0.7818608E-02  0.9653532E-01
         -2   -1    0    0    0  501 -0.00000000000E+00  0.00000000000E+00  0.11467181667E+04  0.11467181667E+04  0.25500000000E-02 0.  1.
          2   -1    0    0  501    0  0.00000000000E+00 -0.00000000000E+00 -0.12118226422E+04  0.12118226422E+04  0.25500000000E-02 0. -1.
    8880023    1    1    2    0    0  0.46224512196E+03 -0.19455999228E+03 -0.99295851839E+03  0.12927880603E+04  0.65864270000E+03 0. -1.
    8880022    1    1    2    0    0 -0.46224512196E+03  0.19455999228E+03  0.92785404290E+03  0.10657527487E+04  0.15294330000E+03 0.  0.
<mgrwt>
<rscale>  0 0.73852194E+03</rscale>
<asrwt>0</asrwt>
<pdfrwt beam="1">  1        2 0.18643425E+00 0.82784923E+03</pdfrwt>
<pdfrwt beam="2">  1       -2 0.17641818E+00 0.82784923E+03</pdfrwt>
<totfact> 0.36237670E+00</totfact>
</mgrwt>
</event>
<event>
 4    5  0.6615028E-008  0.9469871E+03  0.7818608E-02  0.9454462E-01
         -2   -1    0    0    0  501 -0.00000000000E+00  0.00000000000E+00  0.71202587463E+03  0.71202587464E+03  0.25500000000E-02 0.  1.
          2   -1    0    0  501    0  0.00000000000E+00 -0.00000000000E+00 -0.30028583162E+04  0.30028583162E+04  0.25500000000E-02 0. -1.
    8880023    1    1    2    0    0  0.49628019551E+03  0.46548940441E+03 -0.27307749947E+04  0.28903142902E+04  0.65864270000E+03 0. -1.
    8880022    1    1    2    0    0 -0.49628019551E+03 -0.46548940441E+03  0.43994255311E+03  0.82456990069E+03  0.15294330000E+03 0.  0.
<mgrwt>
<rscale>  0 0.87726028E+03</rscale>
<asrwt>0</asrwt>
<pdfrwt beam="1">  1        2 0.46197819E+00 0.94698713E+03</pdfrwt>
<pdfrwt beam="2">  1       -2 0.10954244E+00 0.94698713E+03</pdfrwt>
<totfact> 0.11830416E+00</totfact>
</mgrwt>
</event>
<event>
 4    5  0.6615028E-008  0.7479039E+03  0.7818608E-02  0.9837494E-01
         -2   -1    0    0    0  501 -0.00000000000E+00  0.00000000000E+00  0.42916187153E+03  0.42916187154E+03  0.25500000000E-02 0.  1.
          2   -1    0    0  501    0  0.00000000000E+00 -0.00000000000E+00 -0.18100729984E+04  0.18100729984E+04  0.25500000000E-02 0. -1.
    8880023    1    1    2    0    0 -0.25326255434E+03 -0.24780647165E+03 -0.16206532076E+04  0.17849025168E+04  0.65864270000E+03 0. -1.
    8880022    1    1    2    0    0  0.25326255434E+03  0.24780647165E+03  0.23974208075E+03  0.45433235315E+03  0.15294330000E+03 0.  0.
<mgrwt>
<rscale>  0 0.63388626E+03</rscale>
<asrwt>0</asrwt>
<pdfrwt beam="1">  1        2 0.27847277E+00 0.74790385E+03</pdfrwt>
<pdfrwt beam="2">  1       -2 0.66024904E-01 0.74790385E+03</pdfrwt>
<totfact> 0.18527074E+01</totfact>
</mgrwt>
</event>
<event>
 4    5  0.6615028E-008  0.7517043E+03  0.7818608E-02  0.9827078E-01
         -2   -1    0    0    0  501 -0.00000000000E+00  0.00000000000E+00  0.38398056211E+03  0.38398056212E+03  0.25500000000E-02 0.  1.
          2   -1    0    0  501    0  0.00000000000E+00 -0.00000000000E+00 -0.11982753324E+04  0.11982753324E+04  0.25500000000E-02 0. -1.
    8880023    1    1    2    0    0  0.17758591756E+03  0.31577278422E+03 -0.90722193379E+03  0.11781812479E+04  0.65864270000E+03 0. -1.
    8880022    1    1    2    0    0 -0.17758591756E+03 -0.31577278422E+03  0.92927163492E+02  0.40407464669E+03  0.15294330000E+03 0.  0.
<mgrwt>
<rscale>  0 0.63929429E+03</rscale>
<asrwt>0</asrwt>
<pdfrwt beam="1">  1        2 0.18435005E+00 0.75170434E+03</pdfrwt>
<pdfrwt beam="2">  1       -2 0.59073933E-01 0.75170434E+03</pdfrwt>
<totfact> 0.51702305E+01</totfact>
</mgrwt>
</event>
<event>
 4    5  0.6615028E-008  0.1192735E+04  0.7818608E-02  0.9164217E-01
          2   -1    0    0  501    0  0.00000000000E+00  0.00000000000E+00  0.12697155888E+04  0.12697155888E+04  0.25500000000E-02 0. -1.
         -2   -1    0    0    0  501 -0.00000000000E+00 -0.00000000000E+00 -0.19638312540E+04  0.19638312540E+04  0.25500000000E-02 0.  1.
    8880023    1    1    2    0    0 -0.95642208602E+03 -0.27214617020E+03 -0.15198583948E+04  0.19319902927E+04  0.65864270000E+03 0.  1.
    8880022    1    1    2    0    0  0.95642208602E+03  0.27214617020E+03  0.82574272957E+03  0.13015565501E+04  0.15294330000E+03 0.  0.
<mgrwt>
<rscale>  0 0.11430526E+04</rscale>
<asrwt>0</asrwt>
<pdfrwt beam="1">  1        2 0.19534086E+00 0.11927351E+04</pdfrwt>
<pdfrwt beam="2">  1       -2 0.30212788E+00 0.11927351E+04</pdfrwt>
<totfact> 0.51914191E-01</totfact>
</mgrwt>
</event>
<event>
 4    5  0.6615028E-008  0.1125372E+04  0.7818608E-02  0.9233319E-01
          2   -1    0    0  501    0  0.00000000000E+00  0.00000000000E+00  0.32276081130E+03  0.32276081131E+03  0.25500000000E-02 0. -1.
         -2   -1    0    0    0  501 -0.00000000000E+00 -0.00000000000E+00 -0.44266236351E+04  0.44266236351E+04  0.25500000000E-02 0.  1.
    8880023    1    1    2    0    0  0.66032715667E+03  0.62977838750E+03 -0.98292915134E+03  0.14941929909E+04  0.65864270000E+03 0. -1.
    8880022    1    1    2    0    0 -0.66032715667E+03 -0.62977838750E+03 -0.31209336724E+04  0.32551914555E+04  0.15294330000E+03 0.  0.
<mgrwt>
<rscale>  0 0.10716038E+04</rscale>
<asrwt>0</asrwt>
<pdfrwt beam="1">  1        2 0.49655513E-01 0.11253724E+04</pdfrwt>
<pdfrwt beam="2">  1       -2 0.68101898E+00 0.11253724E+04</pdfrwt>
<totfact> 0.26439622E-02</totfact>
</mgrwt>
</event>
<event>
 4    5  0.6615028E-008  0.8912150E+03  0.7818608E-02  0.9540284E-01
         -2   -1    0    0    0  501 -0.00000000000E+00  0.00000000000E+00  0.13304805084E+04  0.13304805084E+04  0.25500000000E-02 0.  1.
          2   -1    0    0  501    0  0.00000000000E+00 -0.00000000000E+00 -0.10673941504E+04  0.10673941504E+04  0.25500000000E-02 0. -1.
    8880023    1    1    2    0    0 -0.31810330619E+03  0.50918002765E+03 -0.78021398119E+03  0.11844821977E+04  0.65864270000E+03 0. -1.
    8880022    1    1    2    0    0  0.31810330619E+03 -0.50918002765E+03  0.10433003392E+04  0.12133924611E+04  0.15294330000E+03 0.  0.
<mgrwt>
<rscale>  0 0.81377896E+03</rscale>
<asrwt>0</asrwt>
<pdfrwt beam="1">  1        2 0.16421448E+00 0.89121502E+03</pdfrwt>
<pdfrwt beam="2">  1       -2 0.20468931E+00 0.89121502E+03</pdfrwt>
<totfact> 0.28449706E+00</totfact>
</mgrwt>
</event>
<event>
 4    5  0.6615028E-008  0.7970685E+03  0.7818608E-02  0.9717171E-01
          2   -1    0    0  501    0  0.00000000000E+00  0.00000000000E+00  0.18785172478E+04  0.18785172478E+04  0.25500000000E-02 0. -1.
         -2   -1    0    0    0  501 -0.00000000000E+00 -0.00000000000E+00 -0.53625371098E+03  0.53625371099E+03  0.25500000000E-02 0.  1.
    8880023    1    1    2    0    0 -0.38908893082E+03 -0.22387012781E+03  0.16617052179E+04  0.18429819499E+04  0.65864270000E+03 0. -1.
    8880022    1    1    2    0    0  0.38908893082E+03  0.22387012781E+03 -0.31944168099E+03  0.57178900897E+03  0.15294330000E+03 0.  0.
<mgrwt>
<rscale>  0 0.70003596E+03</rscale>
<asrwt>0</asrwt>
<pdfrwt beam="1">  1        2 0.28900266E+00 0.79706853E+03</pdfrwt>
<pdfrwt beam="2">  1       -2 0.82500570E-01 0.79706853E+03</pdfrwt>
<totfact> 0.10321729E+01</totfact>
</mgrwt>
</event>
<event>
 4    5  0.6615028E-008  0.7388682E+03  0.7818608E-02  0.9863256E-01
          2   -1    0    0  501    0  0.00000000000E+00  0.00000000000E+00  0.38414066455E+04  0.38414066455E+04  0.25500000000E-02 0. -1.
         -2   -1    0    0    0  501 -0.00000000000E+00 -0.00000000000E+00 -0.52082801990E+03  0.52082801991E+03  0.25500000000E-02 0.  1.
    8880023    1    1    2    0    0 -0.31541185616E+03  0.11238912635E+03  0.37353179972E+04  0.38076930944E+04  0.65864270000E+03 0.  0.
    8880022    1    1    2    0    0  0.31541185616E+03 -0.11238912635E+03 -0.41473937153E+03  0.55454157107E+03  0.15294330000E+03 0.  1.
<mgrwt>
<rscale>  0 0.62075564E+03</rscale>
<asrwt>0</asrwt>
<pdfrwt beam="1">  1        2 0.59098565E+00 0.73886816E+03</pdfrwt>
<pdfrwt beam="2">  1       -2 0.80127386E-01 0.73886816E+03</pdfrwt>
<totfact> 0.69686460E-01</totfact>
</mgrwt>
</event>
<event>
 4    5  0.6615028E-008  0.8554420E+03  0.7818608E-02  0.9601723E-01
          2   -1    0    0  501    0  0.00000000000E+00  0.00000000000E+00  0.11626056548E+04  0.11626056548E+04  0.25500000000E-02 0. -1.
         -2   -1    0    0    0  501 -0.00000000000E+00 -0.00000000000E+00 -0.10294247728E+04  0.10294247728E+04  0.25500000000E-02 0.  1.
    8880023    1    1    2    0    0 -0.40192510404E+03 -0.36936027563E+03  0.89786317786E+03  0.12401368049E+04  0.65864270000E+03 0. -1.
    8880022    1    1    2    0    0  0.40192510404E+03  0.36936027563E+03 -0.76468229580E+03  0.95189362273E+03  0.15294330000E+03 0.  0.
<mgrwt>
<rscale>  0 0.77182229E+03</rscale>
<asrwt>0</asrwt>
<pdfrwt beam="1">  1        2 0.17886241E+00 0.85544200E+03</pdfrwt>
<pdfrwt beam="2">  1       -2 0.15837304E+00 0.85544200E+03</pdfrwt>
<totfact> 0.52047451E+00</totfact>
</mgrwt>
</event>
<event>
 4    5  0.6615028E-008  0.8201315E+03  0.7818608E-02  0.9668847E-01
         -2   -1    0    0    0  501 -0.00000000000E+00  0.00000000000E+00  0.13819860324E+04  0.13819860324E+04  0.25500000000E-02 0.  1.
          2   -1    0    0  501    0  0.00000000000E+00 -0.00000000000E+00 -0.17077719905E+04  0.17077719905E+04  0.25500000000E-02 0. -1.
    8880023    1    1    2    0    0 -0.41110056355E+03  0.26420018450E+03 -0.15550741882E+04  0.17580874119E+04  0.65864270000E+03 0. -1.
    8880022    1    1    2    0    0  0.41110056355E+03 -0.26420018450E+03  0.12292882301E+04  0.13316706111E+04  0.15294330000E+03 0.  0.
<mgrwt>
<rscale>  0 0.72902275E+03</rscale>
<asrwt>0</asrwt>
<pdfrwt beam="1">  1        2 0.26273415E+00 0.82013146E+03</pdfrwt>
<pdfrwt beam="2">  1       -2 0.21261324E+00 0.82013146E+03</pdfrwt>
<totfact> 0.10967757E+00</totfact>
</mgrwt>
</event>
<event>
 4    5  0.6615028E-008  0.7456295E+03  0.7818608E-02  0.9843842E-01
          2   -1    0    0  501    0  0.00000000000E+00  0.00000000000E+00  0.17827350420E+04  0.17827350420E+04  0.25500000000E-02 0. -1.
         -2   -1    0    0    0  501 -0.00000000000E+00 -0.00000000000E+00 -0.20147240873E+03  0.20147240874E+03  0.25500000000E-02 0.  1.
    8880023    1    1    2    0    0  0.29551551718E+03  0.18661128651E+03  0.13380366981E+04  0.15317655189E+04  0.65864270000E+03 0.  0.
    8880022    1    1    2    0    0 -0.29551551718E+03 -0.18661128651E+03  0.24322593517E+03  0.45244193186E+03  0.15294330000E+03 0.  0.
<mgrwt>
<rscale>  0 0.63061882E+03</rscale>
<asrwt>0</asrwt>
<pdfrwt beam="1">  1        2 0.27426692E+00 0.74562953E+03</pdfrwt>
<pdfrwt beam="2">  1       -2 0.30995756E-01 0.74562953E+03</pdfrwt>
<totfact> 0.87072829E+01</totfact>
</mgrwt>
</event>
<event>
 4    5  0.6713961E-008  0.6698489E+03  0.7818608E-02  0.1015771E+00
          2   -1    0    0  501    0  0.00000000000E+00  0.00000000000E+00  0.17026930106E+04  0.17026930106E+04  0.25500000000E-02 0. -1.
         -2   -1    0    0    0  501 -0.00000000000E+00 -0.00000000000E+00 -0.97573790397E+03  0.97573790398E+03  0.25500000000E-02 0.  1.
    8880023    1    1    2    0    0 -0.11450457431E+03  0.42143712204E+02  0.16258801530E+04  0.17584606530E+04  0.65864270000E+03 0. -1.
    8880022    1    1    2    0    0  0.11450457431E+03 -0.42143712204E+02 -0.89892504641E+03  0.91997026153E+03  0.15294330000E+03 0.  0.
<mgrwt>
<rscale>  0 0.49243939E+03</rscale>
<asrwt>0</asrwt>
<pdfrwt beam="1">  1        2 0.26195277E+00 0.66984894E+03</pdfrwt>
<pdfrwt beam="2">  1       -2 0.15011352E+00 0.66984894E+03</pdfrwt>
<totfact> 0.30559664E+00</totfact>
</mgrwt>
</event>
<event>
 4    5  0.6615028E-008  0.7881276E+03  0.7818608E-02  0.9737080E-01
         -2   -1    0    0    0  501 -0.00000000000E+00  0.00000000000E+00  0.10047488844E+04  0.10047488844E+04  0.25500000000E-02 0.  1.
          2   -1    0    0  501    0  0.00000000000E+00 -0.00000000000E+00 -0.69193316288E+03  0.69193316289E+03  0.25500000000E-02 0. -1.
    8880023    1    1    2    0    0  0.42877094731E+03 -0.59079961818E+02 -0.37258322585E+03  0.87175881619E+03  0.65864270000E+03 0.  0.
    8880022    1    1    2    0    0 -0.42877094731E+03  0.59079961818E+02  0.68539894738E+03  0.82492323111E+03  0.15294330000E+03 0.  0.
<mgrwt>
<rscale>  0 0.68851331E+03</rscale>
<asrwt>0</asrwt>
<pdfrwt beam="1">  1        2 0.10645126E+00 0.78812764E+03</pdfrwt>
<pdfrwt beam="2">  1       -2 0.15457675E+00 0.78812764E+03</pdfrwt>
<totfact> 0.11630930E+01</totfact>
</mgrwt>
</event>
<event>
 4    5  0.6615028E-008  0.7307238E+03  0.7818608E-02  0.9887842E-01
          2   -1    0    0  501    0  0.00000000000E+00  0.00000000000E+00  0.13400669854E+04  0.13400669854E+04  0.25500000000E-02 0. -1.
         -2   -1    0    0    0  501 -0.00000000000E+00 -0.00000000000E+00 -0.55586092094E+03  0.55586092094E+03  0.25500000000E-02 0.  1.
    8880023    1    1    2    0    0  0.27141878863E+03 -0.16272342871E+03  0.11665883943E+04  0.13765484957E+04  0.65864270000E+03 0.  0.
    8880022    1    1    2    0    0 -0.27141878863E+03  0.16272342871E+03 -0.38238232979E+03  0.51937941067E+03  0.15294330000E+03 0.  0.
<mgrwt>
<rscale>  0 0.60854168E+03</rscale>
<asrwt>0</asrwt>
<pdfrwt beam="1">  1        2 0.20616415E+00 0.73072381E+03</pdfrwt>
<pdfrwt beam="2">  1       -2 0.85517066E-01 0.73072381E+03</pdfrwt>
<totfact> 0.19059093E+01</totfact>
</mgrwt>
</event>
<event>
 4    5  0.6615028E-008  0.1082844E+04  0.7818608E-02  0.9280402E-01
          2   -1    0    0  501    0  0.00000000000E+00  0.00000000000E+00  0.10914191940E+04  0.10914191940E+04  0.25500000000E-02 0. -1.
         -2   -1    0    0    0  501 -0.00000000000E+00 -0.00000000000E+00 -0.12292256352E+04  0.12292256352E+04  0.25500000000E-02 0.  1.
    8880023    1    1    2    0    0 -0.85577735968E+03 -0.79906731629E+02  0.54506767356E+03  0.12122907861E+04  0.65864270000E+03 0.  0.
    8880022    1    1    2    0    0  0.85577735968E+03  0.79906731629E+02 -0.68287411482E+03  0.11083540431E+04  0.15294330000E+03 0.  0.
<mgrwt>
<rscale>  0 0.10260725E+04</rscale>
<asrwt>0</asrwt>
<pdfrwt beam="1">  1        2 0.16791065E+00 0.10828436E+04</pdfrwt>
<pdfrwt beam="2">  1       -2 0.18911164E+00 0.10828436E+04</pdfrwt>
<totfact> 0.34066304E+00</totfact>
</mgrwt>
</event>
<event>
 4    5  0.6615028E-008  0.6999559E+03  0.7818608E-02  0.9997384E-01
          2   -1    0    0  501    0  0.00000000000E+00  0.00000000000E+00  0.10037174898E+04  0.10037174898E+04  0.25500000000E-02 0. -1.
         -2   -1    0    0    0  501 -0.00000000000E+00 -0.00000000000E+00 -0.37720649744E+03  0.37720649745E+03  0.25500000000E-02 0.  1.
    8880023    1    1    2    0    0  0.12592448329E+02 -0.23657867638E+03  0.78958886799E+03  0.10551724156E+04  0.65864270000E+03 0.  0.
    8880022    1    1    2    0    0 -0.12592448329E+02  0.23657867638E+03 -0.16307787567E+03  0.32575157163E+03  0.15294330000E+03 0.  0.
<mgrwt>
<rscale>  0 0.55765081E+03</rscale>
<asrwt>0</asrwt>
<pdfrwt beam="1">  1        2 0.15441807E+00 0.69995589E+03</pdfrwt>
<pdfrwt beam="2">  1       -2 0.58031770E-01 0.69995589E+03</pdfrwt>
<totfact> 0.70928470E+01</totfact>
</mgrwt>
</event>
<event>
 4    5  0.6615028E-008  0.1214635E+04  0.7818608E-02  0.9143026E-01
          2   -1    0    0  501    0  0.00000000000E+00  0.00000000000E+00  0.19683630159E+04  0.19683630159E+04  0.25500000000E-02 0. -1.
         -2   -1    0    0    0  501 -0.00000000000E+00 -0.00000000000E+00 -0.73892416956E+03  0.73892416957E+03  0.25500000000E-02 0.  1.
    8880023    1    1    2    0    0  0.46751394685E+03 -0.90717089586E+03  0.11493617867E+04  0.16722353446E+04  0.65864270000E+03 0. -1.
    8880022    1    1    2    0    0 -0.46751394685E+03  0.90717089586E+03  0.80077059678E+02  0.10350518409E+04  0.15294330000E+03 0.  0.
<mgrwt>
<rscale>  0 0.11661355E+04</rscale>
<asrwt>0</asrwt>
<pdfrwt beam="1">  1        2 0.30282507E+00 0.12146351E+04</pdfrwt>
<pdfrwt beam="2">  1       -2 0.11368064E+00 0.12146351E+04</pdfrwt>
<totfact> 0.41162141E+00</totfact>
</mgrwt>
</event>
<event>
 4    5  0.2117746E-007  0.1952467E+04  0.7818608E-02  0.8642578E-01
          2   -1    0    0  501    0  0.00000000000E+00  0.00000000000E+00  0.38011646162E+04  0.38011646162E+04  0.25500000000E-02 0. -1.
         -2   -1    0    0    0  501 -0.00000000000E+00 -0.00000000000E+00 -0.22898181769E+04  0.22898181769E+04  0.25500000000E-02 0.  1.
    8880023    1    1    2    0    0  0.18278153295E+04  0.19341435115E+03  0.30954070106E+04  0.36597367060E+04  0.65864270000E+03 0.  0.
    8880022    1    1    2    0    0 -0.18278153295E+04 -0.19341435115E+03 -0.15840605712E+04  0.24312460871E+04  0.15294330000E+03 0.  0.
<mgrwt>
<rscale>  0 0.19248636E+04</rscale>
<asrwt>0</asrwt>
<pdfrwt beam="1">  1        2 0.58479455E+00 0.19524672E+04</pdfrwt>
<pdfrwt beam="2">  1       -2 0.35227972E+00 0.19524672E+04</pdfrwt>
<totfact> 0.65571572E-03</totfact>
</mgrwt>
</event>
<event>
 4    5  0.6615028E-008  0.8298529E+03  0.7818608E-02  0.9649619E-01
          2   -1    0    0  501    0  0.00000000000E+00  0.00000000000E+00  0.11936839290E+04  0.11936839290E+04  0.25500000000E-02 0. -1.
         -2   -1    0    0    0  501 -0.00000000000E+00 -0.00000000000E+00 -0.72555664335E+03  0.72555664335E+03  0.25500000000E-02 0.  1.
    8880023    1    1    2    0    0  0.35194941331E+03 -0.36190773984E+03  0.90968786195E+03  0.12313357845E+04  0.65864270000E+03 0.  0.
    8880022    1    1    2    0    0 -0.35194941331E+03  0.36190773984E+03 -0.44156057628E+03  0.68790478790E+03  0.15294330000E+03 0.  0.
<mgrwt>
<rscale>  0 0.74097361E+03</rscale>
<asrwt>0</asrwt>
<pdfrwt beam="1">  1        2 0.18364368E+00 0.82985288E+03</pdfrwt>
<pdfrwt beam="2">  1       -2 0.11162410E+00 0.82985288E+03</pdfrwt>
<totfact> 0.12237828E+01</totfact>
</mgrwt>
</event>
<event>
 4    5  0.6615028E-008  0.1127163E+04  0.7818608E-02  0.9231400E-01
          2   -1    0    0  501    0  0.00000000000E+00  0.00000000000E+00  0.24509740031E+04  0.24509740031E+04  0.25500000000E-02 0. -1.
         -2   -1    0    0    0  501 -0.00000000000E+00 -0.00000000000E+00 -0.58544801877E+03  0.58544801877E+03  0.25500000000E-02 0.  1.
    8880023    1    1    2    0    0 -0.79777594590E+03  0.44748155962E+03  0.17776237824E+04  0.21048616877E+04  0.65864270000E+03 0. -1.
    8880022    1    1    2    0    0  0.79777594590E+03 -0.44748155962E+03  0.87902201843E+02  0.93156033415E+03  0.15294330000E+03 0.  0.
<mgrwt>
<rscale>  0 0.10735129E+04</rscale>
<asrwt>0</asrwt>
<pdfrwt beam="1">  1        2 0.37707292E+00 0.11271630E+04</pdfrwt>
<pdfrwt beam="2">  1       -2 0.90068928E-01 0.11271630E+04</pdfrwt>
<totfact> 0.38907174E+00</totfact>
</mgrwt>
</event>
<event>
 4    5  0.6615028E-008  0.1328420E+04  0.7818608E-02  0.9041398E-01
         -2   -1    0    0    0  501 -0.00000000000E+00  0.00000000000E+00  0.15913575933E+04  0.15913575933E+04  0.25500000000E-02 0.  1.
          2   -1    0    0  501    0  0.00000000000E+00 -0.00000000000E+00 -0.19767284047E+04  0.19767284047E+04  0.25500000000E-02 0. -1.
    8880023    1    1    2    0    0 -0.81242865803E+03  0.81905381691E+03 -0.14671576221E+04  0.19792046821E+04  0.65864270000E+03 0.  0.
    8880022    1    1    2    0    0  0.81242865803E+03 -0.81905381691E+03  0.10817868107E+04  0.15888813160E+04  0.15294330000E+03 0.  0.
<mgrwt>
<rscale>  0 0.12851835E+04</rscale>
<asrwt>0</asrwt>
<pdfrwt beam="1">  1        2 0.30411206E+00 0.13284200E+04</pdfrwt>
<pdfrwt beam="2">  1       -2 0.24482425E+00 0.13284200E+04</pdfrwt>
<totfact> 0.45532478E-01</totfact>
</mgrwt>
</event>
<event>
 4    5  0.6615028E-008  0.7878958E+03  0.7818608E-02  0.9737606E-01
         -2   -1    0    0    0  501 -0.00000000000E+00  0.00000000000E+00  0.44332242301E+03  0.44332242302E+03  0.25500000000E-02 0.  1.
          2   -1    0    0  501    0  0.00000000000E+00 -0.00000000000E+00 -0.13636358648E+04  0.13636358648E+04  0.25500000000E-02 0. -1.
    8880023    1    1    2    0    0 -0.43230485667E+03 -0.90596001710E+01 -0.10661397325E+04  0.13256823529E+04  0.65864270000E+03 0. -1.
    8880022    1    1    2    0    0  0.43230485667E+03  0.90596001710E+01  0.14582629067E+03  0.48127593491E+03  0.15294330000E+03 0.  0.
<mgrwt>
<rscale>  0 0.68821208E+03</rscale>
<asrwt>0</asrwt>
<pdfrwt beam="1">  1        2 0.20979013E+00 0.78789579E+03</pdfrwt>
<pdfrwt beam="2">  1       -2 0.68203450E-01 0.78789579E+03</pdfrwt>
<totfact> 0.30378248E+01</totfact>
</mgrwt>
</event>
<event>
 4    5  0.6615028E-008  0.7706807E+03  0.7818608E-02  0.9778202E-01
          2   -1    0    0  501    0  0.00000000000E+00  0.00000000000E+00  0.36801158576E+04  0.36801158576E+04  0.25500000000E-02 0. -1.
         -2   -1    0    0    0  501 -0.00000000000E+00 -0.00000000000E+00 -0.15078936952E+03  0.15078936954E+03  0.25500000000E-02 0.  1.
    8880023    1    1    2    0    0 -0.39967451561E+03 -0.19971133207E+02  0.31973736276E+04  0.32889431259E+04  0.65864270000E+03 0. -1.
    8880022    1    1    2    0    0  0.39967451561E+03  0.19971133207E+02  0.33195286045E+03  0.54196210123E+03  0.15294330000E+03 0.  0.
<mgrwt>
<rscale>  0 0.66545596E+03</rscale>
<asrwt>0</asrwt>
<pdfrwt beam="1">  1        2 0.56617162E+00 0.77068072E+03</pdfrwt>
<pdfrwt beam="2">  1       -2 0.23198367E-01 0.77068072E+03</pdfrwt>
<totfact> 0.10718036E+01</totfact>
</mgrwt>
</event>
<event>
 4    5  0.6615028E-008  0.9776727E+03  0.7818608E-02  0.9411370E-01
          2   -1    0    0  501    0  0.00000000000E+00  0.00000000000E+00  0.12763311180E+04  0.12763311180E+04  0.25500000000E-02 0. -1.
         -2   -1    0    0    0  501 -0.00000000000E+00 -0.00000000000E+00 -0.15595094592E+04  0.15595094592E+04  0.25500000000E-02 0.  1.
    8880023    1    1    2    0    0 -0.52349849256E+03  0.49797902765E+03  0.97256000442E+03  0.13790275386E+04  0.65864270000E+03 0.  0.
    8880022    1    1    2    0    0  0.52349849256E+03 -0.49797902765E+03 -0.12557383456E+04  0.14568130386E+04  0.15294330000E+03 0.  0.
<mgrwt>
<rscale>  0 0.91145882E+03</rscale>
<asrwt>0</asrwt>
<pdfrwt beam="1">  1        2 0.19635864E+00 0.97767274E+03</pdfrwt>
<pdfrwt beam="2">  1       -2 0.23992453E+00 0.97767274E+03</pdfrwt>
<totfact> 0.12643937E+00</totfact>
</mgrwt>
</event>
<event>
 4    5  0.6615028E-008  0.1356905E+04  0.7818608E-02  0.9017913E-01
         -2   -1    0    0    0  501 -0.00000000000E+00  0.00000000000E+00  0.10297604854E+04  0.10297604854E+04  0.25500000000E-02 0.  1.
          2   -1    0    0  501    0  0.00000000000E+00 -0.00000000000E+00 -0.18833776351E+04  0.18833776351E+04  0.25500000000E-02 0. -1.
    8880023    1    1    2    0    0  0.37364120175E+03 -0.11259541811E+04 -0.10306687115E+04  0.17039567966E+04  0.65864270000E+03 0.  0.
    8880022    1    1    2    0    0 -0.37364120175E+03  0.11259541811E+04  0.17705156174E+03  0.12091813239E+04  0.15294330000E+03 0.  0.
<mgrwt>
<rscale>  0 0.13147960E+04</rscale>
<asrwt>0</asrwt>
<pdfrwt beam="1">  1        2 0.28975041E+00 0.13569048E+04</pdfrwt>
<pdfrwt beam="2">  1       -2 0.15842469E+00 0.13569048E+04</pdfrwt>
<totfact> 0.19196942E+00</totfact>
</mgrwt>
</event>
<event>
 4    5  0.6615028E-008  0.9153899E+03  0.7818608E-02  0.9501764E-01
          2   -1    0    0  501    0  0.00000000000E+00  0.00000000000E+00  0.38121920531E+04  0.38121920531E+04  0.25500000000E-02 0. -1.
         -2   -1    0    0    0  501 -0.00000000000E+00 -0.00000000000E+00 -0.43907769308E+03  0.43907769309E+03  0.25500000000E-02 0.  1.
    8880023    1    1    2    0    0  0.62898359581E+03  0.92239599908E+02  0.34714090397E+04  0.35900723440E+04  0.65864270000E+03 0.  0.
    8880022    1    1    2    0    0 -0.62898359581E+03 -0.92239599908E+02 -0.98294679734E+02  0.66119740220E+03  0.15294330000E+03 0.  0.
<mgrwt>
<rscale>  0 0.84153885E+03</rscale>
<asrwt>0</asrwt>
<pdfrwt beam="1">  1        2 0.58649109E+00 0.91538992E+03</pdfrwt>
<pdfrwt beam="2">  1       -2 0.67550414E-01 0.91538992E+03</pdfrwt>
<totfact> 0.10271722E+00</totfact>
</mgrwt>
</event>
<event>
 4    5  0.6615028E-008  0.1666227E+04  0.7818608E-02  0.8800384E-01
          2   -1    0    0  501    0  0.00000000000E+00  0.00000000000E+00  0.22942176082E+04  0.22942176082E+04  0.25500000000E-02 0. -1.
         -2   -1    0    0    0  501 -0.00000000000E+00 -0.00000000000E+00 -0.12923679424E+04  0.12923679424E+04  0.25500000000E-02 0.  1.
    8880023    1    1    2    0    0  0.66486010744E+03 -0.13785723495E+04 -0.13828909081E+03  0.16719553715E+04  0.65864270000E+03 0.  0.
    8880022    1    1    2    0    0 -0.66486010744E+03  0.13785723495E+04  0.11401387566E+04  0.19146301791E+04  0.15294330000E+03 0.  0.
<mgrwt>
<rscale>  0 0.16332396E+04</rscale>
<asrwt>0</asrwt>
<pdfrwt beam="1">  1        2 0.35295655E+00 0.16662265E+04</pdfrwt>
<pdfrwt beam="2">  1       -2 0.19882584E+00 0.16662265E+04</pdfrwt>
<totfact> 0.57131287E-01</totfact>
</mgrwt>
</event>
<event>
 4    5  0.6615028E-008  0.8009409E+03  0.7818608E-02  0.9708765E-01
          2   -1    0    0  501    0  0.00000000000E+00  0.00000000000E+00  0.80886471059E+03  0.80886471060E+03  0.25500000000E-02 0. -1.
         -2   -1    0    0    0  501 -0.00000000000E+00 -0.00000000000E+00 -0.79628138798E+03  0.79628138798E+03  0.25500000000E-02 0.  1.
    8880023    1    1    2    0    0 -0.38126854331E+03 -0.24966044586E+03  0.48073450782E+03  0.93413698868E+03  0.65864270000E+03 0. -1.
    8880022    1    1    2    0    0  0.38126854331E+03  0.24966044586E+03 -0.46815118520E+03  0.67100910990E+03  0.15294330000E+03 0.  0.
<mgrwt>
<rscale>  0 0.70497292E+03</rscale>
<asrwt>0</asrwt>
<pdfrwt beam="1">  1        2 0.12444073E+00 0.80094085E+03</pdfrwt>
<pdfrwt beam="2">  1       -2 0.12250483E+00 0.80094085E+03</pdfrwt>
<totfact> 0.17286722E+01</totfact>
</mgrwt>
</event>
<event>
 4    5  0.6615028E-008  0.1245119E+04  0.7818608E-02  0.9114464E-01
          2   -1    0    0  501    0  0.00000000000E+00  0.00000000000E+00  0.21475998852E+04  0.21475998852E+04  0.25500000000E-02 0. -1.
         -2   -1    0    0    0  501 -0.00000000000E+00 -0.00000000000E+00 -0.10265935985E+04  0.10265935985E+04  0.25500000000E-02 0.  1.
    8880023    1    1    2    0    0  0.60859980322E+03 -0.86378085324E+03  0.15803416897E+04  0.20119147957E+04  0.65864270000E+03 0.  0.
    8880022    1    1    2    0    0 -0.60859980322E+03  0.86378085324E+03 -0.45933540298E+03  0.11622786879E+04  0.15294330000E+03 0.  0.
<mgrwt>
<rscale>  0 0.11981650E+04</rscale>
<asrwt>0</asrwt>
<pdfrwt beam="1">  1        2 0.33039998E+00 0.12451190E+04</pdfrwt>
<pdfrwt beam="2">  1       -2 0.15793748E+00 0.12451190E+04</pdfrwt>
<totfact> 0.13966869E+00</totfact>
</mgrwt>
</event>
<event>
 4    5  0.6615028E-008  0.6734408E+03  0.7818608E-02  0.1013308E+00
         -2   -1    0    0    0  501 -0.00000000000E+00  0.00000000000E+00  0.80589663675E+03  0.80589663675E+03  0.25500000000E-02 0.  1.
          2   -1    0    0  501    0  0.00000000000E+00 -0.00000000000E+00 -0.28952243151E+04  0.28952243151E+04  0.25500000000E-02 0. -1.
    8880023    1    1    2    0    0  0.77034209596E+02 -0.11737997953E+03 -0.28418140874E+04  0.29205187626E+04  0.65864270000E+03 0. -1.
    8880022    1    1    2    0    0 -0.77034209596E+02  0.11737997953E+03  0.75248640905E+03  0.78060218925E+03  0.15294330000E+03 0.  0.
<mgrwt>
<rscale>  0 0.50180993E+03</rscale>
<asrwt>0</asrwt>
<pdfrwt beam="1">  1        2 0.44541912E+00 0.67344082E+03</pdfrwt>
<pdfrwt beam="2">  1       -2 0.12398410E+00 0.67344082E+03</pdfrwt>
<totfact> 0.10729164E+00</totfact>
</mgrwt>
</event>
<event>
 4    5  0.6615028E-008  0.8753607E+03  0.7818608E-02  0.9566803E-01
          2   -1    0    0  501    0  0.00000000000E+00  0.00000000000E+00  0.11008294873E+04  0.11008294873E+04  0.25500000000E-02 0. -1.
         -2   -1    0    0    0  501 -0.00000000000E+00 -0.00000000000E+00 -0.86255489972E+03  0.86255489972E+03  0.25500000000E-02 0.  1.
    8880023    1    1    2    0    0 -0.54672369089E+03 -0.18313760157E+03  0.76883048197E+03  0.11650565186E+04  0.65864270000E+03 0.  0.
    8880022    1    1    2    0    0  0.54672369089E+03  0.18313760157E+03 -0.53055589443E+03  0.79832786837E+03  0.15294330000E+03 0.  0.
<mgrwt>
<rscale>  0 0.79532897E+03</rscale>
<asrwt>0</asrwt>
<pdfrwt beam="1">  1        2 0.16935838E+00 0.87536072E+03</pdfrwt>
<pdfrwt beam="2">  1       -2 0.13270075E+00 0.87536072E+03</pdfrwt>
<totfact> 0.90071190E+00</totfact>
</mgrwt>
</event>
<event>
 4    5  0.6615028E-008  0.1378308E+04  0.7818608E-02  0.9000724E-01
          2   -1    0    0  501    0  0.00000000000E+00  0.00000000000E+00  0.16938871425E+04  0.16938871425E+04  0.25500000000E-02 0. -1.
         -2   -1    0    0    0  501 -0.00000000000E+00 -0.00000000000E+00 -0.13480549423E+04  0.13480549423E+04  0.25500000000E-02 0.  1.
    8880023    1    1    2    0    0 -0.52494000257E+03  0.10910364630E+04 -0.59475705851E+03  0.15011557997E+04  0.65864270000E+03 0.  0.
    8880022    1    1    2    0    0  0.52494000257E+03 -0.10910364630E+04  0.94058925865E+03  0.15407862851E+04  0.15294330000E+03 0.  0.
<mgrwt>
<rscale>  0 0.13370049E+04</rscale>
<asrwt>0</asrwt>
<pdfrwt beam="1">  1        2 0.26059802E+00 0.13783079E+04</pdfrwt>
<pdfrwt beam="2">  1       -2 0.20739307E+00 0.13783079E+04</pdfrwt>
<totfact> 0.11194681E+00</totfact>
</mgrwt>
</event>
<event>
 4    5  0.6615028E-008  0.8939232E+03  0.7818608E-02  0.9535858E-01
         -2   -1    0    0    0  501 -0.00000000000E+00  0.00000000000E+00  0.69958450462E+03  0.69958450463E+03  0.25500000000E-02 0.  1.
          2   -1    0    0  501    0  0.00000000000E+00 -0.00000000000E+00 -0.30197414500E+04  0.30197414500E+04  0.25500000000E-02 0. -1.
    8880023    1    1    2    0    0 -0.39136451249E+02  0.60312253664E+03 -0.27957527160E+04  0.29351885649E+04  0.65864270000E+03 0.  0.
    8880022    1    1    2    0    0  0.39136451249E+02 -0.60312253664E+03  0.47559577060E+03  0.78413738978E+03  0.15294330000E+03 0.  0.
<mgrwt>
<rscale>  0 0.81690996E+03</rscale>
<asrwt>0</asrwt>
<pdfrwt beam="1">  1        2 0.46457560E+00 0.89392319E+03</pdfrwt>
<pdfrwt beam="2">  1       -2 0.10762839E+00 0.89392319E+03</pdfrwt>
<totfact> 0.12167691E+00</totfact>
</mgrwt>
</event>
<event>
 4    5  0.6615028E-008  0.7366612E+03  0.7818608E-02  0.9869782E-01
         -2   -1    0    0    0  501 -0.00000000000E+00  0.00000000000E+00  0.18166424685E+03  0.18166424686E+03  0.25500000000E-02 0.  1.
          2   -1    0    0  501    0  0.00000000000E+00 -0.00000000000E+00 -0.37041847145E+04  0.37041847145E+04  0.25500000000E-02 0. -1.
    8880023    1    1    2    0    0  0.32187147720E+03  0.72514197295E+02 -0.34332453492E+04  0.35113876730E+04  0.65864270000E+03 0. -1.
    8880022    1    1    2    0    0 -0.32187147720E+03 -0.72514197295E+02 -0.89275118488E+02  0.37446128831E+03  0.15294330000E+03 0.  0.
<mgrwt>
<rscale>  0 0.61748415E+03</rscale>
<asrwt>0</asrwt>
<pdfrwt beam="1">  1        2 0.56987451E+00 0.73666123E+03</pdfrwt>
<pdfrwt beam="2">  1       -2 0.27948348E-01 0.73666123E+03</pdfrwt>
<totfact> 0.74014653E+00</totfact>
</mgrwt>
</event>
<event>
 4    5  0.6615028E-008  0.1178597E+04  0.7818608E-02  0.9178214E-01
         -2   -1    0    0    0  501 -0.00000000000E+00  0.00000000000E+00  0.77932898672E+03  0.77932898673E+03  0.25500000000E-02 0.  1.
          2   -1    0    0  501    0  0.00000000000E+00 -0.00000000000E+00 -0.20117887334E+04  0.20117887334E+04  0.25500000000E-02 0. -1.
    8880023    1    1    2    0    0  0.77464840111E+01  0.97735387850E+03  0.40078779442E+02  0.11792782227E+04  0.65864270000E+03 0.  0.
    8880022    1    1    2    0    0 -0.77464840111E+01 -0.97735387850E+03 -0.12725385261E+04  0.16118394973E+04  0.15294330000E+03 0.  0.
<mgrwt>
<rscale>  0 0.11281157E+04</rscale>
<asrwt>0</asrwt>
<pdfrwt beam="1">  1        2 0.30950596E+00 0.11785970E+04</pdfrwt>
<pdfrwt beam="2">  1       -2 0.11989677E+00 0.11785970E+04</pdfrwt>
<totfact> 0.34271659E+00</totfact>
</mgrwt>
</event>
<event>
 4    5  0.6615028E-008  0.7113477E+03  0.7818608E-02  0.9953030E-01
          2   -1    0    0  501    0  0.00000000000E+00  0.00000000000E+00  0.22316466933E+04  0.22316466933E+04  0.25500000000E-02 0. -1.
         -2   -1    0    0    0  501 -0.00000000000E+00 -0.00000000000E+00 -0.44005302253E+03  0.44005302254E+03  0.25500000000E-02 0.  1.
    8880023    1    1    2    0    0 -0.18617210728E+03  0.19376607364E+03  0.21107164890E+04  0.22273615890E+04  0.65864270000E+03 0. -1.
    8880022    1    1    2    0    0  0.18617210728E+03 -0.19376607364E+03 -0.31912281826E+03  0.44433812685E+03  0.15294330000E+03 0.  0.
<mgrwt>
<rscale>  0 0.57758643E+03</rscale>
<asrwt>0</asrwt>
<pdfrwt beam="1">  1        2 0.34333026E+00 0.71134770E+03</pdfrwt>
<pdfrwt beam="2">  1       -2 0.67700465E-01 0.71134770E+03</pdfrwt>
<totfact> 0.10381076E+01</totfact>
</mgrwt>
</event>
<event>
 4    5  0.6615028E-008  0.9761411E+03  0.7818608E-02  0.9413460E-01
          2   -1    0    0  501    0  0.00000000000E+00  0.00000000000E+00  0.32267417095E+04  0.32267417095E+04  0.25500000000E-02 0. -1.
         -2   -1    0    0    0  501 -0.00000000000E+00 -0.00000000000E+00 -0.39448846364E+03  0.39448846364E+03  0.25500000000E-02 0.  1.
    8880023    1    1    2    0    0  0.26998001634E+03  0.66794610902E+03  0.27024994648E+04  0.28733873350E+04  0.65864270000E+03 0. -1.
    8880022    1    1    2    0    0 -0.26998001634E+03 -0.66794610902E+03  0.12975378109E+03  0.74784283810E+03  0.15294330000E+03 0.  0.
<mgrwt>
<rscale>  0 0.90976179E+03</rscale>
<asrwt>0</asrwt>
<pdfrwt beam="1">  1        2 0.49642181E+00 0.97614109E+03</pdfrwt>
<pdfrwt beam="2">  1       -2 0.60690532E-01 0.97614109E+03</pdfrwt>
<totfact> 0.32507107E+00</totfact>
</mgrwt>
</event>
<event>
 4    5  0.6615028E-008  0.6646101E+03  0.7818608E-02  0.1019863E+00
         -2   -1    0    0    0  501 -0.00000000000E+00  0.00000000000E+00  0.14766832792E+04  0.14766832792E+04  0.25500000000E-02 0.  1.
          2   -1    0    0  501    0  0.00000000000E+00 -0.00000000000E+00 -0.13214346946E+04  0.13214346946E+04  0.25500000000E-02 0. -1.
    8880023    1    1    2    0    0 -0.88623599041E+02 -0.64957489522E+01 -0.12318961223E+04  0.13997409044E+04  0.65864270000E+03 0. -1.
    8880022    1    1    2    0    0  0.88623599041E+02  0.64957489522E+01  0.13871447069E+04  0.13983770693E+04  0.15294330000E+03 0.  0.
<mgrwt>
<rscale>  0 0.47736151E+03</rscale>
<asrwt>0</asrwt>
<pdfrwt beam="1">  1        2 0.20329764E+00 0.66461007E+03</pdfrwt>
<pdfrwt beam="2">  1       -2 0.22718204E+00 0.66461007E+03</pdfrwt>
<totfact> 0.15035452E+00</totfact>
</mgrwt>
</event>
<event>
 4    5  0.6615028E-008  0.1866152E+04  0.7818608E-02  0.8686800E-01
         -2   -1    0    0    0  501 -0.00000000000E+00  0.00000000000E+00  0.17455832676E+04  0.17455832676E+04  0.25500000000E-02 0.  1.
          2   -1    0    0  501    0  0.00000000000E+00 -0.00000000000E+00 -0.20944135493E+04  0.20944135493E+04  0.25500000000E-02 0. -1.
    8880023    1    1    2    0    0 -0.35925799892E+03 -0.17086970185E+04  0.44094374505E+03  0.19175383708E+04  0.65864270000E+03 0.  0.
    8880022    1    1    2    0    0  0.35925799892E+03  0.17086970185E+04 -0.78977402675E+03  0.19224584462E+04  0.15294330000E+03 0.  0.
<mgrwt>
<rscale>  0 0.18371291E+04</rscale>
<asrwt>0</asrwt>
<pdfrwt beam="1">  1        2 0.32221747E+00 0.18661517E+04</pdfrwt>
<pdfrwt beam="2">  1       -2 0.26855127E+00 0.18661517E+04</pdfrwt>
<totfact> 0.26422620E-01</totfact>
</mgrwt>
</event>
<event>
 4    5  0.6615028E-008  0.7583772E+03  0.7818608E-02  0.9809327E-01
          2   -1    0    0  501    0  0.00000000000E+00  0.00000000000E+00  0.45502382870E+04  0.45502382870E+04  0.25500000000E-02 0. -1.
         -2   -1    0    0    0  501 -0.00000000000E+00 -0.00000000000E+00 -0.81116880639E+03  0.81116880639E+03  0.25500000000E-02 0.  1.
    8880023    1    1    2    0    0  0.24677920779E+03 -0.28359433007E+03  0.44654193965E+04  0.45293604752E+04  0.65864270000E+03 0. -1.
    8880022    1    1    2    0    0 -0.24677920779E+03  0.28359433007E+03 -0.72634991591E+03  0.83204661817E+03  0.15294330000E+03 0.  0.
<mgrwt>
<rscale>  0 0.64864394E+03</rscale>
<asrwt>0</asrwt>
<pdfrwt beam="1">  1        2 0.70003667E+00 0.75837717E+03</pdfrwt>
<pdfrwt beam="2">  1       -2 0.12479520E+00 0.75837717E+03</pdfrwt>
<totfact> 0.60581396E-02</totfact>
</mgrwt>
</event>
<event>
 4    5  0.6615028E-008  0.7051642E+03  0.7818608E-02  0.9976417E-01
          2   -1    0    0  501    0  0.00000000000E+00  0.00000000000E+00  0.10154421131E+04  0.10154421131E+04  0.25500000000E-02 0. -1.
         -2   -1    0    0    0  501 -0.00000000000E+00 -0.00000000000E+00 -0.39656739231E+03  0.39656739232E+03  0.25500000000E-02 0.  1.
    8880023    1    1    2    0    0  0.13268831589E+03 -0.21410302772E+03  0.79975722223E+03  0.10662401776E+04  0.65864270000E+03 0.  0.
    8880022    1    1    2    0    0 -0.13268831589E+03  0.21410302772E+03 -0.18088250148E+03  0.34576932775E+03  0.15294330000E+03 0.  0.
<mgrwt>
<rscale>  0 0.56696516E+03</rscale>
<asrwt>0</asrwt>
<pdfrwt beam="1">  1        2 0.15622186E+00 0.70516417E+03</pdfrwt>
<pdfrwt beam="2">  1       -2 0.61010368E-01 0.70516417E+03</pdfrwt>
<totfact> 0.62720130E+01</totfact>
</mgrwt>
</event>
<event>
 4    5  0.6615028E-008  0.1342440E+04  0.7818608E-02  0.9029750E-01
         -2   -1    0    0    0  501 -0.00000000000E+00  0.00000000000E+00  0.13272033255E+04  0.13272033255E+04  0.25500000000E-02 0.  1.
          2   -1    0    0  501    0  0.00000000000E+00 -0.00000000000E+00 -0.16562710296E+04  0.16562710296E+04  0.25500000000E-02 0. -1.
    8880023    1    1    2    0    0  0.53173038833E+03 -0.10419203824E+04 -0.95549220452E+03  0.16477593418E+04  0.65864270000E+03 0.  0.
    8880022    1    1    2    0    0 -0.53173038833E+03  0.10419203824E+04  0.62642450034E+03  0.13357150133E+04  0.15294330000E+03 0.  0.
<mgrwt>
<rscale>  0 0.12997668E+04</rscale>
<asrwt>0</asrwt>
<pdfrwt beam="1">  1        2 0.25481093E+00 0.13424401E+04</pdfrwt>
<pdfrwt beam="2">  1       -2 0.20418513E+00 0.13424401E+04</pdfrwt>
<totfact> 0.12373154E+00</totfact>
</mgrwt>
</event>
<event>
 4    5  0.6615028E-008  0.9865480E+03  0.7818608E-02  0.9399372E-01
          2   -1    0    0  501    0  0.00000000000E+00  0.00000000000E+00  0.40134257258E+04  0.40134257258E+04  0.25500000000E-02 0. -1.
         -2   -1    0    0    0  501 -0.00000000000E+00 -0.00000000000E+00 -0.60795881338E+03  0.60795881339E+03  0.25500000000E-02 0.  1.
    8880023    1    1    2    0    0 -0.64020768457E+03  0.36000122010E+03  0.36895439821E+04  0.38191637514E+04  0.65864270000E+03 0. -1.
    8880022    1    1    2    0    0  0.64020768457E+03 -0.36000122010E+03 -0.28407706967E+03  0.80222078780E+03  0.15294330000E+03 0.  0.
<mgrwt>
<rscale>  0 0.92127346E+03</rscale>
<asrwt>0</asrwt>
<pdfrwt beam="1">  1        2 0.61745011E+00 0.98654800E+03</pdfrwt>
<pdfrwt beam="2">  1       -2 0.93532126E-01 0.98654800E+03</pdfrwt>
<totfact> 0.34022797E-01</totfact>
</mgrwt>
</event>
<event>
 4    5  0.6615028E-008  0.1280033E+04  0.7818608E-02  0.9082997E-01
          2   -1    0    0  501    0  0.00000000000E+00  0.00000000000E+00  0.19746968556E+04  0.19746968556E+04  0.25500000000E-02 0. -1.
         -2   -1    0    0    0  501 -0.00000000000E+00 -0.00000000000E+00 -0.14434916390E+04  0.14434916390E+04  0.25500000000E-02 0.  1.
    8880023    1    1    2    0    0  0.14646071013E+03 -0.10877612943E+04  0.14818280472E+04  0.19581368544E+04  0.65864270000E+03 0. -1.
    8880022    1    1    2    0    0 -0.14646071013E+03  0.10877612943E+04 -0.95062283057E+03  0.14600516402E+04  0.15294330000E+03 0.  0.
<mgrwt>
<rscale>  0 0.12347207E+04</rscale>
<asrwt>0</asrwt>
<pdfrwt beam="1">  1        2 0.30379951E+00 0.12800334E+04</pdfrwt>
<pdfrwt beam="2">  1       -2 0.22207564E+00 0.12800334E+04</pdfrwt>
<totfact> 0.63644264E-01</totfact>
</mgrwt>
</event>
<event>
 4    5  0.6615028E-008  0.8922763E+03  0.7818608E-02  0.9538546E-01
          2   -1    0    0  501    0  0.00000000000E+00  0.00000000000E+00  0.16652518759E+04  0.16652518759E+04  0.25500000000E-02 0. -1.
         -2   -1    0    0    0  501 -0.00000000000E+00 -0.00000000000E+00 -0.58167443093E+03  0.58167443094E+03  0.25500000000E-02 0.  1.
    8880023    1    1    2    0    0  0.59358026602E+03 -0.10004638636E+03  0.13107286361E+04  0.15856123661E+04  0.65864270000E+03 0.  0.
    8880022    1    1    2    0    0 -0.59358026602E+03  0.10004638636E+03 -0.22715119113E+03  0.66131394079E+03  0.15294330000E+03 0.  0.
<mgrwt>
<rscale>  0 0.81500663E+03</rscale>
<asrwt>0</asrwt>
<pdfrwt beam="1">  1        2 0.25619259E+00 0.89227631E+03</pdfrwt>
<pdfrwt beam="2">  1       -2 0.89488375E-01 0.89227631E+03</pdfrwt>
<totfact> 0.11083407E+01</totfact>
</mgrwt>
</event>
<event>
 4    5  0.6615028E-008  0.7263332E+03  0.7818608E-02  0.9901711E-01
          2   -1    0    0  501    0  0.00000000000E+00  0.00000000000E+00  0.66394309369E+03  0.66394309370E+03  0.25500000000E-02 0. -1.
         -2   -1    0    0    0  501 -0.00000000000E+00 -0.00000000000E+00 -0.75888609665E+03  0.75888609666E+03  0.25500000000E-02 0.  1.
    8880023    1    1    2    0    0  0.14730508874E+03 -0.26842314753E+03  0.39375611366E+03  0.82619843779E+03  0.65864270000E+03 0.  0.
    8880022    1    1    2    0    0 -0.14730508874E+03  0.26842314753E+03 -0.48869911662E+03  0.59663075256E+03  0.15294330000E+03 0.  0.
<mgrwt>
<rscale>  0 0.60178417E+03</rscale>
<asrwt>0</asrwt>
<pdfrwt beam="1">  1        2 0.10214509E+00 0.72633324E+03</pdfrwt>
<pdfrwt beam="2">  1       -2 0.11675171E+00 0.72633324E+03</pdfrwt>
<totfact> 0.25268749E+01</totfact>
</mgrwt>
</event>
<event>
 4    5  0.6615028E-008  0.7998465E+03  0.7818608E-02  0.9711128E-01
          2   -1    0    0  501    0  0.00000000000E+00  0.00000000000E+00  0.31920943514E+04  0.31920943514E+04  0.25500000000E-02 0. -1.
         -2   -1    0    0    0  501 -0.00000000000E+00 -0.00000000000E+00 -0.29392061881E+03  0.29392061882E+03  0.25500000000E-02 0.  1.
    8880023    1    1    2    0    0  0.26896453929E+03  0.36551639644E+03  0.28988002042E+04  0.30071243721E+04  0.65864270000E+03 0. -1.
    8880022    1    1    2    0    0 -0.26896453929E+03 -0.36551639644E+03 -0.62647158041E+00  0.47889059810E+03  0.15294330000E+03 0.  0.
<mgrwt>
<rscale>  0 0.70358076E+03</rscale>
<asrwt>0</asrwt>
<pdfrwt beam="1">  1        2 0.49109148E+00 0.79984646E+03</pdfrwt>
<pdfrwt beam="2">  1       -2 0.45218553E-01 0.79984646E+03</pdfrwt>
<totfact> 0.64614292E+00</totfact>
</mgrwt>
</event>
<event>
 4    5  0.6615028E-008  0.6916484E+03  0.7818608E-02  0.1003379E+00
          2   -1    0    0  501    0  0.00000000000E+00  0.00000000000E+00  0.17848084225E+04  0.17848084225E+04  0.25500000000E-02 0. -1.
         -2   -1    0    0    0  501 -0.00000000000E+00 -0.00000000000E+00 -0.12805964266E+03  0.12805964269E+03  0.25500000000E-02 0.  1.
    8880023    1    1    2    0    0 -0.29758857527E+02  0.20900155452E+03  0.12765383701E+04  0.14518703991E+04  0.65864270000E+03 0.  1.
    8880022    1    1    2    0    0  0.29758857527E+02 -0.20900155452E+03  0.38021040979E+03  0.46099766607E+03  0.15294330000E+03 0. -1.
<mgrwt>
<rscale>  0 0.54193200E+03</rscale>
<asrwt>0</asrwt>
<pdfrwt beam="1">  1        2 0.27458590E+00 0.69164835E+03</pdfrwt>
<pdfrwt beam="2">  1       -2 0.19701484E-01 0.69164835E+03</pdfrwt>
<totfact> 0.19752985E+02</totfact>
</mgrwt>
</event>
<event>
 4    5  0.6615028E-008  0.8295781E+03  0.7818608E-02  0.9650154E-01
          2   -1    0    0  501    0  0.00000000000E+00  0.00000000000E+00  0.56014010149E+03  0.56014010149E+03  0.25500000000E-02 0. -1.
         -2   -1    0    0    0  501 -0.00000000000E+00 -0.00000000000E+00 -0.11019391015E+04  0.11019391015E+04  0.25500000000E-02 0.  1.
    8880023    1    1    2    0    0 -0.10306355057E+03 -0.49372822694E+03  0.95523552950E+02  0.83505964635E+03  0.65864270000E+03 0. -1.
    8880022    1    1    2    0    0  0.10306355057E+03  0.49372822694E+03 -0.63732255293E+03  0.82701955661E+03  0.15294330000E+03 0.  0.
<mgrwt>
<rscale>  0 0.74063775E+03</rscale>
<asrwt>0</asrwt>
<pdfrwt beam="1">  1        2 0.86175401E-01 0.82957812E+03</pdfrwt>
<pdfrwt beam="2">  1       -2 0.16952909E+00 0.82957812E+03</pdfrwt>
<totfact> 0.11662968E+01</totfact>
</mgrwt>
</event>
<event>
 4    5  0.6615028E-008  0.1995246E+04  0.7818608E-02  0.8621590E-01
         -2   -1    0    0    0  501 -0.00000000000E+00  0.00000000000E+00  0.27624804958E+04  0.27624804958E+04  0.25500000000E-02 0.  1.
          2   -1    0    0  501    0  0.00000000000E+00 -0.00000000000E+00 -0.16570725960E+04  0.16570725961E+04  0.25500000000E-02 0. -1.
    8880023    1    1    2    0    0 -0.94544295886E+03 -0.16289057843E+04  0.14912651419E+04  0.24909593277E+04  0.65864270000E+03 0.  0.
    8880022    1    1    2    0    0  0.94544295886E+03  0.16289057843E+04 -0.38585724213E+03  0.19285937641E+04  0.15294330000E+03 0.  0.
<mgrwt>
<rscale>  0 0.19682933E+04</rscale>
<asrwt>0</asrwt>
<pdfrwt beam="1">  1        2 0.25493424E+00 0.19952460E+04</pdfrwt>
<pdfrwt beam="2">  1       -2 0.42499700E+00 0.19952460E+04</pdfrwt>
<totfact> 0.46858897E-02</totfact>
</mgrwt>
</event>
<event>
 4    5  0.6615028E-008  0.6689389E+03  0.7818608E-02  0.1016435E+00
         -2   -1    0    0    0  501 -0.00000000000E+00  0.00000000000E+00  0.25786950810E+03  0.25786950811E+03  0.25500000000E-02 0.  1.
          2   -1    0    0  501    0  0.00000000000E+00 -0.00000000000E+00 -0.31488602255E+04  0.31488602255E+04  0.25500000000E-02 0. -1.
    8880023    1    1    2    0    0 -0.97831443648E+02 -0.64016318228E+02 -0.30710951771E+04  0.31431043370E+04  0.65864270000E+03 0. -1.
    8880022    1    1    2    0    0  0.97831443648E+02  0.64016318228E+02  0.18010445963E+03  0.26362539665E+03  0.15294330000E+03 0.  0.
<mgrwt>
<rscale>  0 0.48995264E+03</rscale>
<asrwt>0</asrwt>
<pdfrwt beam="1">  1        2 0.48444001E+00 0.66893893E+03</pdfrwt>
<pdfrwt beam="2">  1       -2 0.39672234E-01 0.66893893E+03</pdfrwt>
<totfact> 0.91345560E+00</totfact>
</mgrwt>
</event>
<event>
 4    5  0.6615028E-008  0.9398023E+03  0.7818608E-02  0.9464941E-01
         -2   -1    0    0    0  501 -0.00000000000E+00  0.00000000000E+00  0.50062121460E+03  0.50062121461E+03  0.25500000000E-02 0.  1.
          2   -1    0    0  501    0  0.00000000000E+00 -0.00000000000E+00 -0.22861936270E+04  0.22861936270E+04  0.25500000000E-02 0. -1.
    8880023    1    1    2    0    0 -0.37067085198E+03  0.55858866261E+03 -0.18711451485E+04  0.20938988866E+04  0.65864270000E+03 0. -1.
    8880022    1    1    2    0    0  0.37067085198E+03 -0.55858866261E+03  0.85572736072E+02  0.69291595499E+03  0.15294330000E+03 0.  0.
<mgrwt>
<rscale>  0 0.86918694E+03</rscale>
<asrwt>0</asrwt>
<pdfrwt beam="1">  1        2 0.35172209E+00 0.93980231E+03</pdfrwt>
<pdfrwt beam="2">  1       -2 0.77018649E-01 0.93980231E+03</pdfrwt>
<totfact> 0.70481676E+00</totfact>
</mgrwt>
</event>
<event>
 4    5  0.6615028E-008  0.1394975E+04  0.7818608E-02  0.8987597E-01
          2   -1    0    0  501    0  0.00000000000E+00  0.00000000000E+00  0.29690741536E+04  0.29690741536E+04  0.25500000000E-02 0. -1.
         -2   -1    0    0    0  501 -0.00000000000E+00 -0.00000000000E+00 -0.70483777761E+03  0.70483777761E+03  0.25500000000E-02 0.  1.
    8880023    1    1    2    0    0  0.44812386907E+03  0.11451332722E+04  0.19463388121E+04  0.23946169194E+04  0.65864270000E+03 0.  0.
    8880022    1    1    2    0    0 -0.44812386907E+03 -0.11451332722E+04  0.31789756394E+03  0.12792950118E+04  0.15294330000E+03 0.  0.
<mgrwt>
<rscale>  0 0.13542766E+04</rscale>
<asrwt>0</asrwt>
<pdfrwt beam="1">  1        2 0.45678064E+00 0.13949751E+04</pdfrwt>
<pdfrwt beam="2">  1       -2 0.10843658E+00 0.13949751E+04</pdfrwt>
<totfact> 0.11956913E+00</totfact>
</mgrwt>
</event>
<event>
 4    5  0.6615028E-008  0.7969260E+03  0.7818608E-02  0.9717483E-01
         -2   -1    0    0    0  501 -0.00000000000E+00  0.00000000000E+00  0.57618164792E+03  0.57618164792E+03  0.25500000000E-02 0.  1.
          2   -1    0    0  501    0  0.00000000000E+00 -0.00000000000E+00 -0.10510301964E+04  0.10510301964E+04  0.25500000000E-02 0. -1.
    8880023    1    1    2    0    0  0.44595947073E+03  0.48999208645E+02 -0.73706428797E+03  0.10855204940E+04  0.65864270000E+03 0. -1.
    8880022    1    1    2    0    0 -0.44595947073E+03 -0.48999208645E+02  0.26221573950E+03  0.54169135034E+03  0.15294330000E+03 0.  0.
<mgrwt>
<rscale>  0 0.69985360E+03</rscale>
<asrwt>0</asrwt>
<pdfrwt beam="1">  1        2 0.16169695E+00 0.79692596E+03</pdfrwt>
<pdfrwt beam="2">  1       -2 0.88643330E-01 0.79692596E+03</pdfrwt>
<totfact> 0.25893938E+01</totfact>
</mgrwt>
</event>
<event>
 4    5  0.6615028E-008  0.8134672E+03  0.7818608E-02  0.9682400E-01
         -2   -1    0    0    0  501 -0.00000000000E+00  0.00000000000E+00  0.49497109389E+03  0.49497109390E+03  0.25500000000E-02 0.  1.
          2   -1    0    0  501    0  0.00000000000E+00 -0.00000000000E+00 -0.29526429704E+04  0.29526429704E+04  0.25500000000E-02 0. -1.
    8880023    1    1    2    0    0  0.47616917298E+03  0.34373623154E+02 -0.27496628880E+04  0.28674683662E+04  0.65864270000E+03 0.  0.
    8880022    1    1    2    0    0 -0.47616917298E+03 -0.34373623154E+02  0.29199101146E+03  0.58014569813E+03  0.15294330000E+03 0.  0.
<mgrwt>
<rscale>  0 0.72074444E+03</rscale>
<asrwt>0</asrwt>
<pdfrwt beam="1">  1        2 0.45425276E+00 0.81346717E+03</pdfrwt>
<pdfrwt beam="2">  1       -2 0.76149400E-01 0.81346717E+03</pdfrwt>
<totfact> 0.30280330E+00</totfact>
</mgrwt>
</event>
<event>
 4    5  0.6615028E-008  0.1059824E+04  0.7818608E-02  0.9307164E-01
          2   -1    0    0  501    0  0.00000000000E+00  0.00000000000E+00  0.20434573263E+04  0.20434573263E+04  0.25500000000E-02 0. -1.
         -2   -1    0    0    0  501 -0.00000000000E+00 -0.00000000000E+00 -0.83528133849E+03  0.83528133850E+03  0.25500000000E-02 0.  1.
    8880023    1    1    2    0    0 -0.75377832936E+03  0.34818885117E+03  0.16227368929E+04  0.19381698779E+04  0.65864270000E+03 0.  0.
    8880022    1    1    2    0    0  0.75377832936E+03 -0.34818885117E+03 -0.41456090505E+03  0.94056878690E+03  0.15294330000E+03 0.  0.
<mgrwt>
<rscale>  0 0.10012604E+04</rscale>
<asrwt>0</asrwt>
<pdfrwt beam="1">  1        2 0.31437805E+00 0.10598243E+04</pdfrwt>
<pdfrwt beam="2">  1       -2 0.12850482E+00 0.10598243E+04</pdfrwt>
<totfact> 0.28019009E+00</totfact>
</mgrwt>
</event>
<event>
 4    5  0.6615028E-008  0.7497894E+03  0.7818608E-02  0.9832297E-01
          2   -1    0    0  501    0  0.00000000000E+00  0.00000000000E+00  0.37070333366E+04  0.37070333366E+04  0.25500000000E-02 0. -1.
         -2   -1    0    0    0  501 -0.00000000000E+00 -0.00000000000E+00 -0.33943764044E+03  0.33943764045E+03  0.25500000000E-02 0.  1.
    8880023    1    1    2    0    0  0.17397995766E+03  0.31321693024E+03  0.35413887863E+04  0.36198920720E+04  0.65864270000E+03 0. -1.
    8880022    1    1    2    0    0 -0.17397995766E+03 -0.31321693024E+03 -0.17379309011E+03  0.42657890506E+03  0.15294330000E+03 0.  0.
<mgrwt>
<rscale>  0 0.63657722E+03</rscale>
<asrwt>0</asrwt>
<pdfrwt beam="1">  1        2 0.57031281E+00 0.74978936E+03</pdfrwt>
<pdfrwt beam="2">  1       -2 0.52221176E-01 0.74978936E+03</pdfrwt>
<totfact> 0.21881894E+00</totfact>
</mgrwt>
</event>
<event>
 4    5  0.6615028E-008  0.7248806E+03  0.7818608E-02  0.9906405E-01
          2   -1    0    0  501    0  0.00000000000E+00  0.00000000000E+00  0.13224823024E+04  0.13224823024E+04  0.25500000000E-02 0. -1.
         -2   -1    0    0    0  501 -0.00000000000E+00 -0.00000000000E+00 -0.33352444082E+03  0.33352444083E+03  0.25500000000E-02 0.  1.
    8880023    1    1    2    0    0  0.23281132171E+03  0.19349564131E+03  0.10837647058E+04  0.13038396445E+04  0.65864270000E+03 0. -1.
    8880022    1    1    2    0    0 -0.23281132171E+03 -0.19349564131E+03 -0.94806844220E+02  0.35216709876E+03  0.15294330000E+03 0.  0.
<mgrwt>
<rscale>  0 0.59951881E+03</rscale>
<asrwt>0</asrwt>
<pdfrwt beam="1">  1        2 0.20345881E+00 0.72488060E+03</pdfrwt>
<pdfrwt beam="2">  1       -2 0.51311453E-01 0.72488060E+03</pdfrwt>
<totfact> 0.58785385E+01</totfact>
</mgrwt>
</event>
<event>
 4    5  0.7109486E-008  0.7951473E+03  0.7818608E-02  0.9721388E-01
          2   -1    0    0  501    0  0.00000000000E+00  0.00000000000E+00  0.19484868162E+04  0.19484868162E+04  0.25500000000E-02 0. -1.
         -2   -1    0    0    0  501 -0.00000000000E+00 -0.00000000000E+00 -0.84830587177E+03  0.84830587178E+03  0.25500000000E-02 0.  1.
    8880023    1    1    2    0    0  0.29667513311E+03  0.33231455372E+03  0.17916383970E+04  0.19601600570E+04  0.65864270000E+03 0. -1.
    8880022    1    1    2    0    0 -0.29667513311E+03 -0.33231455372E+03 -0.69145745266E+03  0.83663263089E+03  0.15294330000E+03 0.  0.
<mgrwt>
<rscale>  0 0.69757495E+03</rscale>
<asrwt>0</asrwt>
<pdfrwt beam="1">  1        2 0.29976720E+00 0.79514735E+03</pdfrwt>
<pdfrwt beam="2">  1       -2 0.13050860E+00 0.79514735E+03</pdfrwt>
<totfact> 0.31541012E+00</totfact>
</mgrwt>
</event>
<event>
 4    5  0.6615028E-008  0.8585901E+03  0.7818608E-02  0.9596076E-01
         -2   -1    0    0    0  501 -0.00000000000E+00  0.00000000000E+00  0.25270474596E+03  0.25270474597E+03  0.25500000000E-02 0.  1.
          2   -1    0    0  501    0  0.00000000000E+00 -0.00000000000E+00 -0.27279200786E+04  0.27279200786E+04  0.25500000000E-02 0. -1.
    8880023    1    1    2    0    0 -0.54564168539E+03  0.75112990860E+02 -0.21676678513E+04  0.23315147287E+04  0.65864270000E+03 0. -1.
    8880022    1    1    2    0    0  0.54564168539E+03 -0.75112990860E+02 -0.30754748125E+03  0.64911009580E+03  0.15294330000E+03 0.  0.
<mgrwt>
<rscale>  0 0.77556424E+03</rscale>
<asrwt>0</asrwt>
<pdfrwt beam="1">  1        2 0.41967999E+00 0.85859013E+03</pdfrwt>
<pdfrwt beam="2">  1       -2 0.38877655E-01 0.85859013E+03</pdfrwt>
<totfact> 0.16544653E+01</totfact>
</mgrwt>
</event>
<event>
 4    5  0.6615028E-008  0.1410784E+04  0.7818608E-02  0.8975348E-01
          2   -1    0    0  501    0  0.00000000000E+00  0.00000000000E+00  0.11231152784E+04  0.11231152784E+04  0.25500000000E-02 0. -1.
         -2   -1    0    0    0  501 -0.00000000000E+00 -0.00000000000E+00 -0.17697322015E+04  0.17697322015E+04  0.25500000000E-02 0.  1.
    8880023    1    1    2    0    0 -0.37799317690E+03 -0.11889587331E+04  0.12769375103E+03  0.14165513091E+04  0.65864270000E+03 0.  0.
    8880022    1    1    2    0    0  0.37799317690E+03  0.11889587331E+04 -0.77431067410E+03  0.14762961708E+04  0.15294330000E+03 0.  0.
<mgrwt>
<rscale>  0 0.13706416E+04</rscale>
<asrwt>0</asrwt>
<pdfrwt beam="1">  1        2 0.17278696E+00 0.14107841E+04</pdfrwt>
<pdfrwt beam="2">  1       -2 0.27226649E+00 0.14107841E+04</pdfrwt>
<totfact> 0.94360664E-01</totfact>
</mgrwt>
</event>
<event>
 4    5  0.6615028E-008  0.1309554E+04  0.7818608E-02  0.9057353E-01
          2   -1    0    0  501    0  0.00000000000E+00  0.00000000000E+00  0.21723921605E+04  0.21723921605E+04  0.25500000000E-02 0. -1.
         -2   -1    0    0    0  501 -0.00000000000E+00 -0.00000000000E+00 -0.10668532872E+04  0.10668532872E+04  0.25500000000E-02 0.  1.
    8880023    1    1    2    0    0  0.11314093601E+04 -0.32147030041E+02  0.15361766384E+04  0.20186058164E+04  0.65864270000E+03 0.  0.
    8880022    1    1    2    0    0 -0.11314093601E+04  0.32147030041E+02 -0.43063776507E+03  0.12206396312E+04  0.15294330000E+03 0.  0.
<mgrwt>
<rscale>  0 0.12655331E+04</rscale>
<asrwt>0</asrwt>
<pdfrwt beam="1">  1        2 0.33421417E+00 0.13095537E+04</pdfrwt>
<pdfrwt beam="2">  1       -2 0.16413128E+00 0.13095537E+04</pdfrwt>
<totfact> 0.12084696E+00</totfact>
</mgrwt>
</event>
<event>
 4    5  0.6615028E-008  0.6615730E+03  0.7818608E-02  0.1022600E+00
          2   -1    0    0  501    0  0.00000000000E+00  0.00000000000E+00  0.37096274217E+04  0.37096274217E+04  0.25500000000E-02 0. -1.
         -2   -1    0    0    0  501 -0.00000000000E+00 -0.00000000000E+00 -0.61842713792E+03  0.61842713792E+03  0.25500000000E-02 0.  1.
    8880023    1    1    2    0    0 -0.44447776586E+02  0.43509122242E+02  0.36684652051E+04  0.37276421255E+04  0.65864270000E+03 0. -1.
    8880022    1    1    2    0    0  0.44447776586E+02 -0.43509122242E+02 -0.57726492135E+03  0.60041243408E+03  0.15294330000E+03 0.  0.
<mgrwt>
<rscale>  0 0.46760018E+03</rscale>
<asrwt>0</asrwt>
<pdfrwt beam="1">  1        2 0.57071191E+00 0.66157302E+03</pdfrwt>
<pdfrwt beam="2">  1       -2 0.95142636E-01 0.66157302E+03</pdfrwt>
<totfact> 0.60019389E-01</totfact>
</mgrwt>
</event>
<event>
 4    5  0.6615028E-008  0.6795408E+03  0.7818608E-02  0.1009585E+00
          2   -1    0    0  501    0  0.00000000000E+00  0.00000000000E+00  0.88426144139E+03  0.88426144139E+03  0.25500000000E-02 0. -1.
         -2   -1    0    0    0  501 -0.00000000000E+00 -0.00000000000E+00 -0.37033287413E+03  0.37033287414E+03  0.25500000000E-02 0.  1.
    8880023    1    1    2    0    0  0.86838572560E+02  0.14291432382E+03  0.68937612452E+03  0.96799539718E+03  0.65864270000E+03 0. -1.
    8880022    1    1    2    0    0 -0.86838572560E+02 -0.14291432382E+03 -0.17544755726E+03  0.28659891835E+03  0.15294330000E+03 0.  0.
<mgrwt>
<rscale>  0 0.51640054E+03</rscale>
<asrwt>0</asrwt>
<pdfrwt beam="1">  1        2 0.13604022E+00 0.67954076E+03</pdfrwt>
<pdfrwt beam="2">  1       -2 0.56974290E-01 0.67954076E+03</pdfrwt>
<totfact> 0.88412146E+01</totfact>
</mgrwt>
</event>
<event>
 4    5  0.8805374E-008  0.1258604E+04  0.7818608E-02  0.9102158E-01
          2   -1    0    0  501    0  0.00000000000E+00  0.00000000000E+00  0.17953729332E+04  0.17953729332E+04  0.25500000000E-02 0. -1.
         -2   -1    0    0    0  501 -0.00000000000E+00 -0.00000000000E+00 -0.22148917790E+04  0.22148917790E+04  0.25500000000E-02 0.  1.
    8880023    1    1    2    0    0 -0.10697898335E+04 -0.76319050034E+02  0.14062782453E+04  0.18872476241E+04  0.65864270000E+03 0.  0.
    8880022    1    1    2    0    0  0.10697898335E+04  0.76319050034E+02 -0.18257970911E+04  0.21230170881E+04  0.15294330000E+03 0.  0.
<mgrwt>
<rscale>  0 0.12122998E+04</rscale>
<asrwt>0</asrwt>
<pdfrwt beam="1">  1        2 0.27621122E+00 0.12586044E+04</pdfrwt>
<pdfrwt beam="2">  1       -2 0.34075258E+00 0.12586044E+04</pdfrwt>
<totfact> 0.14990347E-01</totfact>
</mgrwt>
</event>
<event>
 4    5  0.6615028E-008  0.1136053E+04  0.7818608E-02  0.9221939E-01
         -2   -1    0    0    0  501 -0.00000000000E+00  0.00000000000E+00  0.64707328547E+03  0.64707328547E+03  0.25500000000E-02 0.  1.
          2   -1    0    0  501    0  0.00000000000E+00 -0.00000000000E+00 -0.23770580577E+04  0.23770580577E+04  0.25500000000E-02 0. -1.
    8880023    1    1    2    0    0  0.91392950994E+03  0.14676032998E+03 -0.17492057882E+04  0.20857461110E+04  0.65864270000E+03 0. -1.
    8880022    1    1    2    0    0 -0.91392950994E+03 -0.14676032998E+03  0.19221015965E+02  0.93838523223E+03  0.15294330000E+03 0.  1.
<mgrwt>
<rscale>  0 0.10829824E+04</rscale>
<asrwt>0</asrwt>
<pdfrwt beam="1">  1        2 0.36570124E+00 0.11360528E+04</pdfrwt>
<pdfrwt beam="2">  1       -2 0.99549737E-01 0.11360528E+04</pdfrwt>
<totfact> 0.33844507E+00</totfact>
</mgrwt>
</event>
<event>
 4    5  0.6615028E-008  0.7719385E+03  0.7818608E-02  0.9775126E-01
          2   -1    0    0  501    0  0.00000000000E+00  0.00000000000E+00  0.28154986764E+04  0.28154986764E+04  0.25500000000E-02 0. -1.
         -2   -1    0    0    0  501 -0.00000000000E+00 -0.00000000000E+00 -0.97334164077E+03  0.97334164077E+03  0.25500000000E-02 0.  1.
    8880023    1    1    2    0    0 -0.25917084209E+03  0.30807347296E+03  0.27111932943E+04  0.28189462704E+04  0.65864270000E+03 0. -1.
    8880022    1    1    2    0    0  0.25917084209E+03 -0.30807347296E+03 -0.86903625864E+03  0.96989404678E+03  0.15294330000E+03 0.  0.
<mgrwt>
<rscale>  0 0.66714671E+03</rscale>
<asrwt>0</asrwt>
<pdfrwt beam="1">  1        2 0.43315363E+00 0.77193847E+03</pdfrwt>
<pdfrwt beam="2">  1       -2 0.14974487E+00 0.77193847E+03</pdfrwt>
<totfact> 0.72046912E-01</totfact>
</mgrwt>
</event>
<event>
 4    5  0.6615028E-008  0.8467662E+03  0.7818608E-02  0.9617552E-01
         -2   -1    0    0    0  501 -0.00000000000E+00  0.00000000000E+00  0.14258751709E+03  0.14258751711E+03  0.25500000000E-02 0.  1.
          2   -1    0    0  501    0  0.00000000000E+00 -0.00000000000E+00 -0.35627826119E+04  0.35627826119E+04  0.25500000000E-02 0. -1.
    8880023    1    1    2    0    0 -0.43844954092E+03  0.30160362886E+03 -0.17172954164E+04  0.19147105531E+04  0.65864270000E+03 0.  1.
    8880022    1    1    2    0    0  0.43844954092E+03 -0.30160362886E+03 -0.17028996784E+04  0.17906595759E+04  0.15294330000E+03 0.  0.
<mgrwt>
<rscale>  0 0.76145309E+03</rscale>
<asrwt>0</asrwt>
<pdfrwt beam="1">  1        2 0.54812033E+00 0.84676618E+03</pdfrwt>
<pdfrwt beam="2">  1       -2 0.21936544E-01 0.84676618E+03</pdfrwt>
<totfact> 0.14136705E+01</totfact>
</mgrwt>
</event>
<event>
 4    5  0.6615028E-008  0.6719193E+03  0.7818608E-02  0.1014323E+00
          2   -1    0    0  501    0  0.00000000000E+00  0.00000000000E+00  0.80295948665E+03  0.80295948665E+03  0.25500000000E-02 0. -1.
         -2   -1    0    0    0  501 -0.00000000000E+00 -0.00000000000E+00 -0.47696018430E+03  0.47696018430E+03  0.25500000000E-02 0.  1.
    8880023    1    1    2    0    0  0.12626767413E+03  0.41494218428E+02  0.62570830225E+03  0.91814289817E+03  0.65864270000E+03 0. -1.
    8880022    1    1    2    0    0 -0.12626767413E+03 -0.41494218428E+02 -0.29970899990E+03  0.36177677279E+03  0.15294330000E+03 0.  0.
<mgrwt>
<rscale>  0 0.49792182E+03</rscale>
<asrwt>0</asrwt>
<pdfrwt beam="1">  1        2 0.12353223E+00 0.67191927E+03</pdfrwt>
<pdfrwt beam="2">  1       -2 0.73378490E-01 0.67191927E+03</pdfrwt>
<totfact> 0.58589479E+01</totfact>
</mgrwt>
</event>
<event>
 4    5  0.6615028E-008  0.1075860E+04  0.7818608E-02  0.9288421E-01
         -2   -1    0    0    0  501 -0.00000000000E+00  0.00000000000E+00  0.15928849430E+04  0.15928849430E+04  0.25500000000E-02 0.  1.
          2   -1    0    0  501    0  0.00000000000E+00 -0.00000000000E+00 -0.13072089490E+04  0.13072089490E+04  0.25500000000E-02 0. -1.
    8880023    1    1    2    0    0 -0.59565072748E+03  0.60734225138E+03 -0.92070537604E+03  0.14160413113E+04  0.65864270000E+03 0.  0.
    8880022    1    1    2    0    0  0.59565072748E+03 -0.60734225138E+03  0.12063813700E+04  0.14840525807E+04  0.15294330000E+03 0.  0.
<mgrwt>
<rscale>  0 0.10185584E+04</rscale>
<asrwt>0</asrwt>
<pdfrwt beam="1">  1        2 0.20110907E+00 0.10758599E+04</pdfrwt>
<pdfrwt beam="2">  1       -2 0.24505922E+00 0.10758599E+04</pdfrwt>
<totfact> 0.11133621E+00</totfact>
</mgrwt>
</event>
<event>
 4    5  0.6615028E-008  0.9134919E+03  0.7818608E-02  0.9504711E-01
          2   -1    0    0  501    0  0.00000000000E+00  0.00000000000E+00  0.24625292591E+04  0.24625292591E+04  0.25500000000E-02 0. -1.
         -2   -1    0    0    0  501 -0.00000000000E+00 -0.00000000000E+00 -0.53186769849E+03  0.53186769850E+03  0.25500000000E-02 0.  1.
    8880023    1    1    2    0    0 -0.54779628295E+02  0.63060000072E+03  0.21264925695E+04  0.23143979829E+04  0.65864270000E+03 0.  0.
    8880022    1    1    2    0    0  0.54779628295E+02 -0.63060000072E+03 -0.19583100890E+03  0.67999897474E+03  0.15294330000E+03 0.  0.
<mgrwt>
<rscale>  0 0.83937396E+03</rscale>
<asrwt>0</asrwt>
<pdfrwt beam="1">  1        2 0.37885065E+00 0.91349186E+03</pdfrwt>
<pdfrwt beam="2">  1       -2 0.81825801E-01 0.91349186E+03</pdfrwt>
<totfact> 0.49107519E+00</totfact>
</mgrwt>
</event>
<event>
 4    5  0.6615028E-008  0.9422961E+03  0.7818608E-02  0.9461286E-01
         -2   -1    0    0    0  501 -0.00000000000E+00  0.00000000000E+00  0.10037979515E+04  0.10037979515E+04  0.25500000000E-02 0.  1.
          2   -1    0    0  501    0  0.00000000000E+00 -0.00000000000E+00 -0.10880709891E+04  0.10880709891E+04  0.25500000000E-02 0. -1.
    8880023    1    1    2    0    0  0.53959347394E+03  0.40367137368E+03 -0.69402326175E+03  0.11702949155E+04  0.65864270000E+03 0. -1.
    8880022    1    1    2    0    0 -0.53959347394E+03 -0.40367137368E+03  0.60975022412E+03  0.92157402517E+03  0.15294330000E+03 0.  0.
<mgrwt>
<rscale>  0 0.87199218E+03</rscale>
<asrwt>0</asrwt>
<pdfrwt beam="1">  1        2 0.16739554E+00 0.94229608E+03</pdfrwt>
<pdfrwt beam="2">  1       -2 0.15443045E+00 0.94229608E+03</pdfrwt>
<totfact> 0.61255183E+00</totfact>
</mgrwt>
</event>
<event>
 4    5  0.6615028E-008  0.1392464E+04  0.7818608E-02  0.8989561E-01
         -2   -1    0    0    0  501 -0.00000000000E+00  0.00000000000E+00  0.11912978485E+04  0.11912978485E+04  0.25500000000E-02 0.  1.
          2   -1    0    0  501    0  0.00000000000E+00 -0.00000000000E+00 -0.15422423532E+04  0.15422423532E+04  0.25500000000E-02 0. -1.
    8880023    1    1    2    0    0  0.93953215150E+03  0.78893884349E+03 -0.51856582291E+03  0.14858889196E+04  0.65864270000E+03 0.  0.
    8880022    1    1    2    0    0 -0.93953215150E+03 -0.78893884349E+03  0.16762131817E+03  0.12476512821E+04  0.15294330000E+03 0.  0.
<mgrwt>
<rscale>  0 0.13516754E+04</rscale>
<asrwt>0</asrwt>
<pdfrwt beam="1">  1        2 0.23726805E+00 0.13924638E+04</pdfrwt>
<pdfrwt beam="2">  1       -2 0.18327659E+00 0.13924638E+04</pdfrwt>
<totfact> 0.19697499E+00</totfact>
</mgrwt>
</event>
<event>
 4    5  0.6615028E-008  0.9705468E+03  0.7818608E-02  0.9421148E-01
          2   -1    0    0  501    0  0.00000000000E+00  0.00000000000E+00  0.26123917690E+04  0.26123917690E+04  0.25500000000E-02 0. -1.
         -2   -1    0    0    0  501 -0.00000000000E+00 -0.00000000000E+00 -0.69347721399E+03  0.69347721400E+03  0.25500000000E-02 0.  1.
    8880023    1    1    2    0    0  0.67395518509E+03 -0.23223979893E+03  0.22904470280E+04  0.24875909451E+04  0.65864270000E+03 0.  0.
    8880022    1    1    2    0    0 -0.67395518509E+03  0.23223979893E+03 -0.37153247304E+03  0.81827803787E+03  0.15294330000E+03 0.  0.
<mgrwt>
<rscale>  0 0.90355506E+03</rscale>
<asrwt>0</asrwt>
<pdfrwt beam="1">  1        2 0.40190643E+00 0.97054682E+03</pdfrwt>
<pdfrwt beam="2">  1       -2 0.10668880E+00 0.97054682E+03</pdfrwt>
<totfact> 0.21482040E+00</totfact>
</mgrwt>
</event>
<event>
 4    5  0.6615028E-008  0.9292576E+03  0.7818608E-02  0.9480608E-01
         -2   -1    0    0    0  501 -0.00000000000E+00  0.00000000000E+00  0.46662471630E+03  0.46662471631E+03  0.25500000000E-02 0.  1.
          2   -1    0    0  501    0  0.00000000000E+00 -0.00000000000E+00 -0.21201934165E+04  0.21201934165E+04  0.25500000000E-02 0. -1.
    8880023    1    1    2    0    0 -0.14329550804E+03  0.63966859233E+03 -0.16726203927E+04  0.19134206791E+04  0.65864270000E+03 0.  0.
    8880022    1    1    2    0    0  0.14329550804E+03 -0.63966859233E+03  0.19051692575E+02  0.67339745370E+03  0.15294330000E+03 0.  0.
<mgrwt>
<rscale>  0 0.85728751E+03</rscale>
<asrwt>0</asrwt>
<pdfrwt beam="1">  1        2 0.32618360E+00 0.92925762E+03</pdfrwt>
<pdfrwt beam="2">  1       -2 0.71788419E-01 0.92925762E+03</pdfrwt>
<totfact> 0.10200320E+01</totfact>
</mgrwt>
</event>
<event>
 4    5  0.6615028E-008  0.7703646E+03  0.7818608E-02  0.9778978E-01
         -2   -1    0    0    0  501 -0.00000000000E+00  0.00000000000E+00  0.11919187573E+04  0.11919187573E+04  0.25500000000E-02 0.  1.
          2   -1    0    0  501    0  0.00000000000E+00 -0.00000000000E+00 -0.12056394973E+04  0.12056394973E+04  0.25500000000E-02 0. -1.
    8880023    1    1    2    0    0  0.33896374710E+03 -0.21155386693E+03 -0.10350333182E+04  0.12902540977E+04  0.65864270000E+03 0. -1.
    8880022    1    1    2    0    0 -0.33896374710E+03  0.21155386693E+03  0.10213125782E+04  0.11073041569E+04  0.15294330000E+03 0.  0.
<mgrwt>
<rscale>  0 0.66503029E+03</rscale>
<asrwt>0</asrwt>
<pdfrwt beam="1">  1        2 0.18548300E+00 0.77036463E+03</pdfrwt>
<pdfrwt beam="2">  1       -2 0.18337212E+00 0.77036463E+03</pdfrwt>
<totfact> 0.33004727E+00</totfact>
</mgrwt>
</event>
<event>
 4    5  0.6615028E-008  0.1109432E+04  0.7818608E-02  0.9250627E-01
         -2   -1    0    0    0  501 -0.00000000000E+00  0.00000000000E+00  0.44987187385E+03  0.44987187386E+03  0.25500000000E-02 0.  1.
          2   -1    0    0  501    0  0.00000000000E+00 -0.00000000000E+00 -0.26274373972E+04  0.26274373972E+04  0.25500000000E-02 0. -1.
    8880023    1    1    2    0    0 -0.84234210987E+03  0.29578509579E+03 -0.60792154449E+03  0.12650722760E+04  0.65864270000E+03 0.  0.
    8880022    1    1    2    0    0  0.84234210987E+03 -0.29578509579E+03 -0.15696439789E+04  0.18122369951E+04  0.15294330000E+03 0.  0.
<mgrwt>
<rscale>  0 0.10545813E+04</rscale>
<asrwt>0</asrwt>
<pdfrwt beam="1">  1        2 0.40422113E+00 0.11094320E+04</pdfrwt>
<pdfrwt beam="2">  1       -2 0.69211059E-01 0.11094320E+04</pdfrwt>
<totfact> 0.55861934E+00</totfact>
</mgrwt>
</event>
<event>
 4    5  0.6615028E-008  0.7459465E+03  0.7818608E-02  0.9842952E-01
          2   -1    0    0  501    0  0.00000000000E+00  0.00000000000E+00  0.74459377681E+03  0.74459377682E+03  0.25500000000E-02 0. -1.
         -2   -1    0    0    0  501 -0.00000000000E+00 -0.00000000000E+00 -0.12167073810E+04  0.12167073810E+04  0.25500000000E-02 0.  1.
    8880023    1    1    2    0    0  0.40126357737E+02 -0.34787327412E+03  0.51256694909E+03  0.90507514771E+03  0.65864270000E+03 0. -1.
    8880022    1    1    2    0    0 -0.40126357737E+02  0.34787327412E+03 -0.98468055332E+03  0.10562260102E+04  0.15294330000E+03 0.  0.
<mgrwt>
<rscale>  0 0.63107561E+03</rscale>
<asrwt>0</asrwt>
<pdfrwt beam="1">  1        2 0.11455289E+00 0.74594648E+03</pdfrwt>
<pdfrwt beam="2">  1       -2 0.18718575E+00 0.74594648E+03</pdfrwt>
<totfact> 0.62520139E+00</totfact>
</mgrwt>
</event>
<event>
 4    5  0.6615028E-008  0.6833744E+03  0.7818608E-02  0.1007476E+00
          2   -1    0    0  501    0  0.00000000000E+00  0.00000000000E+00  0.14554573965E+04  0.14554573965E+04  0.25500000000E-02 0. -1.
         -2   -1    0    0    0  501 -0.00000000000E+00 -0.00000000000E+00 -0.43535244381E+03  0.43535244382E+03  0.25500000000E-02 0.  1.
    8880023    1    1    2    0    0 -0.13306239804E+03  0.12443800705E+03  0.13328823947E+04  0.14978571707E+04  0.65864270000E+03 0.  0.
    8880022    1    1    2    0    0  0.13306239804E+03 -0.12443800705E+03 -0.31277744199E+03  0.39295266967E+03  0.15294330000E+03 0.  1.
<mgrwt>
<rscale>  0 0.52490282E+03</rscale>
<asrwt>0</asrwt>
<pdfrwt beam="1">  1        2 0.22391652E+00 0.68337444E+03</pdfrwt>
<pdfrwt beam="2">  1       -2 0.66977300E-01 0.68337444E+03</pdfrwt>
<totfact> 0.28380457E+01</totfact>
</mgrwt>
</event>
<event>
 4    5  0.6615028E-008  0.8976888E+03  0.7818608E-02  0.9529752E-01
          2   -1    0    0  501    0  0.00000000000E+00  0.00000000000E+00  0.31086665615E+04  0.31086665615E+04  0.25500000000E-02 0. -1.
         -2   -1    0    0    0  501 -0.00000000000E+00 -0.00000000000E+00 -0.26147062977E+03  0.26147062978E+03  0.25500000000E-02 0.  1.
    8880023    1    1    2    0    0  0.60824331431E+03 -0.45552708205E+02  0.24901441793E+04  0.26470102415E+04  0.65864270000E+03 0.  0.
    8880022    1    1    2    0    0 -0.60824331431E+03  0.45552708205E+02  0.35705175250E+03  0.72312694985E+03  0.15294330000E+03 0.  0.
<mgrwt>
<rscale>  0 0.82125418E+03</rscale>
<asrwt>0</asrwt>
<pdfrwt beam="1">  1        2 0.47825638E+00 0.89768880E+03</pdfrwt>
<pdfrwt beam="2">  1       -2 0.40226252E-01 0.89768880E+03</pdfrwt>
<totfact> 0.90465654E+00</totfact>
</mgrwt>
</event>
<event>
 4    5  0.6615028E-008  0.1357732E+04  0.7818608E-02  0.9017242E-01
         -2   -1    0    0    0  501 -0.00000000000E+00  0.00000000000E+00  0.68036743902E+03  0.68036743903E+03  0.25500000000E-02 0.  1.
          2   -1    0    0  501    0  0.00000000000E+00 -0.00000000000E+00 -0.34108011149E+04  0.34108011149E+04  0.25500000000E-02 0. -1.
    8880023    1    1    2    0    0  0.53632874380E+03  0.10592346871E+04 -0.31265321938E+03  0.13932655474E+04  0.65864270000E+03 0.  0.
    8880022    1    1    2    0    0 -0.53632874380E+03 -0.10592346871E+04 -0.24177804565E+04  0.26979030065E+04  0.15294330000E+03 0.  0.
<mgrwt>
<rscale>  0 0.13156551E+04</rscale>
<asrwt>0</asrwt>
<pdfrwt beam="1">  1        2 0.52473862E+00 0.13577322E+04</pdfrwt>
<pdfrwt beam="2">  1       -2 0.10467192E+00 0.13577322E+04</pdfrwt>
<totfact> 0.67797531E-01</totfact>
</mgrwt>
</event>
<event>
 4    5  0.6615028E-008  0.7139282E+03  0.7818608E-02  0.9943693E-01
         -2   -1    0    0    0  501 -0.00000000000E+00  0.00000000000E+00  0.20203955917E+03  0.20203955919E+03  0.25500000000E-02 0.  1.
          2   -1    0    0  501    0  0.00000000000E+00 -0.00000000000E+00 -0.44438952900E+04  0.44438952900E+04  0.25500000000E-02 0. -1.
    8880023    1    1    2    0    0  0.13109247044E+03 -0.24227680738E+03 -0.42703061987E+04  0.43295737116E+04  0.65864270000E+03 0. -1.
    8880022    1    1    2    0    0 -0.13109247044E+03  0.24227680738E+03  0.28450467938E+02  0.31636113753E+03  0.15294330000E+03 0.  0.
<mgrwt>
<rscale>  0 0.58189666E+03</rscale>
<asrwt>0</asrwt>
<pdfrwt beam="1">  1        2 0.68367612E+00 0.71392821E+03</pdfrwt>
<pdfrwt beam="2">  1       -2 0.31083012E-01 0.71392821E+03</pdfrwt>
<totfact> 0.15299921E+00</totfact>
</mgrwt>
</event>
<event>
 4    5  0.6615028E-008  0.9197951E+03  0.7818608E-02  0.9494973E-01
         -2   -1    0    0    0  501 -0.00000000000E+00  0.00000000000E+00  0.25632678131E+03  0.25632678132E+03  0.25500000000E-02 0.  1.
          2   -1    0    0  501    0  0.00000000000E+00 -0.00000000000E+00 -0.35559951526E+04  0.35559951526E+04  0.25500000000E-02 0. -1.
    8880023    1    1    2    0    0  0.52416741101E+03 -0.37075782059E+03 -0.77486779997E+03  0.12026816495E+04  0.65864270000E+03 0.  1.
    8880022    1    1    2    0    0 -0.52416741101E+03  0.37075782059E+03 -0.25248005714E+04  0.26096402845E+04  0.15294330000E+03 0.  0.
<mgrwt>
<rscale>  0 0.84655439E+03</rscale>
<asrwt>0</asrwt>
<pdfrwt beam="1">  1        2 0.54707614E+00 0.91979511E+03</pdfrwt>
<pdfrwt beam="2">  1       -2 0.39434892E-01 0.91979511E+03</pdfrwt>
<totfact> 0.47498410E+00</totfact>
</mgrwt>
</event>
<event>
 4    5  0.6615028E-008  0.9224850E+03  0.7818608E-02  0.9490859E-01
         -2   -1    0    0    0  501 -0.00000000000E+00  0.00000000000E+00  0.26522240874E+03  0.26522240875E+03  0.25500000000E-02 0.  1.
          2   -1    0    0  501    0  0.00000000000E+00 -0.00000000000E+00 -0.25506688364E+04  0.25506688364E+04  0.25500000000E-02 0. -1.
    8880023    1    1    2    0    0 -0.64581444571E+03 -0.95985796371E+01 -0.16843268834E+04  0.19203998770E+04  0.65864270000E+03 0. -1.
    8880022    1    1    2    0    0  0.64581444571E+03  0.95985796371E+01 -0.60111954430E+03  0.89549136823E+03  0.15294330000E+03 0.  0.
<mgrwt>
<rscale>  0 0.84961103E+03</rscale>
<asrwt>0</asrwt>
<pdfrwt beam="1">  1        2 0.39241057E+00 0.92248503E+03</pdfrwt>
<pdfrwt beam="2">  1       -2 0.40803449E-01 0.92248503E+03</pdfrwt>
<totfact> 0.18915949E+01</totfact>
</mgrwt>
</event>
<event>
 4    5  0.6615028E-008  0.8810838E+03  0.7818608E-02  0.9557107E-01
         -2   -1    0    0    0  501 -0.00000000000E+00  0.00000000000E+00  0.71305056334E+03  0.71305056334E+03  0.25500000000E-02 0.  1.
          2   -1    0    0  501    0  0.00000000000E+00 -0.00000000000E+00 -0.30837191748E+04  0.30837191748E+04  0.25500000000E-02 0. -1.
    8880023    1    1    2    0    0 -0.29280207619E+03  0.50672025221E+03 -0.28763998290E+04  0.30083192405E+04  0.65864270000E+03 0. -1.
    8880022    1    1    2    0    0  0.29280207619E+03 -0.50672025221E+03  0.50573121758E+03  0.78845049767E+03  0.15294330000E+03 0.  0.
<mgrwt>
<rscale>  0 0.80201363E+03</rscale>
<asrwt>0</asrwt>
<pdfrwt beam="1">  1        2 0.47441833E+00 0.88108381E+03</pdfrwt>
<pdfrwt beam="2">  1       -2 0.10970009E+00 0.88108381E+03</pdfrwt>
<totfact> 0.10628297E+00</totfact>
</mgrwt>
</event>
<event>
 4    5  0.7658483E-008  0.8453029E+03  0.7818608E-02  0.9620261E-01
          2   -1    0    0  501    0  0.00000000000E+00  0.00000000000E+00  0.24735498871E+04  0.24735498871E+04  0.25500000000E-02 0. -1.
         -2   -1    0    0    0  501 -0.00000000000E+00 -0.00000000000E+00 -0.12886935379E+04  0.12886935379E+04  0.25500000000E-02 0.  1.
    8880023    1    1    2    0    0 -0.43305316782E+03 -0.30527329003E+03  0.23368607142E+04  0.24850462836E+04  0.65864270000E+03 0. -1.
    8880022    1    1    2    0    0  0.43305316782E+03  0.30527329003E+03 -0.11520043650E+04  0.12771971413E+04  0.15294330000E+03 0.  0.
<mgrwt>
<rscale>  0 0.75969563E+03</rscale>
<asrwt>0</asrwt>
<pdfrwt beam="1">  1        2 0.38054614E+00 0.84530292E+03</pdfrwt>
<pdfrwt beam="2">  1       -2 0.19826054E+00 0.84530292E+03</pdfrwt>
<totfact> 0.50991482E-01</totfact>
</mgrwt>
</event>
<event>
 4    5  0.6615028E-008  0.6740895E+03  0.7818608E-02  0.1012886E+00
          2   -1    0    0  501    0  0.00000000000E+00  0.00000000000E+00  0.71315979051E+03  0.71315979052E+03  0.25500000000E-02 0. -1.
         -2   -1    0    0    0  501 -0.00000000000E+00 -0.00000000000E+00 -0.30383485450E+03  0.30383485451E+03  0.25500000000E-02 0.  1.
    8880023    1    1    2    0    0 -0.62827961791E+02  0.12899258040E+03  0.44010281333E+03  0.80503858985E+03  0.65864270000E+03 0. -1.
    8880022    1    1    2    0    0  0.62827961791E+02 -0.12899258040E+03 -0.30777877317E+02  0.21195605518E+03  0.15294330000E+03 0.  0.
<mgrwt>
<rscale>  0 0.50343420E+03</rscale>
<asrwt>0</asrwt>
<pdfrwt beam="1">  1        2 0.10971689E+00 0.67408949E+03</pdfrwt>
<pdfrwt beam="2">  1       -2 0.46743824E-01 0.67408949E+03</pdfrwt>
<totfact> 0.17606466E+02</totfact>
</mgrwt>
</event>
<event>
 4    5  0.6615028E-008  0.1257925E+04  0.7818608E-02  0.9102774E-01
          2   -1    0    0  501    0  0.00000000000E+00  0.00000000000E+00  0.29944465362E+04  0.29944465362E+04  0.25500000000E-02 0. -1.
         -2   -1    0    0    0  501 -0.00000000000E+00 -0.00000000000E+00 -0.62205992827E+03  0.62205992827E+03  0.25500000000E-02 0.  1.
    8880023    1    1    2    0    0  0.10086903570E+04  0.36208846545E+03  0.21801122799E+04  0.25169950442E+04  0.65864270000E+03 0.  0.
    8880022    1    1    2    0    0 -0.10086903570E+04 -0.36208846545E+03  0.19227432797E+03  0.10995114203E+04  0.15294330000E+03 0.  0.
<mgrwt>
<rscale>  0 0.12115878E+04</rscale>
<asrwt>0</asrwt>
<pdfrwt beam="1">  1        2 0.46068409E+00 0.12579247E+04</pdfrwt>
<pdfrwt beam="2">  1       -2 0.95701525E-01 0.12579247E+04</pdfrwt>
<totfact> 0.15817840E+00</totfact>
</mgrwt>
</event>
<event>
 4    5  0.6615028E-008  0.7166473E+03  0.7818608E-02  0.9934098E-01
          2   -1    0    0  501    0  0.00000000000E+00  0.00000000000E+00  0.10386627936E+04  0.10386627936E+04  0.25500000000E-02 0. -1.
         -2   -1    0    0    0  501 -0.00000000000E+00 -0.00000000000E+00 -0.25953245485E+03  0.25953245486E+03  0.25500000000E-02 0.  1.
    8880023    1    1    2    0    0  0.19416249382E+03 -0.20511950336E+03  0.55748850968E+03  0.90795194221E+03  0.65864270000E+03 0.  1.
    8880022    1    1    2    0    0 -0.19416249382E+03  0.20511950336E+03  0.22164182907E+03  0.39024330625E+03  0.15294330000E+03 0. -1.
<mgrwt>
<rscale>  0 0.58636831E+03</rscale>
<asrwt>0</asrwt>
<pdfrwt beam="1">  1        2 0.15979427E+00 0.71664726E+03</pdfrwt>
<pdfrwt beam="2">  1       -2 0.39928071E-01 0.71664726E+03</pdfrwt>
<totfact> 0.14328236E+02</totfact>
</mgrwt>
</event>
<event>
 4    5  0.6615028E-008  0.9212527E+03  0.7818608E-02  0.9492741E-01
          2   -1    0    0  501    0  0.00000000000E+00  0.00000000000E+00  0.14436216080E+04  0.14436216080E+04  0.25500000000E-02 0. -1.
         -2   -1    0    0    0  501 -0.00000000000E+00 -0.00000000000E+00 -0.12496089936E+04  0.12496089936E+04  0.25500000000E-02 0.  1.
    8880023    1    1    2    0    0 -0.19299052850E+03 -0.61453311502E+03  0.11852911131E+04  0.15012066889E+04  0.65864270000E+03 0. -1.
    8880022    1    1    2    0    0  0.19299052850E+03  0.61453311502E+03 -0.99127849869E+03  0.11920239127E+04  0.15294330000E+03 0.  0.
<mgrwt>
<rscale>  0 0.84821122E+03</rscale>
<asrwt>0</asrwt>
<pdfrwt beam="1">  1        2 0.22209563E+00 0.92125268E+03</pdfrwt>
<pdfrwt beam="2">  1       -2 0.19224754E+00 0.92125268E+03</pdfrwt>
<totfact> 0.20524484E+00</totfact>
</mgrwt>
</event>
<event>
 4    5  0.6615028E-008  0.9792489E+03  0.7818608E-02  0.9409224E-01
         -2   -1    0    0    0  501 -0.00000000000E+00  0.00000000000E+00  0.49988623104E+03  0.49988623105E+03  0.25500000000E-02 0.  1.
          2   -1    0    0  501    0  0.00000000000E+00 -0.00000000000E+00 -0.17298580130E+04  0.17298580130E+04  0.25500000000E-02 0. -1.
    8880023    1    1    2    0    0 -0.62361922525E+03 -0.36907620248E+03 -0.11087492251E+04  0.14792745627E+04  0.65864270000E+03 0.  0.
    8880022    1    1    2    0    0  0.62361922525E+03  0.36907620248E+03 -0.12122255685E+03  0.75046968136E+03  0.15294330000E+03 0.  0.
<mgrwt>
<rscale>  0 0.91320413E+03</rscale>
<asrwt>0</asrwt>
<pdfrwt beam="1">  1        2 0.26613200E+00 0.97924889E+03</pdfrwt>
<pdfrwt beam="2">  1       -2 0.76905575E-01 0.97924889E+03</pdfrwt>
<totfact> 0.14273526E+01</totfact>
</mgrwt>
</event>
<event>
 4    5  0.6615028E-008  0.6673273E+03  0.7818608E-02  0.1017656E+00
          2   -1    0    0  501    0  0.00000000000E+00  0.00000000000E+00  0.15293628925E+04  0.15293628925E+04  0.25500000000E-02 0. -1.
         -2   -1    0    0    0  501 -0.00000000000E+00 -0.00000000000E+00 -0.13346285078E+03  0.13346285080E+03  0.25500000000E-02 0.  1.
    8880023    1    1    2    0    0  0.53197231744E+02  0.93196684849E+02  0.12784604102E+04  0.14421465925E+04  0.65864270000E+03 0.  0.
    8880022    1    1    2    0    0 -0.53197231744E+02 -0.93196684849E+02  0.11743963151E+03  0.22067915080E+03  0.15294330000E+03 0. -1.
<mgrwt>
<rscale>  0 0.48542104E+03</rscale>
<asrwt>0</asrwt>
<pdfrwt beam="1">  1        2 0.23528662E+00 0.66732734E+03</pdfrwt>
<pdfrwt beam="2">  1       -2 0.20532745E-01 0.66732734E+03</pdfrwt>
<totfact> 0.25408806E+02</totfact>
</mgrwt>
</event>
<event>
 4    5  0.6615028E-008  0.1135191E+04  0.7818608E-02  0.9222851E-01
         -2   -1    0    0    0  501 -0.00000000000E+00  0.00000000000E+00  0.61100331277E+03  0.61100331277E+03  0.25500000000E-02 0.  1.
          2   -1    0    0  501    0  0.00000000000E+00 -0.00000000000E+00 -0.34056344672E+04  0.34056344672E+04  0.25500000000E-02 0. -1.
    8880023    1    1    2    0    0 -0.76669433707E+03  0.51674771927E+03 -0.28601626488E+04  0.30772047373E+04  0.65864270000E+03 0. -1.
    8880022    1    1    2    0    0  0.76669433707E+03 -0.51674771927E+03  0.65531494309E+02  0.93943304265E+03  0.15294330000E+03 0.  0.
<mgrwt>
<rscale>  0 0.10820650E+04</rscale>
<asrwt>0</asrwt>
<pdfrwt beam="1">  1        2 0.52394375E+00 0.11351910E+04</pdfrwt>
<pdfrwt beam="2">  1       -2 0.94000512E-01 0.11351910E+04</pdfrwt>
<totfact> 0.91074284E-01</totfact>
</mgrwt>
</event>
<event>
 4    5  0.6615028E-008  0.8682658E+03  0.7818608E-02  0.9579026E-01
         -2   -1    0    0    0  501 -0.00000000000E+00  0.00000000000E+00  0.15463345513E+04  0.15463345513E+04  0.25500000000E-02 0.  1.
          2   -1    0    0  501    0  0.00000000000E+00 -0.00000000000E+00 -0.11175820202E+04  0.11175820202E+04  0.25500000000E-02 0. -1.
    8880023    1    1    2    0    0  0.16479277337E+03 -0.54121953199E+03 -0.87611805518E+03  0.12334781282E+04  0.65864270000E+03 0. -1.
    8880022    1    1    2    0    0 -0.16479277337E+03  0.54121953199E+03  0.13048705863E+04  0.14304384433E+04  0.15294330000E+03 0.  0.
<mgrwt>
<rscale>  0 0.78700070E+03</rscale>
<asrwt>0</asrwt>
<pdfrwt beam="1">  1        2 0.17193569E+00 0.86826577E+03</pdfrwt>
<pdfrwt beam="2">  1       -2 0.23789762E+00 0.86826577E+03</pdfrwt>
<totfact> 0.16440245E+00</totfact>
</mgrwt>
</event>
<event>
 4    5  0.6615028E-008  0.9613104E+03  0.7818608E-02  0.9434024E-01
          2   -1    0    0  501    0  0.00000000000E+00  0.00000000000E+00  0.33215635692E+04  0.33215635692E+04  0.25500000000E-02 0. -1.
         -2   -1    0    0    0  501 -0.00000000000E+00 -0.00000000000E+00 -0.47099872041E+03  0.47099872042E+03  0.25500000000E-02 0.  1.
    8880023    1    1    2    0    0 -0.65668929977E+03 -0.24303632945E+03  0.29183822800E+04  0.30726328828E+04  0.65864270000E+03 0. -1.
    8880022    1    1    2    0    0  0.65668929977E+03  0.24303632945E+03 -0.67817431198E+02  0.71992940685E+03  0.15294330000E+03 0.  0.
<mgrwt>
<rscale>  0 0.89327738E+03</rscale>
<asrwt>0</asrwt>
<pdfrwt beam="1">  1        2 0.51100980E+00 0.96131041E+03</pdfrwt>
<pdfrwt beam="2">  1       -2 0.72461339E-01 0.96131041E+03</pdfrwt>
<totfact> 0.19254973E+00</totfact>
</mgrwt>
</event>
<event>
 4    5  0.6615028E-008  0.1643233E+04  0.7818608E-02  0.8814602E-01
         -2   -1    0    0    0  501 -0.00000000000E+00  0.00000000000E+00  0.13720148255E+04  0.13720148255E+04  0.25500000000E-02 0.  1.
          2   -1    0    0  501    0  0.00000000000E+00 -0.00000000000E+00 -0.26365085849E+04  0.26365085849E+04  0.25500000000E-02 0. -1.
    8880023    1    1    2    0    0  0.11625528466E+04 -0.95649198345E+03 -0.17680252248E+04  0.24137376488E+04  0.65864270000E+03 0.  0.
    8880022    1    1    2    0    0 -0.11625528466E+04  0.95649198345E+03  0.50353146538E+03  0.15947857615E+04  0.15294330000E+03 0.  0.
<mgrwt>
<rscale>  0 0.16097154E+04</rscale>
<asrwt>0</asrwt>
<pdfrwt beam="1">  1        2 0.40561671E+00 0.16432335E+04</pdfrwt>
<pdfrwt beam="2">  1       -2 0.21107920E+00 0.16432335E+04</pdfrwt>
<totfact> 0.30178937E-01</totfact>
</mgrwt>
</event>
<event>
 4    5  0.6615028E-008  0.1547466E+04  0.7818608E-02  0.8876826E-01
          2   -1    0    0  501    0  0.00000000000E+00  0.00000000000E+00  0.10969547736E+04  0.10969547736E+04  0.25500000000E-02 0. -1.
         -2   -1    0    0    0  501 -0.00000000000E+00 -0.00000000000E+00 -0.22194147384E+04  0.22194147384E+04  0.25500000000E-02 0.  1.
    8880023    1    1    2    0    0  0.20418248344E+03 -0.13853342958E+04 -0.54075778013E+02  0.15484107961E+04  0.65864270000E+03 0.  0.
    8880022    1    1    2    0    0 -0.20418248344E+03  0.13853342958E+04 -0.10683841867E+04  0.17679587159E+04  0.15294330000E+03 0.  0.
<mgrwt>
<rscale>  0 0.15115238E+04</rscale>
<asrwt>0</asrwt>
<pdfrwt beam="1">  1        2 0.16876227E+00 0.15474663E+04</pdfrwt>
<pdfrwt beam="2">  1       -2 0.34144842E+00 0.15474663E+04</pdfrwt>
<totfact> 0.36321487E-01</totfact>
</mgrwt>
</event>
<event>
 4    5  0.6615028E-008  0.1178994E+04  0.7818608E-02  0.9177817E-01
          2   -1    0    0  501    0  0.00000000000E+00  0.00000000000E+00  0.98199826672E+03  0.98199826672E+03  0.25500000000E-02 0. -1.
         -2   -1    0    0    0  501 -0.00000000000E+00 -0.00000000000E+00 -0.24333890571E+04  0.24333890571E+04  0.25500000000E-02 0.  1.
    8880023    1    1    2    0    0 -0.97268999144E+03 -0.10044914919E+03  0.45791153166E+03  0.12647960421E+04  0.65864270000E+03 0.  0.
    8880022    1    1    2    0    0  0.97268999144E+03  0.10044914919E+03 -0.19093023220E+04  0.21505912817E+04  0.15294330000E+03 0.  0.
<mgrwt>
<rscale>  0 0.11285352E+04</rscale>
<asrwt>0</asrwt>
<pdfrwt beam="1">  1        2 0.15107666E+00 0.11789937E+04</pdfrwt>
<pdfrwt beam="2">  1       -2 0.37436754E+00 0.11789937E+04</pdfrwt>
<totfact> 0.27813276E-01</totfact>
</mgrwt>
</event>
<event>
 4    5  0.6615028E-008  0.7321655E+03  0.7818608E-02  0.9883385E-01
          2   -1    0    0  501    0  0.00000000000E+00  0.00000000000E+00  0.99969325793E+03  0.99969325793E+03  0.25500000000E-02 0. -1.
         -2   -1    0    0    0  501 -0.00000000000E+00 -0.00000000000E+00 -0.52240160708E+03  0.52240160708E+03  0.25500000000E-02 0.  1.
    8880023    1    1    2    0    0  0.13085270091E+03 -0.29177687990E+03  0.76990045184E+03  0.10624561586E+04  0.65864270000E+03 0. -1.
    8880022    1    1    2    0    0 -0.13085270091E+03  0.29177687990E+03 -0.29260880099E+03  0.45963870639E+03  0.15294330000E+03 0.  0.
<mgrwt>
<rscale>  0 0.61073293E+03</rscale>
<asrwt>0</asrwt>
<pdfrwt beam="1">  1        2 0.15379896E+00 0.73216554E+03</pdfrwt>
<pdfrwt beam="2">  1       -2 0.80369478E-01 0.73216554E+03</pdfrwt>
<totfact> 0.35083808E+01</totfact>
</mgrwt>
</event>
<event>
 4    5  0.6615028E-008  0.1263406E+04  0.7818608E-02  0.9097823E-01
         -2   -1    0    0    0  501 -0.00000000000E+00  0.00000000000E+00  0.30647600960E+04  0.30647600960E+04  0.25500000000E-02 0.  1.
          2   -1    0    0  501    0  0.00000000000E+00 -0.00000000000E+00 -0.89154361425E+03  0.89154361426E+03  0.25500000000E-02 0. -1.
    8880023    1    1    2    0    0  0.99640345414E+03 -0.41178289932E+03 -0.26058663015E+03  0.12900002317E+04  0.65864270000E+03 0.  0.
    8880022    1    1    2    0    0 -0.99640345414E+03  0.41178289932E+03  0.24338031119E+04  0.26663034787E+04  0.15294330000E+03 0.  0.
<mgrwt>
<rscale>  0 0.12173280E+04</rscale>
<asrwt>0</asrwt>
<pdfrwt beam="1">  1        2 0.13716055E+00 0.12634062E+04</pdfrwt>
<pdfrwt beam="2">  1       -2 0.47150156E+00 0.12634062E+04</pdfrwt>
<totfact> 0.72655898E-02</totfact>
</mgrwt>
</event>
<event>
 4    5  0.6615028E-008  0.1706302E+04  0.7818608E-02  0.8776218E-01
         -2   -1    0    0    0  501 -0.00000000000E+00  0.00000000000E+00  0.12924537765E+04  0.12924537765E+04  0.25500000000E-02 0.  1.
          2   -1    0    0  501    0  0.00000000000E+00 -0.00000000000E+00 -0.30017977463E+04  0.30017977463E+04  0.25500000000E-02 0. -1.
    8880023    1    1    2    0    0  0.23899521592E+03  0.15558076756E+04  0.30491947171E+03  0.17333327225E+04  0.65864270000E+03 0.  0.
    8880022    1    1    2    0    0 -0.23899521592E+03 -0.15558076756E+04 -0.20142634415E+04  0.25609188002E+04  0.15294330000E+03 0.  0.
<mgrwt>
<rscale>  0 0.16741994E+04</rscale>
<asrwt>0</asrwt>
<pdfrwt beam="1">  1        2 0.46181504E+00 0.17063020E+04</pdfrwt>
<pdfrwt beam="2">  1       -2 0.19883904E+00 0.17063020E+04</pdfrwt>
<totfact> 0.21638310E-01</totfact>
</mgrwt>
</event>
<event>
 4    5  0.6615028E-008  0.1006235E+04  0.7818608E-02  0.9373445E-01
          2   -1    0    0  501    0  0.00000000000E+00  0.00000000000E+00  0.23484306762E+04  0.23484306762E+04  0.25500000000E-02 0. -1.
         -2   -1    0    0    0  501 -0.00000000000E+00 -0.00000000000E+00 -0.97306845985E+03  0.97306845985E+03  0.25500000000E-02 0.  1.
    8880023    1    1    2    0    0  0.32542066266E+03 -0.68760501432E+03  0.20561988811E+04  0.22892058248E+04  0.65864270000E+03 0. -1.
    8880022    1    1    2    0    0 -0.32542066266E+03  0.68760501432E+03 -0.68083666474E+03  0.10322933113E+04  0.15294330000E+03 0.  0.
<mgrwt>
<rscale>  0 0.94293644E+03</rscale>
<asrwt>0</asrwt>
<pdfrwt beam="1">  1        2 0.36129702E+00 0.10062353E+04</pdfrwt>
<pdfrwt beam="2">  1       -2 0.14970284E+00 0.10062353E+04</pdfrwt>
<totfact> 0.12842643E+00</totfact>
</mgrwt>
</event>
<event>
 4    5  0.6615028E-008  0.1795874E+04  0.7818608E-02  0.8724822E-01
         -2   -1    0    0    0  501 -0.00000000000E+00  0.00000000000E+00  0.31029142676E+04  0.31029142676E+04  0.25500000000E-02 0.  1.
          2   -1    0    0  501    0  0.00000000000E+00 -0.00000000000E+00 -0.20476927801E+04  0.20476927801E+04  0.25500000000E-02 0. -1.
    8880023    1    1    2    0    0  0.48614486204E+03  0.15984419679E+04 -0.13297879750E+04  0.22346140195E+04  0.65864270000E+03 0. -1.
    8880022    1    1    2    0    0 -0.48614486204E+03 -0.15984419679E+04  0.23850094625E+04  0.29159930282E+04  0.15294330000E+03 0.  0.
<mgrwt>
<rscale>  0 0.17655776E+04</rscale>
<asrwt>0</asrwt>
<pdfrwt beam="1">  1        2 0.31502966E+00 0.17958741E+04</pdfrwt>
<pdfrwt beam="2">  1       -2 0.47737142E+00 0.17958741E+04</pdfrwt>
<totfact> 0.12976801E-02</totfact>
</mgrwt>
</event>
<event>
 4    5  0.6615028E-008  0.1337899E+04  0.7818608E-02  0.9033504E-01
         -2   -1    0    0    0  501 -0.00000000000E+00  0.00000000000E+00  0.13712083596E+04  0.13712083596E+04  0.25500000000E-02 0.  1.
          2   -1    0    0  501    0  0.00000000000E+00 -0.00000000000E+00 -0.15645205768E+04  0.15645205768E+04  0.25500000000E-02 0. -1.
    8880023    1    1    2    0    0  0.65625850506E+03  0.96202290525E+03  0.65230525575E+03  0.14884473953E+04  0.65864270000E+03 0.  1.
    8880022    1    1    2    0    0 -0.65625850506E+03 -0.96202290525E+03 -0.84561747298E+03  0.14472815411E+04  0.15294330000E+03 0.  0.
<mgrwt>
<rscale>  0 0.12950450E+04</rscale>
<asrwt>0</asrwt>
<pdfrwt beam="1">  1        2 0.24069547E+00 0.13378989E+04</pdfrwt>
<pdfrwt beam="2">  1       -2 0.21095513E+00 0.13378989E+04</pdfrwt>
<totfact> 0.12598289E+00</totfact>
</mgrwt>
</event>
<event>
 4    5  0.6615028E-008  0.7871076E+03  0.7818608E-02  0.9739398E-01
          2   -1    0    0  501    0  0.00000000000E+00  0.00000000000E+00  0.23245962635E+04  0.23245962635E+04  0.25500000000E-02 0. -1.
         -2   -1    0    0    0  501 -0.00000000000E+00 -0.00000000000E+00 -0.21965912793E+03  0.21965912795E+03  0.25500000000E-02 0.  1.
    8880023    1    1    2    0    0 -0.81735718568E+02  0.42313989128E+03  0.65525364705E+03  0.10241560640E+04  0.65864270000E+03 0.  1.
    8880022    1    1    2    0    0  0.81735718568E+02 -0.42313989128E+03  0.14496834885E+04  0.15200993274E+04  0.15294330000E+03 0. -1.
<mgrwt>
<rscale>  0 0.68718701E+03</rscale>
<asrwt>0</asrwt>
<pdfrwt beam="1">  1        2 0.35763020E+00 0.78710755E+03</pdfrwt>
<pdfrwt beam="2">  1       -2 0.33793711E-01 0.78710755E+03</pdfrwt>
<totfact> 0.37149140E+01</totfact>
</mgrwt>
</event>
<event>
 4    5  0.6615028E-008  0.1044547E+04  0.7818608E-02  0.9325465E-01
         -2   -1    0    0    0  501 -0.00000000000E+00  0.00000000000E+00  0.13116087486E+04  0.13116087486E+04  0.25500000000E-02 0.  1.
          2   -1    0    0  501    0  0.00000000000E+00 -0.00000000000E+00 -0.70310121433E+03  0.70310121433E+03  0.25500000000E-02 0. -1.
    8880023    1    1    2    0    0 -0.77427453545E+03  0.24034890428E+03  0.10890635893E+03  0.10502092426E+04  0.65864270000E+03 0.  0.
    8880022    1    1    2    0    0  0.77427453545E+03 -0.24034890428E+03  0.49960117534E+03  0.96450072030E+03  0.15294330000E+03 0.  0.
<mgrwt>
<rscale>  0 0.98471909E+03</rscale>
<asrwt>0</asrwt>
<pdfrwt beam="1">  1        2 0.10816942E+00 0.10445472E+04</pdfrwt>
<pdfrwt beam="2">  1       -2 0.20178596E+00 0.10445472E+04</pdfrwt>
<totfact> 0.52190956E+00</totfact>
</mgrwt>
</event>
<event>
 4    5  0.6615028E-008  0.1178141E+04  0.7818608E-02  0.9178670E-01
          2   -1    0    0  501    0  0.00000000000E+00  0.00000000000E+00  0.15660001610E+04  0.15660001610E+04  0.25500000000E-02 0. -1.
         -2   -1    0    0    0  501 -0.00000000000E+00 -0.00000000000E+00 -0.86189492007E+03  0.86189492008E+03  0.25500000000E-02 0.  1.
    8880023    1    1    2    0    0 -0.16158004842E+03 -0.96337797774E+03  0.81558218691E+03  0.14328955823E+04  0.65864270000E+03 0. -1.
    8880022    1    1    2    0    0  0.16158004842E+03  0.96337797774E+03 -0.11147694596E+03  0.99499949876E+03  0.15294330000E+03 0.  0.
<mgrwt>
<rscale>  0 0.11276332E+04</rscale>
<asrwt>0</asrwt>
<pdfrwt beam="1">  1        2 0.24092310E+00 0.11781407E+04</pdfrwt>
<pdfrwt beam="2">  1       -2 0.13259922E+00 0.11781407E+04</pdfrwt>
<totfact> 0.46950158E+00</totfact>
</mgrwt>
</event>
<event>
 4    5  0.6615028E-008  0.1143842E+04  0.7818608E-02  0.9213744E-01
         -2   -1    0    0    0  501 -0.00000000000E+00  0.00000000000E+00  0.88726426337E+03  0.88726426337E+03  0.25500000000E-02 0.  1.
          2   -1    0    0  501    0  0.00000000000E+00 -0.00000000000E+00 -0.35941650702E+04  0.35941650702E+04  0.25500000000E-02 0. -1.
    8880023    1    1    2    0    0 -0.60433200890E+03 -0.71368627687E+03 -0.32105979407E+04  0.34082715006E+04  0.65864270000E+03 0. -1.
    8880022    1    1    2    0    0  0.60433200890E+03  0.71368627687E+03  0.50369713387E+03  0.10731578330E+04  0.15294330000E+03 0.  0.
<mgrwt>
<rscale>  0 0.10912684E+04</rscale>
<asrwt>0</asrwt>
<pdfrwt beam="1">  1        2 0.55294846E+00 0.11438424E+04</pdfrwt>
<pdfrwt beam="2">  1       -2 0.13650220E+00 0.11438424E+04</pdfrwt>
<totfact> 0.26932975E-01</totfact>
</mgrwt>
</event>
<event>
 4    5  0.6615028E-008  0.1463931E+04  0.7818608E-02  0.8935535E-01
          2   -1    0    0  501    0  0.00000000000E+00  0.00000000000E+00  0.36186878283E+04  0.36186878283E+04  0.25500000000E-02 0. -1.
         -2   -1    0    0    0  501 -0.00000000000E+00 -0.00000000000E+00 -0.12730745094E+04  0.12730745094E+04  0.25500000000E-02 0.  1.
    8880023    1    1    2    0    0  0.12521512682E+04 -0.37603256802E+03  0.30614048534E+04  0.33934190978E+04  0.65864270000E+03 0.  0.
    8880022    1    1    2    0    0 -0.12521512682E+04  0.37603256802E+03 -0.71579153446E+03  0.14983432399E+04  0.15294330000E+03 0.  0.
<mgrwt>
<rscale>  0 0.14255421E+04</rscale>
<asrwt>0</asrwt>
<pdfrwt beam="1">  1        2 0.55672121E+00 0.14639308E+04</pdfrwt>
<pdfrwt beam="2">  1       -2 0.19585761E+00 0.14639308E+04</pdfrwt>
<totfact> 0.90510912E-02</totfact>
</mgrwt>
</event>
<event>
 4    5  0.6615028E-008  0.9572609E+03  0.7818608E-02  0.9439743E-01
          2   -1    0    0  501    0  0.00000000000E+00  0.00000000000E+00  0.17464159959E+04  0.17464159959E+04  0.25500000000E-02 0. -1.
         -2   -1    0    0    0  501 -0.00000000000E+00 -0.00000000000E+00 -0.10784259249E+04  0.10784259249E+04  0.25500000000E-02 0.  1.
    8880023    1    1    2    0    0  0.65628796875E+03 -0.22764976113E+03  0.14691481317E+04  0.17534950102E+04  0.65864270000E+03 0.  0.
    8880022    1    1    2    0    0 -0.65628796875E+03  0.22764976113E+03 -0.80115806065E+03  0.10713469106E+04  0.15294330000E+03 0.  1.
<mgrwt>
<rscale>  0 0.88875909E+03</rscale>
<asrwt>0</asrwt>
<pdfrwt beam="1">  1        2 0.26867939E+00 0.95726095E+03</pdfrwt>
<pdfrwt beam="2">  1       -2 0.16591168E+00 0.95726095E+03</pdfrwt>
<totfact> 0.21079473E+00</totfact>
</mgrwt>
</event>
<event>
 4    5  0.6615028E-008  0.6616998E+03  0.7818608E-02  0.1022479E+00
          2   -1    0    0  501    0  0.00000000000E+00  0.00000000000E+00  0.11777299269E+04  0.11777299269E+04  0.25500000000E-02 0. -1.
         -2   -1    0    0    0  501 -0.00000000000E+00 -0.00000000000E+00 -0.16946975304E+03  0.16946975306E+03  0.25500000000E-02 0.  1.
    8880023    1    1    2    0    0  0.58642706378E+02  0.24443375123E+02  0.97491164334E+03  0.11782611613E+04  0.65864270000E+03 0. -1.
    8880022    1    1    2    0    0 -0.58642706378E+02 -0.24443375123E+02  0.33348530543E+02  0.16893851871E+03  0.15294330000E+03 0.  0.
<mgrwt>
<rscale>  0 0.46802626E+03</rscale>
<asrwt>0</asrwt>
<pdfrwt beam="1">  1        2 0.18118922E+00 0.66169982E+03</pdfrwt>
<pdfrwt beam="2">  1       -2 0.26072270E-01 0.66169982E+03</pdfrwt>
<totfact> 0.26341991E+02</totfact>
</mgrwt>
</event>
<event>
 4    5  0.6615028E-008  0.1786398E+04  0.7818608E-02  0.8730098E-01
         -2   -1    0    0    0  501 -0.00000000000E+00  0.00000000000E+00  0.22260926098E+04  0.22260926098E+04  0.25500000000E-02 0.  1.
          2   -1    0    0  501    0  0.00000000000E+00 -0.00000000000E+00 -0.17743851779E+04  0.17743851779E+04  0.25500000000E-02 0. -1.
    8880023    1    1    2    0    0  0.14864313224E+04 -0.74022373239E+03 -0.75776598727E+03  0.19404712696E+04  0.65864270000E+03 0.  0.
    8880022    1    1    2    0    0 -0.14864313224E+04  0.74022373239E+03  0.12094734192E+04  0.20600065182E+04  0.15294330000E+03 0.  0.
<mgrwt>
<rscale>  0 0.17559211E+04</rscale>
<asrwt>0</asrwt>
<pdfrwt beam="1">  1        2 0.27298234E+00 0.17863985E+04</pdfrwt>
<pdfrwt beam="2">  1       -2 0.34247579E+00 0.17863985E+04</pdfrwt>
<totfact> 0.14082963E-01</totfact>
</mgrwt>
</event>
<event>
 4    5  0.3848111E-007  0.1309138E+04  0.7818608E-02  0.9057709E-01
          2   -1    0    0  501    0  0.00000000000E+00  0.00000000000E+00  0.35146766369E+04  0.35146766369E+04  0.25500000000E-02 0. -1.
         -2   -1    0    0    0  501 -0.00000000000E+00 -0.00000000000E+00 -0.19166501094E+04  0.19166501094E+04  0.25500000000E-02 0.  1.
    8880023    1    1    2    0    0  0.46943844430E+03  0.10293972117E+04  0.32038660233E+04  0.34610112357E+04  0.65864270000E+03 0. -1.
    8880022    1    1    2    0    0 -0.46943844430E+03 -0.10293972117E+04 -0.16058394958E+04  0.19703155107E+04  0.15294330000E+03 0.  0.
<mgrwt>
<rscale>  0 0.12650994E+04</rscale>
<asrwt>0</asrwt>
<pdfrwt beam="1">  1        2 0.54071948E+00 0.13091376E+04</pdfrwt>
<pdfrwt beam="2">  1       -2 0.29486925E+00 0.13091376E+04</pdfrwt>
<totfact> 0.26519435E-02</totfact>
</mgrwt>
</event>
<event>
 4    5  0.6615028E-008  0.7615062E+03  0.7818608E-02  0.9801224E-01
         -2   -1    0    0    0  501 -0.00000000000E+00  0.00000000000E+00  0.22272793049E+03  0.22272793050E+03  0.25500000000E-02 0.  1.
          2   -1    0    0  501    0  0.00000000000E+00 -0.00000000000E+00 -0.28050105250E+04  0.28050105250E+04  0.25500000000E-02 0. -1.
    8880023    1    1    2    0    0  0.30394388386E+03 -0.23173167773E+03 -0.24927126083E+04  0.26064358440E+04  0.65864270000E+03 0. -1.
    8880022    1    1    2    0    0 -0.30394388386E+03  0.23173167773E+03 -0.89569986183E+02  0.42130261148E+03  0.15294330000E+03 0.  0.
<mgrwt>
<rscale>  0 0.65296916E+03</rscale>
<asrwt>0</asrwt>
<pdfrwt beam="1">  1        2 0.43154006E+00 0.76150618E+03</pdfrwt>
<pdfrwt beam="2">  1       -2 0.34265837E-01 0.76150618E+03</pdfrwt>
<totfact> 0.19269664E+01</totfact>
</mgrwt>
</event>
<event>
 4    5  0.6615028E-008  0.8342282E+03  0.7818608E-02  0.9641161E-01
          2   -1    0    0  501    0  0.00000000000E+00  0.00000000000E+00  0.12173658684E+04  0.12173658684E+04  0.25500000000E-02 0. -1.
         -2   -1    0    0    0  501 -0.00000000000E+00 -0.00000000000E+00 -0.64845799574E+03  0.64845799574E+03  0.25500000000E-02 0.  1.
    8880023    1    1    2    0    0  0.38224232524E+02 -0.51055394323E+03 -0.26508998153E+03  0.87533383658E+03  0.65864270000E+03 0.  1.
    8880022    1    1    2    0    0 -0.38224232524E+02  0.51055394323E+03  0.83399785418E+03  0.99049002756E+03  0.15294330000E+03 0.  0.
<mgrwt>
<rscale>  0 0.74630755E+03</rscale>
<asrwt>0</asrwt>
<pdfrwt beam="1">  1        2 0.18728705E+00 0.83422816E+03</pdfrwt>
<pdfrwt beam="2">  1       -2 0.99762770E-01 0.83422816E+03</pdfrwt>
<totfact> 0.15517501E+01</totfact>
</mgrwt>
</event>
<event>
 4    5  0.6909159E-008  0.1040031E+04  0.7818608E-02  0.9330963E-01
         -2   -1    0    0    0  501 -0.00000000000E+00  0.00000000000E+00  0.16865030145E+04  0.16865030146E+04  0.25500000000E-02 0.  1.
          2   -1    0    0  501    0  0.00000000000E+00 -0.00000000000E+00 -0.22430964114E+04  0.22430964114E+04  0.25500000000E-02 0. -1.
    8880023    1    1    2    0    0  0.79653666524E+03 -0.11568350525E+03 -0.20088886293E+04  0.22621443508E+04  0.65864270000E+03 0.  0.
    8880022    1    1    2    0    0 -0.79653666524E+03  0.11568350525E+03  0.14522952325E+04  0.16674550752E+04  0.15294330000E+03 0.  0.
<mgrwt>
<rscale>  0 0.97981640E+03</rscale>
<asrwt>0</asrwt>
<pdfrwt beam="1">  1        2 0.34509176E+00 0.10400305E+04</pdfrwt>
<pdfrwt beam="2">  1       -2 0.25946200E+00 0.10400305E+04</pdfrwt>
<totfact> 0.27473155E-01</totfact>
</mgrwt>
</event>
<event>
 4    5  0.6615028E-008  0.9625625E+03  0.7818608E-02  0.9432265E-01
          2   -1    0    0  501    0  0.00000000000E+00  0.00000000000E+00  0.33677491655E+04  0.33677491655E+04  0.25500000000E-02 0. -1.
         -2   -1    0    0    0  501 -0.00000000000E+00 -0.00000000000E+00 -0.34354199225E+03  0.34354199226E+03  0.25500000000E-02 0.  1.
    8880023    1    1    2    0    0  0.31467536864E+03 -0.62745180768E+03  0.27967151944E+04  0.29577258905E+04  0.65864270000E+03 0.  0.
    8880022    1    1    2    0    0 -0.31467536864E+03  0.62745180768E+03  0.22749197889E+03  0.75356526729E+03  0.15294330000E+03 0.  0.
<mgrwt>
<rscale>  0 0.89467289E+03</rscale>
<asrwt>0</asrwt>
<pdfrwt beam="1">  1        2 0.51811522E+00 0.96256250E+03</pdfrwt>
<pdfrwt beam="2">  1       -2 0.52852618E-01 0.96256250E+03</pdfrwt>
<totfact> 0.35189018E+00</totfact>
</mgrwt>
</event>
<event>
 4    5  0.6615028E-008  0.1137705E+04  0.7818608E-02  0.9220194E-01
         -2   -1    0    0    0  501 -0.00000000000E+00  0.00000000000E+00  0.12525491316E+04  0.12525491316E+04  0.25500000000E-02 0.  1.
          2   -1    0    0  501    0  0.00000000000E+00 -0.00000000000E+00 -0.10510736466E+04  0.10510736466E+04  0.25500000000E-02 0. -1.
    8880023    1    1    2    0    0  0.41116595983E+03 -0.83156742610E+03 -0.37841157036E+03  0.11989859689E+04  0.65864270000E+03 0. -1.
    8880022    1    1    2    0    0 -0.41116595983E+03  0.83156742610E+03  0.57988705539E+03  0.11046368094E+04  0.15294330000E+03 0.  0.
<mgrwt>
<rscale>  0 0.10847405E+04</rscale>
<asrwt>0</asrwt>
<pdfrwt beam="1">  1        2 0.16170364E+00 0.11377047E+04</pdfrwt>
<pdfrwt beam="2">  1       -2 0.19269987E+00 0.11377047E+04</pdfrwt>
<totfact> 0.33980194E+00</totfact>
</mgrwt>
</event>
<event>
 4    5  0.6615028E-008  0.7531871E+03  0.7818608E-02  0.9823076E-01
          2   -1    0    0  501    0  0.00000000000E+00  0.00000000000E+00  0.18216007103E+04  0.18216007103E+04  0.25500000000E-02 0. -1.
         -2   -1    0    0    0  501 -0.00000000000E+00 -0.00000000000E+00 -0.59439117787E+03  0.59439117787E+03  0.25500000000E-02 0.  1.
    8880023    1    1    2    0    0 -0.24965611012E+03  0.26674425453E+03  0.16639050819E+04  0.18264366943E+04  0.65864270000E+03 0. -1.
    8880022    1    1    2    0    0  0.24965611012E+03 -0.26674425453E+03 -0.43669554945E+03  0.58955519383E+03  0.15294330000E+03 0.  0.
<mgrwt>
<rscale>  0 0.64138746E+03</rscale>
<asrwt>0</asrwt>
<pdfrwt beam="1">  1        2 0.28024626E+00 0.75318715E+03</pdfrwt>
<pdfrwt beam="2">  1       -2 0.91444797E-01 0.75318715E+03</pdfrwt>
<totfact> 0.88137286E+00</totfact>
</mgrwt>
</event>
<event>
 4    5  0.6615028E-008  0.2109254E+04  0.7818608E-02  0.8568374E-01
          2   -1    0    0  501    0  0.00000000000E+00  0.00000000000E+00  0.31670221690E+04  0.31670221690E+04  0.25500000000E-02 0. -1.
         -2   -1    0    0    0  501 -0.00000000000E+00 -0.00000000000E+00 -0.18871192251E+04  0.18871192251E+04  0.25500000000E-02 0.  1.
    8880023    1    1    2    0    0 -0.18950247893E+04  0.65117157046E+03 -0.71046754030E+03  0.22256948799E+04  0.65864270000E+03 0.  0.
    8880022    1    1    2    0    0  0.18950247893E+04 -0.65117157046E+03  0.19903704842E+04  0.28284465142E+04  0.15294330000E+03 0.  0.
<mgrwt>
<rscale>  0 0.20838895E+04</rscale>
<asrwt>0</asrwt>
<pdfrwt beam="1">  1        2 0.48723417E+00 0.21092543E+04</pdfrwt>
<pdfrwt beam="2">  1       -2 0.29032604E+00 0.21092543E+04</pdfrwt>
<totfact> 0.43414833E-02</totfact>
</mgrwt>
</event>
<event>
 4    5  0.6615028E-008  0.1212203E+04  0.7818608E-02  0.9145351E-01
         -2   -1    0    0    0  501 -0.00000000000E+00  0.00000000000E+00  0.11738932735E+04  0.11738932735E+04  0.25500000000E-02 0.  1.
          2   -1    0    0  501    0  0.00000000000E+00 -0.00000000000E+00 -0.15593483398E+04  0.15593483398E+04  0.25500000000E-02 0. -1.
    8880023    1    1    2    0    0 -0.88949088358E+03 -0.49439976751E+03 -0.96749450201E+03  0.15509613083E+04  0.65864270000E+03 0.  0.
    8880022    1    1    2    0    0  0.88949088358E+03  0.49439976751E+03  0.58203943570E+03  0.11822803051E+04  0.15294330000E+03 0.  0.
<mgrwt>
<rscale>  0 0.11635748E+04</rscale>
<asrwt>0</asrwt>
<pdfrwt beam="1">  1        2 0.23989974E+00 0.12122027E+04</pdfrwt>
<pdfrwt beam="2">  1       -2 0.18059896E+00 0.12122027E+04</pdfrwt>
<totfact> 0.20457395E+00</totfact>
</mgrwt>
</event>
<event>
 4    5  0.6615028E-008  0.7321919E+03  0.7818608E-02  0.9883304E-01
          2   -1    0    0  501    0  0.00000000000E+00  0.00000000000E+00  0.16156008957E+04  0.16156008957E+04  0.25500000000E-02 0. -1.
         -2   -1    0    0    0  501 -0.00000000000E+00 -0.00000000000E+00 -0.50190474962E+03  0.50190474962E+03  0.25500000000E-02 0.  1.
    8880023    1    1    2    0    0 -0.31979907960E+03 -0.48366340589E+01  0.14528239983E+04  0.16268996959E+04  0.65864270000E+03 0.  0.
    8880022    1    1    2    0    0  0.31979907960E+03  0.48366340589E+01 -0.33912785225E+03  0.49060594935E+03  0.15294330000E+03 0.  0.
<mgrwt>
<rscale>  0 0.61077294E+03</rscale>
<asrwt>0</asrwt>
<pdfrwt beam="1">  1        2 0.24855398E+00 0.73219195E+03</pdfrwt>
<pdfrwt beam="2">  1       -2 0.77216115E-01 0.73219195E+03</pdfrwt>
<totfact> 0.16827396E+01</totfact>
</mgrwt>
</event>
<event>
 4    5  0.6615028E-008  0.6628000E+03  0.7818608E-02  0.1021455E+00
         -2   -1    0    0    0  501 -0.00000000000E+00  0.00000000000E+00  0.23761533947E+03  0.23761533948E+03  0.25500000000E-02 0.  1.
          2   -1    0    0  501    0  0.00000000000E+00 -0.00000000000E+00 -0.12529015925E+04  0.12529015925E+04  0.25500000000E-02 0. -1.
    8880023    1    1    2    0    0  0.22285638791E+02  0.70689766722E+02 -0.11123129604E+04  0.12948142805E+04  0.65864270000E+03 0. -1.
    8880022    1    1    2    0    0 -0.22285638791E+02 -0.70689766722E+02  0.97026707427E+02  0.19570265145E+03  0.15294330000E+03 0.  0.
<mgrwt>
<rscale>  0 0.47165191E+03</rscale>
<asrwt>0</asrwt>
<pdfrwt beam="1">  1        2 0.19275409E+00 0.66280004E+03</pdfrwt>
<pdfrwt beam="2">  1       -2 0.36556207E-01 0.66280004E+03</pdfrwt>
<totfact> 0.12682593E+02</totfact>
</mgrwt>
</event>
<event>
 4    5  0.6615028E-008  0.1053536E+04  0.7818608E-02  0.9314643E-01
          2   -1    0    0  501    0  0.00000000000E+00  0.00000000000E+00  0.14702346393E+04  0.14702346393E+04  0.25500000000E-02 0. -1.
         -2   -1    0    0    0  501 -0.00000000000E+00 -0.00000000000E+00 -0.23402685955E+04  0.23402685955E+04  0.25500000000E-02 0.  1.
    8880023    1    1    2    0    0 -0.76686182449E+03 -0.29673230625E+03  0.11886913751E+04  0.15883716539E+04  0.65864270000E+03 0. -1.
    8880022    1    1    2    0    0  0.76686182449E+03  0.29673230625E+03 -0.20587253314E+04  0.22221315808E+04  0.15294330000E+03 0.  0.
<mgrwt>
<rscale>  0 0.99445891E+03</rscale>
<asrwt>0</asrwt>
<pdfrwt beam="1">  1        2 0.22618994E+00 0.10535356E+04</pdfrwt>
<pdfrwt beam="2">  1       -2 0.36004132E+00 0.10535356E+04</pdfrwt>
<totfact> 0.17811501E-01</totfact>
</mgrwt>
</event>
<event>
 4    5  0.6615028E-008  0.7462671E+03  0.7818608E-02  0.9842054E-01
          2   -1    0    0  501    0  0.00000000000E+00  0.00000000000E+00  0.10080951776E+04  0.10080951776E+04  0.25500000000E-02 0. -1.
         -2   -1    0    0    0  501 -0.00000000000E+00 -0.00000000000E+00 -0.16071985192E+04  0.16071985192E+04  0.25500000000E-02 0.  1.
    8880023    1    1    2    0    0 -0.15964120986E+03  0.31244053859E+03  0.84148445178E+03  0.11247269424E+04  0.65864270000E+03 0. -1.
    8880022    1    1    2    0    0  0.15964120986E+03 -0.31244053859E+03 -0.14405877933E+04  0.14905667544E+04  0.15294330000E+03 0.  0.
<mgrwt>
<rscale>  0 0.63153725E+03</rscale>
<asrwt>0</asrwt>
<pdfrwt beam="1">  1        2 0.15509157E+00 0.74626712E+03</pdfrwt>
<pdfrwt beam="2">  1       -2 0.24726131E+00 0.74626712E+03</pdfrwt>
<totfact> 0.17195613E+00</totfact>
</mgrwt>
</event>
<event>
 4    5  0.6866759E-008  0.8254663E+03  0.7818608E-02  0.9658219E-01
         -2   -1    0    0    0  501 -0.00000000000E+00  0.00000000000E+00  0.12843543284E+04  0.12843543284E+04  0.25500000000E-02 0.  1.
          2   -1    0    0  501    0  0.00000000000E+00 -0.00000000000E+00 -0.22671768834E+04  0.22671768834E+04  0.25500000000E-02 0. -1.
    8880023    1    1    2    0    0 -0.71971891202E+02 -0.49234584649E+03 -0.21340216887E+04  0.22881090795E+04  0.65864270000E+03 0. -1.
    8880022    1    1    2    0    0  0.71971891202E+02  0.49234584649E+03  0.11511991337E+04  0.12634221322E+04  0.15294330000E+03 0.  0.
<mgrwt>
<rscale>  0 0.73559855E+03</rscale>
<asrwt>0</asrwt>
<pdfrwt beam="1">  1        2 0.34879644E+00 0.82546629E+03</pdfrwt>
<pdfrwt beam="2">  1       -2 0.19759297E+00 0.82546629E+03</pdfrwt>
<totfact> 0.67519926E-01</totfact>
</mgrwt>
</event>
<event>
 4    5  0.7298266E-008  0.1077376E+04  0.7818608E-02  0.9286673E-01
          2   -1    0    0  501    0  0.00000000000E+00  0.00000000000E+00  0.20230228765E+04  0.20230228765E+04  0.25500000000E-02 0. -1.
         -2   -1    0    0    0  501 -0.00000000000E+00 -0.00000000000E+00 -0.18097022978E+04  0.18097022978E+04  0.25500000000E-02 0.  1.
    8880023    1    1    2    0    0 -0.37321069084E+03 -0.76657910367E+03  0.17579305181E+04  0.20618098008E+04  0.65864270000E+03 0.  0.
    8880022    1    1    2    0    0  0.37321069084E+03  0.76657910367E+03 -0.15446099394E+04  0.17709153735E+04  0.15294330000E+03 0.  0.
<mgrwt>
<rscale>  0 0.10201911E+04</rscale>
<asrwt>0</asrwt>
<pdfrwt beam="1">  1        2 0.31123429E+00 0.10773764E+04</pdfrwt>
<pdfrwt beam="2">  1       -2 0.27841574E+00 0.10773764E+04</pdfrwt>
<totfact> 0.27766482E-01</totfact>
</mgrwt>
</event>
<event>
 4    5  0.6615028E-008  0.8261507E+03  0.7818608E-02  0.9656869E-01
         -2   -1    0    0    0  501 -0.00000000000E+00  0.00000000000E+00  0.19047835805E+04  0.19047835805E+04  0.25500000000E-02 0.  1.
          2   -1    0    0  501    0  0.00000000000E+00 -0.00000000000E+00 -0.72597249391E+03  0.72597249392E+03  0.25500000000E-02 0. -1.
    8880023    1    1    2    0    0 -0.23305034015E+03  0.44091080005E+03 -0.43574620343E+03  0.93402342300E+03  0.65864270000E+03 0. -1.
    8880022    1    1    2    0    0  0.23305034015E+03 -0.44091080005E+03  0.16145572900E+04  0.16967326514E+04  0.15294330000E+03 0.  0.
<mgrwt>
<rscale>  0 0.73643906E+03</rscale>
<asrwt>0</asrwt>
<pdfrwt beam="1">  1        2 0.11168808E+00 0.82615071E+03</pdfrwt>
<pdfrwt beam="2">  1       -2 0.29304363E+00 0.82615071E+03</pdfrwt>
<totfact> 0.14104516E+00</totfact>
</mgrwt>
</event>
<event>
 4    5  0.6615028E-008  0.8670051E+03  0.7818608E-02  0.9581222E-01
          2   -1    0    0  501    0  0.00000000000E+00  0.00000000000E+00  0.13208589677E+04  0.13208589677E+04  0.25500000000E-02 0. -1.
         -2   -1    0    0    0  501 -0.00000000000E+00 -0.00000000000E+00 -0.48699804748E+03  0.48699804748E+03  0.25500000000E-02 0.  1.
    8880023    1    1    2    0    0  0.60242032393E+02 -0.56058770956E+03  0.86252029876E+03  0.12229632679E+04  0.65864270000E+03 0.  0.
    8880022    1    1    2    0    0 -0.60242032393E+02  0.56058770956E+03 -0.28659378574E+02  0.58489374725E+03  0.15294330000E+03 0.  0.
<mgrwt>
<rscale>  0 0.78551593E+03</rscale>
<asrwt>0</asrwt>
<pdfrwt beam="1">  1        2 0.20320907E+00 0.86700513E+03</pdfrwt>
<pdfrwt beam="2">  1       -2 0.74922777E-01 0.86700513E+03</pdfrwt>
<totfact> 0.25943614E+01</totfact>
</mgrwt>
</event>
<event>
 4    5  0.6615028E-008  0.6945734E+03  0.7818608E-02  0.1002050E+00
          2   -1    0    0  501    0  0.00000000000E+00  0.00000000000E+00  0.21976369769E+04  0.21976369769E+04  0.25500000000E-02 0. -1.
         -2   -1    0    0    0  501 -0.00000000000E+00 -0.00000000000E+00 -0.79918082561E+03  0.79918082561E+03  0.25500000000E-02 0.  1.
    8880023    1    1    2    0    0 -0.18218037957E+03 -0.12422689981E+03  0.21179366405E+04  0.22289207776E+04  0.65864270000E+03 0. -1.
    8880022    1    1    2    0    0  0.18218037957E+03  0.12422689981E+03 -0.71948048927E+03  0.76789702486E+03  0.15294330000E+03 0.  0.
<mgrwt>
<rscale>  0 0.54760257E+03</rscale>
<asrwt>0</asrwt>
<pdfrwt beam="1">  1        2 0.33809800E+00 0.69457341E+03</pdfrwt>
<pdfrwt beam="2">  1       -2 0.12295090E+00 0.69457341E+03</pdfrwt>
<totfact> 0.27257663E+00</totfact>
</mgrwt>
</event>
<event>
 4    5  0.6615028E-008  0.1146145E+04  0.7818608E-02  0.9211338E-01
         -2   -1    0    0    0  501 -0.00000000000E+00  0.00000000000E+00  0.16658534774E+04  0.16658534774E+04  0.25500000000E-02 0.  1.
          2   -1    0    0  501    0  0.00000000000E+00 -0.00000000000E+00 -0.18883018357E+04  0.18883018357E+04  0.25500000000E-02 0. -1.
    8880023    1    1    2    0    0  0.88631413179E+03 -0.30706044453E+03 -0.15461333413E+04  0.19246239560E+04  0.65864270000E+03 0.  0.
    8880022    1    1    2    0    0 -0.88631413179E+03  0.30706044453E+03  0.13236849829E+04  0.16295313571E+04  0.15294330000E+03 0.  0.
<mgrwt>
<rscale>  0 0.10937160E+04</rscale>
<asrwt>0</asrwt>
<pdfrwt beam="1">  1        2 0.29050797E+00 0.11461453E+04</pdfrwt>
<pdfrwt beam="2">  1       -2 0.25628515E+00 0.11461453E+04</pdfrwt>
<totfact> 0.44422710E-01</totfact>
</mgrwt>
</event>
<event>
 4    5  0.6615028E-008  0.7334723E+03  0.7818608E-02  0.9879387E-01
         -2   -1    0    0    0  501 -0.00000000000E+00  0.00000000000E+00  0.16706266380E+03  0.16706266382E+03  0.25500000000E-02 0.  1.
          2   -1    0    0  501    0  0.00000000000E+00 -0.00000000000E+00 -0.35287541692E+04  0.35287541692E+04  0.25500000000E-02 0. -1.
    8880023    1    1    2    0    0 -0.18186588245E+03 -0.26663879952E+03 -0.32346010572E+04  0.33167191099E+04  0.65864270000E+03 0. -1.
    8880022    1    1    2    0    0  0.18186588245E+03  0.26663879952E+03 -0.12709044817E+03  0.37909772308E+03  0.15294330000E+03 0.  0.
<mgrwt>
<rscale>  0 0.61270783E+03</rscale>
<asrwt>0</asrwt>
<pdfrwt beam="1">  1        2 0.54288520E+00 0.73347233E+03</pdfrwt>
<pdfrwt beam="2">  1       -2 0.25701951E-01 0.73347233E+03</pdfrwt>
<totfact> 0.11461890E+01</totfact>
</mgrwt>
</event>
<event>
 4    5  0.6615028E-008  0.1967798E+04  0.7818608E-02  0.8634989E-01
         -2   -1    0    0    0  501 -0.00000000000E+00  0.00000000000E+00  0.29968731891E+04  0.29968731891E+04  0.25500000000E-02 0.  1.
          2   -1    0    0  501    0  0.00000000000E+00 -0.00000000000E+00 -0.12413953035E+04  0.12413953035E+04  0.25500000000E-02 0. -1.
    8880023    1    1    2    0    0  0.14570188671E+04 -0.11469594921E+04  0.64169025710E+03  0.20697817875E+04  0.65864270000E+03 0.  0.
    8880022    1    1    2    0    0 -0.14570188671E+04  0.11469594921E+04  0.11137876285E+04  0.21684867051E+04  0.15294330000E+03 0.  0.
<mgrwt>
<rscale>  0 0.19404317E+04</rscale>
<asrwt>0</asrwt>
<pdfrwt beam="1">  1        2 0.19098390E+00 0.19677983E+04</pdfrwt>
<pdfrwt beam="2">  1       -2 0.46105741E+00 0.19677983E+04</pdfrwt>
<totfact> 0.47123618E-02</totfact>
</mgrwt>
</event>
<event>
 4    5  0.6615028E-008  0.9172716E+03  0.7818608E-02  0.9498855E-01
          2   -1    0    0  501    0  0.00000000000E+00  0.00000000000E+00  0.20854987567E+04  0.20854987567E+04  0.25500000000E-02 0. -1.
         -2   -1    0    0    0  501 -0.00000000000E+00 -0.00000000000E+00 -0.50156896205E+03  0.50156896206E+03  0.25500000000E-02 0.  1.
    8880023    1    1    2    0    0 -0.55611242014E+03 -0.31355382452E+03  0.50081790603E+02  0.91863780497E+03  0.65864270000E+03 0.  0.
    8880022    1    1    2    0    0  0.55611242014E+03  0.31355382452E+03  0.15338480040E+04  0.16684299138E+04  0.15294330000E+03 0.  0.
<mgrwt>
<rscale>  0 0.84368277E+03</rscale>
<asrwt>0</asrwt>
<pdfrwt beam="1">  1        2 0.32084597E+00 0.91727162E+03</pdfrwt>
<pdfrwt beam="2">  1       -2 0.77164455E-01 0.91727162E+03</pdfrwt>
<totfact> 0.90948437E+00</totfact>
</mgrwt>
</event>
<event>
 4    5  0.6615028E-008  0.9559836E+03  0.7818608E-02  0.9441557E-01
          2   -1    0    0  501    0  0.00000000000E+00  0.00000000000E+00  0.23480723257E+04  0.23480723257E+04  0.25500000000E-02 0. -1.
         -2   -1    0    0    0  501 -0.00000000000E+00 -0.00000000000E+00 -0.56420878176E+03  0.56420878176E+03  0.25500000000E-02 0.  1.
    8880023    1    1    2    0    0 -0.46938377640E+03 -0.50967962523E+03  0.19604097694E+04  0.21810802645E+04  0.65864270000E+03 0.  0.
    8880022    1    1    2    0    0  0.46938377640E+03  0.50967962523E+03 -0.17654622552E+03  0.73120084292E+03  0.15294330000E+03 0.  0.
<mgrwt>
<rscale>  0 0.88733226E+03</rscale>
<asrwt>0</asrwt>
<pdfrwt beam="1">  1        2 0.36124190E+00 0.95598361E+03</pdfrwt>
<pdfrwt beam="2">  1       -2 0.86801351E-01 0.95598361E+03</pdfrwt>
<totfact> 0.49518234E+00</totfact>
</mgrwt>
</event>
<event>
 4    5  0.6615028E-008  0.2542445E+04  0.7818608E-02  0.8395301E-01
          2   -1    0    0  501    0  0.00000000000E+00  0.00000000000E+00  0.34744869804E+04  0.34744869804E+04  0.25500000000E-02 0. -1.
         -2   -1    0    0    0  501 -0.00000000000E+00 -0.00000000000E+00 -0.22737572799E+04  0.22737572799E+04  0.25500000000E-02 0.  1.
    8880023    1    1    2    0    0  0.17282821449E+04 -0.17444934657E+04 -0.70241019178E+03  0.26376896913E+04  0.65864270000E+03 0.  0.
    8880022    1    1    2    0    0 -0.17282821449E+04  0.17444934657E+04  0.19031398922E+04  0.31105545690E+04  0.15294330000E+03 0.  0.
<mgrwt>
<rscale>  0 0.25216829E+04</rscale>
<asrwt>0</asrwt>
<pdfrwt beam="1">  1        2 0.53453646E+00 0.25424450E+04</pdfrwt>
<pdfrwt beam="2">  1       -2 0.34980881E+00 0.25424450E+04</pdfrwt>
<totfact> 0.11000484E-02</totfact>
</mgrwt>
</event>
<event>
 4    5  0.6615028E-008  0.1212864E+04  0.7818608E-02  0.9144717E-01
          2   -1    0    0  501    0  0.00000000000E+00  0.00000000000E+00  0.33965090530E+04  0.33965090530E+04  0.25500000000E-02 0. -1.
         -2   -1    0    0    0  501 -0.00000000000E+00 -0.00000000000E+00 -0.50139391380E+03  0.50139391381E+03  0.25500000000E-02 0.  1.
    8880023    1    1    2    0    0  0.33290791272E+02 -0.10179006865E+04  0.54036707669E+03  0.13277939856E+04  0.65864270000E+03 0.  0.
    8880022    1    1    2    0    0 -0.33290791272E+02  0.10179006865E+04  0.23547480625E+04  0.25701089812E+04  0.15294330000E+03 0.  0.
<mgrwt>
<rscale>  0 0.11642715E+04</rscale>
<asrwt>0</asrwt>
<pdfrwt beam="1">  1        2 0.52253984E+00 0.12128645E+04</pdfrwt>
<pdfrwt beam="2">  1       -2 0.77137528E-01 0.12128645E+04</pdfrwt>
<totfact> 0.14377179E+00</totfact>
</mgrwt>
</event>
<event>
 4    5  0.6615028E-008  0.6620769E+03  0.7818608E-02  0.1022123E+00
         -2   -1    0    0    0  501 -0.00000000000E+00  0.00000000000E+00  0.84082371247E+03  0.84082371247E+03  0.25500000000E-02 0.  1.
          2   -1    0    0  501    0  0.00000000000E+00 -0.00000000000E+00 -0.75500798585E+03  0.75500798585E+03  0.25500000000E-02 0. -1.
    8880023    1    1    2    0    0 -0.66976322614E+02  0.70522221077E+01 -0.59783661770E+03  0.89205066524E+03  0.65864270000E+03 0. -1.
    8880022    1    1    2    0    0  0.66976322614E+02 -0.70522221077E+01  0.68365234432E+03  0.70378103309E+03  0.15294330000E+03 0.  0.
<mgrwt>
<rscale>  0 0.46928293E+03</rscale>
<asrwt>0</asrwt>
<pdfrwt beam="1">  1        2 0.11615507E+00 0.66207686E+03</pdfrwt>
<pdfrwt beam="2">  1       -2 0.12935749E+00 0.66207686E+03</pdfrwt>
<totfact> 0.16744116E+01</totfact>
</mgrwt>
</event>
<event>
 4    5  0.6615028E-008  0.6672489E+03  0.7818608E-02  0.1017717E+00
          2   -1    0    0  501    0  0.00000000000E+00  0.00000000000E+00  0.20087269533E+04  0.20087269533E+04  0.25500000000E-02 0. -1.
         -2   -1    0    0    0  501 -0.00000000000E+00 -0.00000000000E+00 -0.11093188815E+03  0.11093188818E+03  0.25500000000E-02 0.  1.
    8880023    1    1    2    0    0 -0.93810637703E+02 -0.51092330570E+02  0.17751199474E+04  0.18963839000E+04  0.65864270000E+03 0. -1.
    8880022    1    1    2    0    0  0.93810637703E+02  0.51092330570E+02  0.12267511772E+03  0.22327494152E+03  0.15294330000E+03 0.  0.
<mgrwt>
<rscale>  0 0.48519601E+03</rscale>
<asrwt>0</asrwt>
<pdfrwt beam="1">  1        2 0.30903489E+00 0.66724888E+03</pdfrwt>
<pdfrwt beam="2">  1       -2 0.17066446E-01 0.66724888E+03</pdfrwt>
<totfact> 0.19174808E+02</totfact>
</mgrwt>
</event>
<event>
 4    5  0.6615028E-008  0.6722656E+03  0.7818608E-02  0.1014088E+00
          2   -1    0    0  501    0  0.00000000000E+00  0.00000000000E+00  0.27023732993E+04  0.27023732993E+04  0.25500000000E-02 0. -1.
         -2   -1    0    0    0  501 -0.00000000000E+00 -0.00000000000E+00 -0.11360238345E+04  0.11360238345E+04  0.25500000000E-02 0.  1.
    8880023    1    1    2    0    0  0.12847891357E+03 -0.40299561903E+02  0.26509282231E+04  0.27348421410E+04  0.65864270000E+03 0. -1.
    8880022    1    1    2    0    0 -0.12847891357E+03  0.40299561903E+02 -0.10845787584E+04  0.11035549928E+04  0.15294330000E+03 0.  0.
<mgrwt>
<rscale>  0 0.49881692E+03</rscale>
<asrwt>0</asrwt>
<pdfrwt beam="1">  1        2 0.41574974E+00 0.67226564E+03</pdfrwt>
<pdfrwt beam="2">  1       -2 0.17477290E+00 0.67226564E+03</pdfrwt>
<totfact> 0.56483714E-01</totfact>
</mgrwt>
</event>
<event>
 4    5  0.6615028E-008  0.8607717E+03  0.7818608E-02  0.9592192E-01
          2   -1    0    0  501    0  0.00000000000E+00  0.00000000000E+00  0.16588846981E+04  0.16588846981E+04  0.25500000000E-02 0. -1.
         -2   -1    0    0    0  501 -0.00000000000E+00 -0.00000000000E+00 -0.76139870241E+03  0.76139870241E+03  0.25500000000E-02 0.  1.
    8880023    1    1    2    0    0  0.59314334646E+02  0.55099861722E+03  0.14087649620E+04  0.16509229513E+04  0.65864270000E+03 0.  0.
    8880022    1    1    2    0    0 -0.59314334646E+02 -0.55099861722E+03 -0.51127896634E+03  0.76936044927E+03  0.15294330000E+03 0.  0.
<mgrwt>
<rscale>  0 0.77815110E+03</rscale>
<asrwt>0</asrwt>
<pdfrwt beam="1">  1        2 0.25521303E+00 0.86077167E+03</pdfrwt>
<pdfrwt beam="2">  1       -2 0.11713826E+00 0.86077167E+03</pdfrwt>
<totfact> 0.58989280E+00</totfact>
</mgrwt>
</event>
<event>
 4    5  0.6615028E-008  0.1479632E+04  0.7818608E-02  0.8924154E-01
          2   -1    0    0  501    0  0.00000000000E+00  0.00000000000E+00  0.11658741747E+04  0.11658741747E+04  0.25500000000E-02 0. -1.
         -2   -1    0    0    0  501 -0.00000000000E+00 -0.00000000000E+00 -0.29396092042E+04  0.29396092042E+04  0.25500000000E-02 0.  1.
    8880023    1    1    2    0    0 -0.98025882627E+03 -0.89140044901E+03 -0.22468643796E+04  0.26902995881E+04  0.65864270000E+03 0.  0.
    8880022    1    1    2    0    0  0.98025882627E+03  0.89140044901E+03  0.47312935009E+03  0.14151837909E+04  0.15294330000E+03 0.  0.
<mgrwt>
<rscale>  0 0.14417307E+04</rscale>
<asrwt>0</asrwt>
<pdfrwt beam="1">  1        2 0.17936526E+00 0.14796325E+04</pdfrwt>
<pdfrwt beam="2">  1       -2 0.45224757E+00 0.14796325E+04</pdfrwt>
<totfact> 0.63071009E-02</totfact>
</mgrwt>
</event>
<event>
 4    5  0.6615028E-008  0.7188421E+03  0.7818608E-02  0.9926524E-01
         -2   -1    0    0    0  501 -0.00000000000E+00  0.00000000000E+00  0.29072678242E+03  0.29072678243E+03  0.25500000000E-02 0.  1.
          2   -1    0    0  501    0  0.00000000000E+00 -0.00000000000E+00 -0.95076325864E+03  0.95076325864E+03  0.25500000000E-02 0. -1.
    8880023    1    1    2    0    0 -0.28251643736E+03 -0.55751469547E+02 -0.51691630116E+03  0.88540184798E+03  0.65864270000E+03 0. -1.
    8880022    1    1    2    0    0  0.28251643736E+03  0.55751469547E+02 -0.14312017507E+03  0.35608819310E+03  0.15294330000E+03 0.  1.
<mgrwt>
<rscale>  0 0.58992888E+03</rscale>
<asrwt>0</asrwt>
<pdfrwt beam="1">  1        2 0.14627127E+00 0.71884210E+03</pdfrwt>
<pdfrwt beam="2">  1       -2 0.44727198E-01 0.71884210E+03</pdfrwt>
<totfact> 0.13038782E+02</totfact>
</mgrwt>
</event>
<event>
 4    5  0.6615028E-008  0.6962027E+03  0.7818608E-02  0.1001333E+00
          2   -1    0    0  501    0  0.00000000000E+00  0.00000000000E+00  0.16136139162E+04  0.16136139162E+04  0.25500000000E-02 0. -1.
         -2   -1    0    0    0  501 -0.00000000000E+00 -0.00000000000E+00 -0.35207116500E+03  0.35207116501E+03  0.25500000000E-02 0.  1.
    8880023    1    1    2    0    0  0.18852776047E+03 -0.12387604826E+03  0.14673696816E+04  0.16241526962E+04  0.65864270000E+03 0. -1.
    8880022    1    1    2    0    0 -0.18852776047E+03  0.12387604826E+03 -0.20582693033E+03  0.34153238509E+03  0.15294330000E+03 0.  0.
<mgrwt>
<rscale>  0 0.55069420E+03</rscale>
<asrwt>0</asrwt>
<pdfrwt beam="1">  1        2 0.24824830E+00 0.69620270E+03</pdfrwt>
<pdfrwt beam="2">  1       -2 0.54164794E-01 0.69620270E+03</pdfrwt>
<totfact> 0.36268278E+01</totfact>
</mgrwt>
</event>
<event>
 4    5  0.6615028E-008  0.7907377E+03  0.7818608E-02  0.9731193E-01
          2   -1    0    0  501    0  0.00000000000E+00  0.00000000000E+00  0.10447764580E+04  0.10447764580E+04  0.25500000000E-02 0. -1.
         -2   -1    0    0    0  501 -0.00000000000E+00 -0.00000000000E+00 -0.65130146632E+03  0.65130146633E+03  0.25500000000E-02 0.  1.
    8880023    1    1    2    0    0 -0.41860060744E+02 -0.43554977853E+03  0.76637624506E+03  0.11011805617E+04  0.65864270000E+03 0.  0.
    8880022    1    1    2    0    0  0.41860060744E+02  0.43554977853E+03 -0.37290125337E+03  0.59489736261E+03  0.15294330000E+03 0.  0.
<mgrwt>
<rscale>  0 0.69189568E+03</rscale>
<asrwt>0</asrwt>
<pdfrwt beam="1">  1        2 0.16073484E+00 0.79073768E+03</pdfrwt>
<pdfrwt beam="2">  1       -2 0.10020023E+00 0.79073768E+03</pdfrwt>
<totfact> 0.19638156E+01</totfact>
</mgrwt>
</event>
<event>
 4    5  0.6615028E-008  0.1217235E+04  0.7818608E-02  0.9140548E-01
          2   -1    0    0  501    0  0.00000000000E+00  0.00000000000E+00  0.19997418903E+04  0.19997418903E+04  0.25500000000E-02 0. -1.
         -2   -1    0    0    0  501 -0.00000000000E+00 -0.00000000000E+00 -0.11976046496E+04  0.11976046496E+04  0.25500000000E-02 0.  1.
    8880023    1    1    2    0    0 -0.35872373114E+03  0.95873216506E+03  0.15129032057E+04  0.19417869079E+04  0.65864270000E+03 0. -1.
    8880022    1    1    2    0    0  0.35872373114E+03 -0.95873216506E+03 -0.71076596497E+03  0.12555596320E+04  0.15294330000E+03 0.  0.
<mgrwt>
<rscale>  0 0.11688712E+04</rscale>
<asrwt>0</asrwt>
<pdfrwt beam="1">  1        2 0.30765260E+00 0.12172347E+04</pdfrwt>
<pdfrwt beam="2">  1       -2 0.18424687E+00 0.12172347E+04</pdfrwt>
<totfact> 0.10986533E+00</totfact>
</mgrwt>
</event>
<event>
 4    5  0.6615028E-008  0.7934728E+03  0.7818608E-02  0.9725091E-01
         -2   -1    0    0    0  501 -0.00000000000E+00  0.00000000000E+00  0.17507869627E+03  0.17507869629E+03  0.25500000000E-02 0.  1.
          2   -1    0    0  501    0  0.00000000000E+00 -0.00000000000E+00 -0.30294899187E+04  0.30294899187E+04  0.25500000000E-02 0. -1.
    8880023    1    1    2    0    0  0.76897044731E+02 -0.43574736523E+03 -0.24838056976E+04  0.26074680959E+04  0.65864270000E+03 0.  0.
    8880022    1    1    2    0    0 -0.76897044731E+02  0.43574736523E+03 -0.37060552489E+03  0.59710051908E+03  0.15294330000E+03 0.  1.
<mgrwt>
<rscale>  0 0.69542340E+03</rscale>
<asrwt>0</asrwt>
<pdfrwt beam="1">  1        2 0.46607533E+00 0.79347283E+03</pdfrwt>
<pdfrwt beam="2">  1       -2 0.26935186E-01 0.79347283E+03</pdfrwt>
<totfact> 0.21969518E+01</totfact>
</mgrwt>
</event>
<event>
 4    5  0.6615028E-008  0.8289314E+03  0.7818608E-02  0.9651415E-01
          2   -1    0    0  501    0  0.00000000000E+00  0.00000000000E+00  0.11498704551E+04  0.11498704551E+04  0.25500000000E-02 0. -1.
         -2   -1    0    0    0  501 -0.00000000000E+00 -0.00000000000E+00 -0.47969260377E+03  0.47969260378E+03  0.25500000000E-02 0.  1.
    8880023    1    1    2    0    0 -0.34214919836E+03 -0.36912199241E+03  0.72425442708E+03  0.11007596471E+04  0.65864270000E+03 0.  0.
    8880022    1    1    2    0    0  0.34214919836E+03  0.36912199241E+03 -0.54076575795E+02  0.52880341176E+03  0.15294330000E+03 0.  0.
<mgrwt>
<rscale>  0 0.73984684E+03</rscale>
<asrwt>0</asrwt>
<pdfrwt beam="1">  1        2 0.17690315E+00 0.82893144E+03</pdfrwt>
<pdfrwt beam="2">  1       -2 0.73798862E-01 0.82893144E+03</pdfrwt>
<totfact> 0.33949818E+01</totfact>
</mgrwt>
</event>
<event>
 4    5  0.6615028E-008  0.2592423E+04  0.7818608E-02  0.8377746E-01
          2   -1    0    0  501    0  0.00000000000E+00  0.00000000000E+00  0.28759084022E+04  0.28759084022E+04  0.25500000000E-02 0. -1.
         -2   -1    0    0    0  501 -0.00000000000E+00 -0.00000000000E+00 -0.26907028494E+04  0.26907028494E+04  0.25500000000E-02 0.  1.
    8880023    1    1    2    0    0  0.58138364772E+03 -0.24390239601E+04 -0.10131861656E+04  0.27833794632E+04  0.65864270000E+03 0.  0.
    8880022    1    1    2    0    0 -0.58138364772E+03  0.24390239601E+04  0.11983917184E+04  0.27832317883E+04  0.15294330000E+03 0.  0.
<mgrwt>
<rscale>  0 0.25720835E+04</rscale>
<asrwt>0</asrwt>
<pdfrwt beam="1">  1        2 0.44244745E+00 0.25924226E+04</pdfrwt>
<pdfrwt beam="2">  1       -2 0.41395429E+00 0.25924226E+04</pdfrwt>
<totfact> 0.10339025E-02</totfact>
</mgrwt>
</event>
<event>
 4    5  0.6615028E-008  0.8470131E+03  0.7818608E-02  0.9617096E-01
         -2   -1    0    0    0  501 -0.00000000000E+00  0.00000000000E+00  0.47863039705E+03  0.47863039706E+03  0.25500000000E-02 0.  1.
          2   -1    0    0  501    0  0.00000000000E+00 -0.00000000000E+00 -0.23421911874E+04  0.23421911874E+04  0.25500000000E-02 0. -1.
    8880023    1    1    2    0    0 -0.53234269214E+03 -0.15238326960E+02  0.30315338235E+02  0.84755541086E+03  0.65864270000E+03 0.  0.
    8880022    1    1    2    0    0  0.53234269214E+03  0.15238326960E+02 -0.18938761286E+04  0.19732661736E+04  0.15294330000E+03 0.  0.
<mgrwt>
<rscale>  0 0.76174939E+03</rscale>
<asrwt>0</asrwt>
<pdfrwt beam="1">  1        2 0.36033710E+00 0.84701308E+03</pdfrwt>
<pdfrwt beam="2">  1       -2 0.73635447E-01 0.84701308E+03</pdfrwt>
<totfact> 0.73406572E+00</totfact>
</mgrwt>
</event>
<event>
 4    5  0.6615028E-008  0.7285874E+03  0.7818608E-02  0.9894533E-01
          2   -1    0    0  501    0  0.00000000000E+00  0.00000000000E+00  0.30341879137E+04  0.30341879137E+04  0.25500000000E-02 0. -1.
         -2   -1    0    0    0  501 -0.00000000000E+00 -0.00000000000E+00 -0.46322416281E+03  0.46322416282E+03  0.25500000000E-02 0.  1.
    8880023    1    1    2    0    0 -0.29298272895E+03 -0.10578517698E+03  0.29174381381E+04  0.30070392214E+04  0.65864270000E+03 0. -1.
    8880022    1    1    2    0    0  0.29298272895E+03  0.10578517698E+03 -0.34647438715E+03  0.49037285518E+03  0.15294330000E+03 0.  0.
<mgrwt>
<rscale>  0 0.60526984E+03</rscale>
<asrwt>0</asrwt>
<pdfrwt beam="1">  1        2 0.46679813E+00 0.72858739E+03</pdfrwt>
<pdfrwt beam="2">  1       -2 0.71265257E-01 0.72858739E+03</pdfrwt>
<totfact> 0.31775602E+00</totfact>
</mgrwt>
</event>
<event>
 4    5  0.6615028E-008  0.6699726E+03  0.7818608E-02  0.1015683E+00
          2   -1    0    0  501    0  0.00000000000E+00  0.00000000000E+00  0.33631278978E+04  0.33631278978E+04  0.25500000000E-02 0. -1.
         -2   -1    0    0    0  501 -0.00000000000E+00 -0.00000000000E+00 -0.59117574292E+02  0.59117574347E+02  0.25500000000E-02 0.  1.
    8880023    1    1    2    0    0  0.44453227474E+02 -0.11435463162E+03  0.28502905252E+04  0.29279718844E+04  0.65864270000E+03 0.  0.
    8880022    1    1    2    0    0 -0.44453227474E+02  0.11435463162E+03  0.45371979828E+03  0.49427358777E+03  0.15294330000E+03 0.  0.
<mgrwt>
<rscale>  0 0.49277353E+03</rscale>
<asrwt>0</asrwt>
<pdfrwt beam="1">  1        2 0.51740449E+00 0.66997259E+03</pdfrwt>
<pdfrwt beam="2">  1       -2 0.90950080E-02 0.66997259E+03</pdfrwt>
<totfact> 0.87537220E+01</totfact>
</mgrwt>
</event>
<event>
 4    5  0.6615028E-008  0.1176470E+04  0.7818608E-02  0.9180342E-01
          2   -1    0    0  501    0  0.00000000000E+00  0.00000000000E+00  0.12113915799E+04  0.12113915799E+04  0.25500000000E-02 0. -1.
         -2   -1    0    0    0  501 -0.00000000000E+00 -0.00000000000E+00 -0.13653198339E+04  0.13653198339E+04  0.25500000000E-02 0.  1.
    8880023    1    1    2    0    0  0.24652191827E+03 -0.94313176227E+03  0.61335472864E+03  0.13267572523E+04  0.65864270000E+03 0.  0.
    8880022    1    1    2    0    0 -0.24652191827E+03  0.94313176227E+03 -0.76728298262E+03  0.12499541614E+04  0.15294330000E+03 0.  0.
<mgrwt>
<rscale>  0 0.11258657E+04</rscale>
<asrwt>0</asrwt>
<pdfrwt beam="1">  1        2 0.18636793E+00 0.11764696E+04</pdfrwt>
<pdfrwt beam="2">  1       -2 0.21004921E+00 0.11764696E+04</pdfrwt>
<totfact> 0.20769149E+00</totfact>
</mgrwt>
</event>
<event>
 4    5  0.6615028E-008  0.1339248E+04  0.7818608E-02  0.9032386E-01
          2   -1    0    0  501    0  0.00000000000E+00  0.00000000000E+00  0.16259701106E+04  0.16259701106E+04  0.25500000000E-02 0. -1.
         -2   -1    0    0    0  501 -0.00000000000E+00 -0.00000000000E+00 -0.10912820523E+04  0.10912820523E+04  0.25500000000E-02 0.  1.
    8880023    1    1    2    0    0  0.60275246018E+03  0.99823125694E+03 -0.16405212729E+03  0.13492588622E+04  0.65864270000E+03 0.  0.
    8880022    1    1    2    0    0 -0.60275246018E+03 -0.99823125694E+03  0.69874018568E+03  0.13679933007E+04  0.15294330000E+03 0.  0.
<mgrwt>
<rscale>  0 0.12964484E+04</rscale>
<asrwt>0</asrwt>
<pdfrwt beam="1">  1        2 0.25014925E+00 0.13392484E+04</pdfrwt>
<pdfrwt beam="2">  1       -2 0.16788955E+00 0.13392484E+04</pdfrwt>
<totfact> 0.22790772E+00</totfact>
</mgrwt>
</event>
<event>
 4    5  0.6615028E-008  0.1059516E+04  0.7818608E-02  0.9307528E-01
         -2   -1    0    0    0  501 -0.00000000000E+00  0.00000000000E+00  0.12515432522E+04  0.12515432522E+04  0.25500000000E-02 0.  1.
          2   -1    0    0  501    0  0.00000000000E+00 -0.00000000000E+00 -0.98172500606E+03  0.98172500606E+03  0.25500000000E-02 0. -1.
    8880023    1    1    2    0    0 -0.70228293718E+03  0.44222515052E+03 -0.42357271385E+03  0.11410470883E+04  0.65864270000E+03 0. -1.
    8880022    1    1    2    0    0  0.70228293718E+03 -0.44222515052E+03  0.69339095997E+03  0.10922211699E+04  0.15294330000E+03 0.  1.
<mgrwt>
<rscale>  0 0.10009275E+04</rscale>
<asrwt>0</asrwt>
<pdfrwt beam="1">  1        2 0.15103462E+00 0.10595162E+04</pdfrwt>
<pdfrwt beam="2">  1       -2 0.19254512E+00 0.10595162E+04</pdfrwt>
<totfact> 0.38023892E+00</totfact>
</mgrwt>
</event>
<event>
 4    5  0.6615028E-008  0.9804166E+03  0.7818608E-02  0.9407639E-01
          2   -1    0    0  501    0  0.00000000000E+00  0.00000000000E+00  0.11617100689E+04  0.11617100689E+04  0.25500000000E-02 0. -1.
         -2   -1    0    0    0  501 -0.00000000000E+00 -0.00000000000E+00 -0.11372199609E+04  0.11372199609E+04  0.25500000000E-02 0.  1.
    8880023    1    1    2    0    0  0.70167210395E+03  0.18725037106E+03 -0.74386821730E+03  0.12306732198E+04  0.65864270000E+03 0.  0.
    8880022    1    1    2    0    0 -0.70167210395E+03 -0.18725037106E+03  0.76835832532E+03  0.10682568100E+04  0.15294330000E+03 0.  0.
<mgrwt>
<rscale>  0 0.91449647E+03</rscale>
<asrwt>0</asrwt>
<pdfrwt beam="1">  1        2 0.17872463E+00 0.98041657E+03</pdfrwt>
<pdfrwt beam="2">  1       -2 0.17495692E+00 0.98041657E+03</pdfrwt>
<totfact> 0.39011319E+00</totfact>
</mgrwt>
</event>
<event>
 4    5  0.6615028E-008  0.7703157E+03  0.7818608E-02  0.9779098E-01
          2   -1    0    0  501    0  0.00000000000E+00  0.00000000000E+00  0.16928600474E+04  0.16928600474E+04  0.25500000000E-02 0. -1.
         -2   -1    0    0    0  501 -0.00000000000E+00 -0.00000000000E+00 -0.11486223613E+04  0.11486223613E+04  0.25500000000E-02 0.  1.
    8880023    1    1    2    0    0  0.30844291325E+03  0.25384847313E+03  0.15597282877E+04  0.17395800114E+04  0.65864270000E+03 0. -1.
    8880022    1    1    2    0    0 -0.30844291325E+03 -0.25384847313E+03 -0.10154906017E+04  0.11019023973E+04  0.15294330000E+03 0.  0.
<mgrwt>
<rscale>  0 0.66496437E+03</rscale>
<asrwt>0</asrwt>
<pdfrwt beam="1">  1        2 0.26044001E+00 0.77031570E+03</pdfrwt>
<pdfrwt beam="2">  1       -2 0.17671113E+00 0.77031570E+03</pdfrwt>
<totfact> 0.19474060E+00</totfact>
</mgrwt>
</event>
<event>
 4    5  0.6615028E-008  0.9114939E+03  0.7818608E-02  0.9507826E-01
          2   -1    0    0  501    0  0.00000000000E+00  0.00000000000E+00  0.92721298992E+03  0.92721298992E+03  0.25500000000E-02 0. -1.
         -2   -1    0    0    0  501 -0.00000000000E+00 -0.00000000000E+00 -0.13357815416E+04  0.13357815416E+04  0.25500000000E-02 0.  1.
    8880023    1    1    2    0    0  0.24216309828E+03  0.58169402505E+03  0.58027918644E+03  0.10805299836E+04  0.65864270000E+03 0.  0.
    8880022    1    1    2    0    0 -0.24216309828E+03 -0.58169402505E+03 -0.98884773814E+03  0.11824645480E+04  0.15294330000E+03 0.  0.
<mgrwt>
<rscale>  0 0.83709258E+03</rscale>
<asrwt>0</asrwt>
<pdfrwt beam="1">  1        2 0.14264815E+00 0.91149389E+03</pdfrwt>
<pdfrwt beam="2">  1       -2 0.20550485E+00 0.91149389E+03</pdfrwt>
<totfact> 0.34510027E+00</totfact>
</mgrwt>
</event>
<event>
 4    5  0.6615028E-008  0.1278139E+04  0.7818608E-02  0.9084672E-01
         -2   -1    0    0    0  501 -0.00000000000E+00  0.00000000000E+00  0.53495217706E+03  0.53495217707E+03  0.25500000000E-02 0.  1.
          2   -1    0    0  501    0  0.00000000000E+00 -0.00000000000E+00 -0.30190953923E+04  0.30190953923E+04  0.25500000000E-02 0. -1.
    8880023    1    1    2    0    0  0.93307774985E+03  0.57375594301E+03 -0.70643288337E+03  0.14603724163E+04  0.65864270000E+03 0. -1.
    8880022    1    1    2    0    0 -0.93307774985E+03 -0.57375594301E+03 -0.17777103319E+04  0.20936751531E+04  0.15294330000E+03 0.  0.
<mgrwt>
<rscale>  0 0.12327409E+04</rscale>
<asrwt>0</asrwt>
<pdfrwt beam="1">  1        2 0.46447620E+00 0.12781393E+04</pdfrwt>
<pdfrwt beam="2">  1       -2 0.82300337E-01 0.12781393E+04</pdfrwt>
<totfact> 0.21608114E+00</totfact>
</mgrwt>
</event>
<event>
 4    5  0.6615028E-008  0.7653430E+03  0.7818608E-02  0.9791466E-01
         -2   -1    0    0    0  501 -0.00000000000E+00  0.00000000000E+00  0.27776924146E+03  0.27776924147E+03  0.25500000000E-02 0.  1.
          2   -1    0    0  501    0  0.00000000000E+00 -0.00000000000E+00 -0.19067527685E+04  0.19067527685E+04  0.25500000000E-02 0. -1.
    8880023    1    1    2    0    0  0.32222762406E+03  0.21933793780E+03 -0.15892257173E+04  0.17639127981E+04  0.65864270000E+03 0.  0.
    8880022    1    1    2    0    0 -0.32222762406E+03 -0.21933793780E+03 -0.39757809803E+02  0.42060921189E+03  0.15294330000E+03 0.  0.
<mgrwt>
<rscale>  0 0.65822531E+03</rscale>
<asrwt>0</asrwt>
<pdfrwt beam="1">  1        2 0.29334657E+00 0.76534305E+03</pdfrwt>
<pdfrwt beam="2">  1       -2 0.42733731E-01 0.76534305E+03</pdfrwt>
<totfact> 0.40155038E+01</totfact>
</mgrwt>
</event>
<event>
 4    5  0.6615028E-008  0.1311267E+04  0.7818608E-02  0.9055890E-01
         -2   -1    0    0    0  501 -0.00000000000E+00  0.00000000000E+00  0.12588107063E+04  0.12588107063E+04  0.25500000000E-02 0.  1.
          2   -1    0    0  501    0  0.00000000000E+00 -0.00000000000E+00 -0.22600918861E+04  0.22600918861E+04  0.25500000000E-02 0. -1.
    8880023    1    1    2    0    0 -0.11077509653E+04  0.24186725493E+03 -0.17237201823E+04  0.21657870262E+04  0.65864270000E+03 0.  0.
    8880022    1    1    2    0    0  0.11077509653E+04 -0.24186725493E+03  0.72243900245E+03  0.13531155661E+04  0.15294330000E+03 0.  0.
<mgrwt>
<rscale>  0 0.12673193E+04</rscale>
<asrwt>0</asrwt>
<pdfrwt beam="1">  1        2 0.34770644E+00 0.13112674E+04</pdfrwt>
<pdfrwt beam="2">  1       -2 0.19366319E+00 0.13112674E+04</pdfrwt>
<totfact> 0.67147958E-01</totfact>
</mgrwt>
</event>
<event>
 4    5  0.6615028E-008  0.8765860E+03  0.7818608E-02  0.9564715E-01
          2   -1    0    0  501    0  0.00000000000E+00  0.00000000000E+00  0.64879344033E+03  0.64879344034E+03  0.25500000000E-02 0. -1.
         -2   -1    0    0    0  501 -0.00000000000E+00 -0.00000000000E+00 -0.13132100056E+04  0.13132100056E+04  0.25500000000E-02 0.  1.
    8880023    1    1    2    0    0  0.13360952555E+03 -0.56279775964E+03  0.21103028472E+03  0.90163008540E+03  0.65864270000E+03 0.  1.
    8880022    1    1    2    0    0 -0.13360952555E+03  0.56279775964E+03 -0.87544684999E+03  0.10603733605E+04  0.15294330000E+03 0.  0.
<mgrwt>
<rscale>  0 0.79676257E+03</rscale>
<asrwt>0</asrwt>
<pdfrwt beam="1">  1        2 0.99814376E-01 0.87658601E+03</pdfrwt>
<pdfrwt beam="2">  1       -2 0.20203231E+00 0.87658601E+03</pdfrwt>
<totfact> 0.58486230E+00</totfact>
</mgrwt>
</event>
<event>
 4    5  0.6615028E-008  0.1537420E+04  0.7818608E-02  0.8883654E-01
         -2   -1    0    0    0  501 -0.00000000000E+00  0.00000000000E+00  0.17320164473E+04  0.17320164473E+04  0.25500000000E-02 0.  1.
          2   -1    0    0  501    0  0.00000000000E+00 -0.00000000000E+00 -0.20511651416E+04  0.20511651416E+04  0.25500000000E-02 0. -1.
    8880023    1    1    2    0    0 -0.92621780148E+03 -0.10353603878E+04 -0.13504283428E+04  0.20462935918E+04  0.65864270000E+03 0.  0.
    8880022    1    1    2    0    0  0.92621780148E+03  0.10353603878E+04  0.10312796484E+04  0.17368879972E+04  0.15294330000E+03 0.  0.
<mgrwt>
<rscale>  0 0.15012013E+04</rscale>
<asrwt>0</asrwt>
<pdfrwt beam="1">  1        2 0.31556387E+00 0.15374202E+04</pdfrwt>
<pdfrwt beam="2">  1       -2 0.26646407E+00 0.15374202E+04</pdfrwt>
<totfact> 0.29749405E-01</totfact>
</mgrwt>
</event>
<event>
 4    5  0.6615028E-008  0.9725501E+03  0.7818608E-02  0.9418386E-01
          2   -1    0    0  501    0  0.00000000000E+00  0.00000000000E+00  0.16982525344E+04  0.16982525344E+04  0.25500000000E-02 0. -1.
         -2   -1    0    0    0  501 -0.00000000000E+00 -0.00000000000E+00 -0.90948172103E+03  0.90948172103E+03  0.25500000000E-02 0.  1.
    8880023    1    1    2    0    0  0.58620612972E+03  0.41037283493E+03  0.13652233610E+04  0.16762125527E+04  0.65864270000E+03 0.  0.
    8880022    1    1    2    0    0 -0.58620612972E+03 -0.41037283493E+03 -0.57645254756E+03  0.93152170279E+03  0.15294330000E+03 0.  0.
<mgrwt>
<rscale>  0 0.90577921E+03</rscale>
<asrwt>0</asrwt>
<pdfrwt beam="1">  1        2 0.26126962E+00 0.97255010E+03</pdfrwt>
<pdfrwt beam="2">  1       -2 0.13992027E+00 0.97255010E+03</pdfrwt>
<totfact> 0.35282271E+00</totfact>
</mgrwt>
</event>
<event>
 4    5  0.6615028E-008  0.6992985E+03  0.7818608E-02  0.1000012E+00
          2   -1    0    0  501    0  0.00000000000E+00  0.00000000000E+00  0.11042437070E+04  0.11042437070E+04  0.25500000000E-02 0. -1.
         -2   -1    0    0    0  501 -0.00000000000E+00 -0.00000000000E+00 -0.23487658873E+03  0.23487658875E+03  0.25500000000E-02 0.  1.
    8880023    1    1    2    0    0 -0.80871597105E+02 -0.22060831709E+03  0.77368906084E+03  0.10428869612E+04  0.65864270000E+03 0. -1.
    8880022    1    1    2    0    0  0.80871597105E+02  0.22060831709E+03  0.95678057420E+02  0.29623333451E+03  0.15294330000E+03 0.  0.
<mgrwt>
<rscale>  0 0.55644817E+03</rscale>
<asrwt>0</asrwt>
<pdfrwt beam="1">  1        2 0.16988365E+00 0.69929854E+03</pdfrwt>
<pdfrwt beam="2">  1       -2 0.36134860E-01 0.69929854E+03</pdfrwt>
<totfact> 0.15845779E+02</totfact>
</mgrwt>
</event>
<event>
 4    5  0.6615028E-008  0.6718864E+03  0.7818608E-02  0.1014345E+00
          2   -1    0    0  501    0  0.00000000000E+00  0.00000000000E+00  0.18452146495E+04  0.18452146495E+04  0.25500000000E-02 0. -1.
         -2   -1    0    0    0  501 -0.00000000000E+00 -0.00000000000E+00 -0.69840157379E+03  0.69840157379E+03  0.25500000000E-02 0.  1.
    8880023    1    1    2    0    0 -0.58945391829E+02 -0.11893947307E+03  0.17674100772E+04  0.18908119274E+04  0.65864270000E+03 0. -1.
    8880022    1    1    2    0    0  0.58945391829E+02  0.11893947307E+03 -0.62059700150E+03  0.65280429591E+03  0.15294330000E+03 0.  0.
<mgrwt>
<rscale>  0 0.49783662E+03</rscale>
<asrwt>0</asrwt>
<pdfrwt beam="1">  1        2 0.28387917E+00 0.67188642E+03</pdfrwt>
<pdfrwt beam="2">  1       -2 0.10744640E+00 0.67188642E+03</pdfrwt>
<totfact> 0.59234352E+00</totfact>
</mgrwt>
</event>
<event>
 4    5  0.6615028E-008  0.8443948E+03  0.7818608E-02  0.9621948E-01
          2   -1    0    0  501    0  0.00000000000E+00  0.00000000000E+00  0.24731795901E+04  0.24731795901E+04  0.25500000000E-02 0. -1.
         -2   -1    0    0    0  501 -0.00000000000E+00 -0.00000000000E+00 -0.43297573388E+03  0.43297573389E+03  0.25500000000E-02 0.  1.
    8880023    1    1    2    0    0  0.33006316749E+03  0.41261445983E+03  0.21806553873E+04  0.23384312073E+04  0.65864270000E+03 0. -1.
    8880022    1    1    2    0    0 -0.33006316749E+03 -0.41261445983E+03 -0.14045153111E+03  0.56772411663E+03  0.15294330000E+03 0.  0.
<mgrwt>
<rscale>  0 0.75860363E+03</rscale>
<asrwt>0</asrwt>
<pdfrwt beam="1">  1        2 0.38048918E+00 0.84439481E+03</pdfrwt>
<pdfrwt beam="2">  1       -2 0.66611649E-01 0.84439481E+03</pdfrwt>
<totfact> 0.77148978E+00</totfact>
</mgrwt>
</event>
<event>
 4    5  0.6615028E-008  0.8992173E+03  0.7818608E-02  0.9527289E-01
         -2   -1    0    0    0  501 -0.00000000000E+00  0.00000000000E+00  0.15699397586E+04  0.15699397586E+04  0.25500000000E-02 0.  1.
          2   -1    0    0  501    0  0.00000000000E+00 -0.00000000000E+00 -0.91589024327E+03  0.91589024328E+03  0.25500000000E-02 0. -1.
    8880023    1    1    2    0    0 -0.54110379549E+03 -0.28633595210E+03 -0.60066211362E+03  0.10813818826E+04  0.65864270000E+03 0. -1.
    8880022    1    1    2    0    0  0.54110379549E+03  0.28633595210E+03  0.12547116289E+04  0.14044481193E+04  0.15294330000E+03 0.  0.
<mgrwt>
<rscale>  0 0.82301454E+03</rscale>
<asrwt>0</asrwt>
<pdfrwt beam="1">  1        2 0.14090619E+00 0.89921733E+03</pdfrwt>
<pdfrwt beam="2">  1       -2 0.24152919E+00 0.89921733E+03</pdfrwt>
<totfact> 0.20915228E+00</totfact>
</mgrwt>
</event>
<event>
 4    5  0.6615028E-008  0.9228732E+03  0.7818608E-02  0.9490267E-01
         -2   -1    0    0    0  501 -0.00000000000E+00  0.00000000000E+00  0.61664334246E+03  0.61664334247E+03  0.25500000000E-02 0.  1.
          2   -1    0    0  501    0  0.00000000000E+00 -0.00000000000E+00 -0.29973116725E+04  0.29973116725E+04  0.25500000000E-02 0. -1.
    8880023    1    1    2    0    0 -0.18227814331E+03 -0.62020921089E+03 -0.27169432078E+04  0.28694033155E+04  0.65864270000E+03 0. -1.
    8880022    1    1    2    0    0  0.18227814331E+03  0.62020921089E+03  0.33627487768E+03  0.74455169947E+03  0.15294330000E+03 0.  0.
<mgrwt>
<rscale>  0 0.85005177E+03</rscale>
<asrwt>0</asrwt>
<pdfrwt beam="1">  1        2 0.46112487E+00 0.92287323E+03</pdfrwt>
<pdfrwt beam="2">  1       -2 0.94868208E-01 0.92287323E+03</pdfrwt>
<totfact> 0.16881783E+00</totfact>
</mgrwt>
</event>
<event>
 4    5  0.6615028E-008  0.1460902E+04  0.7818608E-02  0.8937749E-01
          2   -1    0    0  501    0  0.00000000000E+00  0.00000000000E+00  0.18764479347E+04  0.18764479347E+04  0.25500000000E-02 0. -1.
         -2   -1    0    0    0  501 -0.00000000000E+00 -0.00000000000E+00 -0.17872543447E+04  0.17872543447E+04  0.25500000000E-02 0.  1.
    8880023    1    1    2    0    0 -0.10711884149E+04  0.74362599271E+03  0.12412228781E+04  0.19169946992E+04  0.65864270000E+03 0. -1.
    8880022    1    1    2    0    0  0.10711884149E+04 -0.74362599271E+03 -0.11520292881E+04  0.17467075802E+04  0.15294330000E+03 0.  0.
<mgrwt>
<rscale>  0 0.14224177E+04</rscale>
<asrwt>0</asrwt>
<pdfrwt beam="1">  1        2 0.28868430E+00 0.14609019E+04</pdfrwt>
<pdfrwt beam="2">  1       -2 0.27496221E+00 0.14609019E+04</pdfrwt>
<totfact> 0.33327274E-01</totfact>
</mgrwt>
</event>
<event>
 4    5  0.7116611E-008  0.9598533E+03  0.7818608E-02  0.9436077E-01
         -2   -1    0    0    0  501 -0.00000000000E+00  0.00000000000E+00  0.13424775490E+04  0.13424775490E+04  0.25500000000E-02 0.  1.
          2   -1    0    0  501    0  0.00000000000E+00 -0.00000000000E+00 -0.20189022840E+04  0.20189022840E+04  0.25500000000E-02 0. -1.
    8880023    1    1    2    0    0  0.47551584920E+03 -0.51126585471E+03 -0.17940804467E+04  0.20347095499E+04  0.65864270000E+03 0. -1.
    8880022    1    1    2    0    0 -0.47551584920E+03  0.51126585471E+03  0.11176557117E+04  0.13266702830E+04  0.15294330000E+03 0.  0.
<mgrwt>
<rscale>  0 0.89165243E+03</rscale>
<asrwt>0</asrwt>
<pdfrwt beam="1">  1        2 0.31060035E+00 0.95985327E+03</pdfrwt>
<pdfrwt beam="2">  1       -2 0.20653501E+00 0.95985327E+03</pdfrwt>
<totfact> 0.79070822E-01</totfact>
</mgrwt>
</event>
<event>
 4    5  0.6615028E-008  0.8767410E+03  0.7818608E-02  0.9564451E-01
          2   -1    0    0  501    0  0.00000000000E+00  0.00000000000E+00  0.12563177368E+04  0.12563177368E+04  0.25500000000E-02 0. -1.
         -2   -1    0    0    0  501 -0.00000000000E+00 -0.00000000000E+00 -0.17190070342E+04  0.17190070342E+04  0.25500000000E-02 0.  1.
    8880023    1    1    2    0    0  0.38351744524E+01  0.57866209885E+03  0.10385643318E+04  0.13591506946E+04  0.65864270000E+03 0.  0.
    8880022    1    1    2    0    0 -0.38351744524E+01 -0.57866209885E+03 -0.15012536292E+04  0.16161740764E+04  0.15294330000E+03 0.  0.
<mgrwt>
<rscale>  0 0.79694379E+03</rscale>
<asrwt>0</asrwt>
<pdfrwt beam="1">  1        2 0.19327965E+00 0.87674098E+03</pdfrwt>
<pdfrwt beam="2">  1       -2 0.26446262E+00 0.87674098E+03</pdfrwt>
<totfact> 0.93530376E-01</totfact>
</mgrwt>
</event>
<event>
 4    5  0.6615028E-008  0.1192228E+04  0.7818608E-02  0.9164714E-01
          2   -1    0    0  501    0  0.00000000000E+00  0.00000000000E+00  0.25224488355E+04  0.25224488355E+04  0.25500000000E-02 0. -1.
         -2   -1    0    0    0  501 -0.00000000000E+00 -0.00000000000E+00 -0.86940575309E+03  0.86940575310E+03  0.25500000000E-02 0.  1.
    8880023    1    1    2    0    0  0.32876165843E+03 -0.93782426418E+03  0.19998348068E+04  0.23282499950E+04  0.65864270000E+03 0.  0.
    8880022    1    1    2    0    0 -0.32876165843E+03  0.93782426418E+03 -0.34679172433E+03  0.10636045936E+04  0.15294330000E+03 0.  0.
<mgrwt>
<rscale>  0 0.11425178E+04</rscale>
<asrwt>0</asrwt>
<pdfrwt beam="1">  1        2 0.38806904E+00 0.11922285E+04</pdfrwt>
<pdfrwt beam="2">  1       -2 0.13375473E+00 0.11922285E+04</pdfrwt>
<totfact> 0.13379740E+00</totfact>
</mgrwt>
</event>
<event>
 4    5  0.6615028E-008  0.9571423E+03  0.7818608E-02  0.9439911E-01
         -2   -1    0    0    0  501 -0.00000000000E+00  0.00000000000E+00  0.55799197405E+03  0.55799197405E+03  0.25500000000E-02 0.  1.
          2   -1    0    0  501    0  0.00000000000E+00 -0.00000000000E+00 -0.15485184043E+04  0.15485184043E+04  0.25500000000E-02 0. -1.
    8880023    1    1    2    0    0  0.67889475748E+03 -0.14633209663E+03 -0.10147982706E+04  0.13949684264E+04  0.65864270000E+03 0. -1.
    8880022    1    1    2    0    0 -0.67889475748E+03  0.14633209663E+03  0.24271840330E+02  0.71154195202E+03  0.15294330000E+03 0.  0.
<mgrwt>
<rscale>  0 0.88862659E+03</rscale>
<asrwt>0</asrwt>
<pdfrwt beam="1">  1        2 0.23823360E+00 0.95714230E+03</pdfrwt>
<pdfrwt beam="2">  1       -2 0.85844920E-01 0.95714230E+03</pdfrwt>
<totfact> 0.14057838E+01</totfact>
</mgrwt>
</event>
<event>
 4    5  0.6615028E-008  0.7443390E+03  0.7818608E-02  0.9847484E-01
         -2   -1    0    0    0  501 -0.00000000000E+00  0.00000000000E+00  0.28063104685E+03  0.28063104686E+03  0.25500000000E-02 0.  1.
          2   -1    0    0  501    0  0.00000000000E+00 -0.00000000000E+00 -0.27887358301E+04  0.27887358301E+04  0.25500000000E-02 0. -1.
    8880023    1    1    2    0    0 -0.26882034398E+03  0.21901124490E+03 -0.25786086773E+04  0.26838895692E+04  0.65864270000E+03 0. -1.
    8880022    1    1    2    0    0  0.26882034398E+03 -0.21901124490E+03  0.70503894023E+02  0.38547730778E+03  0.15294330000E+03 0.  0.
<mgrwt>
<rscale>  0 0.62875387E+03</rscale>
<asrwt>0</asrwt>
<pdfrwt beam="1">  1        2 0.42903626E+00 0.74433897E+03</pdfrwt>
<pdfrwt beam="2">  1       -2 0.43174009E-01 0.74433897E+03</pdfrwt>
<totfact> 0.12627240E+01</totfact>
</mgrwt>
</event>
<event>
 4    5  0.6615028E-008  0.6678677E+03  0.7818608E-02  0.1017240E+00
          2   -1    0    0  501    0  0.00000000000E+00  0.00000000000E+00  0.12967856712E+04  0.12967856712E+04  0.25500000000E-02 0. -1.
         -2   -1    0    0    0  501 -0.00000000000E+00 -0.00000000000E+00 -0.40043927595E+03  0.40043927596E+03  0.25500000000E-02 0.  1.
    8880023    1    1    2    0    0 -0.10852773784E+03 -0.21420059381E+02  0.11803607506E+04  0.13562075050E+04  0.65864270000E+03 0. -1.
    8880022    1    1    2    0    0  0.10852773784E+03  0.21420059381E+02 -0.28401435532E+03  0.34101744217E+03  0.15294330000E+03 0.  0.
<mgrwt>
<rscale>  0 0.48695957E+03</rscale>
<asrwt>0</asrwt>
<pdfrwt beam="1">  1        2 0.19950549E+00 0.66786772E+03</pdfrwt>
<pdfrwt beam="2">  1       -2 0.61606043E-01 0.66786772E+03</pdfrwt>
<totfact> 0.41813079E+01</totfact>
</mgrwt>
</event>
<event>
 4    5  0.6615028E-008  0.1437382E+04  0.7818608E-02  0.8955167E-01
         -2   -1    0    0    0  501 -0.00000000000E+00  0.00000000000E+00  0.18691962703E+04  0.18691962703E+04  0.25500000000E-02 0.  1.
          2   -1    0    0  501    0  0.00000000000E+00 -0.00000000000E+00 -0.12270551985E+04  0.12270551985E+04  0.25500000000E-02 0. -1.
    8880023    1    1    2    0    0  0.12383201320E+04  0.31435885862E+03 -0.34057968901E+03  0.14771807513E+04  0.65864270000E+03 0.  1.
    8880022    1    1    2    0    0 -0.12383201320E+04 -0.31435885862E+03  0.98272076086E+03  0.16190707174E+04  0.15294330000E+03 0.  0.
<mgrwt>
<rscale>  0 0.13981389E+04</rscale>
<asrwt>0</asrwt>
<pdfrwt beam="1">  1        2 0.18877772E+00 0.14373825E+04</pdfrwt>
<pdfrwt beam="2">  1       -2 0.28756866E+00 0.14373825E+04</pdfrwt>
<totfact> 0.65633959E-01</totfact>
</mgrwt>
</event>
<event>
 4    5  0.6615028E-008  0.1276701E+04  0.7818608E-02  0.9085946E-01
          2   -1    0    0  501    0  0.00000000000E+00  0.00000000000E+00  0.32670500582E+04  0.32670500582E+04  0.25500000000E-02 0. -1.
         -2   -1    0    0    0  501 -0.00000000000E+00 -0.00000000000E+00 -0.10180491159E+04  0.10180491159E+04  0.25500000000E-02 0.  1.
    8880023    1    1    2    0    0  0.10723531672E+04  0.21497233437E+03  0.27804434180E+04  0.30595473892E+04  0.65864270000E+03 0.  0.
    8880022    1    1    2    0    0 -0.10723531672E+04 -0.21497233437E+03 -0.53144247567E+03  0.12255517850E+04  0.15294330000E+03 0.  0.
<mgrwt>
<rscale>  0 0.12312368E+04</rscale>
<asrwt>0</asrwt>
<pdfrwt beam="1">  1        2 0.50262309E+00 0.12767007E+04</pdfrwt>
<pdfrwt beam="2">  1       -2 0.15662294E+00 0.12767007E+04</pdfrwt>
<totfact> 0.30579839E-01</totfact>
</mgrwt>
</event>
<event>
 4    5  0.6615028E-008  0.1087928E+04  0.7818608E-02  0.9274617E-01
          2   -1    0    0  501    0  0.00000000000E+00  0.00000000000E+00  0.47731557016E+04  0.47731557016E+04  0.25500000000E-02 0. -1.
         -2   -1    0    0    0  501 -0.00000000000E+00 -0.00000000000E+00 -0.11280875314E+04  0.11280875314E+04  0.25500000000E-02 0.  1.
    8880023    1    1    2    0    0  0.15712422938E+03  0.85152163771E+03  0.45269834926E+04  0.46558744475E+04  0.65864270000E+03 0.  0.
    8880022    1    1    2    0    0 -0.15712422938E+03 -0.85152163771E+03 -0.88191532236E+03  0.12453687855E+04  0.15294330000E+03 0.  0.
<mgrwt>
<rscale>  0 0.10315360E+04</rscale>
<asrwt>0</asrwt>
<pdfrwt beam="1">  1        2 0.73433165E+00 0.10879280E+04</pdfrwt>
<pdfrwt beam="2">  1       -2 0.17355193E+00 0.10879280E+04</pdfrwt>
<totfact> 0.13608070E-02</totfact>
</mgrwt>
</event>
<event>
 4    5  0.6615028E-008  0.8301646E+03  0.7818608E-02  0.9649012E-01
         -2   -1    0    0    0  501 -0.00000000000E+00  0.00000000000E+00  0.10155641028E+04  0.10155641028E+04  0.25500000000E-02 0.  1.
          2   -1    0    0  501    0  0.00000000000E+00 -0.00000000000E+00 -0.10587641209E+04  0.10587641209E+04  0.25500000000E-02 0. -1.
    8880023    1    1    2    0    0  0.47555930189E+03 -0.17089875954E+03 -0.79911633129E+03  0.11522847534E+04  0.65864270000E+03 0. -1.
    8880022    1    1    2    0    0 -0.47555930189E+03  0.17089875954E+03  0.75591631319E+03  0.92204347033E+03  0.15294330000E+03 0.  0.
<mgrwt>
<rscale>  0 0.74135450E+03</rscale>
<asrwt>0</asrwt>
<pdfrwt beam="1">  1        2 0.16288679E+00 0.83016459E+03</pdfrwt>
<pdfrwt beam="2">  1       -2 0.15624063E+00 0.83016459E+03</pdfrwt>
<totfact> 0.62691118E+00</totfact>
</mgrwt>
</event>
<event>
 4    5  0.6615028E-008  0.1328217E+04  0.7818608E-02  0.9041568E-01
          2   -1    0    0  501    0  0.00000000000E+00  0.00000000000E+00  0.17767096508E+04  0.17767096508E+04  0.25500000000E-02 0. -1.
         -2   -1    0    0    0  501 -0.00000000000E+00 -0.00000000000E+00 -0.20715698635E+04  0.20715698635E+04  0.25500000000E-02 0.  1.
    8880023    1    1    2    0    0  0.17543268526E+03 -0.11399879300E+04  0.13103199278E+04  0.18657699824E+04  0.65864270000E+03 0.  0.
    8880022    1    1    2    0    0 -0.17543268526E+03  0.11399879300E+04 -0.16051801405E+04  0.19825095319E+04  0.15294330000E+03 0.  0.
<mgrwt>
<rscale>  0 0.12849719E+04</rscale>
<asrwt>0</asrwt>
<pdfrwt beam="1">  1        2 0.27333995E+00 0.13282166E+04</pdfrwt>
<pdfrwt beam="2">  1       -2 0.31870306E+00 0.13282166E+04</pdfrwt>
<totfact> 0.20814032E-01</totfact>
</mgrwt>
</event>
<event>
 4    5  0.6615028E-008  0.7340786E+03  0.7818608E-02  0.9877544E-01
         -2   -1    0    0    0  501 -0.00000000000E+00  0.00000000000E+00  0.14539610203E+03  0.14539610205E+03  0.25500000000E-02 0.  1.
          2   -1    0    0  501    0  0.00000000000E+00 -0.00000000000E+00 -0.35711656815E+04  0.35711656815E+04  0.25500000000E-02 0. -1.
    8880023    1    1    2    0    0 -0.11919690199E+03 -0.30141878943E+03 -0.32214082706E+04  0.33039888983E+04  0.65864270000E+03 0. -1.
    8880022    1    1    2    0    0  0.11919690199E+03  0.30141878943E+03 -0.20436130891E+03  0.41257288527E+03  0.15294330000E+03 0.  0.
<mgrwt>
<rscale>  0 0.61362054E+03</rscale>
<asrwt>0</asrwt>
<pdfrwt beam="1">  1        2 0.54941004E+00 0.73407860E+03</pdfrwt>
<pdfrwt beam="2">  1       -2 0.22368634E-01 0.73407860E+03</pdfrwt>
<totfact> 0.13743030E+01</totfact>
</mgrwt>
</event>
<event>
 4    5  0.6615028E-008  0.8514806E+03  0.7818608E-02  0.9608901E-01
          2   -1    0    0  501    0  0.00000000000E+00  0.00000000000E+00  0.99356893252E+03  0.99356893252E+03  0.25500000000E-02 0. -1.
         -2   -1    0    0    0  501 -0.00000000000E+00 -0.00000000000E+00 -0.50516253938E+03  0.50516253939E+03  0.25500000000E-02 0.  1.
    8880023    1    1    2    0    0 -0.53718672134E+03  0.51374874648E+02  0.35281817992E+03  0.92168314820E+03  0.65864270000E+03 0.  0.
    8880022    1    1    2    0    0  0.53718672134E+03 -0.51374874648E+02  0.13558821321E+03  0.57704832372E+03  0.15294330000E+03 0.  0.
<mgrwt>
<rscale>  0 0.76709826E+03</rscale>
<asrwt>0</asrwt>
<pdfrwt beam="1">  1        2 0.15285676E+00 0.85148057E+03</pdfrwt>
<pdfrwt beam="2">  1       -2 0.77717314E-01 0.85148057E+03</pdfrwt>
<totfact> 0.37772373E+01</totfact>
</mgrwt>
</event>
<event>
 4    5  0.6615028E-008  0.9919190E+03  0.7818608E-02  0.9392207E-01
         -2   -1    0    0    0  501 -0.00000000000E+00  0.00000000000E+00  0.55444156732E+03  0.55444156732E+03  0.25500000000E-02 0.  1.
          2   -1    0    0  501    0  0.00000000000E+00 -0.00000000000E+00 -0.20666461038E+04  0.20666461038E+04  0.25500000000E-02 0. -1.
    8880023    1    1    2    0    0 -0.36615858335E+03 -0.64499694878E+03 -0.15748669268E+04  0.18612117600E+04  0.65864270000E+03 0.  0.
    8880022    1    1    2    0    0  0.36615858335E+03  0.64499694878E+03  0.62662390357E+02  0.75987591111E+03  0.15294330000E+03 0.  0.
<mgrwt>
<rscale>  0 0.92719784E+03</rscale>
<asrwt>0</asrwt>
<pdfrwt beam="1">  1        2 0.31794555E+00 0.99191904E+03</pdfrwt>
<pdfrwt beam="2">  1       -2 0.85298704E-01 0.99191904E+03</pdfrwt>
<totfact> 0.73576861E+00</totfact>
</mgrwt>
</event>
<event>
 4    5  0.6615028E-008  0.1492980E+04  0.7818608E-02  0.8914609E-01
          2   -1    0    0  501    0  0.00000000000E+00  0.00000000000E+00  0.11007043173E+04  0.11007043173E+04  0.25500000000E-02 0. -1.
         -2   -1    0    0    0  501 -0.00000000000E+00 -0.00000000000E+00 -0.19721440361E+04  0.19721440361E+04  0.25500000000E-02 0.  1.
    8880023    1    1    2    0    0 -0.96723513403E+03  0.92716522237E+03 -0.49996189046E+02  0.14938169162E+04  0.65864270000E+03 0.  0.
    8880022    1    1    2    0    0  0.96723513403E+03 -0.92716522237E+03 -0.82144352973E+03  0.15790314372E+04  0.15294330000E+03 0.  0.
<mgrwt>
<rscale>  0 0.14554818E+04</rscale>
<asrwt>0</asrwt>
<pdfrwt beam="1">  1        2 0.16933913E+00 0.14929800E+04</pdfrwt>
<pdfrwt beam="2">  1       -2 0.30340677E+00 0.14929800E+04</pdfrwt>
<totfact> 0.62425133E-01</totfact>
</mgrwt>
</event>
<event>
 4    5  0.6615028E-008  0.6647048E+03  0.7818608E-02  0.1019782E+00
         -2   -1    0    0    0  501 -0.00000000000E+00  0.00000000000E+00  0.39222278573E+03  0.39222278574E+03  0.25500000000E-02 0.  1.
          2   -1    0    0  501    0  0.00000000000E+00 -0.00000000000E+00 -0.13528981721E+04  0.13528981721E+04  0.25500000000E-02 0. -1.
    8880023    1    1    2    0    0  0.89558365277E+02  0.12699546352E+01 -0.12442748380E+04  0.14106921678E+04  0.65864270000E+03 0. -1.
    8880022    1    1    2    0    0 -0.89558365277E+02 -0.12699546352E+01  0.28359945167E+03  0.33442879000E+03  0.15294330000E+03 0.  0.
<mgrwt>
<rscale>  0 0.47765241E+03</rscale>
<asrwt>0</asrwt>
<pdfrwt beam="1">  1        2 0.20813818E+00 0.66470484E+03</pdfrwt>
<pdfrwt beam="2">  1       -2 0.60341968E-01 0.66470484E+03</pdfrwt>
<totfact> 0.40594033E+01</totfact>
</mgrwt>
</event>
<event>
 4    5  0.6615028E-008  0.7883934E+03  0.7818608E-02  0.9736478E-01
         -2   -1    0    0    0  501 -0.00000000000E+00  0.00000000000E+00  0.46041336933E+03  0.46041336934E+03  0.25500000000E-02 0.  1.
          2   -1    0    0  501    0  0.00000000000E+00 -0.00000000000E+00 -0.31394136671E+04  0.31394136671E+04  0.25500000000E-02 0. -1.
    8880023    1    1    2    0    0  0.86439630121E+02 -0.42459641711E+03 -0.29586663172E+04  0.30619063522E+04  0.65864270000E+03 0. -1.
    8880022    1    1    2    0    0 -0.86439630121E+02  0.42459641711E+03  0.27966601942E+03  0.53792068422E+03  0.15294330000E+03 0.  0.
<mgrwt>
<rscale>  0 0.68885843E+03</rscale>
<asrwt>0</asrwt>
<pdfrwt beam="1">  1        2 0.48298670E+00 0.78839339E+03</pdfrwt>
<pdfrwt beam="2">  1       -2 0.70832828E-01 0.78839339E+03</pdfrwt>
<totfact> 0.27362668E+00</totfact>
</mgrwt>
</event>
<event>
 4    5  0.6615028E-008  0.8297109E+03  0.7818608E-02  0.9649895E-01
          2   -1    0    0  501    0  0.00000000000E+00  0.00000000000E+00  0.81001081855E+03  0.81001081855E+03  0.25500000000E-02 0. -1.
         -2   -1    0    0    0  501 -0.00000000000E+00 -0.00000000000E+00 -0.67877884455E+03  0.67877884456E+03  0.25500000000E-02 0.  1.
    8880023    1    1    2    0    0  0.49797007700E+03  0.81460668134E+02  0.37184459583E+03  0.90922420103E+03  0.65864270000E+03 0.  0.
    8880022    1    1    2    0    0 -0.49797007700E+03 -0.81460668134E+02 -0.24061262183E+03  0.57956546208E+03  0.15294330000E+03 0.  0.
<mgrwt>
<rscale>  0 0.74080012E+03</rscale>
<asrwt>0</asrwt>
<pdfrwt beam="1">  1        2 0.12461705E+00 0.82971094E+03</pdfrwt>
<pdfrwt beam="2">  1       -2 0.10442751E+00 0.82971094E+03</pdfrwt>
<totfact> 0.25417062E+01</totfact>
</mgrwt>
</event>
<event>
 4    5  0.6615028E-008  0.6617439E+03  0.7818608E-02  0.1022437E+00
          2   -1    0    0  501    0  0.00000000000E+00  0.00000000000E+00  0.14648317711E+04  0.14648317711E+04  0.25500000000E-02 0. -1.
         -2   -1    0    0    0  501 -0.00000000000E+00 -0.00000000000E+00 -0.13079560462E+03  0.13079560465E+03  0.25500000000E-02 0.  1.
    8880023    1    1    2    0    0 -0.36057891907E+02  0.52864472224E+02  0.80975522639E+03  0.10457574083E+04  0.65864270000E+03 0.  1.
    8880022    1    1    2    0    0  0.36057891907E+02 -0.52864472224E+02  0.52428094005E+03  0.54986996746E+03  0.15294330000E+03 0.  0.
<mgrwt>
<rscale>  0 0.46817407E+03</rscale>
<asrwt>0</asrwt>
<pdfrwt beam="1">  1        2 0.22535874E+00 0.66174393E+03</pdfrwt>
<pdfrwt beam="2">  1       -2 0.20122400E-01 0.66174393E+03</pdfrwt>
<totfact> 0.28597258E+02</totfact>
</mgrwt>
</event>
<event>
 4    5  0.6615028E-008  0.7550340E+03  0.7818608E-02  0.9818138E-01
         -2   -1    0    0    0  501 -0.00000000000E+00  0.00000000000E+00  0.17372013400E+04  0.17372013400E+04  0.25500000000E-02 0.  1.
          2   -1    0    0  501    0  0.00000000000E+00 -0.00000000000E+00 -0.92375272799E+03  0.92375272799E+03  0.25500000000E-02 0. -1.
    8880023    1    1    2    0    0  0.36363471667E+03  0.63528716558E+02 -0.73984304032E+03  0.10570922550E+04  0.65864270000E+03 0. -1.
    8880022    1    1    2    0    0 -0.36363471667E+03 -0.63528716558E+02  0.15532916524E+04  0.16038618130E+04  0.15294330000E+03 0.  0.
<mgrwt>
<rscale>  0 0.64398185E+03</rscale>
<asrwt>0</asrwt>
<pdfrwt beam="1">  1        2 0.14211580E+00 0.75503398E+03</pdfrwt>
<pdfrwt beam="2">  1       -2 0.26726175E+00 0.75503398E+03</pdfrwt>
<totfact> 0.14751947E+00</totfact>
</mgrwt>
</event>
<event>
 4    5  0.6615028E-008  0.1023290E+04  0.7818608E-02  0.9351702E-01
         -2   -1    0    0    0  501 -0.00000000000E+00  0.00000000000E+00  0.88928118073E+03  0.88928118074E+03  0.25500000000E-02 0.  1.
          2   -1    0    0  501    0  0.00000000000E+00 -0.00000000000E+00 -0.17066078386E+04  0.17066078386E+04  0.25500000000E-02 0. -1.
    8880023    1    1    2    0    0  0.21560411790E+03 -0.75287874657E+03 -0.13068101766E+04  0.16597814876E+04  0.65864270000E+03 0. -1.
    8880022    1    1    2    0    0 -0.21560411790E+03  0.75287874657E+03  0.48948351879E+03  0.93610753168E+03  0.15294330000E+03 0.  0.
<mgrwt>
<rscale>  0 0.96159251E+03</rscale>
<asrwt>0</asrwt>
<pdfrwt beam="1">  1        2 0.26255505E+00 0.10232897E+04</pdfrwt>
<pdfrwt beam="2">  1       -2 0.13681249E+00 0.10232897E+04</pdfrwt>
<totfact> 0.36778722E+00</totfact>
</mgrwt>
</event>
<event>
 4    5  0.6839211E-008  0.8384607E+03  0.7818608E-02  0.9633090E-01
          2   -1    0    0  501    0  0.00000000000E+00  0.00000000000E+00  0.32296576883E+04  0.32296576883E+04  0.25500000000E-02 0. -1.
         -2   -1    0    0    0  501 -0.00000000000E+00 -0.00000000000E+00 -0.10881805618E+04  0.10881805618E+04  0.25500000000E-02 0.  1.
    8880023    1    1    2    0    0 -0.50802207697E+03  0.10544982690E+03  0.31031743413E+04  0.32144528765E+04  0.65864270000E+03 0. -1.
    8880022    1    1    2    0    0  0.50802207697E+03 -0.10544982690E+03 -0.96169721483E+03  0.11033853736E+04  0.15294330000E+03 0.  0.
<mgrwt>
<rscale>  0 0.75144275E+03</rscale>
<asrwt>0</asrwt>
<pdfrwt beam="1">  1        2 0.49687041E+00 0.83846067E+03</pdfrwt>
<pdfrwt beam="2">  1       -2 0.16741239E+00 0.83846067E+03</pdfrwt>
<totfact> 0.29168529E-01</totfact>
</mgrwt>
</event>
<event>
 4    5  0.6615028E-008  0.1205511E+04  0.7818608E-02  0.9151784E-01
          2   -1    0    0  501    0  0.00000000000E+00  0.00000000000E+00  0.16987953805E+04  0.16987953805E+04  0.25500000000E-02 0. -1.
         -2   -1    0    0    0  501 -0.00000000000E+00 -0.00000000000E+00 -0.11610762897E+04  0.11610762897E+04  0.25500000000E-02 0.  1.
    8880023    1    1    2    0    0  0.26619333632E+03 -0.97395491848E+03  0.11525943723E+04  0.16678522323E+04  0.65864270000E+03 0. -1.
    8880022    1    1    2    0    0 -0.26619333632E+03  0.97395491848E+03 -0.61487528144E+03  0.11920194379E+04  0.15294330000E+03 0.  0.
<mgrwt>
<rscale>  0 0.11565265E+04</rscale>
<asrwt>0</asrwt>
<pdfrwt beam="1">  1        2 0.26135314E+00 0.12055112E+04</pdfrwt>
<pdfrwt beam="2">  1       -2 0.17862712E+00 0.12055112E+04</pdfrwt>
<totfact> 0.17658031E+00</totfact>
</mgrwt>
</event>
<event>
 4    5  0.6615028E-008  0.1043350E+04  0.7818608E-02  0.9326918E-01
          2   -1    0    0  501    0  0.00000000000E+00  0.00000000000E+00  0.13540452441E+04  0.13540452441E+04  0.25500000000E-02 0. -1.
         -2   -1    0    0    0  501 -0.00000000000E+00 -0.00000000000E+00 -0.76096055329E+03  0.76096055329E+03  0.25500000000E-02 0.  1.
    8880023    1    1    2    0    0 -0.40276325760E+03  0.70182020561E+03  0.73915756674E+03  0.12786453603E+04  0.65864270000E+03 0.  1.
    8880022    1    1    2    0    0  0.40276325760E+03 -0.70182020561E+03 -0.14607287591E+03  0.83636043712E+03  0.15294330000E+03 0.  0.
<mgrwt>
<rscale>  0 0.98342055E+03</rscale>
<asrwt>0</asrwt>
<pdfrwt beam="1">  1        2 0.20831465E+00 0.10433504E+04</pdfrwt>
<pdfrwt beam="2">  1       -2 0.11707086E+00 0.10433504E+04</pdfrwt>
<totfact> 0.85867095E+00</totfact>
</mgrwt>
</event>
<event>
 4    5  0.6615028E-008  0.1034339E+04  0.7818608E-02  0.9337949E-01
         -2   -1    0    0    0  501 -0.00000000000E+00  0.00000000000E+00  0.39971233416E+03  0.39971233416E+03  0.25500000000E-02 0.  1.
          2   -1    0    0  501    0  0.00000000000E+00 -0.00000000000E+00 -0.45700556319E+04  0.45700556319E+04  0.25500000000E-02 0. -1.
    8880023    1    1    2    0    0 -0.79441388041E+03 -0.70379146076E+02 -0.40110068490E+04  0.41422255837E+04  0.65864270000E+03 0. -1.
    8880022    1    1    2    0    0  0.79441388041E+03  0.70379146076E+02 -0.15933644872E+03  0.82754238230E+03  0.15294330000E+03 0.  0.
<mgrwt>
<rscale>  0 0.97362989E+03</rscale>
<asrwt>0</asrwt>
<pdfrwt beam="1">  1        2 0.70308545E+00 0.10343388E+04</pdfrwt>
<pdfrwt beam="2">  1       -2 0.61494208E-01 0.10343388E+04</pdfrwt>
<totfact> 0.27613377E-01</totfact>
</mgrwt>
</event>
<event>
 4    5  0.6615028E-008  0.9498443E+03  0.7818608E-02  0.9450338E-01
         -2   -1    0    0    0  501 -0.00000000000E+00  0.00000000000E+00  0.17738327122E+04  0.17738327122E+04  0.25500000000E-02 0.  1.
          2   -1    0    0  501    0  0.00000000000E+00 -0.00000000000E+00 -0.11214794966E+04  0.11214794966E+04  0.25500000000E-02 0. -1.
    8880023    1    1    2    0    0  0.13543519614E+03 -0.67085864571E+03 -0.82619289897E+03  0.12588879726E+04  0.65864270000E+03 0. -1.
    8880022    1    1    2    0    0 -0.13543519614E+03  0.67085864571E+03  0.14785461147E+04  0.16364242363E+04  0.15294330000E+03 0.  0.
<mgrwt>
<rscale>  0 0.88046339E+03</rscale>
<asrwt>0</asrwt>
<pdfrwt beam="1">  1        2 0.17253531E+00 0.94984431E+03</pdfrwt>
<pdfrwt beam="2">  1       -2 0.27289734E+00 0.94984431E+03</pdfrwt>
<totfact> 0.99032264E-01</totfact>
</mgrwt>
</event>
<event>
 4    5  0.6615028E-008  0.1612996E+04  0.7818608E-02  0.8833710E-01
          2   -1    0    0  501    0  0.00000000000E+00  0.00000000000E+00  0.12976643158E+04  0.12976643158E+04  0.25500000000E-02 0. -1.
         -2   -1    0    0    0  501 -0.00000000000E+00 -0.00000000000E+00 -0.21717089488E+04  0.21717089488E+04  0.25500000000E-02 0.  1.
    8880023    1    1    2    0    0 -0.12970000117E+04 -0.69694799074E+03  0.22098325411E+03  0.16280630630E+04  0.65864270000E+03 0.  0.
    8880022    1    1    2    0    0  0.12970000117E+04  0.69694799074E+03 -0.10950278872E+04  0.18413102017E+04  0.15294330000E+03 0.  0.
<mgrwt>
<rscale>  0 0.15787508E+04</rscale>
<asrwt>0</asrwt>
<pdfrwt beam="1">  1        2 0.19964066E+00 0.16129959E+04</pdfrwt>
<pdfrwt beam="2">  1       -2 0.33410907E+00 0.16129959E+04</pdfrwt>
<totfact> 0.30282788E-01</totfact>
</mgrwt>
</event>
<event>
 4    5  0.6615028E-008  0.1364449E+04  0.7818608E-02  0.9011811E-01
         -2   -1    0    0    0  501 -0.00000000000E+00  0.00000000000E+00  0.99115427116E+03  0.99115427117E+03  0.25500000000E-02 0.  1.
          2   -1    0    0  501    0  0.00000000000E+00 -0.00000000000E+00 -0.33164117781E+04  0.33164117781E+04  0.25500000000E-02 0. -1.
    8880023    1    1    2    0    0  0.71732887522E+02 -0.11927969478E+04  0.31950130738E+03  0.14013570057E+04  0.65864270000E+03 0.  0.
    8880022    1    1    2    0    0 -0.71732887522E+02  0.11927969478E+04 -0.26447588143E+04  0.29062090435E+04  0.15294330000E+03 0.  0.
<mgrwt>
<rscale>  0 0.13226278E+04</rscale>
<asrwt>0</asrwt>
<pdfrwt beam="1">  1        2 0.51021719E+00 0.13644487E+04</pdfrwt>
<pdfrwt beam="2">  1       -2 0.15248527E+00 0.13644487E+04</pdfrwt>
<totfact> 0.30130092E-01</totfact>
</mgrwt>
</event>
<event>
 4    5  0.6615028E-008  0.9334728E+03  0.7818608E-02  0.9474303E-01
          2   -1    0    0  501    0  0.00000000000E+00  0.00000000000E+00  0.20313626752E+04  0.20313626752E+04  0.25500000000E-02 0. -1.
         -2   -1    0    0    0  501 -0.00000000000E+00 -0.00000000000E+00 -0.46100415464E+03  0.46100415465E+03  0.25500000000E-02 0.  1.
    8880023    1    1    2    0    0 -0.80324231471E+02  0.65658911582E+03  0.15545070223E+04  0.18132466842E+04  0.65864270000E+03 0. -1.
    8880022    1    1    2    0    0  0.80324231471E+02 -0.65658911582E+03  0.15851498246E+02  0.67912014562E+03  0.15294330000E+03 0.  0.
<mgrwt>
<rscale>  0 0.86205171E+03</rscale>
<asrwt>0</asrwt>
<pdfrwt beam="1">  1        2 0.31251732E+00 0.93347279E+03</pdfrwt>
<pdfrwt beam="2">  1       -2 0.70923718E-01 0.93347279E+03</pdfrwt>
<totfact> 0.11720006E+01</totfact>
</mgrwt>
</event>
<event>
 4    5  0.6615028E-008  0.1245384E+04  0.7818608E-02  0.9114220E-01
          2   -1    0    0  501    0  0.00000000000E+00  0.00000000000E+00  0.14079067450E+04  0.14079067450E+04  0.25500000000E-02 0. -1.
         -2   -1    0    0    0  501 -0.00000000000E+00 -0.00000000000E+00 -0.18898585127E+04  0.18898585127E+04  0.25500000000E-02 0.  1.
    8880023    1    1    2    0    0  0.93263213675E+03  0.49736195377E+03  0.91064219799E+03  0.15428062207E+04  0.65864270000E+03 0. -1.
    8880022    1    1    2    0    0 -0.93263213675E+03 -0.49736195377E+03 -0.13925939656E+04  0.17549590370E+04  0.15294330000E+03 0.  0.
<mgrwt>
<rscale>  0 0.11984432E+04</rscale>
<asrwt>0</asrwt>
<pdfrwt beam="1">  1        2 0.21660104E+00 0.12453842E+04</pdfrwt>
<pdfrwt beam="2">  1       -2 0.29074746E+00 0.12453842E+04</pdfrwt>
<totfact> 0.50256151E-01</totfact>
</mgrwt>
</event>
<event>
 4    5  0.6615028E-008  0.6756913E+03  0.7818608E-02  0.1011874E+00
          2   -1    0    0  501    0  0.00000000000E+00  0.00000000000E+00  0.99782134982E+03  0.99782134982E+03  0.25500000000E-02 0. -1.
         -2   -1    0    0    0  501 -0.00000000000E+00 -0.00000000000E+00 -0.43324781061E+03  0.43324781062E+03  0.25500000000E-02 0.  1.
    8880023    1    1    2    0    0  0.57159561981E+02 -0.13957548979E+03  0.84238911635E+03  0.10798972926E+04  0.65864270000E+03 0. -1.
    8880022    1    1    2    0    0 -0.57159561981E+02  0.13957548979E+03 -0.27781557714E+03  0.35117186788E+03  0.15294330000E+03 0.  0.
<mgrwt>
<rscale>  0 0.50736577E+03</rscale>
<asrwt>0</asrwt>
<pdfrwt beam="1">  1        2 0.15351098E+00 0.67569130E+03</pdfrwt>
<pdfrwt beam="2">  1       -2 0.66653510E-01 0.67569130E+03</pdfrwt>
<totfact> 0.53415307E+01</totfact>
</mgrwt>
</event>
<event>
 4    5  0.6615028E-008  0.7545251E+03  0.7818608E-02  0.9819493E-01
         -2   -1    0    0    0  501 -0.00000000000E+00  0.00000000000E+00  0.23542029301E+03  0.23542029303E+03  0.25500000000E-02 0.  1.
          2   -1    0    0  501    0  0.00000000000E+00 -0.00000000000E+00 -0.15046845893E+04  0.15046845893E+04  0.25500000000E-02 0. -1.
    8880023    1    1    2    0    0  0.26595394486E+03 -0.25449254604E+03 -0.10244355312E+04  0.12723114087E+04  0.65864270000E+03 0. -1.
    8880022    1    1    2    0    0 -0.26595394486E+03  0.25449254604E+03 -0.24482876507E+03  0.46779347366E+03  0.15294330000E+03 0.  1.
<mgrwt>
<rscale>  0 0.64326840E+03</rscale>
<asrwt>0</asrwt>
<pdfrwt beam="1">  1        2 0.23148993E+00 0.75452512E+03</pdfrwt>
<pdfrwt beam="2">  1       -2 0.36218508E-01 0.75452512E+03</pdfrwt>
<totfact> 0.92161831E+01</totfact>
</mgrwt>
</event>
<event>
 4    5  0.6615028E-008  0.1172202E+04  0.7818608E-02  0.9184629E-01
         -2   -1    0    0    0  501 -0.00000000000E+00  0.00000000000E+00  0.18839013632E+04  0.18839013632E+04  0.25500000000E-02 0.  1.
          2   -1    0    0  501    0  0.00000000000E+00 -0.00000000000E+00 -0.11341779806E+04  0.11341779806E+04  0.25500000000E-02 0. -1.
    8880023    1    1    2    0    0  0.94842621688E+03 -0.20182957450E+03 -0.62533798692E+03  0.13285726439E+04  0.65864270000E+03 0.  0.
    8880022    1    1    2    0    0 -0.94842621688E+03  0.20182957450E+03  0.13750613695E+04  0.16895066999E+04  0.15294330000E+03 0.  0.
<mgrwt>
<rscale>  0 0.11213499E+04</rscale>
<asrwt>0</asrwt>
<pdfrwt beam="1">  1        2 0.17448892E+00 0.11722021E+04</pdfrwt>
<pdfrwt beam="2">  1       -2 0.28983098E+00 0.11722021E+04</pdfrwt>
<totfact> 0.74570501E-01</totfact>
</mgrwt>
</event>
<event>
 4    5  0.6615028E-008  0.9103615E+03  0.7818608E-02  0.9509599E-01
         -2   -1    0    0    0  501 -0.00000000000E+00  0.00000000000E+00  0.81595725594E+03  0.81595725595E+03  0.25500000000E-02 0.  1.
          2   -1    0    0  501    0  0.00000000000E+00 -0.00000000000E+00 -0.77336957435E+03  0.77336957436E+03  0.25500000000E-02 0. -1.
    8880023    1    1    2    0    0 -0.62610729908E+03 -0.54198016340E+02  0.18028230895E+03  0.92804078149E+03  0.65864270000E+03 0.  0.
    8880022    1    1    2    0    0  0.62610729908E+03  0.54198016340E+02 -0.13769462736E+03  0.66128604881E+03  0.15294330000E+03 0.  0.
<mgrwt>
<rscale>  0 0.83579832E+03</rscale>
<asrwt>0</asrwt>
<pdfrwt beam="1">  1        2 0.11897993E+00 0.91036146E+03</pdfrwt>
<pdfrwt beam="2">  1       -2 0.12553189E+00 0.91036146E+03</pdfrwt>
<totfact> 0.17091326E+01</totfact>
</mgrwt>
</event>
<event>
 4    5  0.6615028E-008  0.1030262E+04  0.7818608E-02  0.9342994E-01
         -2   -1    0    0    0  501 -0.00000000000E+00  0.00000000000E+00  0.10401533888E+04  0.10401533888E+04  0.25500000000E-02 0.  1.
          2   -1    0    0  501    0  0.00000000000E+00 -0.00000000000E+00 -0.13688207946E+04  0.13688207946E+04  0.25500000000E-02 0. -1.
    8880023    1    1    2    0    0 -0.10440715682E+03  0.78532132381E+03 -0.94158585757E+03  0.13957165076E+04  0.65864270000E+03 0. -1.
    8880022    1    1    2    0    0  0.10440715682E+03 -0.78532132381E+03  0.61291845176E+03  0.10132576758E+04  0.15294330000E+03 0.  0.
<mgrwt>
<rscale>  0 0.96919320E+03</rscale>
<asrwt>0</asrwt>
<pdfrwt beam="1">  1        2 0.21058782E+00 0.10302624E+04</pdfrwt>
<pdfrwt beam="2">  1       -2 0.16002360E+00 0.10302624E+04</pdfrwt>
<totfact> 0.37531646E+00</totfact>
</mgrwt>
</event>
<event>
 4    5  0.6615028E-008  0.1437155E+04  0.7818608E-02  0.8955337E-01
         -2   -1    0    0    0  501 -0.00000000000E+00  0.00000000000E+00  0.11153252682E+04  0.11153252682E+04  0.25500000000E-02 0.  1.
          2   -1    0    0  501    0  0.00000000000E+00 -0.00000000000E+00 -0.28545455985E+04  0.28545455985E+04  0.25500000000E-02 0. -1.
    8880023    1    1    2    0    0  0.43567877399E+03 -0.12007451445E+04 -0.21790443267E+04  0.26102967801E+04  0.65864270000E+03 0.  0.
    8880022    1    1    2    0    0 -0.43567877399E+03  0.12007451445E+04  0.43982399642E+03  0.13595740866E+04  0.15294330000E+03 0.  0.
<mgrwt>
<rscale>  0 0.13979041E+04</rscale>
<asrwt>0</asrwt>
<pdfrwt beam="1">  1        2 0.43916086E+00 0.14371552E+04</pdfrwt>
<pdfrwt beam="2">  1       -2 0.17158850E+00 0.14371552E+04</pdfrwt>
<totfact> 0.42309985E-01</totfact>
</mgrwt>
</event>
<event>
 4    5  0.6615028E-008  0.8972745E+03  0.7818608E-02  0.9530421E-01
         -2   -1    0    0    0  501 -0.00000000000E+00  0.00000000000E+00  0.19374730677E+04  0.19374730677E+04  0.25500000000E-02 0.  1.
          2   -1    0    0  501    0  0.00000000000E+00 -0.00000000000E+00 -0.40097450735E+03  0.40097450736E+03  0.25500000000E-02 0. -1.
    8880023    1    1    2    0    0 -0.60473592299E+03  0.74737856239E+02  0.29067191847E+03  0.94318166551E+03  0.65864270000E+03 0. -1.
    8880022    1    1    2    0    0  0.60473592299E+03 -0.74737856239E+02  0.12458266419E+04  0.13952659096E+04  0.15294330000E+03 0.  0.
<mgrwt>
<rscale>  0 0.82077672E+03</rscale>
<asrwt>0</asrwt>
<pdfrwt beam="1">  1        2 0.61688384E-01 0.89727448E+03</pdfrwt>
<pdfrwt beam="2">  1       -2 0.29807279E+00 0.89727448E+03</pdfrwt>
<totfact> 0.26415574E+00</totfact>
</mgrwt>
</event>
<event>
 4    5  0.6615028E-008  0.1173179E+04  0.7818608E-02  0.9183645E-01
         -2   -1    0    0    0  501 -0.00000000000E+00  0.00000000000E+00  0.10697976198E+04  0.10697976198E+04  0.25500000000E-02 0.  1.
          2   -1    0    0  501    0  0.00000000000E+00 -0.00000000000E+00 -0.16792560261E+04  0.16792560262E+04  0.25500000000E-02 0. -1.
    8880023    1    1    2    0    0  0.67358810242E+03  0.69915585515E+03 -0.11368789043E+04  0.16336596007E+04  0.65864270000E+03 0.  0.
    8880022    1    1    2    0    0 -0.67358810242E+03 -0.69915585515E+03  0.52742049794E+03  0.11153940452E+04  0.15294330000E+03 0.  0.
<mgrwt>
<rscale>  0 0.11223844E+04</rscale>
<asrwt>0</asrwt>
<pdfrwt beam="1">  1        2 0.25834708E+00 0.11731795E+04</pdfrwt>
<pdfrwt beam="2">  1       -2 0.16458425E+00 0.11731795E+04</pdfrwt>
<totfact> 0.22867980E+00</totfact>
</mgrwt>
</event>
<event>
 4    5  0.6615028E-008  0.7241219E+03  0.7818608E-02  0.9908878E-01
         -2   -1    0    0    0  501 -0.00000000000E+00  0.00000000000E+00  0.11268900242E+04  0.11268900242E+04  0.25500000000E-02 0.  1.
          2   -1    0    0  501    0  0.00000000000E+00 -0.00000000000E+00 -0.20666903320E+04  0.20666903320E+04  0.25500000000E-02 0. -1.
    8880023    1    1    2    0    0  0.15867568664E+03 -0.25566439930E+03 -0.19756230852E+04  0.21041480555E+04  0.65864270000E+03 0. -1.
    8880022    1    1    2    0    0 -0.15867568664E+03  0.25566439930E+03  0.10358227774E+04  0.10894323007E+04  0.15294330000E+03 0.  0.
<mgrwt>
<rscale>  0 0.59832944E+03</rscale>
<asrwt>0</asrwt>
<pdfrwt beam="1">  1        2 0.31795236E+00 0.72412186E+03</pdfrwt>
<pdfrwt beam="2">  1       -2 0.17336770E+00 0.72412186E+03</pdfrwt>
<totfact> 0.12959197E+00</totfact>
</mgrwt>
</event>
<event>
 4    5  0.6615028E-008  0.8818506E+03  0.7818608E-02  0.9555819E-01
         -2   -1    0    0    0  501 -0.00000000000E+00  0.00000000000E+00  0.43380057585E+03  0.43380057586E+03  0.25500000000E-02 0.  1.
          2   -1    0    0  501    0  0.00000000000E+00 -0.00000000000E+00 -0.23120647436E+04  0.23120647436E+04  0.25500000000E-02 0. -1.
    8880023    1    1    2    0    0 -0.23879453359E+03 -0.53556272249E+03 -0.19456081418E+04  0.21361300304E+04  0.65864270000E+03 0.  1.
    8880022    1    1    2    0    0  0.23879453359E+03  0.53556272249E+03  0.67343973967E+02  0.60973528916E+03  0.15294330000E+03 0.  0.
<mgrwt>
<rscale>  0 0.80290708E+03</rscale>
<asrwt>0</asrwt>
<pdfrwt beam="1">  1        2 0.35570226E+00 0.88185059E+03</pdfrwt>
<pdfrwt beam="2">  1       -2 0.66738551E-01 0.88185059E+03</pdfrwt>
<totfact> 0.94165754E+00</totfact>
</mgrwt>
</event>
<event>
 4    5  0.6615028E-008  0.7557438E+03  0.7818608E-02  0.9816254E-01
          2   -1    0    0  501    0  0.00000000000E+00  0.00000000000E+00  0.50806582067E+03  0.50806582068E+03  0.25500000000E-02 0. -1.
         -2   -1    0    0    0  501 -0.00000000000E+00 -0.00000000000E+00 -0.16629254336E+04  0.16629254336E+04  0.25500000000E-02 0.  1.
    8880023    1    1    2    0    0 -0.32173172904E+03 -0.18392169481E+03  0.18028789061E+03  0.77695072241E+03  0.65864270000E+03 0.  0.
    8880022    1    1    2    0    0  0.32173172904E+03  0.18392169481E+03 -0.13351475035E+04  0.13940405319E+04  0.15294330000E+03 0.  0.
<mgrwt>
<rscale>  0 0.64497535E+03</rscale>
<asrwt>0</asrwt>
<pdfrwt beam="1">  1        2 0.78163973E-01 0.75574381E+03</pdfrwt>
<pdfrwt beam="2">  1       -2 0.25583468E+00 0.75574381E+03</pdfrwt>
<totfact> 0.36827827E+00</totfact>
</mgrwt>
</event>
<event>
 4    5  0.6615028E-008  0.8031951E+03  0.7818608E-02  0.9703930E-01
          2   -1    0    0  501    0  0.00000000000E+00  0.00000000000E+00  0.32041774481E+04  0.32041774481E+04  0.25500000000E-02 0. -1.
         -2   -1    0    0    0  501 -0.00000000000E+00 -0.00000000000E+00 -0.38280790959E+03  0.38280790960E+03  0.25500000000E-02 0.  1.
    8880023    1    1    2    0    0 -0.35263750578E+03  0.29488808675E+03  0.29728115412E+04  0.30794043027E+04  0.65864270000E+03 0. -1.
    8880022    1    1    2    0    0  0.35263750578E+03 -0.29488808675E+03 -0.15144200264E+03  0.50758105497E+03  0.15294330000E+03 0.  0.
<mgrwt>
<rscale>  0 0.70783303E+03</rscale>
<asrwt>0</asrwt>
<pdfrwt beam="1">  1        2 0.49295036E+00 0.80319512E+03</pdfrwt>
<pdfrwt beam="2">  1       -2 0.58893526E-01 0.80319512E+03</pdfrwt>
<totfact> 0.36898156E+00</totfact>
</mgrwt>
</event>
<event>
 4    5  0.7197914E-008  0.7175688E+03  0.7818608E-02  0.9930900E-01
          2   -1    0    0  501    0  0.00000000000E+00  0.00000000000E+00  0.20541451463E+04  0.20541451463E+04  0.25500000000E-02 0. -1.
         -2   -1    0    0    0  501 -0.00000000000E+00 -0.00000000000E+00 -0.84734084634E+03  0.84734084635E+03  0.25500000000E-02 0.  1.
    8880023    1    1    2    0    0 -0.27433115348E+03  0.76401363710E+02  0.19571112256E+04  0.20845117667E+04  0.65864270000E+03 0. -1.
    8880022    1    1    2    0    0  0.27433115348E+03 -0.76401363710E+02 -0.75030692562E+03  0.81697422591E+03  0.15294330000E+03 0.  0.
<mgrwt>
<rscale>  0 0.58786841E+03</rscale>
<asrwt>0</asrwt>
<pdfrwt beam="1">  1        2 0.31602233E+00 0.71756878E+03</pdfrwt>
<pdfrwt beam="2">  1       -2 0.13036013E+00 0.71756878E+03</pdfrwt>
<totfact> 0.28073566E+00</totfact>
</mgrwt>
</event>
<event>
 4    5  0.6615028E-008  0.6944259E+03  0.7818608E-02  0.1002116E+00
         -2   -1    0    0    0  501 -0.00000000000E+00  0.00000000000E+00  0.26213475015E+03  0.26213475016E+03  0.25500000000E-02 0.  1.
          2   -1    0    0  501    0  0.00000000000E+00 -0.00000000000E+00 -0.22575562277E+04  0.22575562277E+04  0.25500000000E-02 0. -1.
    8880023    1    1    2    0    0 -0.18939436393E+03  0.11201269299E+03 -0.21151217062E+04  0.22262001497E+04  0.65864270000E+03 0.  0.
    8880022    1    1    2    0    0  0.18939436393E+03 -0.11201269299E+03  0.11970022859E+03  0.29349082816E+03  0.15294330000E+03 0.  1.
<mgrwt>
<rscale>  0 0.54732031E+03</rscale>
<asrwt>0</asrwt>
<pdfrwt beam="1">  1        2 0.34731633E+00 0.69442586E+03</pdfrwt>
<pdfrwt beam="2">  1       -2 0.40328425E-01 0.69442586E+03</pdfrwt>
<totfact> 0.29184270E+01</totfact>
</mgrwt>
</event>
<event>
 4    5  0.6615028E-008  0.6704648E+03  0.7818608E-02  0.1015332E+00
          2   -1    0    0  501    0  0.00000000000E+00  0.00000000000E+00  0.10985114382E+04  0.10985114382E+04  0.25500000000E-02 0. -1.
         -2   -1    0    0    0  501 -0.00000000000E+00 -0.00000000000E+00 -0.38818544561E+03  0.38818544562E+03  0.25500000000E-02 0.  1.
    8880023    1    1    2    0    0  0.53938629329E+02  0.11315219521E+03  0.95828287446E+03  0.11695422475E+04  0.65864270000E+03 0. -1.
    8880022    1    1    2    0    0 -0.53938629329E+02 -0.11315219521E+03 -0.24795688190E+03  0.31715463627E+03  0.15294330000E+03 0.  0.
<mgrwt>
<rscale>  0 0.49409475E+03</rscale>
<asrwt>0</asrwt>
<pdfrwt beam="1">  1        2 0.16900176E+00 0.67046477E+03</pdfrwt>
<pdfrwt beam="2">  1       -2 0.59720838E-01 0.67046477E+03</pdfrwt>
<totfact> 0.58458448E+01</totfact>
</mgrwt>
</event>
<event>
 4    5  0.6615028E-008  0.1582696E+04  0.7818608E-02  0.8853346E-01
         -2   -1    0    0    0  501 -0.00000000000E+00  0.00000000000E+00  0.18728341461E+04  0.18728341461E+04  0.25500000000E-02 0.  1.
          2   -1    0    0  501    0  0.00000000000E+00 -0.00000000000E+00 -0.25178972685E+04  0.25178972686E+04  0.25500000000E-02 0. -1.
    8880023    1    1    2    0    0 -0.10360742375E+04  0.99883297030E+03 -0.19016379037E+04  0.24740966132E+04  0.65864270000E+03 0.  0.
    8880022    1    1    2    0    0  0.10360742375E+04 -0.99883297030E+03  0.12565747813E+04  0.19166348015E+04  0.15294330000E+03 0.  0.
<mgrwt>
<rscale>  0 0.15476881E+04</rscale>
<asrwt>0</asrwt>
<pdfrwt beam="1">  1        2 0.38736881E+00 0.15826962E+04</pdfrwt>
<pdfrwt beam="2">  1       -2 0.28812833E+00 0.15826962E+04</pdfrwt>
<totfact> 0.11852511E-01</totfact>
</mgrwt>
</event>
<event>
 4    5  0.6615028E-008  0.8876334E+03  0.7818608E-02  0.9546183E-01
          2   -1    0    0  501    0  0.00000000000E+00  0.00000000000E+00  0.34461068478E+04  0.34461068478E+04  0.25500000000E-02 0. -1.
         -2   -1    0    0    0  501 -0.00000000000E+00 -0.00000000000E+00 -0.69832115430E+03  0.69832115431E+03  0.25500000000E-02 0.  1.
    8880023    1    1    2    0    0  0.35649924734E+03 -0.47643581961E+03  0.32386140945E+04  0.33580521531E+04  0.65864270000E+03 0. -1.
    8880022    1    1    2    0    0 -0.35649924734E+03  0.47643581961E+03 -0.49082840104E+03  0.78637584897E+03  0.15294330000E+03 0.  0.
<mgrwt>
<rscale>  0 0.80962920E+03</rscale>
<asrwt>0</asrwt>
<pdfrwt beam="1">  1        2 0.53017029E+00 0.88763338E+03</pdfrwt>
<pdfrwt beam="2">  1       -2 0.10743402E+00 0.88763338E+03</pdfrwt>
<totfact> 0.64958954E-01</totfact>
</mgrwt>
</event>
<event>
 4    5  0.6615028E-008  0.7547954E+03  0.7818608E-02  0.9818773E-01
         -2   -1    0    0    0  501 -0.00000000000E+00  0.00000000000E+00  0.78491286327E+03  0.78491286327E+03  0.25500000000E-02 0.  1.
          2   -1    0    0  501    0  0.00000000000E+00 -0.00000000000E+00 -0.81265264646E+03  0.81265264646E+03  0.25500000000E-02 0. -1.
    8880023    1    1    2    0    0 -0.35745073151E+03 -0.90193833436E+02 -0.55456800134E+03  0.93662256402E+03  0.65864270000E+03 0. -1.
    8880022    1    1    2    0    0  0.35745073151E+03  0.90193833436E+02  0.52682821815E+03  0.66094294572E+03  0.15294330000E+03 0.  0.
<mgrwt>
<rscale>  0 0.64364753E+03</rscale>
<asrwt>0</asrwt>
<pdfrwt beam="1">  1        2 0.12502348E+00 0.75479544E+03</pdfrwt>
<pdfrwt beam="2">  1       -2 0.12075583E+00 0.75479544E+03</pdfrwt>
<totfact> 0.17886084E+01</totfact>
</mgrwt>
</event>
<event>
 4    5  0.6615028E-008  0.6605502E+03  0.7818608E-02  0.1023600E+00
         -2   -1    0    0    0  501 -0.00000000000E+00  0.00000000000E+00  0.10833937934E+04  0.10833937934E+04  0.25500000000E-02 0.  1.
          2   -1    0    0  501    0  0.00000000000E+00 -0.00000000000E+00 -0.79632753803E+03  0.79632753803E+03  0.25500000000E-02 0. -1.
    8880023    1    1    2    0    0 -0.17743548175E+02 -0.46920469265E+02 -0.65130537225E+03  0.92764500652E+03  0.65864270000E+03 0. -1.
    8880022    1    1    2    0    0  0.17743548175E+02  0.46920469265E+02  0.93837162766E+03  0.95207632496E+03  0.15294330000E+03 0.  0.
<mgrwt>
<rscale>  0 0.46409688E+03</rscale>
<asrwt>0</asrwt>
<pdfrwt beam="1">  1        2 0.12251193E+00 0.66055020E+03</pdfrwt>
<pdfrwt beam="2">  1       -2 0.16667597E+00 0.66055020E+03</pdfrwt>
<totfact> 0.80310683E+00</totfact>
</mgrwt>
</event>
<event>
 4    5  0.6615028E-008  0.6872067E+03  0.7818608E-02  0.1005509E+00
          2   -1    0    0  501    0  0.00000000000E+00  0.00000000000E+00  0.21884299371E+04  0.21884299371E+04  0.25500000000E-02 0. -1.
         -2   -1    0    0    0  501 -0.00000000000E+00 -0.00000000000E+00 -0.13276765377E+03  0.13276765379E+03  0.25500000000E-02 0.  1.
    8880023    1    1    2    0    0  0.91990635379E+02 -0.17314877280E+03  0.19170682602E+04  0.20365175410E+04  0.65864270000E+03 0. -1.
    8880022    1    1    2    0    0 -0.91990635379E+02  0.17314877280E+03  0.13859402316E+03  0.28468004987E+03  0.15294330000E+03 0.  0.
<mgrwt>
<rscale>  0 0.53299030E+03</rscale>
<asrwt>0</asrwt>
<pdfrwt beam="1">  1        2 0.33668150E+00 0.68720665E+03</pdfrwt>
<pdfrwt beam="2">  1       -2 0.20425794E-01 0.68720665E+03</pdfrwt>
<totfact> 0.11180329E+02</totfact>
</mgrwt>
</event>
<event>
 4    5  0.6615028E-008  0.9670486E+03  0.7818608E-02  0.9425998E-01
          2   -1    0    0  501    0  0.00000000000E+00  0.00000000000E+00  0.13506930057E+04  0.13506930057E+04  0.25500000000E-02 0. -1.
         -2   -1    0    0    0  501 -0.00000000000E+00 -0.00000000000E+00 -0.62183575822E+03  0.62183575823E+03  0.25500000000E-02 0.  1.
    8880023    1    1    2    0    0 -0.23179770285E+03 -0.66906104739E+03  0.78555760311E+03  0.12459068241E+04  0.65864270000E+03 0. -1.
    8880022    1    1    2    0    0  0.23179770285E+03  0.66906104739E+03 -0.56700355611E+02  0.72662193988E+03  0.15294330000E+03 0.  0.
<mgrwt>
<rscale>  0 0.89966701E+03</rscale>
<asrwt>0</asrwt>
<pdfrwt beam="1">  1        2 0.20779892E+00 0.96704864E+03</pdfrwt>
<pdfrwt beam="2">  1       -2 0.95667041E-01 0.96704864E+03</pdfrwt>
<totfact> 0.14135995E+01</totfact>
</mgrwt>
</event>
<event>
 4    5  0.6615028E-008  0.1042362E+04  0.7818608E-02  0.9328120E-01
         -2   -1    0    0    0  501 -0.00000000000E+00  0.00000000000E+00  0.61144503194E+03  0.61144503194E+03  0.25500000000E-02 0.  1.
          2   -1    0    0  501    0  0.00000000000E+00 -0.00000000000E+00 -0.18641089620E+04  0.18641089620E+04  0.25500000000E-02 0. -1.
    8880023    1    1    2    0    0 -0.69891725908E+03  0.40524480974E+03 -0.12826077423E+04  0.16527557344E+04  0.65864270000E+03 0.  0.
    8880022    1    1    2    0    0  0.69891725908E+03 -0.40524480974E+03  0.29943812283E+02  0.82279825946E+03  0.15294330000E+03 0.  0.
<mgrwt>
<rscale>  0 0.98234802E+03</rscale>
<asrwt>0</asrwt>
<pdfrwt beam="1">  1        2 0.28678599E+00 0.10423622E+04</pdfrwt>
<pdfrwt beam="2">  1       -2 0.94068467E-01 0.10423622E+04</pdfrwt>
<totfact> 0.75411120E+00</totfact>
</mgrwt>
</event>
<event>
 4    5  0.7628846E-008  0.8245953E+03  0.7818608E-02  0.9659941E-01
          2   -1    0    0  501    0  0.00000000000E+00  0.00000000000E+00  0.19372551533E+04  0.19372551533E+04  0.25500000000E-02 0. -1.
         -2   -1    0    0    0  501 -0.00000000000E+00 -0.00000000000E+00 -0.13172256015E+04  0.13172256015E+04  0.25500000000E-02 0.  1.
    8880023    1    1    2    0    0  0.27968593584E+03  0.40978410574E+03  0.17920254052E+04  0.19726409950E+04  0.65864270000E+03 0. -1.
    8880022    1    1    2    0    0 -0.27968593584E+03 -0.40978410574E+03 -0.11719958535E+04  0.12818397598E+04  0.15294330000E+03 0.  0.
<mgrwt>
<rscale>  0 0.73452795E+03</rscale>
<asrwt>0</asrwt>
<pdfrwt beam="1">  1        2 0.29803925E+00 0.82459532E+03</pdfrwt>
<pdfrwt beam="2">  1       -2 0.20265009E+00 0.82459532E+03</pdfrwt>
<totfact> 0.95076870E-01</totfact>
</mgrwt>
</event>
<event>
 4    5  0.6615028E-008  0.8826079E+03  0.7818608E-02  0.9554549E-01
          2   -1    0    0  501    0  0.00000000000E+00  0.00000000000E+00  0.61638218251E+03  0.61638218252E+03  0.25500000000E-02 0. -1.
         -2   -1    0    0    0  501 -0.00000000000E+00 -0.00000000000E+00 -0.14747807521E+04  0.14747807521E+04  0.25500000000E-02 0.  1.
    8880023    1    1    2    0    0 -0.45565933922E+03  0.37089230560E+03  0.16819240040E+03  0.89849063745E+03  0.65864270000E+03 0. -1.
    8880022    1    1    2    0    0  0.45565933922E+03 -0.37089230560E+03 -0.10265909700E+04  0.11926722972E+04  0.15294330000E+03 0.  0.
<mgrwt>
<rscale>  0 0.80378902E+03</rscale>
<asrwt>0</asrwt>
<pdfrwt beam="1">  1        2 0.94828029E-01 0.88260792E+03</pdfrwt>
<pdfrwt beam="2">  1       -2 0.22688934E+00 0.88260792E+03</pdfrwt>
<totfact> 0.43293163E+00</totfact>
</mgrwt>
</event>
<event>
 4    5  0.6615028E-008  0.1121425E+04  0.7818608E-02  0.9237569E-01
         -2   -1    0    0    0  501 -0.00000000000E+00  0.00000000000E+00  0.10937926315E+04  0.10937926315E+04  0.25500000000E-02 0.  1.
          2   -1    0    0  501    0  0.00000000000E+00 -0.00000000000E+00 -0.14676233489E+04  0.14676233489E+04  0.25500000000E-02 0. -1.
    8880023    1    1    2    0    0  0.53615812401E+03  0.73233747400E+03 -0.95492135463E+03  0.14729116435E+04  0.65864270000E+03 0. -1.
    8880022    1    1    2    0    0 -0.53615812401E+03 -0.73233747400E+03  0.58109063727E+03  0.10885043369E+04  0.15294330000E+03 0.  0.
<mgrwt>
<rscale>  0 0.10673929E+04</rscale>
<asrwt>0</asrwt>
<pdfrwt beam="1">  1        2 0.22578821E+00 0.11214249E+04</pdfrwt>
<pdfrwt beam="2">  1       -2 0.16827579E+00 0.11214249E+04</pdfrwt>
<totfact> 0.28418397E+00</totfact>
</mgrwt>
</event>
<event>
 4    5  0.6615028E-008  0.7009152E+03  0.7818608E-02  0.9993425E-01
          2   -1    0    0  501    0  0.00000000000E+00  0.00000000000E+00  0.24420542873E+04  0.24420542873E+04  0.25500000000E-02 0. -1.
         -2   -1    0    0    0  501 -0.00000000000E+00 -0.00000000000E+00 -0.26160846722E+03  0.26160846723E+03  0.25500000000E-02 0.  1.
    8880023    1    1    2    0    0  0.17271135499E+03  0.16626111719E+03  0.22930740176E+04  0.23978053774E+04  0.65864270000E+03 0.  0.
    8880022    1    1    2    0    0 -0.17271135499E+03 -0.16626111719E+03 -0.11262819758E+03  0.30585737711E+03  0.15294330000E+03 0.  0.
<mgrwt>
<rscale>  0 0.55939461E+03</rscale>
<asrwt>0</asrwt>
<pdfrwt beam="1">  1        2 0.37570065E+00 0.70091524E+03</pdfrwt>
<pdfrwt beam="2">  1       -2 0.40247458E-01 0.70091524E+03</pdfrwt>
<totfact> 0.23102936E+01</totfact>
</mgrwt>
</event>
<event>
 4    5  0.6615028E-008  0.1393954E+04  0.7818608E-02  0.8988395E-01
         -2   -1    0    0    0  501 -0.00000000000E+00  0.00000000000E+00  0.13054279698E+04  0.13054279698E+04  0.25500000000E-02 0.  1.
          2   -1    0    0  501    0  0.00000000000E+00 -0.00000000000E+00 -0.17283399277E+04  0.17283399277E+04  0.25500000000E-02 0. -1.
    8880023    1    1    2    0    0 -0.12066875603E+04 -0.23065900981E+03 -0.95138348061E+03  0.16876727113E+04  0.65864270000E+03 0.  0.
    8880022    1    1    2    0    0  0.12066875603E+04  0.23065900981E+03  0.52847152266E+03  0.13460951862E+04  0.15294330000E+03 0.  0.
<mgrwt>
<rscale>  0 0.13532194E+04</rscale>
<asrwt>0</asrwt>
<pdfrwt beam="1">  1        2 0.26589845E+00 0.13939543E+04</pdfrwt>
<pdfrwt beam="2">  1       -2 0.20083507E+00 0.13939543E+04</pdfrwt>
<totfact> 0.11801307E+00</totfact>
</mgrwt>
</event>
<event>
 4    5  0.6615028E-008  0.8880769E+03  0.7818608E-02  0.9545450E-01
          2   -1    0    0  501    0  0.00000000000E+00  0.00000000000E+00  0.62808041973E+03  0.62808041974E+03  0.25500000000E-02 0. -1.
         -2   -1    0    0    0  501 -0.00000000000E+00 -0.00000000000E+00 -0.11926679495E+04  0.11926679495E+04  0.25500000000E-02 0.  1.
    8880023    1    1    2    0    0  0.88096617965E+02 -0.58915982545E+03  0.12489655422E+03  0.89681640794E+03  0.65864270000E+03 0. -1.
    8880022    1    1    2    0    0 -0.88096617965E+02  0.58915982545E+03 -0.68948408397E+03  0.92393196128E+03  0.15294330000E+03 0.  0.
<mgrwt>
<rscale>  0 0.81014359E+03</rscale>
<asrwt>0</asrwt>
<pdfrwt beam="1">  1        2 0.96627757E-01 0.88807687E+03</pdfrwt>
<pdfrwt beam="2">  1       -2 0.18348738E+00 0.88807687E+03</pdfrwt>
<totfact> 0.80757965E+00</totfact>
</mgrwt>
</event>
<event>
 4    5  0.9261164E-008  0.1190433E+04  0.7818608E-02  0.9166479E-01
          2   -1    0    0  501    0  0.00000000000E+00  0.00000000000E+00  0.31617945777E+04  0.31617945777E+04  0.25500000000E-02 0. -1.
         -2   -1    0    0    0  501 -0.00000000000E+00 -0.00000000000E+00 -0.17879367740E+04  0.17879367740E+04  0.25500000000E-02 0.  1.
    8880023    1    1    2    0    0 -0.60823913866E+03 -0.78317598618E+03  0.28934562128E+04  0.31287726885E+04  0.65864270000E+03 0. -1.
    8880022    1    1    2    0    0  0.60823913866E+03  0.78317598618E+03 -0.15195984091E+04  0.18209586632E+04  0.15294330000E+03 0.  0.
<mgrwt>
<rscale>  0 0.11406219E+04</rscale>
<asrwt>0</asrwt>
<pdfrwt beam="1">  1        2 0.48642993E+00 0.11904326E+04</pdfrwt>
<pdfrwt beam="2">  1       -2 0.27506720E+00 0.11904326E+04</pdfrwt>
<totfact> 0.61417985E-02</totfact>
</mgrwt>
</event>
<event>
 4    5  0.6615028E-008  0.8696111E+03  0.7818608E-02  0.9576691E-01
          2   -1    0    0  501    0  0.00000000000E+00  0.00000000000E+00  0.26902324150E+04  0.26902324150E+04  0.25500000000E-02 0. -1.
         -2   -1    0    0    0  501 -0.00000000000E+00 -0.00000000000E+00 -0.40673664374E+03  0.40673664375E+03  0.25500000000E-02 0.  1.
    8880023    1    1    2    0    0 -0.28865852700E+03 -0.48896778448E+03  0.23494575530E+04  0.25052293786E+04  0.65864270000E+03 0. -1.
    8880022    1    1    2    0    0  0.28865852700E+03  0.48896778448E+03 -0.65961781753E+02  0.59173968021E+03  0.15294330000E+03 0.  0.
<mgrwt>
<rscale>  0 0.78858351E+03</rscale>
<asrwt>0</asrwt>
<pdfrwt beam="1">  1        2 0.41388189E+00 0.86961109E+03</pdfrwt>
<pdfrwt beam="2">  1       -2 0.62574872E-01 0.86961109E+03</pdfrwt>
<totfact> 0.65939339E+00</totfact>
</mgrwt>
</event>
<event>
 4    5  0.6615028E-008  0.7046906E+03  0.7818608E-02  0.9978272E-01
         -2   -1    0    0    0  501 -0.00000000000E+00  0.00000000000E+00  0.40194633629E+03  0.40194633629E+03  0.25500000000E-02 0.  1.
          2   -1    0    0  501    0  0.00000000000E+00 -0.00000000000E+00 -0.27727624371E+04  0.27727624371E+04  0.25500000000E-02 0. -1.
    8880023    1    1    2    0    0  0.21320695274E+03 -0.13161072392E+03 -0.26665069214E+04  0.27580514781E+04  0.65864270000E+03 0. -1.
    8880022    1    1    2    0    0 -0.21320695274E+03  0.13161072392E+03  0.29569082061E+03  0.41665729534E+03  0.15294330000E+03 0.  0.
<mgrwt>
<rscale>  0 0.56613305E+03</rscale>
<asrwt>0</asrwt>
<pdfrwt beam="1">  1        2 0.42657882E+00 0.70469057E+03</pdfrwt>
<pdfrwt beam="2">  1       -2 0.61837900E-01 0.70469057E+03</pdfrwt>
<totfact> 0.62255081E+00</totfact>
</mgrwt>
</event>
<event>
 4    5  0.6615028E-008  0.1237182E+04  0.7818608E-02  0.9121800E-01
          2   -1    0    0  501    0  0.00000000000E+00  0.00000000000E+00  0.22738307578E+04  0.22738307578E+04  0.25500000000E-02 0. -1.
         -2   -1    0    0    0  501 -0.00000000000E+00 -0.00000000000E+00 -0.92260622626E+03  0.92260622626E+03  0.25500000000E-02 0.  1.
    8880023    1    1    2    0    0  0.43440522077E+03 -0.95294345827E+03  0.16815994141E+04  0.20876771604E+04  0.65864270000E+03 0. -1.
    8880022    1    1    2    0    0 -0.43440522077E+03  0.95294345827E+03 -0.33037488252E+03  0.11087598236E+04  0.15294330000E+03 0.  0.
<mgrwt>
<rscale>  0 0.11898362E+04</rscale>
<asrwt>0</asrwt>
<pdfrwt beam="1">  1        2 0.34982011E+00 0.12371820E+04</pdfrwt>
<pdfrwt beam="2">  1       -2 0.14193942E+00 0.12371820E+04</pdfrwt>
<totfact> 0.15797024E+00</totfact>
</mgrwt>
</event>
<event>
 4    5  0.6615028E-008  0.7237914E+03  0.7818608E-02  0.9909960E-01
          2   -1    0    0  501    0  0.00000000000E+00  0.00000000000E+00  0.71601300468E+03  0.71601300468E+03  0.25500000000E-02 0. -1.
         -2   -1    0    0    0  501 -0.00000000000E+00 -0.00000000000E+00 -0.84799599265E+03  0.84799599265E+03  0.25500000000E-02 0.  1.
    8880023    1    1    2    0    0 -0.22023443652E+03  0.20386404938E+03  0.47787389461E+03  0.86731621862E+03  0.65864270000E+03 0. -1.
    8880022    1    1    2    0    0  0.22023443652E+03 -0.20386404938E+03 -0.60985688259E+03  0.69669277872E+03  0.15294330000E+03 0.  0.
<mgrwt>
<rscale>  0 0.59781004E+03</rscale>
<asrwt>0</asrwt>
<pdfrwt beam="1">  1        2 0.11015585E+00 0.72379138E+03</pdfrwt>
<pdfrwt beam="2">  1       -2 0.13046092E+00 0.72379138E+03</pdfrwt>
<totfact> 0.17424835E+01</totfact>
</mgrwt>
</event>
<event>
 4    5  0.6615028E-008  0.1669683E+04  0.7818608E-02  0.8798270E-01
         -2   -1    0    0    0  501 -0.00000000000E+00  0.00000000000E+00  0.13160857365E+04  0.13160857365E+04  0.25500000000E-02 0.  1.
          2   -1    0    0  501    0  0.00000000000E+00 -0.00000000000E+00 -0.23814529145E+04  0.23814529145E+04  0.25500000000E-02 0. -1.
    8880023    1    1    2    0    0  0.15342581168E+04 -0.90376285785E+01 -0.13280451655E+04  0.21334347460E+04  0.65864270000E+03 0.  0.
    8880022    1    1    2    0    0 -0.15342581168E+04  0.90376285785E+01  0.26267798746E+03  0.15641039051E+04  0.15294330000E+03 0.  0.
<mgrwt>
<rscale>  0 0.16367739E+04</rscale>
<asrwt>0</asrwt>
<pdfrwt beam="1">  1        2 0.36637737E+00 0.16696826E+04</pdfrwt>
<pdfrwt beam="2">  1       -2 0.20247473E+00 0.16696826E+04</pdfrwt>
<totfact> 0.48175282E-01</totfact>
</mgrwt>
</event>
<event>
 4    5  0.6615028E-008  0.1143667E+04  0.7818608E-02  0.9213927E-01
          2   -1    0    0  501    0  0.00000000000E+00  0.00000000000E+00  0.10205543727E+04  0.10205543727E+04  0.25500000000E-02 0. -1.
         -2   -1    0    0    0  501 -0.00000000000E+00 -0.00000000000E+00 -0.13277879039E+04  0.13277879039E+04  0.25500000000E-02 0.  1.
    8880023    1    1    2    0    0 -0.80665439755E+03 -0.47273009353E+03  0.34915616982E+03  0.11957781130E+04  0.65864270000E+03 0. -1.
    8880022    1    1    2    0    0  0.80665439755E+03  0.47273009353E+03 -0.65638970110E+03  0.11525641636E+04  0.15294330000E+03 0.  0.
<mgrwt>
<rscale>  0 0.10910824E+04</rscale>
<asrwt>0</asrwt>
<pdfrwt beam="1">  1        2 0.15700836E+00 0.11436675E+04</pdfrwt>
<pdfrwt beam="2">  1       -2 0.20427506E+00 0.11436675E+04</pdfrwt>
<totfact> 0.29792916E+00</totfact>
</mgrwt>
</event>
<event>
 4    5  0.6615028E-008  0.6590697E+03  0.7818608E-02  0.1025130E+00
         -2   -1    0    0    0  501 -0.00000000000E+00  0.00000000000E+00  0.26697564237E+03  0.26697564238E+03  0.25500000000E-02 0.  1.
          2   -1    0    0  501    0  0.00000000000E+00 -0.00000000000E+00 -0.85489666625E+03  0.85489666625E+03  0.25500000000E-02 0. -1.
    8880023    1    1    2    0    0 -0.21777425475E+02 -0.94037810383E+01 -0.67573572373E+03  0.94392354667E+03  0.65864270000E+03 0. -1.
    8880022    1    1    2    0    0  0.21777425475E+02  0.94037810383E+01  0.87814699857E+02  0.17794876196E+03  0.15294330000E+03 0.  0.
<mgrwt>
<rscale>  0 0.45879803E+03</rscale>
<asrwt>0</asrwt>
<pdfrwt beam="1">  1        2 0.13152256E+00 0.65906972E+03</pdfrwt>
<pdfrwt beam="2">  1       -2 0.41073176E-01 0.65906972E+03</pdfrwt>
<totfact> 0.17957517E+02</totfact>
</mgrwt>
</event>
<event>
 4    5  0.6615028E-008  0.1073948E+04  0.7818608E-02  0.9290631E-01
          2   -1    0    0  501    0  0.00000000000E+00  0.00000000000E+00  0.41649609420E+04  0.41649609420E+04  0.25500000000E-02 0. -1.
         -2   -1    0    0    0  501 -0.00000000000E+00 -0.00000000000E+00 -0.11523613456E+04  0.11523613456E+04  0.25500000000E-02 0.  1.
    8880023    1    1    2    0    0  0.67971129611E+03 -0.50749125418E+03  0.39207948710E+04  0.40652180072E+04  0.65864270000E+03 0.  0.
    8880022    1    1    2    0    0 -0.67971129611E+03  0.50749125418E+03 -0.90819527463E+03  0.12521042804E+04  0.15294330000E+03 0.  0.
<mgrwt>
<rscale>  0 0.10164996E+04</rscale>
<asrwt>0</asrwt>
<pdfrwt beam="1">  1        2 0.64076322E+00 0.10739483E+04</pdfrwt>
<pdfrwt beam="2">  1       -2 0.17728636E+00 0.10739483E+04</pdfrwt>
<totfact> 0.48972674E-02</totfact>
</mgrwt>
</event>
<event>
 4    5  0.8087597E-008  0.8003933E+03  0.7818608E-02  0.9709946E-01
          2   -1    0    0  501    0  0.00000000000E+00  0.00000000000E+00  0.25980324818E+04  0.25980324818E+04  0.25500000000E-02 0. -1.
         -2   -1    0    0    0  501 -0.00000000000E+00 -0.00000000000E+00 -0.14260848032E+04  0.14260848032E+04  0.25500000000E-02 0.  1.
    8880023    1    1    2    0    0  0.45462536509E+03 -0.11621960242E+02  0.24931566947E+04  0.26184842568E+04  0.65864270000E+03 0. -1.
    8880022    1    1    2    0    0 -0.45462536509E+03  0.11621960242E+02 -0.13212090162E+04  0.14056330282E+04  0.15294330000E+03 0.  0.
<mgrwt>
<rscale>  0 0.70427674E+03</rscale>
<asrwt>0</asrwt>
<pdfrwt beam="1">  1        2 0.39969730E+00 0.80039334E+03</pdfrwt>
<pdfrwt beam="2">  1       -2 0.21939766E+00 0.80039334E+03</pdfrwt>
<totfact> 0.32015659E-01</totfact>
</mgrwt>
</event>
<event>
 4    5  0.6615028E-008  0.7565114E+03  0.7818608E-02  0.9814224E-01
          2   -1    0    0  501    0  0.00000000000E+00  0.00000000000E+00  0.20729506100E+04  0.20729506100E+04  0.25500000000E-02 0. -1.
         -2   -1    0    0    0  501 -0.00000000000E+00 -0.00000000000E+00 -0.60867426897E+03  0.60867426898E+03  0.25500000000E-02 0.  1.
    8880023    1    1    2    0    0  0.15860612171E+03 -0.33666501548E+03  0.19259643130E+04  0.20692143377E+04  0.65864270000E+03 0. -1.
    8880022    1    1    2    0    0 -0.15860612171E+03  0.33666501548E+03 -0.46168797196E+03  0.61241054119E+03  0.15294330000E+03 0.  0.
<mgrwt>
<rscale>  0 0.64604741E+03</rscale>
<asrwt>0</asrwt>
<pdfrwt beam="1">  1        2 0.31891547E+00 0.75651136E+03</pdfrwt>
<pdfrwt beam="2">  1       -2 0.93642197E-01 0.75651136E+03</pdfrwt>
<totfact> 0.60790028E+00</totfact>
</mgrwt>
</event>
<event>
 4    5  0.6615028E-008  0.1153324E+04  0.7818608E-02  0.9203886E-01
         -2   -1    0    0    0  501 -0.00000000000E+00  0.00000000000E+00  0.19176003856E+04  0.19176003856E+04  0.25500000000E-02 0.  1.
          2   -1    0    0  501    0  0.00000000000E+00 -0.00000000000E+00 -0.90934228554E+03  0.90934228555E+03  0.25500000000E-02 0. -1.
    8880023    1    1    2    0    0 -0.73271115457E+03  0.59956778508E+03  0.13799091763E+04  0.17984178341E+04  0.65864270000E+03 0.  0.
    8880022    1    1    2    0    0  0.73271115457E+03 -0.59956778508E+03 -0.37165107624E+03  0.10285248370E+04  0.15294330000E+03 0.  0.
<mgrwt>
<rscale>  0 0.11013407E+04</rscale>
<asrwt>0</asrwt>
<pdfrwt beam="1">  1        2 0.13989882E+00 0.11533245E+04</pdfrwt>
<pdfrwt beam="2">  1       -2 0.29501544E+00 0.11533245E+04</pdfrwt>
<totfact> 0.96956319E-01</totfact>
</mgrwt>
</event>
<event>
 4    5  0.6615028E-008  0.2580096E+04  0.7818608E-02  0.8382036E-01
          2   -1    0    0  501    0  0.00000000000E+00  0.00000000000E+00  0.42437987345E+04  0.42437987345E+04  0.25500000000E-02 0. -1.
         -2   -1    0    0    0  501 -0.00000000000E+00 -0.00000000000E+00 -0.18384720963E+04  0.18384720963E+04  0.25500000000E-02 0.  1.
    8880023    1    1    2    0    0  0.24719880972E+04  0.33520113183E+03  0.24843260496E+04  0.35817273875E+04  0.65864270000E+03 0.  0.
    8880022    1    1    2    0    0 -0.24719880972E+04 -0.33520113183E+03 -0.78999411390E+02  0.25005434432E+04  0.15294330000E+03 0.  0.
<mgrwt>
<rscale>  0 0.25596541E+04</rscale>
<asrwt>0</asrwt>
<pdfrwt beam="1">  1        2 0.65289210E+00 0.25800960E+04</pdfrwt>
<pdfrwt beam="2">  1       -2 0.28284186E+00 0.25800960E+04</pdfrwt>
<totfact> 0.71813857E-03</totfact>
</mgrwt>
</event>
<event>
 4    5  0.6615028E-008  0.8536081E+03  0.7818608E-02  0.9605036E-01
         -2   -1    0    0    0  501 -0.00000000000E+00  0.00000000000E+00  0.81407293216E+03  0.81407293216E+03  0.25500000000E-02 0.  1.
          2   -1    0    0  501    0  0.00000000000E+00 -0.00000000000E+00 -0.31710570376E+04  0.31710570376E+04  0.25500000000E-02 0. -1.
    8880023    1    1    2    0    0  0.52636974369E+03  0.13330947224E+03 -0.30062143928E+04  0.31250554722E+04  0.65864270000E+03 0. -1.
    8880022    1    1    2    0    0 -0.52636974369E+03 -0.13330947224E+03  0.64923028733E+03  0.86007449762E+03  0.15294330000E+03 0.  0.
<mgrwt>
<rscale>  0 0.76963748E+03</rscale>
<asrwt>0</asrwt>
<pdfrwt beam="1">  1        2 0.48785492E+00 0.85360807E+03</pdfrwt>
<pdfrwt beam="2">  1       -2 0.12524199E+00 0.85360807E+03</pdfrwt>
<totfact> 0.67905413E-01</totfact>
</mgrwt>
</event>
<event>
 4    5  0.6615028E-008  0.1066928E+04  0.7818608E-02  0.9298804E-01
         -2   -1    0    0    0  501 -0.00000000000E+00  0.00000000000E+00  0.73242889651E+03  0.73242889651E+03  0.25500000000E-02 0.  1.
          2   -1    0    0  501    0  0.00000000000E+00 -0.00000000000E+00 -0.16862659840E+04  0.16862659840E+04  0.25500000000E-02 0. -1.
    8880023    1    1    2    0    0  0.67272284961E+03  0.50196436942E+03 -0.11228762576E+04  0.15489304557E+04  0.65864270000E+03 0.  0.
    8880022    1    1    2    0    0 -0.67272284961E+03 -0.50196436942E+03  0.16903917012E+03  0.86976442477E+03  0.15294330000E+03 0.  0.
<mgrwt>
<rscale>  0 0.10089308E+04</rscale>
<asrwt>0</asrwt>
<pdfrwt beam="1">  1        2 0.25942554E+00 0.10669276E+04</pdfrwt>
<pdfrwt beam="2">  1       -2 0.11268137E+00 0.10669276E+04</pdfrwt>
<totfact> 0.61160110E+00</totfact>
</mgrwt>
</event>
<event>
 4    5  0.6615028E-008  0.7751039E+03  0.7818608E-02  0.9767466E-01
         -2   -1    0    0    0  501 -0.00000000000E+00  0.00000000000E+00  0.12245057985E+04  0.12245057985E+04  0.25500000000E-02 0.  1.
          2   -1    0    0  501    0  0.00000000000E+00 -0.00000000000E+00 -0.11945667824E+04  0.11945667824E+04  0.25500000000E-02 0. -1.
    8880023    1    1    2    0    0 -0.79079685718E+01 -0.40855019774E+03 -0.10205801863E+04  0.12815498129E+04  0.65864270000E+03 0. -1.
    8880022    1    1    2    0    0  0.79079685718E+01  0.40855019774E+03  0.10505192024E+04  0.11375227680E+04  0.15294330000E+03 0.  0.
<mgrwt>
<rscale>  0 0.67138095E+03</rscale>
<asrwt>0</asrwt>
<pdfrwt beam="1">  1        2 0.18377951E+00 0.77510387E+03</pdfrwt>
<pdfrwt beam="2">  1       -2 0.18838551E+00 0.77510387E+03</pdfrwt>
<totfact> 0.30976119E+00</totfact>
</mgrwt>
</event>
<event>
 4    5  0.6615028E-008  0.1677983E+04  0.7818608E-02  0.8793215E-01
         -2   -1    0    0    0  501 -0.00000000000E+00  0.00000000000E+00  0.90481003804E+03  0.90481003804E+03  0.25500000000E-02 0.  1.
          2   -1    0    0  501    0  0.00000000000E+00 -0.00000000000E+00 -0.33727432317E+04  0.33727432317E+04  0.25500000000E-02 0. -1.
    8880023    1    1    2    0    0  0.15373159076E+04  0.13592637788E+03 -0.20919261116E+04  0.26817496607E+04  0.65864270000E+03 0.  0.
    8880022    1    1    2    0    0 -0.15373159076E+04 -0.13592637788E+03 -0.37600708214E+03  0.15958036091E+04  0.15294330000E+03 0.  0.
<mgrwt>
<rscale>  0 0.16452607E+04</rscale>
<asrwt>0</asrwt>
<pdfrwt beam="1">  1        2 0.51888357E+00 0.16779828E+04</pdfrwt>
<pdfrwt beam="2">  1       -2 0.13920155E+00 0.16779828E+04</pdfrwt>
<totfact> 0.33882008E-01</totfact>
</mgrwt>
</event>
<event>
 4    5  0.6615028E-008  0.7467276E+03  0.7818608E-02  0.9840766E-01
          2   -1    0    0  501    0  0.00000000000E+00  0.00000000000E+00  0.82809283793E+03  0.82809283793E+03  0.25500000000E-02 0. -1.
         -2   -1    0    0    0  501 -0.00000000000E+00 -0.00000000000E+00 -0.72407619463E+03  0.72407619463E+03  0.25500000000E-02 0.  1.
    8880023    1    1    2    0    0  0.30638157645E+03  0.17298062294E+03  0.57662272461E+03  0.94344895946E+03  0.65864270000E+03 0.  0.
    8880022    1    1    2    0    0 -0.30638157645E+03 -0.17298062294E+03 -0.47260608131E+03  0.60872007311E+03  0.15294330000E+03 0.  0.
<mgrwt>
<rscale>  0 0.63219944E+03</rscale>
<asrwt>0</asrwt>
<pdfrwt beam="1">  1        2 0.12739890E+00 0.74672764E+03</pdfrwt>
<pdfrwt beam="2">  1       -2 0.11139634E+00 0.74672764E+03</pdfrwt>
<totfact> 0.21271424E+01</totfact>
</mgrwt>
</event>
<event>
 4    5  0.6615028E-008  0.6906654E+03  0.7818608E-02  0.1003838E+00
          2   -1    0    0  501    0  0.00000000000E+00  0.00000000000E+00  0.62714822944E+03  0.62714822945E+03  0.25500000000E-02 0. -1.
         -2   -1    0    0    0  501 -0.00000000000E+00 -0.00000000000E+00 -0.11695495466E+04  0.11695495466E+04  0.25500000000E-02 0.  1.
    8880023    1    1    2    0    0 -0.13782314958E+03 -0.15560603403E+03  0.41457308431E+03  0.80553678183E+03  0.65864270000E+03 0. -1.
    8880022    1    1    2    0    0  0.13782314958E+03  0.15560603403E+03 -0.95697440143E+03  0.99116099418E+03  0.15294330000E+03 0.  0.
<mgrwt>
<rscale>  0 0.53998927E+03</rscale>
<asrwt>0</asrwt>
<pdfrwt beam="1">  1        2 0.96484343E-01 0.69066538E+03</pdfrwt>
<pdfrwt beam="2">  1       -2 0.17993070E+00 0.69066538E+03</pdfrwt>
<totfact> 0.87403697E+00</totfact>
</mgrwt>
</event>
<event>
 4    5  0.6615028E-008  0.7994213E+03  0.7818608E-02  0.9712049E-01
         -2   -1    0    0    0  501 -0.00000000000E+00  0.00000000000E+00  0.10194534071E+04  0.10194534071E+04  0.25500000000E-02 0.  1.
          2   -1    0    0  501    0  0.00000000000E+00 -0.00000000000E+00 -0.10431185992E+04  0.10431185992E+04  0.25500000000E-02 0. -1.
    8880023    1    1    2    0    0  0.44179009845E+03  0.10042788269E+03 -0.81268033118E+03  0.11399665687E+04  0.65864270000E+03 0. -1.
    8880022    1    1    2    0    0 -0.44179009845E+03 -0.10042788269E+03  0.78901513911E+03  0.92260543759E+03  0.15294330000E+03 0.  0.
<mgrwt>
<rscale>  0 0.70303930E+03</rscale>
<asrwt>0</asrwt>
<pdfrwt beam="1">  1        2 0.16047978E+00 0.79942133E+03</pdfrwt>
<pdfrwt beam="2">  1       -2 0.15683899E+00 0.79942133E+03</pdfrwt>
<totfact> 0.63700216E+00</totfact>
</mgrwt>
</event>
<event>
 4    5  0.6615028E-008  0.1031650E+04  0.7818608E-02  0.9341273E-01
         -2   -1    0    0    0  501 -0.00000000000E+00  0.00000000000E+00  0.82339577334E+03  0.82339577334E+03  0.25500000000E-02 0.  1.
          2   -1    0    0  501    0  0.00000000000E+00 -0.00000000000E+00 -0.33908284329E+04  0.33908284329E+04  0.25500000000E-02 0. -1.
    8880023    1    1    2    0    0  0.15745690387E+02  0.79387892583E+03 -0.30858168935E+04  0.32537006289E+04  0.65864270000E+03 0.  0.
    8880022    1    1    2    0    0 -0.15745690387E+02 -0.79387892583E+03  0.51838423397E+03  0.96052357737E+03  0.15294330000E+03 0.  0.
<mgrwt>
<rscale>  0 0.97070406E+03</rscale>
<asrwt>0</asrwt>
<pdfrwt beam="1">  1        2 0.52166591E+00 0.10316501E+04</pdfrwt>
<pdfrwt beam="2">  1       -2 0.12667627E+00 0.10316501E+04</pdfrwt>
<totfact> 0.45851178E-01</totfact>
</mgrwt>
</event>
<event>
 4    5  0.6615028E-008  0.6934931E+03  0.7818608E-02  0.1002535E+00
         -2   -1    0    0    0  501 -0.00000000000E+00  0.00000000000E+00  0.61839166861E+03  0.61839166861E+03  0.25500000000E-02 0.  1.
          2   -1    0    0  501    0  0.00000000000E+00 -0.00000000000E+00 -0.98452312044E+03  0.98452312045E+03  0.25500000000E-02 0. -1.
    8880023    1    1    2    0    0  0.17166072965E+03  0.13287249583E+03 -0.82192842506E+03  0.10754064573E+04  0.65864270000E+03 0. -1.
    8880022    1    1    2    0    0 -0.17166072965E+03 -0.13287249583E+03  0.45579697322E+03  0.52750833175E+03  0.15294330000E+03 0.  0.
<mgrwt>
<rscale>  0 0.54552689E+03</rscale>
<asrwt>0</asrwt>
<pdfrwt beam="1">  1        2 0.15146510E+00 0.69349312E+03</pdfrwt>
<pdfrwt beam="2">  1       -2 0.95137180E-01 0.69349312E+03</pdfrwt>
<totfact> 0.24472159E+01</totfact>
</mgrwt>
</event>
<event>
 4    5  0.6615028E-008  0.8086254E+03  0.7818608E-02  0.9692447E-01
          2   -1    0    0  501    0  0.00000000000E+00  0.00000000000E+00  0.88231507263E+03  0.88231507264E+03  0.25500000000E-02 0. -1.
         -2   -1    0    0    0  501 -0.00000000000E+00 -0.00000000000E+00 -0.62282146022E+03  0.62282146023E+03  0.25500000000E-02 0.  1.
    8880023    1    1    2    0    0 -0.45942555637E+03  0.94831770099E+02  0.50567321757E+03  0.95371930655E+03  0.65864270000E+03 0. -1.
    8880022    1    1    2    0    0  0.45942555637E+03 -0.94831770099E+02 -0.24617960516E+03  0.55141722631E+03  0.15294330000E+03 0.  0.
<mgrwt>
<rscale>  0 0.71468265E+03</rscale>
<asrwt>0</asrwt>
<pdfrwt beam="1">  1        2 0.13574078E+00 0.80862545E+03</pdfrwt>
<pdfrwt beam="2">  1       -2 0.95818686E-01 0.80862545E+03</pdfrwt>
<totfact> 0.27802776E+01</totfact>
</mgrwt>
</event>
<event>
 4    5  0.6615028E-008  0.1051002E+04  0.7818608E-02  0.9317678E-01
          2   -1    0    0  501    0  0.00000000000E+00  0.00000000000E+00  0.33457387480E+04  0.33457387480E+04  0.25500000000E-02 0. -1.
         -2   -1    0    0    0  501 -0.00000000000E+00 -0.00000000000E+00 -0.12303023330E+04  0.12303023330E+04  0.25500000000E-02 0.  1.
    8880023    1    1    2    0    0  0.27637821004E+03 -0.77097971901E+03  0.31075575098E+04  0.32804753505E+04  0.65864270000E+03 0.  0.
    8880022    1    1    2    0    0 -0.27637821004E+03  0.77097971901E+03 -0.99212109490E+03  0.12955657305E+04  0.15294330000E+03 0.  0.
<mgrwt>
<rscale>  0 0.99171552E+03</rscale>
<asrwt>0</asrwt>
<pdfrwt beam="1">  1        2 0.51472903E+00 0.10510018E+04</pdfrwt>
<pdfrwt beam="2">  1       -2 0.18927728E+00 0.10510018E+04</pdfrwt>
<totfact> 0.16528037E-01</totfact>
</mgrwt>
</event>
<event>
 4    5  0.6615028E-008  0.8038989E+03  0.7818608E-02  0.9702428E-01
         -2   -1    0    0    0  501 -0.00000000000E+00  0.00000000000E+00  0.58404778854E+03  0.58404778855E+03  0.25500000000E-02 0.  1.
          2   -1    0    0  501    0  0.00000000000E+00 -0.00000000000E+00 -0.21435986443E+04  0.21435986443E+04  0.25500000000E-02 0. -1.
    8880023    1    1    2    0    0 -0.14765045044E+03  0.43662632559E+03 -0.19469759356E+04  0.21064113330E+04  0.65864270000E+03 0. -1.
    8880022    1    1    2    0    0  0.14765045044E+03 -0.43662632559E+03  0.38742507987E+03  0.62123509982E+03  0.15294330000E+03 0.  0.
<mgrwt>
<rscale>  0 0.70872388E+03</rscale>
<asrwt>0</asrwt>
<pdfrwt beam="1">  1        2 0.32978440E+00 0.80389888E+03</pdfrwt>
<pdfrwt beam="2">  1       -2 0.89853507E-01 0.80389888E+03</pdfrwt>
<totfact> 0.60730698E+00</totfact>
</mgrwt>
</event>
<event>
 4    5  0.6615028E-008  0.1572891E+04  0.7818608E-02  0.8859809E-01
         -2   -1    0    0    0  501 -0.00000000000E+00  0.00000000000E+00  0.12060296302E+04  0.12060296303E+04  0.25500000000E-02 0.  1.
          2   -1    0    0  501    0  0.00000000000E+00 -0.00000000000E+00 -0.20485647806E+04  0.20485647806E+04  0.25500000000E-02 0. -1.
    8880023    1    1    2    0    0 -0.12284259749E+04  0.72879681814E+03  0.31258754256E+02  0.15732013520E+04  0.65864270000E+03 0. -1.
    8880022    1    1    2    0    0  0.12284259749E+04 -0.72879681814E+03 -0.87379390464E+03  0.16813930589E+04  0.15294330000E+03 0.  0.
<mgrwt>
<rscale>  0 0.15376279E+04</rscale>
<asrwt>0</asrwt>
<pdfrwt beam="1">  1        2 0.31516381E+00 0.15728908E+04</pdfrwt>
<pdfrwt beam="2">  1       -2 0.18554302E+00 0.15728908E+04</pdfrwt>
<totfact> 0.97404246E-01</totfact>
</mgrwt>
</event>
<event>
 4    5  0.6615028E-008  0.1396374E+04  0.7818608E-02  0.8986506E-01
         -2   -1    0    0    0  501 -0.00000000000E+00  0.00000000000E+00  0.71926513771E+03  0.71926513772E+03  0.25500000000E-02 0.  1.
          2   -1    0    0  501    0  0.00000000000E+00 -0.00000000000E+00 -0.35572143126E+04  0.35572143126E+04  0.25500000000E-02 0. -1.
    8880023    1    1    2    0    0  0.40911024436E+03 -0.11613260972E+04 -0.26849315430E+04  0.30263372405E+04  0.65864270000E+03 0. -1.
    8880022    1    1    2    0    0 -0.40911024436E+03  0.11613260972E+04 -0.15301763187E+03  0.12501422098E+04  0.15294330000E+03 0.  0.
<mgrwt>
<rscale>  0 0.13557251E+04</rscale>
<asrwt>0</asrwt>
<pdfrwt beam="1">  1        2 0.54726373E+00 0.13963738E+04</pdfrwt>
<pdfrwt beam="2">  1       -2 0.11065618E+00 0.13963738E+04</pdfrwt>
<totfact> 0.46687650E-01</totfact>
</mgrwt>
</event>
<event>
 4    5  0.6615028E-008  0.6960017E+03  0.7818608E-02  0.1001421E+00
          2   -1    0    0  501    0  0.00000000000E+00  0.00000000000E+00  0.26533656592E+04  0.26533656592E+04  0.25500000000E-02 0. -1.
         -2   -1    0    0    0  501 -0.00000000000E+00 -0.00000000000E+00 -0.24166338455E+03  0.24166338456E+03  0.25500000000E-02 0.  1.
    8880023    1    1    2    0    0 -0.83618800436E+02 -0.20884469769E+03  0.25108230371E+04  0.26055039324E+04  0.65864270000E+03 0. -1.
    8880022    1    1    2    0    0  0.83618800436E+02  0.20884469769E+03 -0.99120762500E+02  0.28952511137E+03  0.15294330000E+03 0.  0.
<mgrwt>
<rscale>  0 0.55031533E+03</rscale>
<asrwt>0</asrwt>
<pdfrwt beam="1">  1        2 0.40821010E+00 0.69600174E+03</pdfrwt>
<pdfrwt beam="2">  1       -2 0.37178982E-01 0.69600174E+03</pdfrwt>
<totfact> 0.20437656E+01</totfact>
</mgrwt>
</event>
<event>
 4    5  0.6615028E-008  0.1246378E+04  0.7818608E-02  0.9113307E-01
         -2   -1    0    0    0  501 -0.00000000000E+00  0.00000000000E+00  0.18085373666E+04  0.18085373666E+04  0.25500000000E-02 0.  1.
          2   -1    0    0  501    0  0.00000000000E+00 -0.00000000000E+00 -0.16439910306E+04  0.16439910306E+04  0.25500000000E-02 0. -1.
    8880023    1    1    2    0    0 -0.73257154557E+03  0.76353504955E+03 -0.11924711874E+04  0.17249477036E+04  0.65864270000E+03 0. -1.
    8880022    1    1    2    0    0  0.73257154557E+03 -0.76353504955E+03  0.13570175233E+04  0.17275806936E+04  0.15294330000E+03 0.  0.
<mgrwt>
<rscale>  0 0.11994850E+04</rscale>
<asrwt>0</asrwt>
<pdfrwt beam="1">  1        2 0.25292170E+00 0.12463776E+04</pdfrwt>
<pdfrwt beam="2">  1       -2 0.27823652E+00 0.12463776E+04</pdfrwt>
<totfact> 0.44022785E-01</totfact>
</mgrwt>
</event>
<event>
 4    5  0.6615028E-008  0.8844761E+03  0.7818608E-02  0.9551427E-01
         -2   -1    0    0    0  501 -0.00000000000E+00  0.00000000000E+00  0.91336104216E+03  0.91336104217E+03  0.25500000000E-02 0.  1.
          2   -1    0    0  501    0  0.00000000000E+00 -0.00000000000E+00 -0.12056203433E+04  0.12056203433E+04  0.25500000000E-02 0. -1.
    8880023    1    1    2    0    0 -0.61288980823E+02  0.58713829803E+03 -0.89730038094E+03  0.12599388478E+04  0.65864270000E+03 0.  0.
    8880022    1    1    2    0    0  0.61288980823E+02 -0.58713829803E+03  0.60504107986E+03  0.85904253766E+03  0.15294330000E+03 0.  0.
<mgrwt>
<rscale>  0 0.80596249E+03</rscale>
<asrwt>0</asrwt>
<pdfrwt beam="1">  1        2 0.18548005E+00 0.88447607E+03</pdfrwt>
<pdfrwt beam="2">  1       -2 0.14051708E+00 0.88447607E+03</pdfrwt>
<totfact> 0.67121891E+00</totfact>
</mgrwt>
</event>
<event>
 4    5  0.6615028E-008  0.9445446E+03  0.7818608E-02  0.9458007E-01
          2   -1    0    0  501    0  0.00000000000E+00  0.00000000000E+00  0.18236801997E+04  0.18236801997E+04  0.25500000000E-02 0. -1.
         -2   -1    0    0    0  501 -0.00000000000E+00 -0.00000000000E+00 -0.10579774182E+04  0.10579774182E+04  0.25500000000E-02 0.  1.
    8880023    1    1    2    0    0 -0.53970838377E+03  0.40874086756E+03  0.15619674733E+04  0.18253511526E+04  0.65864270000E+03 0. -1.
    8880022    1    1    2    0    0  0.53970838377E+03 -0.40874086756E+03 -0.79626469180E+03  0.10563064654E+04  0.15294330000E+03 0.  0.
<mgrwt>
<rscale>  0 0.87451869E+03</rscale>
<asrwt>0</asrwt>
<pdfrwt beam="1">  1        2 0.28056618E+00 0.94454457E+03</pdfrwt>
<pdfrwt beam="2">  1       -2 0.16276576E+00 0.94454457E+03</pdfrwt>
<totfact> 0.20183739E+00</totfact>
</mgrwt>
</event>
<event>
 4    5  0.6615028E-008  0.8987440E+03  0.7818608E-02  0.9528051E-01
         -2   -1    0    0    0  501 -0.00000000000E+00  0.00000000000E+00  0.43833961024E+03  0.43833961024E+03  0.25500000000E-02 0.  1.
          2   -1    0    0  501    0  0.00000000000E+00 -0.00000000000E+00 -0.17441226383E+04  0.17441226383E+04  0.25500000000E-02 0. -1.
    8880023    1    1    2    0    0  0.17521750508E+03 -0.58585781172E+03 -0.12637286758E+04  0.15507259339E+04  0.65864270000E+03 0. -1.
    8880022    1    1    2    0    0 -0.17521750508E+03  0.58585781172E+03 -0.42054352181E+02  0.63173631461E+03  0.15294330000E+03 0.  0.
<mgrwt>
<rscale>  0 0.82246960E+03</rscale>
<asrwt>0</asrwt>
<pdfrwt beam="1">  1        2 0.26832656E+00 0.89874399E+03</pdfrwt>
<pdfrwt beam="2">  1       -2 0.67436864E-01 0.89874399E+03</pdfrwt>
<totfact> 0.18885142E+01</totfact>
</mgrwt>
</event>
<event>
 4    5  0.6615028E-008  0.6619251E+03  0.7818608E-02  0.1022265E+00
         -2   -1    0    0    0  501 -0.00000000000E+00  0.00000000000E+00  0.57451408891E+03  0.57451408892E+03  0.25500000000E-02 0.  1.
          2   -1    0    0  501    0  0.00000000000E+00 -0.00000000000E+00 -0.16274037616E+04  0.16274037616E+04  0.25500000000E-02 0. -1.
    8880023    1    1    2    0    0  0.64641382898E+02 -0.12492936230E+02 -0.15458442536E+04  0.16816002036E+04  0.65864270000E+03 0.  0.
    8880022    1    1    2    0    0 -0.64641382898E+02  0.12492936230E+02  0.49295458096E+03  0.52031764696E+03  0.15294330000E+03 0.  1.
<mgrwt>
<rscale>  0 0.46877882E+03</rscale>
<asrwt>0</asrwt>
<pdfrwt beam="1">  1        2 0.25036981E+00 0.66192506E+03</pdfrwt>
<pdfrwt beam="2">  1       -2 0.88386784E-01 0.66192506E+03</pdfrwt>
<totfact> 0.12337355E+01</totfact>
</mgrwt>
</event>
<event>
 4    5  0.6615028E-008  0.7070539E+03  0.7818608E-02  0.9969108E-01
         -2   -1    0    0    0  501 -0.00000000000E+00  0.00000000000E+00  0.92531487823E+03  0.92531487823E+03  0.25500000000E-02 0.  1.
          2   -1    0    0  501    0  0.00000000000E+00 -0.00000000000E+00 -0.15859939501E+04  0.15859939501E+04  0.25500000000E-02 0. -1.
    8880023    1    1    2    0    0  0.21145836269E+03  0.14628866920E+03 -0.14793771608E+04  0.16396591122E+04  0.65864270000E+03 0.  0.
    8880022    1    1    2    0    0 -0.21145836269E+03 -0.14628866920E+03  0.81869808893E+03  0.87164971618E+03  0.15294330000E+03 0.  1.
<mgrwt>
<rscale>  0 0.57025791E+03</rscale>
<asrwt>0</asrwt>
<pdfrwt beam="1">  1        2 0.24399907E+00 0.70705390E+03</pdfrwt>
<pdfrwt beam="2">  1       -2 0.14235613E+00 0.70705390E+03</pdfrwt>
<totfact> 0.40415003E+00</totfact>
</mgrwt>
</event>
<event>
 4    5  0.6615028E-008  0.7770408E+03  0.7818608E-02  0.9762835E-01
          2   -1    0    0  501    0  0.00000000000E+00  0.00000000000E+00  0.11556149377E+04  0.11556149377E+04  0.25500000000E-02 0. -1.
         -2   -1    0    0    0  501 -0.00000000000E+00 -0.00000000000E+00 -0.87587303332E+03  0.87587303333E+03  0.25500000000E-02 0.  1.
    8880023    1    1    2    0    0  0.35730864879E+03  0.20570069492E+03  0.95157767947E+03  0.12285326747E+04  0.65864270000E+03 0. -1.
    8880022    1    1    2    0    0 -0.35730864879E+03 -0.20570069492E+03 -0.67183577505E+03  0.80295529641E+03  0.15294330000E+03 0.  0.
<mgrwt>
<rscale>  0 0.67395766E+03</rscale>
<asrwt>0</asrwt>
<pdfrwt beam="1">  1        2 0.17778691E+00 0.77704083E+03</pdfrwt>
<pdfrwt beam="2">  1       -2 0.13474970E+00 0.77704083E+03</pdfrwt>
<totfact> 0.81142488E+00</totfact>
</mgrwt>
</event>
<event>
 4    5  0.6615028E-008  0.1122320E+04  0.7818608E-02  0.9236603E-01
         -2   -1    0    0    0  501 -0.00000000000E+00  0.00000000000E+00  0.94076948787E+03  0.94076948788E+03  0.25500000000E-02 0.  1.
          2   -1    0    0  501    0  0.00000000000E+00 -0.00000000000E+00 -0.12572073367E+04  0.12572073367E+04  0.25500000000E-02 0. -1.
    8880023    1    1    2    0    0  0.67441907612E+03  0.60905800455E+03 -0.54631703114E+03  0.12482248387E+04  0.65864270000E+03 0.  0.
    8880022    1    1    2    0    0 -0.67441907612E+03 -0.60905800455E+03  0.22987918235E+03  0.94975198586E+03  0.15294330000E+03 0.  0.
<mgrwt>
<rscale>  0 0.10683483E+04</rscale>
<asrwt>0</asrwt>
<pdfrwt beam="1">  1        2 0.19341651E+00 0.11223203E+04</pdfrwt>
<pdfrwt beam="2">  1       -2 0.14473377E+00 0.11223203E+04</pdfrwt>
<totfact> 0.56512464E+00</totfact>
</mgrwt>
</event>
<event>
 4    5  0.6615028E-008  0.1829488E+04  0.7818608E-02  0.8706398E-01
         -2   -1    0    0    0  501 -0.00000000000E+00  0.00000000000E+00  0.17486042550E+04  0.17486042550E+04  0.25500000000E-02 0.  1.
          2   -1    0    0  501    0  0.00000000000E+00 -0.00000000000E+00 -0.23428883218E+04  0.23428883218E+04  0.25500000000E-02 0. -1.
    8880023    1    1    2    0    0 -0.78514909158E+03  0.15155057027E+04  0.68444248115E+03  0.19533275064E+04  0.65864270000E+03 0.  0.
    8880022    1    1    2    0    0  0.78514909158E+03 -0.15155057027E+04 -0.12787265479E+04  0.21381650704E+04  0.15294330000E+03 0.  0.
<mgrwt>
<rscale>  0 0.17998153E+04</rscale>
<asrwt>0</asrwt>
<pdfrwt beam="1">  1        2 0.36044436E+00 0.18294881E+04</pdfrwt>
<pdfrwt beam="2">  1       -2 0.26901604E+00 0.18294881E+04</pdfrwt>
<totfact> 0.19040335E-01</totfact>
</mgrwt>
</event>
<event>
 4    5  0.6615028E-008  0.1012644E+04  0.7818608E-02  0.9365199E-01
          2   -1    0    0  501    0  0.00000000000E+00  0.00000000000E+00  0.26947718914E+04  0.26947718914E+04  0.25500000000E-02 0. -1.
         -2   -1    0    0    0  501 -0.00000000000E+00 -0.00000000000E+00 -0.54540276612E+03  0.54540276613E+03  0.25500000000E-02 0.  1.
    8880023    1    1    2    0    0 -0.62350147370E+03 -0.45042680239E+03  0.22326114842E+04  0.24515306724E+04  0.65864270000E+03 0.  0.
    8880022    1    1    2    0    0  0.62350147370E+03  0.45042680239E+03 -0.83242358895E+02  0.78864398517E+03  0.15294330000E+03 0.  0.
<mgrwt>
<rscale>  0 0.94995876E+03</rscale>
<asrwt>0</asrwt>
<pdfrwt beam="1">  1        2 0.41458030E+00 0.10126444E+04</pdfrwt>
<pdfrwt beam="2">  1       -2 0.83908117E-01 0.10126444E+04</pdfrwt>
<totfact> 0.33589622E+00</totfact>
</mgrwt>
</event>
<event>
 4    5  0.6615028E-008  0.1238987E+04  0.7818608E-02  0.9120125E-01
          2   -1    0    0  501    0  0.00000000000E+00  0.00000000000E+00  0.10880906602E+04  0.10880906603E+04  0.25500000000E-02 0. -1.
         -2   -1    0    0    0  501 -0.00000000000E+00 -0.00000000000E+00 -0.14211242518E+04  0.14211242519E+04  0.25500000000E-02 0.  1.
    8880023    1    1    2    0    0 -0.49017372246E+03  0.92790517929E+03  0.29913538558E+03  0.12745863977E+04  0.65864270000E+03 0.  0.
    8880022    1    1    2    0    0  0.49017372246E+03 -0.92790517929E+03 -0.63216897718E+03  0.12346285144E+04  0.15294330000E+03 0.  0.
<mgrwt>
<rscale>  0 0.11917308E+04</rscale>
<asrwt>0</asrwt>
<pdfrwt beam="1">  1        2 0.16739856E+00 0.12389869E+04</pdfrwt>
<pdfrwt beam="2">  1       -2 0.21863450E+00 0.12389869E+04</pdfrwt>
<totfact> 0.21635837E+00</totfact>
</mgrwt>
</event>
<event>
 4    5  0.6615028E-008  0.1055716E+04  0.7818608E-02  0.9312041E-01
          2   -1    0    0  501    0  0.00000000000E+00  0.00000000000E+00  0.25594099427E+04  0.25594099427E+04  0.25500000000E-02 0. -1.
         -2   -1    0    0    0  501 -0.00000000000E+00 -0.00000000000E+00 -0.81627805071E+03  0.81627805072E+03  0.25500000000E-02 0.  1.
    8880023    1    1    2    0    0  0.72220928563E+03  0.39892302447E+03  0.21854848100E+04  0.24271134899E+04  0.65864270000E+03 0.  1.
    8880022    1    1    2    0    0 -0.72220928563E+03 -0.39892302447E+03 -0.44235291801E+03  0.94857450355E+03  0.15294330000E+03 0.  1.
<mgrwt>
<rscale>  0 0.99681814E+03</rscale>
<asrwt>0</asrwt>
<pdfrwt beam="1">  1        2 0.39375537E+00 0.10557159E+04</pdfrwt>
<pdfrwt beam="2">  1       -2 0.12558124E+00 0.10557159E+04</pdfrwt>
<totfact> 0.15230209E+00</totfact>
</mgrwt>
</event>
<event>
 4    5  0.6615028E-008  0.6840784E+03  0.7818608E-02  0.1007105E+00
          2   -1    0    0  501    0  0.00000000000E+00  0.00000000000E+00  0.43134913782E+03  0.43134913783E+03  0.25500000000E-02 0. -1.
         -2   -1    0    0    0  501 -0.00000000000E+00 -0.00000000000E+00 -0.69589215729E+03  0.69589215729E+03  0.25500000000E-02 0.  1.
    8880023    1    1    2    0    0  0.10885355529E+03 -0.14934513929E+03  0.99491867291E+02  0.69127556376E+03  0.65864270000E+03 0. -1.
    8880022    1    1    2    0    0 -0.10885355529E+03  0.14934513929E+03 -0.36403488676E+03  0.43596573136E+03  0.15294330000E+03 0.  1.
<mgrwt>
<rscale>  0 0.52641723E+03</rscale>
<asrwt>0</asrwt>
<pdfrwt beam="1">  1        2 0.66361406E-01 0.68407841E+03</pdfrwt>
<pdfrwt beam="2">  1       -2 0.10706033E+00 0.68407841E+03</pdfrwt>
<totfact> 0.52011147E+01</totfact>
</mgrwt>
</event>
<event>
 4    5  0.6615028E-008  0.8597560E+03  0.7818608E-02  0.9593998E-01
         -2   -1    0    0    0  501 -0.00000000000E+00  0.00000000000E+00  0.57331223718E+03  0.57331223718E+03  0.25500000000E-02 0.  1.
          2   -1    0    0  501    0  0.00000000000E+00 -0.00000000000E+00 -0.15790038710E+04  0.15790038710E+04  0.25500000000E-02 0. -1.
    8880023    1    1    2    0    0  0.54713487645E+03  0.77547798427E+02 -0.12597511870E+04  0.15251732667E+04  0.65864270000E+03 0. -1.
    8880022    1    1    2    0    0 -0.54713487645E+03 -0.77547798427E+02  0.25405955316E+03  0.62714284149E+03  0.15294330000E+03 0.  0.
<mgrwt>
<rscale>  0 0.77694738E+03</rscale>
<asrwt>0</asrwt>
<pdfrwt beam="1">  1        2 0.24292367E+00 0.85975604E+03</pdfrwt>
<pdfrwt beam="2">  1       -2 0.88201883E-01 0.85975604E+03</pdfrwt>
<totfact> 0.12838167E+01</totfact>
</mgrwt>
</event>
<event>
 4    5  0.6615028E-008  0.8922212E+03  0.7818608E-02  0.9538636E-01
         -2   -1    0    0    0  501 -0.00000000000E+00  0.00000000000E+00  0.38716386279E+03  0.38716386280E+03  0.25500000000E-02 0.  1.
          2   -1    0    0  501    0  0.00000000000E+00 -0.00000000000E+00 -0.23779531662E+04  0.23779531662E+04  0.25500000000E-02 0. -1.
    8880023    1    1    2    0    0 -0.19922686435E+03 -0.56794111343E+03 -0.19480461754E+04  0.21426484918E+04  0.65864270000E+03 0. -1.
    8880022    1    1    2    0    0  0.19922686435E+03  0.56794111343E+03 -0.42743128046E+02  0.62246853721E+03  0.15294330000E+03 0.  0.
<mgrwt>
<rscale>  0 0.81494289E+03</rscale>
<asrwt>0</asrwt>
<pdfrwt beam="1">  1        2 0.36583894E+00 0.89222119E+03</pdfrwt>
<pdfrwt beam="2">  1       -2 0.59563672E-01 0.89222119E+03</pdfrwt>
<totfact> 0.11016009E+01</totfact>
</mgrwt>
</event>
<event>
 4    5  0.6615028E-008  0.6727735E+03  0.7818608E-02  0.1013748E+00
          2   -1    0    0  501    0  0.00000000000E+00  0.00000000000E+00  0.34411597440E+04  0.34411597440E+04  0.25500000000E-02 0. -1.
         -2   -1    0    0    0  501 -0.00000000000E+00 -0.00000000000E+00 -0.10877014717E+03  0.10877014720E+03  0.25500000000E-02 0.  1.
    8880023    1    1    2    0    0 -0.10126446284E+03  0.92517628423E+02  0.32651875020E+04  0.33337776819E+04  0.65864270000E+03 0. -1.
    8880022    1    1    2    0    0  0.10126446284E+03 -0.92517628423E+02  0.67202094814E+02  0.21615220926E+03  0.15294330000E+03 0.  0.
<mgrwt>
<rscale>  0 0.50011859E+03</rscale>
<asrwt>0</asrwt>
<pdfrwt beam="1">  1        2 0.52940912E+00 0.67277352E+03</pdfrwt>
<pdfrwt beam="2">  1       -2 0.16733871E-01 0.67277352E+03</pdfrwt>
<totfact> 0.28269369E+01</totfact>
</mgrwt>
</event>
<event>
 4    5  0.6615028E-008  0.1304634E+04  0.7818608E-02  0.9061568E-01
          2   -1    0    0  501    0  0.00000000000E+00  0.00000000000E+00  0.51527069507E+04  0.51527069507E+04  0.25500000000E-02 0. -1.
         -2   -1    0    0    0  501 -0.00000000000E+00 -0.00000000000E+00 -0.55068229774E+03  0.55068229775E+03  0.25500000000E-02 0.  1.
    8880023    1    1    2    0    0 -0.81336430701E+03  0.77890893490E+03  0.43470867949E+04  0.45386379492E+04  0.65864270000E+03 0.  0.
    8880022    1    1    2    0    0  0.81336430701E+03 -0.77890893490E+03  0.25493785809E+03  0.11647512993E+04  0.15294330000E+03 0.  0.
<mgrwt>
<rscale>  0 0.12604041E+04</rscale>
<asrwt>0</asrwt>
<pdfrwt beam="1">  1        2 0.79272414E+00 0.13046344E+04</pdfrwt>
<pdfrwt beam="2">  1       -2 0.84720355E-01 0.13046344E+04</pdfrwt>
<totfact> 0.27178665E-02</totfact>
</mgrwt>
</event>
<event>
 4    5  0.6615028E-008  0.1104780E+04  0.7818608E-02  0.9255753E-01
          2   -1    0    0  501    0  0.00000000000E+00  0.00000000000E+00  0.22016925767E+04  0.22016925767E+04  0.25500000000E-02 0. -1.
         -2   -1    0    0    0  501 -0.00000000000E+00 -0.00000000000E+00 -0.19393349996E+04  0.19393349996E+04  0.25500000000E-02 0.  1.
    8880023    1    1    2    0    0  0.64379803450E+03 -0.61012483872E+03  0.19426678026E+04  0.22348370468E+04  0.65864270000E+03 0. -1.
    8880022    1    1    2    0    0 -0.64379803450E+03  0.61012483872E+03 -0.16803102255E+04  0.19061905296E+04  0.15294330000E+03 0.  0.
<mgrwt>
<rscale>  0 0.10496040E+04</rscale>
<asrwt>0</asrwt>
<pdfrwt beam="1">  1        2 0.33872194E+00 0.11047798E+04</pdfrwt>
<pdfrwt beam="2">  1       -2 0.29835923E+00 0.11047798E+04</pdfrwt>
<totfact> 0.16656067E-01</totfact>
</mgrwt>
</event>
<event>
 4    5  0.6615028E-008  0.7153688E+03  0.7818608E-02  0.9938580E-01
          2   -1    0    0  501    0  0.00000000000E+00  0.00000000000E+00  0.93503414734E+03  0.93503414735E+03  0.25500000000E-02 0. -1.
         -2   -1    0    0    0  501 -0.00000000000E+00 -0.00000000000E+00 -0.15331946642E+04  0.15331946642E+04  0.25500000000E-02 0.  1.
    8880023    1    1    2    0    0 -0.11658922183E+03  0.25367160352E+03  0.77731641478E+03  0.10563963953E+04  0.65864270000E+03 0. -1.
    8880022    1    1    2    0    0  0.11658922183E+03 -0.25367160352E+03 -0.13754769317E+04  0.14118324163E+04  0.15294330000E+03 0.  0.
<mgrwt>
<rscale>  0 0.58427444E+03</rscale>
<asrwt>0</asrwt>
<pdfrwt beam="1">  1        2 0.14385141E+00 0.71536881E+03</pdfrwt>
<pdfrwt beam="2">  1       -2 0.23587610E+00 0.71536881E+03</pdfrwt>
<totfact> 0.22609232E+00</totfact>
</mgrwt>
</event>
<event>
 4    5  0.6615028E-008  0.7252944E+03  0.7818608E-02  0.9905062E-01
         -2   -1    0    0    0  501 -0.00000000000E+00  0.00000000000E+00  0.31146391147E+03  0.31146391148E+03  0.25500000000E-02 0.  1.
          2   -1    0    0  501    0  0.00000000000E+00 -0.00000000000E+00 -0.22016032340E+04  0.22016032340E+04  0.25500000000E-02 0. -1.
    8880023    1    1    2    0    0 -0.29768981999E+03 -0.60187886895E+02 -0.20221534922E+04  0.21482915917E+04  0.65864270000E+03 0. -1.
    8880022    1    1    2    0    0  0.29768981999E+03  0.60187886895E+02  0.13201416964E+03  0.36477555381E+03  0.15294330000E+03 0.  0.
<mgrwt>
<rscale>  0 0.60016574E+03</rscale>
<asrwt>0</asrwt>
<pdfrwt beam="1">  1        2 0.33870818E+00 0.72529443E+03</pdfrwt>
<pdfrwt beam="2">  1       -2 0.47917526E-01 0.72529443E+03</pdfrwt>
<totfact> 0.22154098E+01</totfact>
</mgrwt>
</event>
<event>
 4    5  0.6615028E-008  0.1045944E+04  0.7818608E-02  0.9323773E-01
          2   -1    0    0  501    0  0.00000000000E+00  0.00000000000E+00  0.37148232320E+04  0.37148232320E+04  0.25500000000E-02 0. -1.
         -2   -1    0    0    0  501 -0.00000000000E+00 -0.00000000000E+00 -0.76707327459E+03  0.76707327460E+03  0.25500000000E-02 0.  1.
    8880023    1    1    2    0    0 -0.44851471556E+03 -0.67751254257E+03  0.33875943155E+04  0.35453905495E+04  0.65864270000E+03 0.  0.
    8880022    1    1    2    0    0  0.44851471556E+03  0.67751254257E+03 -0.43984435809E+03  0.93650595715E+03  0.15294330000E+03 0.  0.
<mgrwt>
<rscale>  0 0.98623413E+03</rscale>
<asrwt>0</asrwt>
<pdfrwt beam="1">  1        2 0.57151127E+00 0.10459440E+04</pdfrwt>
<pdfrwt beam="2">  1       -2 0.11801127E+00 0.10459440E+04</pdfrwt>
<totfact> 0.32445385E-01</totfact>
</mgrwt>
</event>
<event>
 4    5  0.6615028E-008  0.1006511E+04  0.7818608E-02  0.9373089E-01
          2   -1    0    0  501    0  0.00000000000E+00  0.00000000000E+00  0.17000805532E+04  0.17000805532E+04  0.25500000000E-02 0. -1.
         -2   -1    0    0    0  501 -0.00000000000E+00 -0.00000000000E+00 -0.58943388124E+03  0.58943388124E+03  0.25500000000E-02 0.  1.
    8880023    1    1    2    0    0  0.32141733854E+03  0.68988764371E+03  0.11296212450E+04  0.15129799833E+04  0.65864270000E+03 0.  0.
    8880022    1    1    2    0    0 -0.32141733854E+03 -0.68988764371E+03 -0.18974572968E+02  0.77653445120E+03  0.15294330000E+03 0.  0.
<mgrwt>
<rscale>  0 0.94323875E+03</rscale>
<asrwt>0</asrwt>
<pdfrwt beam="1">  1        2 0.26155085E+00 0.10065109E+04</pdfrwt>
<pdfrwt beam="2">  1       -2 0.90682136E-01 0.10065109E+04</pdfrwt>
<totfact> 0.10154879E+01</totfact>
</mgrwt>
</event>
<event>
 4    5  0.6615028E-008  0.8731870E+03  0.7818608E-02  0.9570523E-01
         -2   -1    0    0    0  501 -0.00000000000E+00  0.00000000000E+00  0.93535007168E+03  0.93535007168E+03  0.25500000000E-02 0.  1.
          2   -1    0    0  501    0  0.00000000000E+00 -0.00000000000E+00 -0.23640753235E+04  0.23640753236E+04  0.25500000000E-02 0. -1.
    8880023    1    1    2    0    0 -0.57325791452E+03 -0.45556961273E+01 -0.21763428220E+04  0.23449783956E+04  0.65864270000E+03 0.  0.
    8880022    1    1    2    0    0  0.57325791452E+03  0.45556961273E+01  0.74761757010E+03  0.95444699961E+03  0.15294330000E+03 0.  0.
<mgrwt>
<rscale>  0 0.79278241E+03</rscale>
<asrwt>0</asrwt>
<pdfrwt beam="1">  1        2 0.36370389E+00 0.87318703E+03</pdfrwt>
<pdfrwt beam="2">  1       -2 0.14390001E+00 0.87318703E+03</pdfrwt>
<totfact> 0.14267973E+00</totfact>
</mgrwt>
</event>
<event>
 4    5  0.6615028E-008  0.1272953E+04  0.7818608E-02  0.9089276E-01
          2   -1    0    0  501    0  0.00000000000E+00  0.00000000000E+00  0.25479223556E+04  0.25479223556E+04  0.25500000000E-02 0. -1.
         -2   -1    0    0    0  501 -0.00000000000E+00 -0.00000000000E+00 -0.92780425291E+03  0.92780425291E+03  0.25500000000E-02 0.  1.
    8880023    1    1    2    0    0  0.10152327513E+04  0.39484408537E+03  0.19487692530E+04  0.23276836552E+04  0.65864270000E+03 0.  0.
    8880022    1    1    2    0    0 -0.10152327513E+04 -0.39484408537E+03 -0.32865115033E+03  0.11480429533E+04  0.15294330000E+03 0.  0.
<mgrwt>
<rscale>  0 0.12273179E+04</rscale>
<asrwt>0</asrwt>
<pdfrwt beam="1">  1        2 0.39198805E+00 0.12729531E+04</pdfrwt>
<pdfrwt beam="2">  1       -2 0.14273912E+00 0.12729531E+04</pdfrwt>
<totfact> 0.10813474E+00</totfact>
</mgrwt>
</event>
<event>
 4    5  0.6615028E-008  0.1375377E+04  0.7818608E-02  0.9003055E-01
         -2   -1    0    0    0  501 -0.00000000000E+00  0.00000000000E+00  0.10962527783E+04  0.10962527783E+04  0.25500000000E-02 0.  1.
          2   -1    0    0  501    0  0.00000000000E+00 -0.00000000000E+00 -0.17003213696E+04  0.17003213696E+04  0.25500000000E-02 0. -1.
    8880023    1    1    2    0    0  0.70328344159E+03  0.98145026324E+03 -0.75699972142E+03  0.15699398087E+04  0.65864270000E+03 0.  0.
    8880022    1    1    2    0    0 -0.70328344159E+03 -0.98145026324E+03  0.15293113017E+03  0.12266343392E+04  0.15294330000E+03 0.  0.
<mgrwt>
<rscale>  0 0.13339658E+04</rscale>
<asrwt>0</asrwt>
<pdfrwt beam="1">  1        2 0.26158790E+00 0.13753772E+04</pdfrwt>
<pdfrwt beam="2">  1       -2 0.16865427E+00 0.13753772E+04</pdfrwt>
<totfact> 0.20380369E+00</totfact>
</mgrwt>
</event>
<event>
 4    5  0.6615028E-008  0.7060234E+03  0.7818608E-02  0.9973075E-01
          2   -1    0    0  501    0  0.00000000000E+00  0.00000000000E+00  0.17848387430E+04  0.17848387430E+04  0.25500000000E-02 0. -1.
         -2   -1    0    0    0  501 -0.00000000000E+00 -0.00000000000E+00 -0.75622736695E+03  0.75622736696E+03  0.25500000000E-02 0.  1.
    8880023    1    1    2    0    0  0.25294434431E+03  0.26039448217E+02  0.16816097017E+04  0.18238092798E+04  0.65864270000E+03 0. -1.
    8880022    1    1    2    0    0 -0.25294434431E+03 -0.26039448217E+02 -0.65299832559E+03  0.71725683016E+03  0.15294330000E+03 0.  0.
<mgrwt>
<rscale>  0 0.56846777E+03</rscale>
<asrwt>0</asrwt>
<pdfrwt beam="1">  1        2 0.27459057E+00 0.70602344E+03</pdfrwt>
<pdfrwt beam="2">  1       -2 0.11634267E+00 0.70602344E+03</pdfrwt>
<totfact> 0.52363539E+00</totfact>
</mgrwt>
</event>
<event>
 4    5  0.6615028E-008  0.8161130E+03  0.7818608E-02  0.9676982E-01
          2   -1    0    0  501    0  0.00000000000E+00  0.00000000000E+00  0.26088004779E+04  0.26088004779E+04  0.25500000000E-02 0. -1.
         -2   -1    0    0    0  501 -0.00000000000E+00 -0.00000000000E+00 -0.80931859918E+03  0.80931859919E+03  0.25500000000E-02 0.  1.
    8880023    1    1    2    0    0 -0.46543906855E+03 -0.12488676056E+03  0.24568257326E+04  0.25888285220E+04  0.65864270000E+03 0. -1.
    8880022    1    1    2    0    0  0.46543906855E+03  0.12488676056E+03 -0.65734385391E+03  0.82929055510E+03  0.15294330000E+03 0.  0.
<mgrwt>
<rscale>  0 0.72403986E+03</rscale>
<asrwt>0</asrwt>
<pdfrwt beam="1">  1        2 0.40135392E+00 0.81611300E+03</pdfrwt>
<pdfrwt beam="2">  1       -2 0.12451055E+00 0.81611300E+03</pdfrwt>
<totfact> 0.15157068E+00</totfact>
</mgrwt>
</event>
<event>
 4    5  0.6615028E-008  0.7478637E+03  0.7818608E-02  0.9837605E-01
          2   -1    0    0  501    0  0.00000000000E+00  0.00000000000E+00  0.31909353938E+04  0.31909353938E+04  0.25500000000E-02 0. -1.
         -2   -1    0    0    0  501 -0.00000000000E+00 -0.00000000000E+00 -0.11073209859E+03  0.11073209862E+03  0.25500000000E-02 0.  1.
    8880023    1    1    2    0    0 -0.24379463070E+03  0.25701001230E+03  0.24606165195E+04  0.25717569541E+04  0.65864270000E+03 0.  0.
    8880022    1    1    2    0    0  0.24379463070E+03 -0.25701001230E+03  0.61958677566E+03  0.72991053833E+03  0.15294330000E+03 0.  0.
<mgrwt>
<rscale>  0 0.63382884E+03</rscale>
<asrwt>0</asrwt>
<pdfrwt beam="1">  1        2 0.49091311E+00 0.74786374E+03</pdfrwt>
<pdfrwt beam="2">  1       -2 0.17035708E-01 0.74786374E+03</pdfrwt>
<totfact> 0.39414521E+01</totfact>
</mgrwt>
</event>
<event>
 4    5  0.6615028E-008  0.8597541E+03  0.7818608E-02  0.9594001E-01
         -2   -1    0    0    0  501 -0.00000000000E+00  0.00000000000E+00  0.12091653033E+04  0.12091653033E+04  0.25500000000E-02 0.  1.
          2   -1    0    0  501    0  0.00000000000E+00 -0.00000000000E+00 -0.10085946670E+04  0.10085946670E+04  0.25500000000E-02 0. -1.
    8880023    1    1    2    0    0  0.54917528485E+03  0.61428297222E+02 -0.72790585783E+03  0.11265096863E+04  0.65864270000E+03 0.  0.
    8880022    1    1    2    0    0 -0.54917528485E+03 -0.61428297222E+02  0.92847649412E+03  0.10912502840E+04  0.15294330000E+03 0.  1.
<mgrwt>
<rscale>  0 0.77694510E+03</rscale>
<asrwt>0</asrwt>
<pdfrwt beam="1">  1        2 0.15516841E+00 0.85975411E+03</pdfrwt>
<pdfrwt beam="2">  1       -2 0.18602543E+00 0.85975411E+03</pdfrwt>
<totfact> 0.41313833E+00</totfact>
</mgrwt>
</event>
<event>
 4    5  0.6615028E-008  0.9432426E+03  0.7818608E-02  0.9459904E-01
         -2   -1    0    0    0  501 -0.00000000000E+00  0.00000000000E+00  0.81059615648E+03  0.81059615648E+03  0.25500000000E-02 0.  1.
          2   -1    0    0  501    0  0.00000000000E+00 -0.00000000000E+00 -0.13137079054E+04  0.13137079054E+04  0.25500000000E-02 0. -1.
    8880023    1    1    2    0    0 -0.26731653917E+03 -0.62003078708E+03 -0.91880833457E+03  0.13167821653E+04  0.65864270000E+03 0.  0.
    8880022    1    1    2    0    0  0.26731653917E+03  0.62003078708E+03  0.41569658565E+03  0.80752189653E+03  0.15294330000E+03 0.  0.
<mgrwt>
<rscale>  0 0.87305601E+03</rscale>
<asrwt>0</asrwt>
<pdfrwt beam="1">  1        2 0.20210891E+00 0.94324255E+03</pdfrwt>
<pdfrwt beam="2">  1       -2 0.12470710E+00 0.94324255E+03</pdfrwt>
<totfact> 0.78167850E+00</totfact>
</mgrwt>
</event>
<event>
 4    5  0.6615028E-008  0.1313717E+04  0.7818608E-02  0.9053804E-01
         -2   -1    0    0    0  501 -0.00000000000E+00  0.00000000000E+00  0.10194573425E+04  0.10194573425E+04  0.25500000000E-02 0.  1.
          2   -1    0    0  501    0  0.00000000000E+00 -0.00000000000E+00 -0.19611572585E+04  0.19611572585E+04  0.25500000000E-02 0. -1.
    8880023    1    1    2    0    0 -0.11099004249E+03 -0.11312480292E+04 -0.12282280863E+04  0.17984424738E+04  0.65864270000E+03 0.  0.
    8880022    1    1    2    0    0  0.11099004249E+03  0.11312480292E+04  0.28652817023E+03  0.11821721273E+04  0.15294330000E+03 0.  0.
<mgrwt>
<rscale>  0 0.12698716E+04</rscale>
<asrwt>0</asrwt>
<pdfrwt beam="1">  1        2 0.30171650E+00 0.13137165E+04</pdfrwt>
<pdfrwt beam="2">  1       -2 0.15683959E+00 0.13137165E+04</pdfrwt>
<totfact> 0.17940393E+00</totfact>
</mgrwt>
</event>
<event>
 4    5  0.6615028E-008  0.1481957E+04  0.7818608E-02  0.8922483E-01
         -2   -1    0    0    0  501 -0.00000000000E+00  0.00000000000E+00  0.19271464994E+04  0.19271464994E+04  0.25500000000E-02 0.  1.
          2   -1    0    0  501    0  0.00000000000E+00 -0.00000000000E+00 -0.16149057051E+04  0.16149057051E+04  0.25500000000E-02 0. -1.
    8880023    1    1    2    0    0  0.13275342921E+04  0.61687632099E+01 -0.90332797782E+03  0.17355682044E+04  0.65864270000E+03 0.  0.
    8880022    1    1    2    0    0 -0.13275342921E+04 -0.61687632099E+01  0.12155687720E+04  0.18064840002E+04  0.15294330000E+03 0.  0.
<mgrwt>
<rscale>  0 0.14441258E+04</rscale>
<asrwt>0</asrwt>
<pdfrwt beam="1">  1        2 0.24844703E+00 0.14819567E+04</pdfrwt>
<pdfrwt beam="2">  1       -2 0.29648408E+00 0.14819567E+04</pdfrwt>
<totfact> 0.34407639E-01</totfact>
</mgrwt>
</event>
<event>
 4    5  0.6615028E-008  0.1574782E+04  0.7818608E-02  0.8858558E-01
         -2   -1    0    0    0  501 -0.00000000000E+00  0.00000000000E+00  0.19294971836E+04  0.19294971836E+04  0.25500000000E-02 0.  1.
          2   -1    0    0  501    0  0.00000000000E+00 -0.00000000000E+00 -0.21515240432E+04  0.21515240432E+04  0.25500000000E-02 0. -1.
    8880023    1    1    2    0    0 -0.92216432753E+03  0.10934994722E+04 -0.14866174124E+04  0.21656337825E+04  0.65864270000E+03 0. -1.
    8880022    1    1    2    0    0  0.92216432753E+03 -0.10934994722E+04  0.12645905527E+04  0.19153874443E+04  0.15294330000E+03 0.  0.
<mgrwt>
<rscale>  0 0.15395685E+04</rscale>
<asrwt>0</asrwt>
<pdfrwt beam="1">  1        2 0.33100370E+00 0.15747820E+04</pdfrwt>
<pdfrwt beam="2">  1       -2 0.29684572E+00 0.15747820E+04</pdfrwt>
<totfact> 0.16977994E-01</totfact>
</mgrwt>
</event>
<event>
 4    5  0.6615028E-008  0.6784755E+03  0.7818608E-02  0.1010199E+00
          2   -1    0    0  501    0  0.00000000000E+00  0.00000000000E+00  0.14887855484E+04  0.14887855484E+04  0.25500000000E-02 0. -1.
         -2   -1    0    0    0  501 -0.00000000000E+00 -0.00000000000E+00 -0.54037097483E+03  0.54037097484E+03  0.25500000000E-02 0.  1.
    8880023    1    1    2    0    0  0.15911770152E+03 -0.34646407537E+02  0.13830280584E+04  0.15404855186E+04  0.65864270000E+03 0. -1.
    8880022    1    1    2    0    0 -0.15911770152E+03  0.34646407537E+02 -0.43461348486E+03  0.48867100459E+03  0.15294330000E+03 0.  0.
<mgrwt>
<rscale>  0 0.51395440E+03</rscale>
<asrwt>0</asrwt>
<pdfrwt beam="1">  1        2 0.22904393E+00 0.67847551E+03</pdfrwt>
<pdfrwt beam="2">  1       -2 0.83133995E-01 0.67847551E+03</pdfrwt>
<totfact> 0.16873300E+01</totfact>
</mgrwt>
</event>
<event>
 4    5  0.6615028E-008  0.1041444E+04  0.7818608E-02  0.9329239E-01
          2   -1    0    0  501    0  0.00000000000E+00  0.00000000000E+00  0.20509274270E+04  0.20509274270E+04  0.25500000000E-02 0. -1.
         -2   -1    0    0    0  501 -0.00000000000E+00 -0.00000000000E+00 -0.90699936916E+03  0.90699936916E+03  0.25500000000E-02 0.  1.
    8880023    1    1    2    0    0 -0.79328812405E+03  0.14659057789E+03 -0.47349099471E+03  0.11440274357E+04  0.65864270000E+03 0.  0.
    8880022    1    1    2    0    0  0.79328812405E+03 -0.14659057789E+03  0.16174190525E+04  0.18138993605E+04  0.15294330000E+03 0.  0.
<mgrwt>
<rscale>  0 0.98135099E+03</rscale>
<asrwt>0</asrwt>
<pdfrwt beam="1">  1        2 0.31552729E+00 0.10414437E+04</pdfrwt>
<pdfrwt beam="2">  1       -2 0.13953837E+00 0.10414437E+04</pdfrwt>
<totfact> 0.22518588E+00</totfact>
</mgrwt>
</event>
<event>
 4    5  0.6615028E-008  0.8775863E+03  0.7818608E-02  0.9563015E-01
         -2   -1    0    0    0  501 -0.00000000000E+00  0.00000000000E+00  0.41117061306E+03  0.41117061307E+03  0.25500000000E-02 0.  1.
          2   -1    0    0  501    0  0.00000000000E+00 -0.00000000000E+00 -0.13824900545E+04  0.13824900545E+04  0.25500000000E-02 0. -1.
    8880023    1    1    2    0    0 -0.48997360312E+03  0.31027944869E+03 -0.74980052723E+03  0.11542783481E+04  0.65864270000E+03 0. -1.
    8880022    1    1    2    0    0  0.48997360312E+03 -0.31027944869E+03 -0.22151891418E+03  0.63938231942E+03  0.15294330000E+03 0.  1.
<mgrwt>
<rscale>  0 0.79793190E+03</rscale>
<asrwt>0</asrwt>
<pdfrwt beam="1">  1        2 0.21269077E+00 0.87758628E+03</pdfrwt>
<pdfrwt beam="2">  1       -2 0.63257018E-01 0.87758628E+03</pdfrwt>
<totfact> 0.34554612E+01</totfact>
</mgrwt>
</event>
<event>
 4    5  0.6615028E-008  0.2276420E+04  0.7818608E-02  0.8496662E-01
          2   -1    0    0  501    0  0.00000000000E+00  0.00000000000E+00  0.26991336864E+04  0.26991336864E+04  0.25500000000E-02 0. -1.
         -2   -1    0    0    0  501 -0.00000000000E+00 -0.00000000000E+00 -0.23969855624E+04  0.23969855624E+04  0.25500000000E-02 0.  1.
    8880023    1    1    2    0    0  0.66538420396E+03 -0.20749796829E+04 -0.10711957906E+04  0.25158591875E+04  0.65864270000E+03 0.  0.
    8880022    1    1    2    0    0 -0.66538420396E+03  0.20749796829E+04  0.13733439146E+04  0.25802600613E+04  0.15294330000E+03 0.  0.
<mgrwt>
<rscale>  0 0.22530615E+04</rscale>
<asrwt>0</asrwt>
<pdfrwt beam="1">  1        2 0.41525134E+00 0.22764198E+04</pdfrwt>
<pdfrwt beam="2">  1       -2 0.36876701E+00 0.22764198E+04</pdfrwt>
<totfact> 0.26952584E-02</totfact>
</mgrwt>
</event>
<event>
 4    5  0.6615028E-008  0.1185740E+04  0.7818608E-02  0.9171110E-01
          2   -1    0    0  501    0  0.00000000000E+00  0.00000000000E+00  0.20307798863E+04  0.20307798863E+04  0.25500000000E-02 0. -1.
         -2   -1    0    0    0  501 -0.00000000000E+00 -0.00000000000E+00 -0.71833199185E+03  0.71833199185E+03  0.25500000000E-02 0.  1.
    8880023    1    1    2    0    0 -0.98245030332E+03  0.83434434500E+02  0.12884801457E+04  0.17510457434E+04  0.65864270000E+03 0.  0.
    8880022    1    1    2    0    0  0.98245030332E+03 -0.83434434500E+02  0.23967748748E+02  0.99806613476E+03  0.15294330000E+03 0.  0.
<mgrwt>
<rscale>  0 0.11356662E+04</rscale>
<asrwt>0</asrwt>
<pdfrwt beam="1">  1        2 0.31242767E+00 0.11857403E+04</pdfrwt>
<pdfrwt beam="2">  1       -2 0.11051262E+00 0.11857403E+04</pdfrwt>
<totfact> 0.40855325E+00</totfact>
</mgrwt>
</event>
<event>
 4    5  0.6615028E-008  0.6731993E+03  0.7818608E-02  0.1013466E+00
          2   -1    0    0  501    0  0.00000000000E+00  0.00000000000E+00  0.95126061920E+03  0.95126061920E+03  0.25500000000E-02 0. -1.
         -2   -1    0    0    0  501 -0.00000000000E+00 -0.00000000000E+00 -0.21955632171E+03  0.21955632173E+03  0.25500000000E-02 0.  1.
    8880023    1    1    2    0    0 -0.13922865581E+03  0.15577432224E+01  0.68159648444E+03  0.95800366337E+03  0.65864270000E+03 0. -1.
    8880022    1    1    2    0    0  0.13922865581E+03 -0.15577432224E+01  0.50107813043E+02  0.21281327756E+03  0.15294330000E+03 0.  0.
<mgrwt>
<rscale>  0 0.50120013E+03</rscale>
<asrwt>0</asrwt>
<pdfrwt beam="1">  1        2 0.14634779E+00 0.67319927E+03</pdfrwt>
<pdfrwt beam="2">  1       -2 0.33777896E-01 0.67319927E+03</pdfrwt>
<totfact> 0.22520798E+02</totfact>
</mgrwt>
</event>
<event>
 4    5  0.6615028E-008  0.9689485E+03  0.7818608E-02  0.9423360E-01
         -2   -1    0    0    0  501 -0.00000000000E+00  0.00000000000E+00  0.15106766778E+04  0.15106766778E+04  0.25500000000E-02 0.  1.
          2   -1    0    0  501    0  0.00000000000E+00 -0.00000000000E+00 -0.14163589214E+04  0.14163589214E+04  0.25500000000E-02 0. -1.
    8880023    1    1    2    0    0  0.67161299595E+03 -0.23235115144E+03 -0.11390220107E+04  0.14954037652E+04  0.65864270000E+03 0. -1.
    8880022    1    1    2    0    0 -0.67161299595E+03  0.23235115144E+03  0.12333397671E+04  0.14316318340E+04  0.15294330000E+03 0.  0.
<mgrwt>
<rscale>  0 0.90177933E+03</rscale>
<asrwt>0</asrwt>
<pdfrwt beam="1">  1        2 0.21790137E+00 0.96894854E+03</pdfrwt>
<pdfrwt beam="2">  1       -2 0.23241180E+00 0.96894854E+03</pdfrwt>
<totfact> 0.11696822E+00</totfact>
</mgrwt>
</event>
<event>
 4    5  0.6615028E-008  0.1391352E+04  0.7818608E-02  0.8990432E-01
         -2   -1    0    0    0  501 -0.00000000000E+00  0.00000000000E+00  0.96566418984E+03  0.96566418984E+03  0.25500000000E-02 0.  1.
          2   -1    0    0  501    0  0.00000000000E+00 -0.00000000000E+00 -0.21123829292E+04  0.21123829292E+04  0.25500000000E-02 0. -1.
    8880023    1    1    2    0    0 -0.12227085064E+04  0.83861969096E+02 -0.12063734373E+04  0.18415200238E+04  0.65864270000E+03 0. -1.
    8880022    1    1    2    0    0  0.12227085064E+04 -0.83861969096E+02  0.59654697925E+02  0.12365270953E+04  0.15294330000E+03 0.  0.
<mgrwt>
<rscale>  0 0.13505233E+04</rscale>
<asrwt>0</asrwt>
<pdfrwt beam="1">  1        2 0.32498199E+00 0.13913515E+04</pdfrwt>
<pdfrwt beam="2">  1       -2 0.14856372E+00 0.13913515E+04</pdfrwt>
<totfact> 0.16964838E+00</totfact>
</mgrwt>
</event>
<event>
 4    5  0.6615028E-008  0.7934502E+03  0.7818608E-02  0.9725141E-01
          2   -1    0    0  501    0  0.00000000000E+00  0.00000000000E+00  0.21767436191E+04  0.21767436191E+04  0.25500000000E-02 0. -1.
         -2   -1    0    0    0  501 -0.00000000000E+00 -0.00000000000E+00 -0.31612836881E+03  0.31612836882E+03  0.25500000000E-02 0.  1.
    8880023    1    1    2    0    0  0.43728987393E+03 -0.67310043405E+02  0.18627937343E+04  0.20247379531E+04  0.65864270000E+03 0. -1.
    8880022    1    1    2    0    0 -0.43728987393E+03  0.67310043405E+02 -0.21784840143E+01  0.46813403486E+03  0.15294330000E+03 0.  0.
<mgrwt>
<rscale>  0 0.69539434E+03</rscale>
<asrwt>0</asrwt>
<pdfrwt beam="1">  1        2 0.33488362E+00 0.79345024E+03</pdfrwt>
<pdfrwt beam="2">  1       -2 0.48635135E-01 0.79345024E+03</pdfrwt>
<totfact> 0.21977230E+01</totfact>
</mgrwt>
</event>
<event>
 4    5  0.6615028E-008  0.9870557E+03  0.7818608E-02  0.9398692E-01
          2   -1    0    0  501    0  0.00000000000E+00  0.00000000000E+00  0.38215406795E+04  0.38215406795E+04  0.25500000000E-02 0. -1.
         -2   -1    0    0    0  501 -0.00000000000E+00 -0.00000000000E+00 -0.73152140247E+03  0.73152140248E+03  0.25500000000E-02 0.  1.
    8880023    1    1    2    0    0  0.42105363745E+03  0.60264632964E+03  0.35417707912E+04  0.36767403101E+04  0.65864270000E+03 0. -1.
    8880022    1    1    2    0    0 -0.42105363745E+03 -0.60264632964E+03 -0.45175151420E+03  0.87632177186E+03  0.15294330000E+03 0.  0.
<mgrwt>
<rscale>  0 0.92183395E+03</rscale>
<asrwt>0</asrwt>
<pdfrwt beam="1">  1        2 0.58792933E+00 0.98705571E+03</pdfrwt>
<pdfrwt beam="2">  1       -2 0.11254176E+00 0.98705571E+03</pdfrwt>
<totfact> 0.30746378E-01</totfact>
</mgrwt>
</event>
<event>
 4    5  0.6615028E-008  0.7412590E+03  0.7818608E-02  0.9856295E-01
          2   -1    0    0  501    0  0.00000000000E+00  0.00000000000E+00  0.14452691109E+04  0.14452691109E+04  0.25500000000E-02 0. -1.
         -2   -1    0    0    0  501 -0.00000000000E+00 -0.00000000000E+00 -0.29669709948E+03  0.29669709949E+03  0.25500000000E-02 0.  1.
    8880023    1    1    2    0    0  0.13940300987E+03 -0.31019587122E+03  0.11510363895E+04  0.13690689004E+04  0.65864270000E+03 0. -1.
    8880022    1    1    2    0    0 -0.13940300987E+03  0.31019587122E+03 -0.24643780486E+01  0.37289731007E+03  0.15294330000E+03 0.  0.
<mgrwt>
<rscale>  0 0.62426994E+03</rscale>
<asrwt>0</asrwt>
<pdfrwt beam="1">  1        2 0.22234910E+00 0.74125899E+03</pdfrwt>
<pdfrwt beam="2">  1       -2 0.45645707E-01 0.74125899E+03</pdfrwt>
<totfact> 0.63346922E+01</totfact>
</mgrwt>
</event>
<event>
 4    5  0.6615028E-008  0.8328569E+03  0.7818608E-02  0.9643799E-01
         -2   -1    0    0    0  501 -0.00000000000E+00  0.00000000000E+00  0.30464775297E+03  0.30464775298E+03  0.25500000000E-02 0.  1.
          2   -1    0    0  501    0  0.00000000000E+00 -0.00000000000E+00 -0.33212027258E+04  0.33212027258E+04  0.25500000000E-02 0. -1.
    8880023    1    1    2    0    0  0.44176090421E+03  0.25433791366E+03 -0.29779888052E+04  0.30922593683E+04  0.65864270000E+03 0.  0.
    8880022    1    1    2    0    0 -0.44176090421E+03 -0.25433791366E+03 -0.38566167585E+02  0.53359111041E+03  0.15294330000E+03 0.  0.
<mgrwt>
<rscale>  0 0.74463873E+03</rscale>
<asrwt>0</asrwt>
<pdfrwt beam="1">  1        2 0.51095424E+00 0.83285694E+03</pdfrwt>
<pdfrwt beam="2">  1       -2 0.46868887E-01 0.83285694E+03</pdfrwt>
<totfact> 0.49330122E+00</totfact>
</mgrwt>
</event>
<event>
 4    5  0.6615028E-008  0.6838051E+03  0.7818608E-02  0.1007248E+00
         -2   -1    0    0    0  501 -0.00000000000E+00  0.00000000000E+00  0.16578477561E+03  0.16578477563E+03  0.25500000000E-02 0.  1.
          2   -1    0    0  501    0  0.00000000000E+00 -0.00000000000E+00 -0.20516597297E+04  0.20516597298E+04  0.25500000000E-02 0. -1.
    8880023    1    1    2    0    0 -0.14230328125E+03 -0.11631442760E+03 -0.18541754056E+04  0.19762479376E+04  0.65864270000E+03 0. -1.
    8880022    1    1    2    0    0  0.14230328125E+03  0.11631442760E+03 -0.31699548559E+02  0.24119656779E+03  0.15294330000E+03 0.  0.
<mgrwt>
<rscale>  0 0.52583098E+03</rscale>
<asrwt>0</asrwt>
<pdfrwt beam="1">  1        2 0.31563994E+00 0.68380514E+03</pdfrwt>
<pdfrwt beam="2">  1       -2 0.25505352E-01 0.68380514E+03</pdfrwt>
<totfact> 0.89509489E+01</totfact>
</mgrwt>
</event>
<event>
 4    5  0.6615028E-008  0.1026809E+04  0.7818608E-02  0.9347294E-01
         -2   -1    0    0    0  501 -0.00000000000E+00  0.00000000000E+00  0.26103906841E+03  0.26103906842E+03  0.25500000000E-02 0.  1.
          2   -1    0    0  501    0  0.00000000000E+00 -0.00000000000E+00 -0.35387667967E+04  0.35387667967E+04  0.25500000000E-02 0. -1.
    8880023    1    1    2    0    0 -0.16066107493E+03 -0.77117741000E+03 -0.24006819479E+04  0.26110554571E+04  0.65864270000E+03 0. -1.
    8880022    1    1    2    0    0  0.16066107493E+03  0.77117741000E+03 -0.87704578036E+03  0.11887504080E+04  0.15294330000E+03 0.  0.
<mgrwt>
<rscale>  0 0.96543069E+03</rscale>
<asrwt>0</asrwt>
<pdfrwt beam="1">  1        2 0.54442563E+00 0.10268090E+04</pdfrwt>
<pdfrwt beam="2">  1       -2 0.40159859E-01 0.10268090E+04</pdfrwt>
<totfact> 0.46325807E+00</totfact>
</mgrwt>
</event>
<event>
 4    5  0.6615028E-008  0.1099667E+04  0.7818608E-02  0.9261427E-01
         -2   -1    0    0    0  501 -0.00000000000E+00  0.00000000000E+00  0.13510537950E+04  0.13510537950E+04  0.25500000000E-02 0.  1.
          2   -1    0    0  501    0  0.00000000000E+00 -0.00000000000E+00 -0.22421298280E+04  0.22421298280E+04  0.25500000000E-02 0. -1.
    8880023    1    1    2    0    0 -0.76043206254E+03 -0.44407211654E+03 -0.19308643983E+04  0.22220496163E+04  0.65864270000E+03 0. -1.
    8880022    1    1    2    0    0  0.76043206254E+03  0.44407211654E+03  0.10397883653E+04  0.13711340066E+04  0.15294330000E+03 0.  0.
<mgrwt>
<rscale>  0 0.10441284E+04</rscale>
<asrwt>0</asrwt>
<pdfrwt beam="1">  1        2 0.34494305E+00 0.10996668E+04</pdfrwt>
<pdfrwt beam="2">  1       -2 0.20785443E+00 0.10996668E+04</pdfrwt>
<totfact> 0.57052739E-01</totfact>
</mgrwt>
</event>
<event>
 4    5  0.6615028E-008  0.8766390E+03  0.7818608E-02  0.9564625E-01
         -2   -1    0    0    0  501 -0.00000000000E+00  0.00000000000E+00  0.53860544848E+03  0.53860544848E+03  0.25500000000E-02 0.  1.
          2   -1    0    0  501    0  0.00000000000E+00 -0.00000000000E+00 -0.11002192634E+04  0.11002192634E+04  0.25500000000E-02 0. -1.
    8880023    1    1    2    0    0 -0.35475785244E+03 -0.45698207815E+03 -0.98504511448E+02  0.88215593783E+03  0.65864270000E+03 0.  0.
    8880022    1    1    2    0    0  0.35475785244E+03  0.45698207815E+03 -0.46310930344E+03  0.75666877401E+03  0.15294330000E+03 0.  0.
<mgrwt>
<rscale>  0 0.79682456E+03</rscale>
<asrwt>0</asrwt>
<pdfrwt beam="1">  1        2 0.16926450E+00 0.87663901E+03</pdfrwt>
<pdfrwt beam="2">  1       -2 0.82862377E-01 0.87663901E+03</pdfrwt>
<totfact> 0.27956390E+01</totfact>
</mgrwt>
</event>
<event>
 4    5  0.6615028E-008  0.1299052E+04  0.7818608E-02  0.9066379E-01
          2   -1    0    0  501    0  0.00000000000E+00  0.00000000000E+00  0.12042023566E+04  0.12042023566E+04  0.25500000000E-02 0. -1.
         -2   -1    0    0    0  501 -0.00000000000E+00 -0.00000000000E+00 -0.19371432401E+04  0.19371432401E+04  0.25500000000E-02 0.  1.
    8880023    1    1    2    0    0  0.45307721822E+03 -0.10239375400E+04  0.56826062722E+03  0.14179059906E+04  0.65864270000E+03 0.  0.
    8880022    1    1    2    0    0 -0.45307721822E+03  0.10239375400E+04 -0.13012015107E+04  0.17234396061E+04  0.15294330000E+03 0.  0.
<mgrwt>
<rscale>  0 0.12545816E+04</rscale>
<asrwt>0</asrwt>
<pdfrwt beam="1">  1        2 0.18526190E+00 0.12990524E+04</pdfrwt>
<pdfrwt beam="2">  1       -2 0.29802204E+00 0.12990524E+04</pdfrwt>
<totfact> 0.59383183E-01</totfact>
</mgrwt>
</event>
<event>
 4    5  0.6615028E-008  0.1421832E+04  0.7818608E-02  0.8966902E-01
         -2   -1    0    0    0  501 -0.00000000000E+00  0.00000000000E+00  0.65246726067E+03  0.65246726067E+03  0.25500000000E-02 0.  1.
          2   -1    0    0  501    0  0.00000000000E+00 -0.00000000000E+00 -0.28797905050E+04  0.28797905050E+04  0.25500000000E-02 0. -1.
    8880023    1    1    2    0    0 -0.62274076745E+03  0.10954408879E+04 -0.15108881080E+04  0.20747023602E+04  0.65864270000E+03 0.  0.
    8880022    1    1    2    0    0  0.62274076745E+03 -0.10954408879E+04 -0.71643513631E+03  0.14575554054E+04  0.15294330000E+03 0.  0.
<mgrwt>
<rscale>  0 0.13820685E+04</rscale>
<asrwt>0</asrwt>
<pdfrwt beam="1">  1        2 0.44304469E+00 0.14218323E+04</pdfrwt>
<pdfrwt beam="2">  1       -2 0.10037958E+00 0.14218323E+04</pdfrwt>
<totfact> 0.16303984E+00</totfact>
</mgrwt>
</event>
<event>
 4    5  0.6615028E-008  0.9912070E+03  0.7818608E-02  0.9393153E-01
          2   -1    0    0  501    0  0.00000000000E+00  0.00000000000E+00  0.33592142862E+04  0.33592142862E+04  0.25500000000E-02 0. -1.
         -2   -1    0    0    0  501 -0.00000000000E+00 -0.00000000000E+00 -0.68974975479E+03  0.68974975480E+03  0.25500000000E-02 0.  1.
    8880023    1    1    2    0    0 -0.45931724752E+03  0.58112713942E+03  0.30466073000E+04  0.32037957696E+04  0.65864270000E+03 0. -1.
    8880022    1    1    2    0    0  0.45931724752E+03 -0.58112713942E+03 -0.37714276867E+03  0.84516827142E+03  0.15294330000E+03 0.  0.
<mgrwt>
<rscale>  0 0.92641307E+03</rscale>
<asrwt>0</asrwt>
<pdfrwt beam="1">  1        2 0.51680219E+00 0.99120699E+03</pdfrwt>
<pdfrwt beam="2">  1       -2 0.10611535E+00 0.99120699E+03</pdfrwt>
<totfact> 0.75044152E-01</totfact>
</mgrwt>
</event>
<event>
 4    5  0.6615028E-008  0.6859963E+03  0.7818608E-02  0.1006117E+00
         -2   -1    0    0    0  501 -0.00000000000E+00  0.00000000000E+00  0.23231444487E+03  0.23231444488E+03  0.25500000000E-02 0.  1.
          2   -1    0    0  501    0  0.00000000000E+00 -0.00000000000E+00 -0.95440059451E+03  0.95440059451E+03  0.25500000000E-02 0. -1.
    8880023    1    1    2    0    0 -0.51193783979E+02  0.18482414299E+03 -0.60601594948E+03  0.91533944776E+03  0.65864270000E+03 0.  0.
    8880022    1    1    2    0    0  0.51193783979E+02 -0.18482414299E+03 -0.11607020017E+03  0.27137559163E+03  0.15294330000E+03 0.  0.
<mgrwt>
<rscale>  0 0.53047636E+03</rscale>
<asrwt>0</asrwt>
<pdfrwt beam="1">  1        2 0.14683086E+00 0.68599634E+03</pdfrwt>
<pdfrwt beam="2">  1       -2 0.35740684E-01 0.68599634E+03</pdfrwt>
<totfact> 0.20119291E+02</totfact>
</mgrwt>
</event>
<event>
 4    5  0.6615028E-008  0.8057018E+03  0.7818608E-02  0.9698601E-01
         -2   -1    0    0    0  501 -0.00000000000E+00  0.00000000000E+00  0.79380583009E+03  0.79380583010E+03  0.25500000000E-02 0.  1.
          2   -1    0    0  501    0  0.00000000000E+00 -0.00000000000E+00 -0.14216476246E+04  0.14216476246E+04  0.25500000000E-02 0. -1.
    8880023    1    1    2    0    0 -0.46374392572E+03  0.16933580906E+02 -0.12110757452E+04  0.14545995469E+04  0.65864270000E+03 0. -1.
    8880022    1    1    2    0    0  0.46374392572E+03 -0.16933580906E+02  0.58323395071E+03  0.76085390784E+03  0.15294330000E+03 0.  0.
<mgrwt>
<rscale>  0 0.71100176E+03</rscale>
<asrwt>0</asrwt>
<pdfrwt beam="1">  1        2 0.21871502E+00 0.80570179E+03</pdfrwt>
<pdfrwt beam="2">  1       -2 0.12212397E+00 0.80570179E+03</pdfrwt>
<totfact> 0.72627972E+00</totfact>
</mgrwt>
</event>
<event>
 4    5  0.6615028E-008  0.7146501E+03  0.7818608E-02  0.9941122E-01
          2   -1    0    0  501    0  0.00000000000E+00  0.00000000000E+00  0.29495778310E+03  0.29495778311E+03  0.25500000000E-02 0. -1.
         -2   -1    0    0    0  501 -0.00000000000E+00 -0.00000000000E+00 -0.11780837768E+04  0.11780837768E+04  0.25500000000E-02 0.  1.
    8880023    1    1    2    0    0  0.24412720949E+03 -0.13159226273E+03 -0.23606618031E+03  0.75263009890E+03  0.65864270000E+03 0.  0.
    8880022    1    1    2    0    0 -0.24412720949E+03  0.13159226273E+03 -0.64705981340E+03  0.72041146101E+03  0.15294330000E+03 0.  0.
<mgrwt>
<rscale>  0 0.58309071E+03</rscale>
<asrwt>0</asrwt>
<pdfrwt beam="1">  1        2 0.45378121E-01 0.71465014E+03</pdfrwt>
<pdfrwt beam="2">  1       -2 0.18124366E+00 0.71465014E+03</pdfrwt>
<totfact> 0.20244389E+01</totfact>
</mgrwt>
</event>
<event>
 4    5  0.6615028E-008  0.6766461E+03  0.7818608E-02  0.1011288E+00
          2   -1    0    0  501    0  0.00000000000E+00  0.00000000000E+00  0.25678756394E+04  0.25678756394E+04  0.25500000000E-02 0. -1.
         -2   -1    0    0    0  501 -0.00000000000E+00 -0.00000000000E+00 -0.23299023348E+03  0.23299023350E+03  0.25500000000E-02 0.  1.
    8880023    1    1    2    0    0 -0.37669061683E+02 -0.15040200264E+03  0.24588608512E+04  0.25502640280E+04  0.65864270000E+03 0. -1.
    8880022    1    1    2    0    0  0.37669061683E+02  0.15040200264E+03 -0.12397544531E+03  0.25060184488E+03  0.15294330000E+03 0.  0.
<mgrwt>
<rscale>  0 0.50965864E+03</rscale>
<asrwt>0</asrwt>
<pdfrwt beam="1">  1        2 0.39505780E+00 0.67664609E+03</pdfrwt>
<pdfrwt beam="2">  1       -2 0.35844650E-01 0.67664609E+03</pdfrwt>
<totfact> 0.24619681E+01</totfact>
</mgrwt>
</event>
<event>
 4    5  0.6615028E-008  0.1128345E+04  0.7818608E-02  0.9230134E-01
          2   -1    0    0  501    0  0.00000000000E+00  0.00000000000E+00  0.25440474043E+04  0.25440474043E+04  0.25500000000E-02 0. -1.
         -2   -1    0    0    0  501 -0.00000000000E+00 -0.00000000000E+00 -0.47534324798E+03  0.47534324799E+03  0.25500000000E-02 0.  1.
    8880023    1    1    2    0    0 -0.51458135783E+03  0.75799678408E+03  0.59032689955E+03  0.12734398899E+04  0.65864270000E+03 0. -1.
    8880022    1    1    2    0    0  0.51458135783E+03 -0.75799678408E+03  0.14783772568E+04  0.17459507625E+04  0.15294330000E+03 0.  1.
<mgrwt>
<rscale>  0 0.10747732E+04</rscale>
<asrwt>0</asrwt>
<pdfrwt beam="1">  1        2 0.39139191E+00 0.11283454E+04</pdfrwt>
<pdfrwt beam="2">  1       -2 0.73129730E-01 0.11283454E+04</pdfrwt>
<totfact> 0.55184114E+00</totfact>
</mgrwt>
</event>
<event>
 4    5  0.6615028E-008  0.8537601E+03  0.7818608E-02  0.9604761E-01
         -2   -1    0    0    0  501 -0.00000000000E+00  0.00000000000E+00  0.93375615625E+03  0.93375615625E+03  0.25500000000E-02 0.  1.
          2   -1    0    0  501    0  0.00000000000E+00 -0.00000000000E+00 -0.13482333430E+04  0.13482333430E+04  0.25500000000E-02 0. -1.
    8880023    1    1    2    0    0  0.22206765604E+03 -0.49576405918E+03 -0.11010291831E+04  0.13932593135E+04  0.65864270000E+03 0. -1.
    8880022    1    1    2    0    0 -0.22206765604E+03  0.49576405918E+03  0.68655199642E+03  0.88873018573E+03  0.15294330000E+03 0.  0.
<mgrwt>
<rscale>  0 0.76981871E+03</rscale>
<asrwt>0</asrwt>
<pdfrwt beam="1">  1        2 0.20742051E+00 0.85376007E+03</pdfrwt>
<pdfrwt beam="2">  1       -2 0.14365479E+00 0.85376007E+03</pdfrwt>
<totfact> 0.52513420E+00</totfact>
</mgrwt>
</event>
<event>
 4    5  0.6615028E-008  0.8227557E+03  0.7818608E-02  0.9663595E-01
          2   -1    0    0  501    0  0.00000000000E+00  0.00000000000E+00  0.46447739152E+03  0.46447739153E+03  0.25500000000E-02 0. -1.
         -2   -1    0    0    0  501 -0.00000000000E+00 -0.00000000000E+00 -0.10866926130E+04  0.10866926130E+04  0.25500000000E-02 0.  1.
    8880023    1    1    2    0    0  0.45798658049E+03 -0.18266108791E+03 -0.12093985705E+03  0.83159691933E+03  0.65864270000E+03 0. -1.
    8880022    1    1    2    0    0 -0.45798658049E+03  0.18266108791E+03 -0.50127536440E+03  0.71957308518E+03  0.15294330000E+03 0.  0.
<mgrwt>
<rscale>  0 0.73226294E+03</rscale>
<asrwt>0</asrwt>
<pdfrwt beam="1">  1        2 0.71458061E-01 0.82275573E+03</pdfrwt>
<pdfrwt beam="2">  1       -2 0.16718348E+00 0.82275573E+03</pdfrwt>
<totfact> 0.15098048E+01</totfact>
</mgrwt>
</event>
<event>
 4    5  0.6615028E-008  0.7640181E+03  0.7818608E-02  0.9794814E-01
         -2   -1    0    0    0  501 -0.00000000000E+00  0.00000000000E+00  0.92876670170E+03  0.92876670170E+03  0.25500000000E-02 0.  1.
          2   -1    0    0  501    0  0.00000000000E+00 -0.00000000000E+00 -0.62783581645E+03  0.62783581646E+03  0.25500000000E-02 0. -1.
    8880023    1    1    2    0    0 -0.34984049496E+03 -0.16590691214E+03 -0.30399273657E+03  0.82227444662E+03  0.65864270000E+03 0.  0.
    8880022    1    1    2    0    0  0.34984049496E+03  0.16590691214E+03  0.60492362182E+03  0.73432807154E+03  0.15294330000E+03 0.  1.
<mgrwt>
<rscale>  0 0.65641602E+03</rscale>
<asrwt>0</asrwt>
<pdfrwt beam="1">  1        2 0.96590126E-01 0.76401812E+03</pdfrwt>
<pdfrwt beam="2">  1       -2 0.14288718E+00 0.76401812E+03</pdfrwt>
<totfact> 0.16185589E+01</totfact>
</mgrwt>
</event>
<event>
 4    5  0.6615028E-008  0.8388700E+03  0.7818608E-02  0.9632315E-01
         -2   -1    0    0    0  501 -0.00000000000E+00  0.00000000000E+00  0.40979234078E+03  0.40979234079E+03  0.25500000000E-02 0.  1.
          2   -1    0    0  501    0  0.00000000000E+00 -0.00000000000E+00 -0.26703196931E+04  0.26703196931E+04  0.25500000000E-02 0. -1.
    8880023    1    1    2    0    0 -0.51076809494E+03  0.94913429469E+02 -0.23817437522E+04  0.25251546711E+04  0.65864270000E+03 0. -1.
    8880022    1    1    2    0    0  0.51076809494E+03 -0.94913429469E+02  0.12121639982E+03  0.55495736278E+03  0.15294330000E+03 0.  0.
<mgrwt>
<rscale>  0 0.75193808E+03</rscale>
<asrwt>0</asrwt>
<pdfrwt beam="1">  1        2 0.41081840E+00 0.83886996E+03</pdfrwt>
<pdfrwt beam="2">  1       -2 0.63044977E-01 0.83886996E+03</pdfrwt>
<totfact> 0.66974632E+00</totfact>
</mgrwt>
</event>
<event>
 4    5  0.6615028E-008  0.1242850E+04  0.7818608E-02  0.9116554E-01
          2   -1    0    0  501    0  0.00000000000E+00  0.00000000000E+00  0.13733423746E+04  0.13733423746E+04  0.25500000000E-02 0. -1.
         -2   -1    0    0    0  501 -0.00000000000E+00 -0.00000000000E+00 -0.18408340951E+04  0.18408340951E+04  0.25500000000E-02 0.  1.
    8880023    1    1    2    0    0 -0.56191999828E+03  0.89169084445E+03  0.86065631880E+03  0.15117559829E+04  0.65864270000E+03 0.  0.
    8880022    1    1    2    0    0  0.56191999828E+03 -0.89169084445E+03 -0.13281480393E+04  0.17024204868E+04  0.15294330000E+03 0.  0.
<mgrwt>
<rscale>  0 0.11957850E+04</rscale>
<asrwt>0</asrwt>
<pdfrwt beam="1">  1        2 0.21128344E+00 0.12428503E+04</pdfrwt>
<pdfrwt beam="2">  1       -2 0.28320525E+00 0.12428503E+04</pdfrwt>
<totfact> 0.58484743E-01</totfact>
</mgrwt>
</event>
<event>
 4    5  0.6615028E-008  0.6818851E+03  0.7818608E-02  0.1008277E+00
         -2   -1    0    0    0  501 -0.00000000000E+00  0.00000000000E+00  0.25829503196E+03  0.25829503197E+03  0.25500000000E-02 0.  1.
          2   -1    0    0  501    0  0.00000000000E+00 -0.00000000000E+00 -0.22643041611E+04  0.22643041611E+04  0.25500000000E-02 0. -1.
    8880023    1    1    2    0    0  0.16545200049E+03  0.61504203893E+02 -0.21450259187E+04  0.22508006419E+04  0.65864270000E+03 0.  0.
    8880022    1    1    2    0    0 -0.16545200049E+03 -0.61504203893E+02  0.13901678961E+03  0.27179855108E+03  0.15294330000E+03 0.  1.
<mgrwt>
<rscale>  0 0.52165281E+03</rscale>
<asrwt>0</asrwt>
<pdfrwt beam="1">  1        2 0.34835447E+00 0.68188514E+03</pdfrwt>
<pdfrwt beam="2">  1       -2 0.39737699E-01 0.68188514E+03</pdfrwt>
<totfact> 0.29835689E+01</totfact>
</mgrwt>
</event>
<event>
 4    5  0.6615028E-008  0.1535719E+04  0.7818608E-02  0.8884817E-01
          2   -1    0    0  501    0  0.00000000000E+00  0.00000000000E+00  0.19801888637E+04  0.19801888637E+04  0.25500000000E-02 0. -1.
         -2   -1    0    0    0  501 -0.00000000000E+00 -0.00000000000E+00 -0.17602117750E+04  0.17602117750E+04  0.25500000000E-02 0.  1.
    8880023    1    1    2    0    0 -0.64151026160E+03  0.12300761281E+04  0.12708027146E+04  0.19933319950E+04  0.65864270000E+03 0. -1.
    8880022    1    1    2    0    0  0.64151026160E+03 -0.12300761281E+04 -0.10508256259E+04  0.17470686437E+04  0.15294330000E+03 0.  0.
<mgrwt>
<rscale>  0 0.14994529E+04</rscale>
<asrwt>0</asrwt>
<pdfrwt beam="1">  1        2 0.30464444E+00 0.15357190E+04</pdfrwt>
<pdfrwt beam="2">  1       -2 0.27080181E+00 0.15357190E+04</pdfrwt>
<totfact> 0.30667989E-01</totfact>
</mgrwt>
</event>
<event>
 4    5  0.6615028E-008  0.1135593E+04  0.7818608E-02  0.9222426E-01
         -2   -1    0    0    0  501 -0.00000000000E+00  0.00000000000E+00  0.61048957964E+03  0.61048957965E+03  0.25500000000E-02 0.  1.
          2   -1    0    0  501    0  0.00000000000E+00 -0.00000000000E+00 -0.18131603238E+04  0.18131603238E+04  0.25500000000E-02 0. -1.
    8880023    1    1    2    0    0  0.91954021679E+03  0.10102738684E+03 -0.86332664681E+03  0.14265005603E+04  0.65864270000E+03 0.  0.
    8880022    1    1    2    0    0 -0.91954021679E+03 -0.10102738684E+03 -0.33934409740E+03  0.99714934320E+03  0.15294330000E+03 0.  0.
<mgrwt>
<rscale>  0 0.10824927E+04</rscale>
<asrwt>0</asrwt>
<pdfrwt beam="1">  1        2 0.27894774E+00 0.11355928E+04</pdfrwt>
<pdfrwt beam="2">  1       -2 0.93921475E-01 0.11355928E+04</pdfrwt>
<totfact> 0.79987078E+00</totfact>
</mgrwt>
</event>
<event>
 4    5  0.6615028E-008  0.1148619E+04  0.7818608E-02  0.9208762E-01
         -2   -1    0    0    0  501 -0.00000000000E+00  0.00000000000E+00  0.82591659594E+03  0.82591659594E+03  0.25500000000E-02 0.  1.
          2   -1    0    0  501    0  0.00000000000E+00 -0.00000000000E+00 -0.20898897040E+04  0.20898897040E+04  0.25500000000E-02 0. -1.
    8880023    1    1    2    0    0 -0.61146042121E+03 -0.71528425562E+03  0.20284100276E+03  0.11663919117E+04  0.65864270000E+03 0.  1.
    8880022    1    1    2    0    0  0.61146042121E+03  0.71528425562E+03 -0.14668141109E+04  0.17494143883E+04  0.15294330000E+03 0.  0.
<mgrwt>
<rscale>  0 0.10963442E+04</rscale>
<asrwt>0</asrwt>
<pdfrwt beam="1">  1        2 0.32152149E+00 0.11486190E+04</pdfrwt>
<pdfrwt beam="2">  1       -2 0.12706409E+00 0.11486190E+04</pdfrwt>
<totfact> 0.26889946E+00</totfact>
</mgrwt>
</event>
<event>
 4    5  0.6615028E-008  0.9266126E+03  0.7818608E-02  0.9484593E-01
         -2   -1    0    0    0  501 -0.00000000000E+00  0.00000000000E+00  0.10075395624E+04  0.10075395624E+04  0.25500000000E-02 0.  1.
          2   -1    0    0  501    0  0.00000000000E+00 -0.00000000000E+00 -0.13620836809E+04  0.13620836809E+04  0.25500000000E-02 0. -1.
    8880023    1    1    2    0    0  0.36500215549E+03 -0.53997610825E+03 -0.10526521235E+04  0.14023863485E+04  0.65864270000E+03 0. -1.
    8880022    1    1    2    0    0 -0.36500215549E+03  0.53997610825E+03  0.69810800497E+03  0.96723689477E+03  0.15294330000E+03 0.  0.
<mgrwt>
<rscale>  0 0.85429276E+03</rscale>
<asrwt>0</asrwt>
<pdfrwt beam="1">  1        2 0.20955134E+00 0.92661264E+03</pdfrwt>
<pdfrwt beam="2">  1       -2 0.15500609E+00 0.92661264E+03</pdfrwt>
<totfact> 0.41779462E+00</totfact>
</mgrwt>
</event>
<event>
 4    5  0.6615028E-008  0.1643098E+04  0.7818608E-02  0.8814686E-01
         -2   -1    0    0    0  501 -0.00000000000E+00  0.00000000000E+00  0.10959774157E+04  0.10959774157E+04  0.25500000000E-02 0.  1.
          2   -1    0    0  501    0  0.00000000000E+00 -0.00000000000E+00 -0.24448342564E+04  0.24448342564E+04  0.25500000000E-02 0. -1.
    8880023    1    1    2    0    0 -0.13092981721E+04 -0.74276515311E+03 -0.23024620047E+03  0.16591519808E+04  0.65864270000E+03 0.  0.
    8880022    1    1    2    0    0  0.13092981721E+04  0.74276515311E+03 -0.11186106403E+04  0.18816596913E+04  0.15294330000E+03 0.  0.
<mgrwt>
<rscale>  0 0.16095770E+04</rscale>
<asrwt>0</asrwt>
<pdfrwt beam="1">  1        2 0.37612835E+00 0.16430983E+04</pdfrwt>
<pdfrwt beam="2">  1       -2 0.16861191E+00 0.16430983E+04</pdfrwt>
<totfact> 0.75903969E-01</totfact>
</mgrwt>
</event>
<event>
 4    5  0.6615028E-008  0.7245687E+03  0.7818608E-02  0.9907420E-01
          2   -1    0    0  501    0  0.00000000000E+00  0.00000000000E+00  0.11104846481E+04  0.11104846481E+04  0.25500000000E-02 0. -1.
         -2   -1    0    0    0  501 -0.00000000000E+00 -0.00000000000E+00 -0.70334139013E+03  0.70334139013E+03  0.25500000000E-02 0.  1.
    8880023    1    1    2    0    0  0.21886240557E+03 -0.20805966266E+03  0.93736963325E+03  0.11847622594E+04  0.65864270000E+03 0. -1.
    8880022    1    1    2    0    0 -0.21886240557E+03  0.20805966266E+03 -0.53022637525E+03  0.62906377882E+03  0.15294330000E+03 0.  0.
<mgrwt>
<rscale>  0 0.59903039E+03</rscale>
<asrwt>0</asrwt>
<pdfrwt beam="1">  1        2 0.17084379E+00 0.72456869E+03</pdfrwt>
<pdfrwt beam="2">  1       -2 0.10820637E+00 0.72456869E+03</pdfrwt>
<totfact> 0.14985583E+01</totfact>
</mgrwt>
</event>
<event>
 4    5  0.6615028E-008  0.1289634E+04  0.7818608E-02  0.9074563E-01
          2   -1    0    0  501    0  0.00000000000E+00  0.00000000000E+00  0.34863863518E+04  0.34863863518E+04  0.25500000000E-02 0. -1.
         -2   -1    0    0    0  501 -0.00000000000E+00 -0.00000000000E+00 -0.10461505352E+04  0.10461505352E+04  0.25500000000E-02 0.  1.
    8880023    1    1    2    0    0 -0.11080552244E+04  0.39492967183E+02  0.30114308621E+04  0.32759536197E+04  0.65864270000E+03 0. -1.
    8880022    1    1    2    0    0  0.11080552244E+04 -0.39492967183E+02 -0.57119504547E+03  0.12565832673E+04  0.15294330000E+03 0.  0.
<mgrwt>
<rscale>  0 0.12447508E+04</rscale>
<asrwt>0</asrwt>
<pdfrwt beam="1">  1        2 0.53636712E+00 0.12896342E+04</pdfrwt>
<pdfrwt beam="2">  1       -2 0.16094624E+00 0.12896342E+04</pdfrwt>
<totfact> 0.20180994E-01</totfact>
</mgrwt>
</event>
<event>
 4    5  0.6615028E-008  0.8190660E+03  0.7818608E-02  0.9670993E-01
         -2   -1    0    0    0  501 -0.00000000000E+00  0.00000000000E+00  0.77959038879E+03  0.77959038879E+03  0.25500000000E-02 0.  1.
          2   -1    0    0  501    0  0.00000000000E+00 -0.00000000000E+00 -0.62856540290E+03  0.62856540291E+03  0.25500000000E-02 0. -1.
    8880023    1    1    2    0    0  0.25735976446E+03  0.41330971318E+03 -0.12403922325E+03  0.82840503532E+03  0.65864270000E+03 0. -1.
    8880022    1    1    2    0    0 -0.25735976446E+03 -0.41330971318E+03  0.27506420913E+03  0.57975075639E+03  0.15294330000E+03 0.  0.
<mgrwt>
<rscale>  0 0.72770417E+03</rscale>
<asrwt>0</asrwt>
<pdfrwt beam="1">  1        2 0.96702370E-01 0.81906604E+03</pdfrwt>
<pdfrwt beam="2">  1       -2 0.11993698E+00 0.81906604E+03</pdfrwt>
<totfact> 0.25100349E+01</totfact>
</mgrwt>
</event>
<event>
 4    5  0.6615028E-008  0.7170356E+03  0.7818608E-02  0.9932747E-01
         -2   -1    0    0    0  501 -0.00000000000E+00  0.00000000000E+00  0.76124066260E+03  0.76124066261E+03  0.25500000000E-02 0.  1.
          2   -1    0    0  501    0  0.00000000000E+00 -0.00000000000E+00 -0.76112435555E+03  0.76112435555E+03  0.25500000000E-02 0. -1.
    8880023    1    1    2    0    0  0.28020846163E+03 -0.42580112653E+02 -0.53718204284E+03  0.89593783343E+03  0.65864270000E+03 0. -1.
    8880022    1    1    2    0    0 -0.28020846163E+03  0.42580112653E+02  0.53729834989E+03  0.62642718473E+03  0.15294330000E+03 0.  0.
<mgrwt>
<rscale>  0 0.58700140E+03</rscale>
<asrwt>0</asrwt>
<pdfrwt beam="1">  1        2 0.11709606E+00 0.71703560E+03</pdfrwt>
<pdfrwt beam="2">  1       -2 0.11711395E+00 0.71703560E+03</pdfrwt>
<totfact> 0.21107554E+01</totfact>
</mgrwt>
</event>
<event>
 4    5  0.6615028E-008  0.7197266E+03  0.7818608E-02  0.9923512E-01
          2   -1    0    0  501    0  0.00000000000E+00  0.00000000000E+00  0.50207680101E+03  0.50207680101E+03  0.25500000000E-02 0. -1.
         -2   -1    0    0    0  501 -0.00000000000E+00 -0.00000000000E+00 -0.15036750036E+04  0.15036750036E+04  0.25500000000E-02 0.  1.
    8880023    1    1    2    0    0 -0.24588652422E+03 -0.15406511472E+03  0.21064365749E+03  0.74991812824E+03  0.65864270000E+03 0. -1.
    8880022    1    1    2    0    0  0.24588652422E+03  0.15406511472E+03 -0.12122418601E+04  0.12558336764E+04  0.15294330000E+03 0.  0.
<mgrwt>
<rscale>  0 0.59135206E+03</rscale>
<asrwt>0</asrwt>
<pdfrwt beam="1">  1        2 0.77242585E-01 0.71972665E+03</pdfrwt>
<pdfrwt beam="2">  1       -2 0.23133461E+00 0.71972665E+03</pdfrwt>
<totfact> 0.52892670E+00</totfact>
</mgrwt>
</event>
<event>
 4    5  0.6615028E-008  0.2087599E+04  0.7818608E-02  0.8578193E-01
         -2   -1    0    0    0  501 -0.00000000000E+00  0.00000000000E+00  0.20215308386E+04  0.20215308386E+04  0.25500000000E-02 0.  1.
          2   -1    0    0  501    0  0.00000000000E+00 -0.00000000000E+00 -0.28358931250E+04  0.28358931250E+04  0.25500000000E-02 0. -1.
    8880023    1    1    2    0    0 -0.17908741170E+04 -0.84677615339E+03  0.86129294558E+03  0.22582948659E+04  0.65864270000E+03 0.  1.
    8880022    1    1    2    0    0  0.17908741170E+04  0.84677615339E+03 -0.16756552320E+04  0.25991290977E+04  0.15294330000E+03 0.  0.
<mgrwt>
<rscale>  0 0.20619479E+04</rscale>
<asrwt>0</asrwt>
<pdfrwt beam="1">  1        2 0.43629125E+00 0.20875991E+04</pdfrwt>
<pdfrwt beam="2">  1       -2 0.31100474E+00 0.20875991E+04</pdfrwt>
<totfact> 0.52440549E-02</totfact>
</mgrwt>
</event>
<event>
 4    5  0.6615028E-008  0.7112505E+03  0.7818608E-02  0.9953386E-01
         -2   -1    0    0    0  501 -0.00000000000E+00  0.00000000000E+00  0.31446355962E+03  0.31446355963E+03  0.25500000000E-02 0.  1.
          2   -1    0    0  501    0  0.00000000000E+00 -0.00000000000E+00 -0.21710287875E+04  0.21710287875E+04  0.25500000000E-02 0. -1.
    8880023    1    1    2    0    0  0.24643954396E+03  0.10646441087E+03 -0.20160213182E+04  0.21378071198E+04  0.65864270000E+03 0.  0.
    8880022    1    1    2    0    0 -0.24643954396E+03 -0.10646441087E+03  0.15945609029E+03  0.34768522740E+03  0.15294330000E+03 0.  0.
<mgrwt>
<rscale>  0 0.57742281E+03</rscale>
<asrwt>0</asrwt>
<pdfrwt beam="1">  1        2 0.33400442E+00 0.71125054E+03</pdfrwt>
<pdfrwt beam="2">  1       -2 0.48379011E-01 0.71125054E+03</pdfrwt>
<totfact> 0.22634535E+01</totfact>
</mgrwt>
</event>
<event>
 4    5  0.6615028E-008  0.1050567E+04  0.7818608E-02  0.9318201E-01
         -2   -1    0    0    0  501 -0.00000000000E+00  0.00000000000E+00  0.34585903187E+04  0.34585903187E+04  0.25500000000E-02 0.  1.
          2   -1    0    0  501    0  0.00000000000E+00 -0.00000000000E+00 -0.37902259780E+03  0.37902259781E+03  0.25500000000E-02 0. -1.
    8880023    1    1    2    0    0 -0.28377747958E+03 -0.76769154048E+03  0.57363406412E+03  0.11969737696E+04  0.65864270000E+03 0.  0.
    8880022    1    1    2    0    0  0.28377747958E+03  0.76769154048E+03  0.25059336568E+04  0.26406391470E+04  0.15294330000E+03 0.  0.
<mgrwt>
<rscale>  0 0.99124410E+03</rscale>
<asrwt>0</asrwt>
<pdfrwt beam="1">  1        2 0.58311169E-01 0.10505666E+04</pdfrwt>
<pdfrwt beam="2">  1       -2 0.53209082E+00 0.10505666E+04</pdfrwt>
<totfact> 0.89747929E-02</totfact>
</mgrwt>
</event>
<event>
 4    5  0.6615028E-008  0.7210127E+03  0.7818608E-02  0.9919174E-01
          2   -1    0    0  501    0  0.00000000000E+00  0.00000000000E+00  0.36203652751E+04  0.36203652751E+04  0.25500000000E-02 0. -1.
         -2   -1    0    0    0  501 -0.00000000000E+00 -0.00000000000E+00 -0.25604463450E+03  0.25604463451E+03  0.25500000000E-02 0.  1.
    8880023    1    1    2    0    0 -0.31667060412E+02  0.29162697434E+03  0.34581722521E+04  0.35325365711E+04  0.65864270000E+03 0. -1.
    8880022    1    1    2    0    0  0.31667060412E+02 -0.29162697434E+03 -0.93851611557E+02  0.34387333843E+03  0.15294330000E+03 0.  0.
<mgrwt>
<rscale>  0 0.59340959E+03</rscale>
<asrwt>0</asrwt>
<pdfrwt beam="1">  1        2 0.55697926E+00 0.72101269E+03</pdfrwt>
<pdfrwt beam="2">  1       -2 0.39391483E-01 0.72101269E+03</pdfrwt>
<totfact> 0.44574608E+00</totfact>
</mgrwt>
</event>
<event>
 4    5  0.6615028E-008  0.1170886E+04  0.7818608E-02  0.9185956E-01
          2   -1    0    0  501    0  0.00000000000E+00  0.00000000000E+00  0.27923755187E+04  0.27923755187E+04  0.25500000000E-02 0. -1.
         -2   -1    0    0    0  501 -0.00000000000E+00 -0.00000000000E+00 -0.77696655918E+03  0.77696655918E+03  0.25500000000E-02 0.  1.
    8880023    1    1    2    0    0 -0.80255025200E+03 -0.54136612580E+03  0.22722323177E+04  0.25561717667E+04  0.65864270000E+03 0.  0.
    8880022    1    1    2    0    0  0.80255025200E+03  0.54136612580E+03 -0.25682335816E+03  0.10131703112E+04  0.15294330000E+03 0.  0.
<mgrwt>
<rscale>  0 0.11199570E+04</rscale>
<asrwt>0</asrwt>
<pdfrwt beam="1">  1        2 0.42959623E+00 0.11708862E+04</pdfrwt>
<pdfrwt beam="2">  1       -2 0.11953332E+00 0.11708862E+04</pdfrwt>
<totfact> 0.12386467E+00</totfact>
</mgrwt>
</event>
<event>
 4    5  0.6615028E-008  0.8408435E+03  0.7818608E-02  0.9628592E-01
         -2   -1    0    0    0  501 -0.00000000000E+00  0.00000000000E+00  0.65737020153E+03  0.65737020154E+03  0.25500000000E-02 0.  1.
          2   -1    0    0  501    0  0.00000000000E+00 -0.00000000000E+00 -0.93557240812E+03  0.93557240812E+03  0.25500000000E-02 0. -1.
    8880023    1    1    2    0    0  0.20318688485E+03 -0.48158350017E+03 -0.52895034345E+03  0.99338122084E+03  0.65864270000E+03 0. -1.
    8880022    1    1    2    0    0 -0.20318688485E+03  0.48158350017E+03  0.25074813686E+03  0.59956138882E+03  0.15294330000E+03 0.  0.
<mgrwt>
<rscale>  0 0.75432349E+03</rscale>
<asrwt>0</asrwt>
<pdfrwt beam="1">  1        2 0.14393422E+00 0.84084350E+03</pdfrwt>
<pdfrwt beam="2">  1       -2 0.10113388E+00 0.84084350E+03</pdfrwt>
<totfact> 0.22474986E+01</totfact>
</mgrwt>
</event>
<event>
 4    5  0.6615028E-008  0.8244487E+03  0.7818608E-02  0.9660232E-01
          2   -1    0    0  501    0  0.00000000000E+00  0.00000000000E+00  0.20144958581E+04  0.20144958581E+04  0.25500000000E-02 0. -1.
         -2   -1    0    0    0  501 -0.00000000000E+00 -0.00000000000E+00 -0.33758215814E+03  0.33758215815E+03  0.25500000000E-02 0.  1.
    8880023    1    1    2    0    0  0.47547466548E+03 -0.14081624699E+03  0.16354258054E+04  0.18314838640E+04  0.65864270000E+03 0. -1.
    8880022    1    1    2    0    0 -0.47547466548E+03  0.14081624699E+03  0.41487894563E+02  0.52059415223E+03  0.15294330000E+03 0.  0.
<mgrwt>
<rscale>  0 0.73434756E+03</rscale>
<asrwt>0</asrwt>
<pdfrwt beam="1">  1        2 0.30992244E+00 0.82444865E+03</pdfrwt>
<pdfrwt beam="2">  1       -2 0.51935717E-01 0.82444865E+03</pdfrwt>
<totfact> 0.23507006E+01</totfact>
</mgrwt>
</event>
<event>
 4    5  0.6615028E-008  0.7154112E+03  0.7818608E-02  0.9938430E-01
          2   -1    0    0  501    0  0.00000000000E+00  0.00000000000E+00  0.70834335021E+03  0.70834335021E+03  0.25500000000E-02 0. -1.
         -2   -1    0    0    0  501 -0.00000000000E+00 -0.00000000000E+00 -0.11887732757E+04  0.11887732757E+04  0.25500000000E-02 0.  1.
    8880023    1    1    2    0    0  0.16613329668E+03  0.22450551708E+03  0.49569961256E+03  0.87036274715E+03  0.65864270000E+03 0. -1.
    8880022    1    1    2    0    0 -0.16613329668E+03 -0.22450551708E+03 -0.97612953809E+03  0.10267538788E+04  0.15294330000E+03 0.  0.
<mgrwt>
<rscale>  0 0.58434413E+03</rscale>
<asrwt>0</asrwt>
<pdfrwt beam="1">  1        2 0.10897590E+00 0.71541121E+03</pdfrwt>
<pdfrwt beam="2">  1       -2 0.18288820E+00 0.71541121E+03</pdfrwt>
<totfact> 0.71511974E+00</totfact>
</mgrwt>
</event>
<event>
 4    5  0.6615028E-008  0.1075850E+04  0.7818608E-02  0.9288433E-01
          2   -1    0    0  501    0  0.00000000000E+00  0.00000000000E+00  0.12875963537E+04  0.12875963537E+04  0.25500000000E-02 0. -1.
         -2   -1    0    0    0  501 -0.00000000000E+00 -0.00000000000E+00 -0.95941187322E+03  0.95941187322E+03  0.25500000000E-02 0.  1.
    8880023    1    1    2    0    0  0.38264055668E+03 -0.75975570154E+03  0.72358786319E+03  0.12965462289E+04  0.65864270000E+03 0.  0.
    8880022    1    1    2    0    0 -0.38264055668E+03  0.75975570154E+03 -0.39540338269E+03  0.95046199804E+03  0.15294330000E+03 0.  0.
<mgrwt>
<rscale>  0 0.10185475E+04</rscale>
<asrwt>0</asrwt>
<pdfrwt beam="1">  1        2 0.19809175E+00 0.10758498E+04</pdfrwt>
<pdfrwt beam="2">  1       -2 0.14760183E+00 0.10758498E+04</pdfrwt>
<totfact> 0.51721601E+00</totfact>
</mgrwt>
</event>
<event>
 4    5  0.6615028E-008  0.7035316E+03  0.7818608E-02  0.9982854E-01
          2   -1    0    0  501    0  0.00000000000E+00  0.00000000000E+00  0.28583651338E+04  0.28583651338E+04  0.25500000000E-02 0. -1.
         -2   -1    0    0    0  501 -0.00000000000E+00 -0.00000000000E+00 -0.11587941084E+04  0.11587941084E+04  0.25500000000E-02 0.  1.
    8880023    1    1    2    0    0  0.24685356719E+03 -0.14485957802E+02  0.27958349126E+04  0.28829931653E+04  0.65864270000E+03 0. -1.
    8880022    1    1    2    0    0 -0.24685356719E+03  0.14485957802E+02 -0.10962638872E+04  0.11341660769E+04  0.15294330000E+03 0.  0.
<mgrwt>
<rscale>  0 0.56408471E+03</rscale>
<asrwt>0</asrwt>
<pdfrwt beam="1">  1        2 0.43974847E+00 0.70353161E+03</pdfrwt>
<pdfrwt beam="2">  1       -2 0.17827602E+00 0.70353161E+03</pdfrwt>
<totfact> 0.42891833E-01</totfact>
</mgrwt>
</event>
<event>
 4    5  0.6615028E-008  0.6855999E+03  0.7818608E-02  0.1006318E+00
         -2   -1    0    0    0  501 -0.00000000000E+00  0.00000000000E+00  0.26012679760E+03  0.26012679762E+03  0.25500000000E-02 0.  1.
          2   -1    0    0  501    0  0.00000000000E+00 -0.00000000000E+00 -0.24440282978E+04  0.24440282978E+04  0.25500000000E-02 0. -1.
    8880023    1    1    2    0    0  0.14049042011E+03  0.12845030581E+03 -0.23237327169E+04  0.24227630889E+04  0.65864270000E+03 0. -1.
    8880022    1    1    2    0    0 -0.14049042011E+03 -0.12845030581E+03  0.13983121662E+03  0.28139200657E+03  0.15294330000E+03 0.  0.
<mgrwt>
<rscale>  0 0.52964512E+03</rscale>
<asrwt>0</asrwt>
<pdfrwt beam="1">  1        2 0.37600434E+00 0.68559992E+03</pdfrwt>
<pdfrwt beam="2">  1       -2 0.40019509E-01 0.68559992E+03</pdfrwt>
<totfact> 0.23358505E+01</totfact>
</mgrwt>
</event>
<event>
 4    5  0.6615028E-008  0.1371947E+04  0.7818608E-02  0.9005793E-01
          2   -1    0    0  501    0  0.00000000000E+00  0.00000000000E+00  0.20704101368E+04  0.20704101368E+04  0.25500000000E-02 0. -1.
         -2   -1    0    0    0  501 -0.00000000000E+00 -0.00000000000E+00 -0.20660614916E+04  0.20660614916E+04  0.25500000000E-02 0.  1.
    8880023    1    1    2    0    0 -0.26347909407E+03 -0.11743116622E+04  0.16156168881E+04  0.21195417543E+04  0.65864270000E+03 0.  0.
    8880022    1    1    2    0    0  0.26347909407E+03  0.11743116622E+04 -0.16112682430E+04  0.20169298740E+04  0.15294330000E+03 0.  1.
<mgrwt>
<rscale>  0 0.13304083E+04</rscale>
<asrwt>0</asrwt>
<pdfrwt beam="1">  1        2 0.31852464E+00 0.13719473E+04</pdfrwt>
<pdfrwt beam="2">  1       -2 0.31785561E+00 0.13719473E+04</pdfrwt>
<totfact> 0.14380070E-01</totfact>
</mgrwt>
</event>
<event>
 4    5  0.6615028E-008  0.7425310E+03  0.7818608E-02  0.9852635E-01
          2   -1    0    0  501    0  0.00000000000E+00  0.00000000000E+00  0.17887515150E+04  0.17887515150E+04  0.25500000000E-02 0. -1.
         -2   -1    0    0    0  501 -0.00000000000E+00 -0.00000000000E+00 -0.55887215202E+03  0.55887215203E+03  0.25500000000E-02 0.  1.
    8880023    1    1    2    0    0  0.25766801901E+03  0.22616198114E+03  0.16347528601E+04  0.17954857753E+04  0.65864270000E+03 0. -1.
    8880022    1    1    2    0    0 -0.25766801901E+03 -0.22616198114E+03 -0.40487349711E+03  0.55213789166E+03  0.15294330000E+03 0.  0.
<mgrwt>
<rscale>  0 0.62612752E+03</rscale>
<asrwt>0</asrwt>
<pdfrwt beam="1">  1        2 0.27519254E+00 0.74253098E+03</pdfrwt>
<pdfrwt beam="2">  1       -2 0.85980332E-01 0.74253098E+03</pdfrwt>
<totfact> 0.10599351E+01</totfact>
</mgrwt>
</event>
<event>
 4    5  0.6615028E-008  0.1022766E+04  0.7818608E-02  0.9352360E-01
         -2   -1    0    0    0  501 -0.00000000000E+00  0.00000000000E+00  0.84472286227E+03  0.84472286227E+03  0.25500000000E-02 0.  1.
          2   -1    0    0  501    0  0.00000000000E+00 -0.00000000000E+00 -0.19221702479E+04  0.19221702479E+04  0.25500000000E-02 0. -1.
    8880023    1    1    2    0    0 -0.36419126701E+03 -0.69253565175E+03 -0.15373554870E+04  0.18464866660E+04  0.65864270000E+03 0.  0.
    8880022    1    1    2    0    0  0.36419126701E+03  0.69253565175E+03  0.45990810134E+03  0.92040644424E+03  0.15294330000E+03 0.  0.
<mgrwt>
<rscale>  0 0.96102151E+03</rscale>
<asrwt>0</asrwt>
<pdfrwt beam="1">  1        2 0.29571850E+00 0.10227664E+04</pdfrwt>
<pdfrwt beam="2">  1       -2 0.12995736E+00 0.10227664E+04</pdfrwt>
<totfact> 0.31910695E+00</totfact>
</mgrwt>
</event>
<event>
 4    5  0.6615028E-008  0.1002270E+04  0.7818608E-02  0.9378593E-01
          2   -1    0    0  501    0  0.00000000000E+00  0.00000000000E+00  0.19381608878E+04  0.19381608878E+04  0.25500000000E-02 0. -1.
         -2   -1    0    0    0  501 -0.00000000000E+00 -0.00000000000E+00 -0.13617330549E+04  0.13617330549E+04  0.25500000000E-02 0.  1.
    8880023    1    1    2    0    0 -0.43309795504E+03 -0.61900081233E+03  0.16785286778E+04  0.19549947756E+04  0.65864270000E+03 0. -1.
    8880022    1    1    2    0    0  0.43309795504E+03  0.61900081233E+03 -0.11021008449E+04  0.13448991671E+04  0.15294330000E+03 0.  0.
<mgrwt>
<rscale>  0 0.93858509E+03</rscale>
<asrwt>0</asrwt>
<pdfrwt beam="1">  1        2 0.29817860E+00 0.10022704E+04</pdfrwt>
<pdfrwt beam="2">  1       -2 0.20949739E+00 0.10022704E+04</pdfrwt>
<totfact> 0.83271518E-01</totfact>
</mgrwt>
</event>
<event>
 4    5  0.6615028E-008  0.8255211E+03  0.7818608E-02  0.9658110E-01
         -2   -1    0    0    0  501 -0.00000000000E+00  0.00000000000E+00  0.10349225212E+04  0.10349225212E+04  0.25500000000E-02 0.  1.
          2   -1    0    0  501    0  0.00000000000E+00 -0.00000000000E+00 -0.14100408316E+04  0.14100408316E+04  0.25500000000E-02 0. -1.
    8880023    1    1    2    0    0 -0.44493609998E+03 -0.22295026154E+03 -0.12077682856E+04  0.14629386146E+04  0.65864270000E+03 0.  0.
    8880022    1    1    2    0    0  0.44493609998E+03  0.22295026154E+03  0.83264997521E+03  0.98202473819E+03  0.15294330000E+03 0.  0.
<mgrwt>
<rscale>  0 0.73566595E+03</rscale>
<asrwt>0</asrwt>
<pdfrwt beam="1">  1        2 0.21692936E+00 0.82552114E+03</pdfrwt>
<pdfrwt beam="2">  1       -2 0.15921885E+00 0.82552114E+03</pdfrwt>
<totfact> 0.36973323E+00</totfact>
</mgrwt>
</event>
<event>
 4    5  0.6615028E-008  0.8248373E+03  0.7818608E-02  0.9659462E-01
         -2   -1    0    0    0  501 -0.00000000000E+00  0.00000000000E+00  0.33476160971E+03  0.33476160972E+03  0.25500000000E-02 0.  1.
          2   -1    0    0  501    0  0.00000000000E+00 -0.00000000000E+00 -0.15537014829E+04  0.15537014829E+04  0.25500000000E-02 0. -1.
    8880023    1    1    2    0    0 -0.19193891287E+03 -0.45793652212E+03 -0.10640457308E+04  0.13463097445E+04  0.65864270000E+03 0.  0.
    8880022    1    1    2    0    0  0.19193891287E+03  0.45793652212E+03 -0.15489414240E+03  0.54215334817E+03  0.15294330000E+03 0.  0.
<mgrwt>
<rscale>  0 0.73482554E+03</rscale>
<asrwt>0</asrwt>
<pdfrwt beam="1">  1        2 0.23903099E+00 0.82483732E+03</pdfrwt>
<pdfrwt beam="2">  1       -2 0.51501787E-01 0.82483732E+03</pdfrwt>
<totfact> 0.42805430E+01</totfact>
</mgrwt>
</event>
<event>
 4    5  0.6615028E-008  0.9958610E+03  0.7818608E-02  0.9386993E-01
          2   -1    0    0  501    0  0.00000000000E+00  0.00000000000E+00  0.35141839630E+04  0.35141839630E+04  0.25500000000E-02 0. -1.
         -2   -1    0    0    0  501 -0.00000000000E+00 -0.00000000000E+00 -0.59121879662E+03  0.59121879663E+03  0.25500000000E-02 0.  1.
    8880023    1    1    2    0    0  0.29598175164E+03 -0.68580157582E+03  0.31549957064E+04  0.33084342388E+04  0.65864270000E+03 0.  0.
    8880022    1    1    2    0    0 -0.29598175164E+03  0.68580157582E+03 -0.23203054002E+03  0.79696852085E+03  0.15294330000E+03 0.  0.
<mgrwt>
<rscale>  0 0.93153896E+03</rscale>
<asrwt>0</asrwt>
<pdfrwt beam="1">  1        2 0.54064369E+00 0.99586104E+03</pdfrwt>
<pdfrwt beam="2">  1       -2 0.90956738E-01 0.99586104E+03</pdfrwt>
<totfact> 0.84848492E-01</totfact>
</mgrwt>
</event>
<event>
 4    5  0.6615028E-008  0.9525134E+03  0.7818608E-02  0.9446507E-01
          2   -1    0    0  501    0  0.00000000000E+00  0.00000000000E+00  0.98954602993E+03  0.98954602993E+03  0.25500000000E-02 0. -1.
         -2   -1    0    0    0  501 -0.00000000000E+00 -0.00000000000E+00 -0.11226497083E+04  0.11226497083E+04  0.25500000000E-02 0.  1.
    8880023    1    1    2    0    0  0.65388001808E+03 -0.21427206817E+03  0.57536425176E+03  0.11128008922E+04  0.65864270000E+03 0.  0.
    8880022    1    1    2    0    0 -0.65388001808E+03  0.21427206817E+03 -0.70846793015E+03  0.99939484605E+03  0.15294330000E+03 0.  0.
<mgrwt>
<rscale>  0 0.88345195E+03</rscale>
<asrwt>0</asrwt>
<pdfrwt beam="1">  1        2 0.15223785E+00 0.95251341E+03</pdfrwt>
<pdfrwt beam="2">  1       -2 0.17271534E+00 0.95251341E+03</pdfrwt>
<totfact> 0.51957644E+00</totfact>
</mgrwt>
</event>
<event>
 4    5  0.6615028E-008  0.7320538E+03  0.7818608E-02  0.9883729E-01
         -2   -1    0    0    0  501 -0.00000000000E+00  0.00000000000E+00  0.25785152312E+03  0.25785152313E+03  0.25500000000E-02 0.  1.
          2   -1    0    0  501    0  0.00000000000E+00 -0.00000000000E+00 -0.26224669569E+04  0.26224669569E+04  0.25500000000E-02 0. -1.
    8880023    1    1    2    0    0 -0.28936240948E+03 -0.13550608712E+03 -0.24140888196E+04  0.25226429670E+04  0.65864270000E+03 0. -1.
    8880022    1    1    2    0    0  0.28936240948E+03  0.13550608712E+03  0.49473385881E+02  0.35767551299E+03  0.15294330000E+03 0.  0.
<mgrwt>
<rscale>  0 0.61056351E+03</rscale>
<asrwt>0</asrwt>
<pdfrwt beam="1">  1        2 0.40345644E+00 0.73205376E+03</pdfrwt>
<pdfrwt beam="2">  1       -2 0.39669467E-01 0.73205376E+03</pdfrwt>
<totfact> 0.18671151E+01</totfact>
</mgrwt>
</event>
<event>
 4    5  0.6615028E-008  0.7577376E+03  0.7818608E-02  0.9811000E-01
          2   -1    0    0  501    0  0.00000000000E+00  0.00000000000E+00  0.36069327911E+04  0.36069327911E+04  0.25500000000E-02 0. -1.
         -2   -1    0    0    0  501 -0.00000000000E+00 -0.00000000000E+00 -0.20279991558E+03  0.20279991560E+03  0.25500000000E-02 0.  1.
    8880023    1    1    2    0    0  0.36327981430E+03  0.91563709836E+02  0.33081852699E+04  0.33938556425E+04  0.65864270000E+03 0.  0.
    8880022    1    1    2    0    0 -0.36327981430E+03 -0.91563709836E+02  0.95947605644E+02  0.41587706414E+03  0.15294330000E+03 0.  0.
<mgrwt>
<rscale>  0 0.64775546E+03</rscale>
<asrwt>0</asrwt>
<pdfrwt beam="1">  1        2 0.55491274E+00 0.75773765E+03</pdfrwt>
<pdfrwt beam="2">  1       -2 0.31199987E-01 0.75773765E+03</pdfrwt>
<totfact> 0.70485527E+00</totfact>
</mgrwt>
</event>
<event>
 4    5  0.6615028E-008  0.1213142E+04  0.7818608E-02  0.9144452E-01
          2   -1    0    0  501    0  0.00000000000E+00  0.00000000000E+00  0.25552747342E+04  0.25552747342E+04  0.25500000000E-02 0. -1.
         -2   -1    0    0    0  501 -0.00000000000E+00 -0.00000000000E+00 -0.88777271258E+03  0.88777271258E+03  0.25500000000E-02 0.  1.
    8880023    1    1    2    0    0 -0.23606200515E+03 -0.99104869980E+03 -0.27531928434E+03  0.12439910411E+04  0.65864270000E+03 0.  0.
    8880022    1    1    2    0    0  0.23606200515E+03  0.99104869980E+03  0.19428213060E+04  0.21990564058E+04  0.15294330000E+03 0.  0.
<mgrwt>
<rscale>  0 0.11645635E+04</rscale>
<asrwt>0</asrwt>
<pdfrwt beam="1">  1        2 0.39311918E+00 0.12131418E+04</pdfrwt>
<pdfrwt beam="2">  1       -2 0.13658042E+00 0.12131418E+04</pdfrwt>
<totfact> 0.12105379E+00</totfact>
</mgrwt>
</event>
<event>
 4    5  0.6615028E-008  0.1098843E+04  0.7818608E-02  0.9262345E-01
         -2   -1    0    0    0  501 -0.00000000000E+00  0.00000000000E+00  0.58486204122E+03  0.58486204122E+03  0.25500000000E-02 0.  1.
          2   -1    0    0  501    0  0.00000000000E+00 -0.00000000000E+00 -0.20342139076E+04  0.20342139076E+04  0.25500000000E-02 0. -1.
    8880023    1    1    2    0    0 -0.85077513119E+03  0.22322080160E+03 -0.13191510783E+04  0.17168621447E+04  0.65864270000E+03 0. -1.
    8880022    1    1    2    0    0  0.85077513119E+03 -0.22322080160E+03 -0.13020078803E+03  0.90221380412E+03  0.15294330000E+03 0.  0.
<mgrwt>
<rscale>  0 0.10432457E+04</rscale>
<asrwt>0</asrwt>
<pdfrwt beam="1">  1        2 0.31295598E+00 0.10988431E+04</pdfrwt>
<pdfrwt beam="2">  1       -2 0.89978777E-01 0.10988431E+04</pdfrwt>
<totfact> 0.66986751E+00</totfact>
</mgrwt>
</event>
<event>
 4    5  0.6615028E-008  0.6821845E+03  0.7818608E-02  0.1008114E+00
         -2   -1    0    0    0  501 -0.00000000000E+00  0.00000000000E+00  0.39591100880E+03  0.39591100881E+03  0.25500000000E-02 0.  1.
          2   -1    0    0  501    0  0.00000000000E+00 -0.00000000000E+00 -0.11378482606E+04  0.11378482606E+04  0.25500000000E-02 0. -1.
    8880023    1    1    2    0    0 -0.12788835497E+03 -0.12332926323E+03 -0.98363731399E+03  0.11970455757E+04  0.65864270000E+03 0. -1.
    8880022    1    1    2    0    0  0.12788835497E+03  0.12332926323E+03  0.24170006216E+03  0.33671369377E+03  0.15294330000E+03 0.  0.
<mgrwt>
<rscale>  0 0.52231136E+03</rscale>
<asrwt>0</asrwt>
<pdfrwt beam="1">  1        2 0.17505358E+00 0.68218454E+03</pdfrwt>
<pdfrwt beam="2">  1       -2 0.60909386E-01 0.68218454E+03</pdfrwt>
<totfact> 0.53021110E+01</totfact>
</mgrwt>
</event>
<event>
 4    5  0.6615028E-008  0.6860616E+03  0.7818608E-02  0.1006084E+00
         -2   -1    0    0    0  501 -0.00000000000E+00  0.00000000000E+00  0.62884016180E+03  0.62884016180E+03  0.25500000000E-02 0.  1.
          2   -1    0    0  501    0  0.00000000000E+00 -0.00000000000E+00 -0.91479058848E+03  0.91479058848E+03  0.25500000000E-02 0. -1.
    8880023    1    1    2    0    0  0.17185981871E+02  0.19124566931E+03 -0.75135354763E+03  0.10174539910E+04  0.65864270000E+03 0. -1.
    8880022    1    1    2    0    0 -0.17185981871E+02 -0.19124566931E+03  0.46540312095E+03  0.52617675928E+03  0.15294330000E+03 0.  0.
<mgrwt>
<rscale>  0 0.53061275E+03</rscale>
<asrwt>0</asrwt>
<pdfrwt beam="1">  1        2 0.14073701E+00 0.68606156E+03</pdfrwt>
<pdfrwt beam="2">  1       -2 0.96744639E-01 0.68606156E+03</pdfrwt>
<totfact> 0.26152413E+01</totfact>
</mgrwt>
</event>
<event>
 4    5  0.6615028E-008  0.7438484E+03  0.7818608E-02  0.9848876E-01
         -2   -1    0    0    0  501 -0.00000000000E+00  0.00000000000E+00  0.82826764314E+03  0.82826764315E+03  0.25500000000E-02 0.  1.
          2   -1    0    0  501    0  0.00000000000E+00 -0.00000000000E+00 -0.64118930632E+03  0.64118930633E+03  0.25500000000E-02 0. -1.
    8880023    1    1    2    0    0 -0.76103353768E+02  0.33720685466E+03 -0.34241508105E+03  0.81887635042E+03  0.65864270000E+03 0. -1.
    8880022    1    1    2    0    0  0.76103353768E+02 -0.33720685466E+03  0.52949341787E+03  0.65058059906E+03  0.15294330000E+03 0.  0.
<mgrwt>
<rscale>  0 0.62804279E+03</rscale>
<asrwt>0</asrwt>
<pdfrwt beam="1">  1        2 0.98644508E-01 0.74384836E+03</pdfrwt>
<pdfrwt beam="2">  1       -2 0.12742579E+00 0.74384836E+03</pdfrwt>
<totfact> 0.21184424E+01</totfact>
</mgrwt>
</event>
<event>
 4    5  0.6615028E-008  0.8792194E+03  0.7818608E-02  0.9560250E-01
         -2   -1    0    0    0  501 -0.00000000000E+00  0.00000000000E+00  0.12363726424E+04  0.12363726424E+04  0.25500000000E-02 0.  1.
          2   -1    0    0  501    0  0.00000000000E+00 -0.00000000000E+00 -0.15835306235E+04  0.15835306235E+04  0.25500000000E-02 0. -1.
    8880023    1    1    2    0    0 -0.39132513578E+03  0.43137129459E+03 -0.13729983413E+04  0.16303837607E+04  0.65864270000E+03 0. -1.
    8880022    1    1    2    0    0  0.39132513578E+03 -0.43137129459E+03  0.10258403601E+04  0.11895195052E+04  0.15294330000E+03 0.  0.
<mgrwt>
<rscale>  0 0.79983914E+03</rscale>
<asrwt>0</asrwt>
<pdfrwt beam="1">  1        2 0.24362010E+00 0.87921940E+03</pdfrwt>
<pdfrwt beam="2">  1       -2 0.19021117E+00 0.87921940E+03</pdfrwt>
<totfact> 0.17789718E+00</totfact>
</mgrwt>
</event>
<event>
 4    5  0.6615028E-008  0.1189818E+04  0.7818608E-02  0.9167084E-01
          2   -1    0    0  501    0  0.00000000000E+00  0.00000000000E+00  0.24253940928E+04  0.24253940928E+04  0.25500000000E-02 0. -1.
         -2   -1    0    0    0  501 -0.00000000000E+00 -0.00000000000E+00 -0.56721020156E+03  0.56721020157E+03  0.25500000000E-02 0.  1.
    8880023    1    1    2    0    0  0.38518116784E+03  0.91295805988E+03  0.46792078799E+03  0.12785214199E+04  0.65864270000E+03 0.  0.
    8880022    1    1    2    0    0 -0.38518116784E+03 -0.91295805988E+03  0.13902631032E+04  0.17140828744E+04  0.15294330000E+03 0.  0.
<mgrwt>
<rscale>  0 0.11399731E+04</rscale>
<asrwt>0</asrwt>
<pdfrwt beam="1">  1        2 0.37313755E+00 0.11898181E+04</pdfrwt>
<pdfrwt beam="2">  1       -2 0.87263109E-01 0.11898181E+04</pdfrwt>
<totfact> 0.42984624E+00</totfact>
</mgrwt>
</event>
<event>
 4    5  0.6615028E-008  0.6674674E+03  0.7818608E-02  0.1017547E+00
          2   -1    0    0  501    0  0.00000000000E+00  0.00000000000E+00  0.10257180570E+04  0.10257180570E+04  0.25500000000E-02 0. -1.
         -2   -1    0    0    0  501 -0.00000000000E+00 -0.00000000000E+00 -0.31100428872E+03  0.31100428873E+03  0.25500000000E-02 0.  1.
    8880023    1    1    2    0    0  0.60398343362E+02  0.89747181192E+02  0.86779463546E+03  0.10947968999E+04  0.65864270000E+03 0. -1.
    8880022    1    1    2    0    0 -0.60398343362E+02 -0.89747181192E+02 -0.15308086720E+03  0.24192544581E+03  0.15294330000E+03 0.  0.
<mgrwt>
<rscale>  0 0.48582170E+03</rscale>
<asrwt>0</asrwt>
<pdfrwt beam="1">  1        2 0.15780278E+00 0.66746739E+03</pdfrwt>
<pdfrwt beam="2">  1       -2 0.47846813E-01 0.66746739E+03</pdfrwt>
<totfact> 0.10240258E+02</totfact>
</mgrwt>
</event>
<event>
 4    5  0.6615028E-008  0.9206982E+03  0.7818608E-02  0.9493589E-01
          2   -1    0    0  501    0  0.00000000000E+00  0.00000000000E+00  0.33950385491E+04  0.33950385491E+04  0.25500000000E-02 0. -1.
         -2   -1    0    0    0  501 -0.00000000000E+00 -0.00000000000E+00 -0.29965116309E+03  0.29965116310E+03  0.25500000000E-02 0.  1.
    8880023    1    1    2    0    0 -0.57776497741E+03  0.28295342857E+03  0.56705091826E+03  0.10813102987E+04  0.65864270000E+03 0.  0.
    8880022    1    1    2    0    0  0.57776497741E+03 -0.28295342857E+03  0.25283364678E+04  0.26133794135E+04  0.15294330000E+03 0.  0.
<mgrwt>
<rscale>  0 0.84758112E+03</rscale>
<asrwt>0</asrwt>
<pdfrwt beam="1">  1        2 0.52231361E+00 0.92069822E+03</pdfrwt>
<pdfrwt beam="2">  1       -2 0.46100180E-01 0.92069822E+03</pdfrwt>
<totfact> 0.44884714E+00</totfact>
</mgrwt>
</event>
<event>
 4    5  0.6615028E-008  0.9460649E+03  0.7818608E-02  0.9455799E-01
          2   -1    0    0  501    0  0.00000000000E+00  0.00000000000E+00  0.18174565550E+04  0.18174565550E+04  0.25500000000E-02 0. -1.
         -2   -1    0    0    0  501 -0.00000000000E+00 -0.00000000000E+00 -0.97383401896E+03  0.97383401896E+03  0.25500000000E-02 0.  1.
    8880023    1    1    2    0    0 -0.49738729063E+03  0.46242249273E+03  0.15395142694E+04  0.18069706889E+04  0.65864270000E+03 0.  0.
    8880022    1    1    2    0    0  0.49738729063E+03 -0.46242249273E+03 -0.69589173331E+03  0.98431988509E+03  0.15294330000E+03 0.  0.
<mgrwt>
<rscale>  0 0.87622556E+03</rscale>
<asrwt>0</asrwt>
<pdfrwt beam="1">  1        2 0.27960870E+00 0.94606495E+03</pdfrwt>
<pdfrwt beam="2">  1       -2 0.14982062E+00 0.94606495E+03</pdfrwt>
<totfact> 0.25431847E+00</totfact>
</mgrwt>
</event>
<event>
 4    5  0.6615028E-008  0.9655102E+03  0.7818608E-02  0.9428141E-01
          2   -1    0    0  501    0  0.00000000000E+00  0.00000000000E+00  0.81458574418E+03  0.81458574419E+03  0.25500000000E-02 0. -1.
         -2   -1    0    0    0  501 -0.00000000000E+00 -0.00000000000E+00 -0.12487362511E+04  0.12487362511E+04  0.25500000000E-02 0.  1.
    8880023    1    1    2    0    0  0.57232917261E+03  0.41332672253E+03  0.32180903562E+03  0.10177283149E+04  0.65864270000E+03 0.  0.
    8880022    1    1    2    0    0 -0.57232917261E+03 -0.41332672253E+03 -0.75595954249E+03  0.10455936803E+04  0.15294330000E+03 0.  0.
<mgrwt>
<rscale>  0 0.89795535E+03</rscale>
<asrwt>0</asrwt>
<pdfrwt beam="1">  1        2 0.12532088E+00 0.96551016E+03</pdfrwt>
<pdfrwt beam="2">  1       -2 0.19211327E+00 0.96551016E+03</pdfrwt>
<totfact> 0.50232896E+00</totfact>
</mgrwt>
</event>
<event>
 4    5  0.7025380E-008  0.9266265E+03  0.7818608E-02  0.9484572E-01
          2   -1    0    0  501    0  0.00000000000E+00  0.00000000000E+00  0.19815660253E+04  0.19815660253E+04  0.25500000000E-02 0. -1.
         -2   -1    0    0    0  501 -0.00000000000E+00 -0.00000000000E+00 -0.90987859844E+03  0.90987859845E+03  0.25500000000E-02 0.  1.
    8880023    1    1    2    0    0 -0.62572148366E+03 -0.18248025066E+03  0.17236600163E+04  0.19569467226E+04  0.65864270000E+03 0. -1.
    8880022    1    1    2    0    0  0.62572148366E+03  0.18248025066E+03 -0.65197258940E+03  0.93449790120E+03  0.15294330000E+03 0.  0.
<mgrwt>
<rscale>  0 0.85430844E+03</rscale>
<asrwt>0</asrwt>
<pdfrwt beam="1">  1        2 0.30485631E+00 0.92662647E+03</pdfrwt>
<pdfrwt beam="2">  1       -2 0.13998132E+00 0.92662647E+03</pdfrwt>
<totfact> 0.24773364E+00</totfact>
</mgrwt>
</event>
<event>
 4    5  0.6615028E-008  0.7044070E+03  0.7818608E-02  0.9979388E-01
         -2   -1    0    0    0  501 -0.00000000000E+00  0.00000000000E+00  0.11616431542E+04  0.11616431542E+04  0.25500000000E-02 0.  1.
          2   -1    0    0  501    0  0.00000000000E+00 -0.00000000000E+00 -0.16211635648E+04  0.16211635648E+04  0.25500000000E-02 0. -1.
    8880023    1    1    2    0    0 -0.22727470196E+03 -0.10356276205E+03 -0.15239233214E+04  0.16788482754E+04  0.65864270000E+03 0. -1.
    8880022    1    1    2    0    0  0.22727470196E+03  0.10356276205E+03  0.10644029108E+04  0.11039584437E+04  0.15294330000E+03 0.  0.
<mgrwt>
<rscale>  0 0.56563349E+03</rscale>
<asrwt>0</asrwt>
<pdfrwt beam="1">  1        2 0.24940978E+00 0.70440701E+03</pdfrwt>
<pdfrwt beam="2">  1       -2 0.17871433E+00 0.70440701E+03</pdfrwt>
<totfact> 0.20897985E+00</totfact>
</mgrwt>
</event>
<event>
 4    5  0.6615028E-008  0.8963975E+03  0.7818608E-02  0.9531840E-01
          2   -1    0    0  501    0  0.00000000000E+00  0.00000000000E+00  0.41517637041E+04  0.41517637041E+04  0.25500000000E-02 0. -1.
         -2   -1    0    0    0  501 -0.00000000000E+00 -0.00000000000E+00 -0.19778652228E+03  0.19778652229E+03  0.25500000000E-02 0.  1.
    8880023    1    1    2    0    0  0.57282428218E+03 -0.20393789094E+03  0.33890691740E+04  0.35056124136E+04  0.65864270000E+03 0.  0.
    8880022    1    1    2    0    0 -0.57282428218E+03  0.20393789094E+03  0.56490800778E+03  0.84393781281E+03  0.15294330000E+03 0.  0.
<mgrwt>
<rscale>  0 0.81976570E+03</rscale>
<asrwt>0</asrwt>
<pdfrwt beam="1">  1        2 0.63873288E+00 0.89639753E+03</pdfrwt>
<pdfrwt beam="2">  1       -2 0.30428696E-01 0.89639753E+03</pdfrwt>
<totfact> 0.27598569E+00</totfact>
</mgrwt>
</event>
<event>
 4    5  0.6615028E-008  0.1029383E+04  0.7818608E-02  0.9344087E-01
         -2   -1    0    0    0  501 -0.00000000000E+00  0.00000000000E+00  0.35091251920E+03  0.35091251921E+03  0.25500000000E-02 0.  1.
          2   -1    0    0  501    0  0.00000000000E+00 -0.00000000000E+00 -0.24829842334E+04  0.24829842334E+04  0.25500000000E-02 0. -1.
    8880023    1    1    2    0    0  0.29624057067E+02  0.79053181008E+03 -0.14499580778E+04  0.17782032396E+04  0.65864270000E+03 0.  0.
    8880022    1    1    2    0    0 -0.29624057067E+02 -0.79053181008E+03 -0.68211363634E+03  0.10556935130E+04  0.15294330000E+03 0.  0.
<mgrwt>
<rscale>  0 0.96823487E+03</rscale>
<asrwt>0</asrwt>
<pdfrwt beam="1">  1        2 0.38199756E+00 0.10293825E+04</pdfrwt>
<pdfrwt beam="2">  1       -2 0.53986543E-01 0.10293825E+04</pdfrwt>
<totfact> 0.11601706E+01</totfact>
</mgrwt>
</event>
<event>
 4    5  0.6615028E-008  0.7905913E+03  0.7818608E-02  0.9731521E-01
          2   -1    0    0  501    0  0.00000000000E+00  0.00000000000E+00  0.25949755111E+04  0.25949755111E+04  0.25500000000E-02 0. -1.
         -2   -1    0    0    0  501 -0.00000000000E+00 -0.00000000000E+00 -0.36789859890E+03  0.36789859891E+03  0.25500000000E-02 0.  1.
    8880023    1    1    2    0    0 -0.35230143805E+03 -0.25905229305E+03  0.23534399238E+04  0.24826828382E+04  0.65864270000E+03 0. -1.
    8880022    1    1    2    0    0  0.35230143805E+03  0.25905229305E+03 -0.12636301164E+03  0.48019127180E+03  0.15294330000E+03 0.  0.
<mgrwt>
<rscale>  0 0.69170640E+03</rscale>
<asrwt>0</asrwt>
<pdfrwt beam="1">  1        2 0.39922699E+00 0.79059130E+03</pdfrwt>
<pdfrwt beam="2">  1       -2 0.56599787E-01 0.79059130E+03</pdfrwt>
<totfact> 0.93708356E+00</totfact>
</mgrwt>
</event>
<event>
 4    5  0.6615028E-008  0.9684141E+03  0.7818608E-02  0.9424101E-01
         -2   -1    0    0    0  501 -0.00000000000E+00  0.00000000000E+00  0.57463085500E+03  0.57463085501E+03  0.25500000000E-02 0.  1.
          2   -1    0    0  501    0  0.00000000000E+00 -0.00000000000E+00 -0.22451821511E+04  0.22451821511E+04  0.25500000000E-02 0. -1.
    8880023    1    1    2    0    0 -0.67104481215E+03  0.23176395070E+03 -0.18353047529E+04  0.20751311793E+04  0.65864270000E+03 0. -1.
    8880022    1    1    2    0    0  0.67104481215E+03 -0.23176395070E+03  0.16475345680E+03  0.74468182688E+03  0.15294330000E+03 0.  0.
<mgrwt>
<rscale>  0 0.90118530E+03</rscale>
<asrwt>0</asrwt>
<pdfrwt beam="1">  1        2 0.34541264E+00 0.96841410E+03</pdfrwt>
<pdfrwt beam="2">  1       -2 0.88404748E-01 0.96841410E+03</pdfrwt>
<totfact> 0.54118015E+00</totfact>
</mgrwt>
</event>
<event>
 4    5  0.6615028E-008  0.1125185E+04  0.7818608E-02  0.9233521E-01
          2   -1    0    0  501    0  0.00000000000E+00  0.00000000000E+00  0.18141455173E+04  0.18141455173E+04  0.25500000000E-02 0. -1.
         -2   -1    0    0    0  501 -0.00000000000E+00 -0.00000000000E+00 -0.16101112503E+04  0.16101112503E+04  0.25500000000E-02 0.  1.
    8880023    1    1    2    0    0  0.74141296154E+03 -0.53154276266E+03  0.14732223443E+04  0.18537597390E+04  0.65864270000E+03 0. -1.
    8880022    1    1    2    0    0 -0.74141296154E+03  0.53154276266E+03 -0.12691880773E+04  0.15704970285E+04  0.15294330000E+03 0.  0.
<mgrwt>
<rscale>  0 0.10714039E+04</rscale>
<asrwt>0</asrwt>
<pdfrwt beam="1">  1        2 0.27909931E+00 0.11251849E+04</pdfrwt>
<pdfrwt beam="2">  1       -2 0.24770942E+00 0.11251849E+04</pdfrwt>
<totfact> 0.55243676E-01</totfact>
</mgrwt>
</event>
<event>
 4    5  0.6615028E-008  0.1661312E+04  0.7818608E-02  0.8803401E-01
          2   -1    0    0  501    0  0.00000000000E+00  0.00000000000E+00  0.12771843142E+04  0.12771843142E+04  0.25500000000E-02 0. -1.
         -2   -1    0    0    0  501 -0.00000000000E+00 -0.00000000000E+00 -0.27015887784E+04  0.27015887784E+04  0.25500000000E-02 0.  1.
    8880023    1    1    2    0    0  0.25135695613E+03  0.15043158076E+04  0.28192653384E+03  0.16850635434E+04  0.65864270000E+03 0.  0.
    8880022    1    1    2    0    0 -0.25135695613E+03 -0.15043158076E+04 -0.17063309980E+04  0.22937095492E+04  0.15294330000E+03 0.  0.
<mgrwt>
<rscale>  0 0.16282128E+04</rscale>
<asrwt>0</asrwt>
<pdfrwt beam="1">  1        2 0.19648989E+00 0.16613117E+04</pdfrwt>
<pdfrwt beam="2">  1       -2 0.41562904E+00 0.16613117E+04</pdfrwt>
<totfact> 0.92687396E-02</totfact>
</mgrwt>
</event>
<event>
 4    5  0.6615028E-008  0.1388129E+04  0.7818608E-02  0.8992962E-01
         -2   -1    0    0    0  501 -0.00000000000E+00  0.00000000000E+00  0.25452569127E+04  0.25452569127E+04  0.25500000000E-02 0.  1.
          2   -1    0    0  501    0  0.00000000000E+00 -0.00000000000E+00 -0.14105775322E+04  0.14105775322E+04  0.25500000000E-02 0. -1.
    8880023    1    1    2    0    0  0.20545293154E+03  0.12045254532E+04 -0.84448928947E+03  0.16248276342E+04  0.65864270000E+03 0.  0.
    8880022    1    1    2    0    0 -0.20545293154E+03 -0.12045254532E+04  0.19791686700E+04  0.23310068107E+04  0.15294330000E+03 0.  0.
<mgrwt>
<rscale>  0 0.13471847E+04</rscale>
<asrwt>0</asrwt>
<pdfrwt beam="1">  1        2 0.21701193E+00 0.13881292E+04</pdfrwt>
<pdfrwt beam="2">  1       -2 0.39157798E+00 0.13881292E+04</pdfrwt>
<totfact> 0.11506235E-01</totfact>
</mgrwt>
</event>
<event>
 4    5  0.6615028E-008  0.1065619E+04  0.7818608E-02  0.9300337E-01
          2   -1    0    0  501    0  0.00000000000E+00  0.00000000000E+00  0.71554365504E+03  0.71554365504E+03  0.25500000000E-02 0. -1.
         -2   -1    0    0    0  501 -0.00000000000E+00 -0.00000000000E+00 -0.25814699092E+04  0.25814699092E+04  0.25500000000E-02 0.  1.
    8880023    1    1    2    0    0  0.74037081462E+03  0.39189807268E+03  0.18021607359E+03  0.10807502403E+04  0.65864270000E+03 0. -1.
    8880022    1    1    2    0    0 -0.74037081462E+03 -0.39189807268E+03 -0.20461423277E+04  0.22162633239E+04  0.15294330000E+03 0.  0.
<mgrwt>
<rscale>  0 0.10075184E+04</rscale>
<asrwt>0</asrwt>
<pdfrwt beam="1">  1        2 0.11008364E+00 0.10656187E+04</pdfrwt>
<pdfrwt beam="2">  1       -2 0.39714921E+00 0.10656187E+04</pdfrwt>
<totfact> 0.31113103E-01</totfact>
</mgrwt>
</event>
<event>
 4    5  0.6615028E-008  0.1536412E+04  0.7818608E-02  0.8884343E-01
          2   -1    0    0  501    0  0.00000000000E+00  0.00000000000E+00  0.23710383970E+04  0.23710383970E+04  0.25500000000E-02 0. -1.
         -2   -1    0    0    0  501 -0.00000000000E+00 -0.00000000000E+00 -0.99647839384E+03  0.99647839385E+03  0.25500000000E-02 0.  1.
    8880023    1    1    2    0    0  0.13336339273E+04  0.38493246576E+03  0.12212422938E+04  0.19626500966E+04  0.65864270000E+03 0. -1.
    8880022    1    1    2    0    0 -0.13336339273E+04 -0.38493246576E+03  0.15331770928E+03  0.14048666942E+04  0.15294330000E+03 0.  0.
<mgrwt>
<rscale>  0 0.15001655E+04</rscale>
<asrwt>0</asrwt>
<pdfrwt beam="1">  1        2 0.36477514E+00 0.15364123E+04</pdfrwt>
<pdfrwt beam="2">  1       -2 0.15330437E+00 0.15364123E+04</pdfrwt>
<totfact> 0.10984861E+00</totfact>
</mgrwt>
</event>
<event>
 4    5  0.6615028E-008  0.1339702E+04  0.7818608E-02  0.9032011E-01
          2   -1    0    0  501    0  0.00000000000E+00  0.00000000000E+00  0.19837527277E+04  0.19837527277E+04  0.25500000000E-02 0. -1.
         -2   -1    0    0    0  501 -0.00000000000E+00 -0.00000000000E+00 -0.90045835751E+03  0.90045835752E+03  0.25500000000E-02 0.  1.
    8880023    1    1    2    0    0  0.82654908273E+02 -0.11636834468E+04  0.10584155167E+04  0.17073501722E+04  0.65864270000E+03 0.  0.
    8880022    1    1    2    0    0 -0.82654908273E+02  0.11636834468E+04  0.24878853438E+02  0.11768609130E+04  0.15294330000E+03 0.  0.
<mgrwt>
<rscale>  0 0.12969199E+04</rscale>
<asrwt>0</asrwt>
<pdfrwt beam="1">  1        2 0.30519273E+00 0.13397019E+04</pdfrwt>
<pdfrwt beam="2">  1       -2 0.13853205E+00 0.13397019E+04</pdfrwt>
<totfact> 0.24182577E+00</totfact>
</mgrwt>
</event>
<event>
 4    5  0.6615028E-008  0.9465554E+03  0.7818608E-02  0.9455088E-01
         -2   -1    0    0    0  501 -0.00000000000E+00  0.00000000000E+00  0.12072462603E+04  0.12072462603E+04  0.25500000000E-02 0.  1.
          2   -1    0    0  501    0  0.00000000000E+00 -0.00000000000E+00 -0.96797975143E+03  0.96797975143E+03  0.25500000000E-02 0. -1.
    8880023    1    1    2    0    0  0.38719584865E+03 -0.55878108405E+03 -0.57186233101E+03  0.11058904363E+04  0.65864270000E+03 0.  0.
    8880022    1    1    2    0    0 -0.38719584865E+03  0.55878108405E+03  0.81112883993E+03  0.10693355755E+04  0.15294330000E+03 0.  0.
<mgrwt>
<rscale>  0 0.87677592E+03</rscale>
<asrwt>0</asrwt>
<pdfrwt beam="1">  1        2 0.14891996E+00 0.94655540E+03</pdfrwt>
<pdfrwt beam="2">  1       -2 0.18573019E+00 0.94655540E+03</pdfrwt>
<totfact> 0.43646725E+00</totfact>
</mgrwt>
</event>
<event>
 4    5  0.6615028E-008  0.7474154E+03  0.7818608E-02  0.9838850E-01
          2   -1    0    0  501    0  0.00000000000E+00  0.00000000000E+00  0.80033197892E+03  0.80033197892E+03  0.25500000000E-02 0. -1.
         -2   -1    0    0    0  501 -0.00000000000E+00 -0.00000000000E+00 -0.76609156291E+03  0.76609156291E+03  0.25500000000E-02 0.  1.
    8880023    1    1    2    0    0 -0.33716696145E+03  0.10553655132E+03  0.54630259749E+03  0.92578413134E+03  0.65864270000E+03 0. -1.
    8880022    1    1    2    0    0  0.33716696145E+03 -0.10553655132E+03 -0.51206218148E+03  0.64063941049E+03  0.15294330000E+03 0.  0.
<mgrwt>
<rscale>  0 0.63318648E+03</rscale>
<asrwt>0</asrwt>
<pdfrwt beam="1">  1        2 0.12312800E+00 0.74741537E+03</pdfrwt>
<pdfrwt beam="2">  1       -2 0.11786024E+00 0.74741537E+03</pdfrwt>
<totfact> 0.19398262E+01</totfact>
</mgrwt>
</event>
<event>
 4    5  0.6615028E-008  0.1271424E+04  0.7818608E-02  0.9090639E-01
          2   -1    0    0  501    0  0.00000000000E+00  0.00000000000E+00  0.12685065909E+04  0.12685065909E+04  0.25500000000E-02 0. -1.
         -2   -1    0    0    0  501 -0.00000000000E+00 -0.00000000000E+00 -0.13927102035E+04  0.13927102035E+04  0.25500000000E-02 0.  1.
    8880023    1    1    2    0    0 -0.53011482631E+03 -0.94957162327E+03  0.53603970791E+03  0.13798031640E+04  0.65864270000E+03 0. -1.
    8880022    1    1    2    0    0  0.53011482631E+03  0.94957162327E+03 -0.66024332052E+03  0.12814136304E+04  0.15294330000E+03 0.  0.
<mgrwt>
<rscale>  0 0.12257182E+04</rscale>
<asrwt>0</asrwt>
<pdfrwt beam="1">  1        2 0.19515486E+00 0.12714237E+04</pdfrwt>
<pdfrwt beam="2">  1       -2 0.21426311E+00 0.12714237E+04</pdfrwt>
<totfact> 0.17873202E+00</totfact>
</mgrwt>
</event>
<event>
 4    5  0.6615028E-008  0.1002686E+04  0.7818608E-02  0.9378052E-01
          2   -1    0    0  501    0  0.00000000000E+00  0.00000000000E+00  0.12359868815E+04  0.12359868815E+04  0.25500000000E-02 0. -1.
         -2   -1    0    0    0  501 -0.00000000000E+00 -0.00000000000E+00 -0.10884165785E+04  0.10884165785E+04  0.25500000000E-02 0.  1.
    8880023    1    1    2    0    0 -0.74747319639E+03  0.11337145249E+03  0.82450461416E+03  0.12981476536E+04  0.65864270000E+03 0. -1.
    8880022    1    1    2    0    0  0.74747319639E+03 -0.11337145249E+03 -0.67693431119E+03  0.10262558064E+04  0.15294330000E+03 0.  0.
<mgrwt>
<rscale>  0 0.93904155E+03</rscale>
<asrwt>0</asrwt>
<pdfrwt beam="1">  1        2 0.19015183E+00 0.10026861E+04</pdfrwt>
<pdfrwt beam="2">  1       -2 0.16744870E+00 0.10026861E+04</pdfrwt>
<totfact> 0.39715131E+00</totfact>
</mgrwt>
</event>
<event>
 4    5  0.6615028E-008  0.6752732E+03  0.7818608E-02  0.1012135E+00
         -2   -1    0    0    0  501 -0.00000000000E+00  0.00000000000E+00  0.36896657299E+03  0.36896657299E+03  0.25500000000E-02 0.  1.
          2   -1    0    0  501    0  0.00000000000E+00 -0.00000000000E+00 -0.24143879423E+04  0.24143879423E+04  0.25500000000E-02 0. -1.
    8880023    1    1    2    0    0  0.12755232140E+03  0.76903362032E+02 -0.23309774662E+04  0.24268188800E+04  0.65864270000E+03 0. -1.
    8880022    1    1    2    0    0 -0.12755232140E+03 -0.76903362032E+02  0.28555609690E+03  0.35653563535E+03  0.15294330000E+03 0.  0.
<mgrwt>
<rscale>  0 0.50635013E+03</rscale>
<asrwt>0</asrwt>
<pdfrwt beam="1">  1        2 0.37144429E+00 0.67527322E+03</pdfrwt>
<pdfrwt beam="2">  1       -2 0.56764090E-01 0.67527322E+03</pdfrwt>
<totfact> 0.12023674E+01</totfact>
</mgrwt>
</event>
<event>
 4    5  0.6615028E-008  0.1068167E+04  0.7818608E-02  0.9297355E-01
         -2   -1    0    0    0  501 -0.00000000000E+00  0.00000000000E+00  0.14016270740E+04  0.14016270740E+04  0.25500000000E-02 0.  1.
          2   -1    0    0  501    0  0.00000000000E+00 -0.00000000000E+00 -0.17575313533E+04  0.17575313533E+04  0.25500000000E-02 0. -1.
    8880023    1    1    2    0    0  0.55819855078E+01  0.84091536094E+03 -0.14309961120E+04  0.17857015097E+04  0.65864270000E+03 0.  0.
    8880022    1    1    2    0    0 -0.55819855078E+01 -0.84091536094E+03  0.10750918327E+04  0.13734569177E+04  0.15294330000E+03 0.  0.
<mgrwt>
<rscale>  0 0.10102674E+04</rscale>
<asrwt>0</asrwt>
<pdfrwt beam="1">  1        2 0.27038944E+00 0.10681667E+04</pdfrwt>
<pdfrwt beam="2">  1       -2 0.21563493E+00 0.10681667E+04</pdfrwt>
<totfact> 0.94759065E-01</totfact>
</mgrwt>
</event>
<event>
 4    5  0.6615028E-008  0.8924043E+03  0.7818608E-02  0.9538337E-01
          2   -1    0    0  501    0  0.00000000000E+00  0.00000000000E+00  0.83699257015E+03  0.83699257016E+03  0.25500000000E-02 0. -1.
         -2   -1    0    0    0  501 -0.00000000000E+00 -0.00000000000E+00 -0.13648389393E+04  0.13648389393E+04  0.25500000000E-02 0.  1.
    8880023    1    1    2    0    0  0.38568394465E+03 -0.46241007119E+03  0.48345544248E+03  0.10149455898E+04  0.65864270000E+03 0.  0.
    8880022    1    1    2    0    0 -0.38568394465E+03  0.46241007119E+03 -0.10113018117E+04  0.11868859197E+04  0.15294330000E+03 0.  0.
<mgrwt>
<rscale>  0 0.81515459E+03</rscale>
<asrwt>0</asrwt>
<pdfrwt beam="1">  1        2 0.12876809E+00 0.89240427E+03</pdfrwt>
<pdfrwt beam="2">  1       -2 0.20997522E+00 0.89240427E+03</pdfrwt>
<totfact> 0.37325722E+00</totfact>
</mgrwt>
</event>
<event>
 4    5  0.6615028E-008  0.1154785E+04  0.7818608E-02  0.9202379E-01
          2   -1    0    0  501    0  0.00000000000E+00  0.00000000000E+00  0.15498873511E+04  0.15498873511E+04  0.25500000000E-02 0. -1.
         -2   -1    0    0    0  501 -0.00000000000E+00 -0.00000000000E+00 -0.13149079322E+04  0.13149079322E+04  0.25500000000E-02 0.  1.
    8880023    1    1    2    0    0 -0.26879827294E+03 -0.90965150318E+03  0.10830934230E+04  0.15832308543E+04  0.65864270000E+03 0.  0.
    8880022    1    1    2    0    0  0.26879827294E+03  0.90965150318E+03 -0.84811400404E+03  0.12815644290E+04  0.15294330000E+03 0.  0.
<mgrwt>
<rscale>  0 0.11028909E+04</rscale>
<asrwt>0</asrwt>
<pdfrwt beam="1">  1        2 0.23844421E+00 0.11547851E+04</pdfrwt>
<pdfrwt beam="2">  1       -2 0.20229353E+00 0.11547851E+04</pdfrwt>
<totfact> 0.14904610E+00</totfact>
</mgrwt>
</event>
<event>
 4    5  0.6615028E-008  0.7551800E+03  0.7818608E-02  0.9817750E-01
          2   -1    0    0  501    0  0.00000000000E+00  0.00000000000E+00  0.35410221338E+04  0.35410221338E+04  0.25500000000E-02 0. -1.
         -2   -1    0    0    0  501 -0.00000000000E+00 -0.00000000000E+00 -0.95949714140E+02  0.95949714174E+02  0.25500000000E-02 0.  1.
    8880023    1    1    2    0    0 -0.11795972722E+03 -0.35010305058E+03  0.20080542666E+04  0.21453621576E+04  0.65864270000E+03 0.  1.
    8880022    1    1    2    0    0  0.11795972722E+03  0.35010305058E+03  0.14370181531E+04  0.14916096904E+04  0.15294330000E+03 0. -1.
<mgrwt>
<rscale>  0 0.64418640E+03</rscale>
<asrwt>0</asrwt>
<pdfrwt beam="1">  1        2 0.54477256E+00 0.75518001E+03</pdfrwt>
<pdfrwt beam="2">  1       -2 0.14761496E-01 0.75518001E+03</pdfrwt>
<totfact> 0.29486043E+01</totfact>
</mgrwt>
</event>
<event>
 4    5  0.6615028E-008  0.8608082E+03  0.7818608E-02  0.9592128E-01
         -2   -1    0    0    0  501 -0.00000000000E+00  0.00000000000E+00  0.36792220530E+03  0.36792220531E+03  0.25500000000E-02 0.  1.
          2   -1    0    0  501    0  0.00000000000E+00 -0.00000000000E+00 -0.17098916276E+04  0.17098916276E+04  0.25500000000E-02 0. -1.
    8880023    1    1    2    0    0 -0.55319701135E+03 -0.33963817456E+02 -0.12149588752E+04  0.14889982367E+04  0.65864270000E+03 0. -1.
    8880022    1    1    2    0    0  0.55319701135E+03  0.33963817456E+02 -0.12701054714E+03  0.58881559623E+03  0.15294330000E+03 0.  0.
<mgrwt>
<rscale>  0 0.77819432E+03</rscale>
<asrwt>0</asrwt>
<pdfrwt beam="1">  1        2 0.26306025E+00 0.86080816E+03</pdfrwt>
<pdfrwt beam="2">  1       -2 0.56603417E-01 0.86080816E+03</pdfrwt>
<totfact> 0.28754406E+01</totfact>
</mgrwt>
</event>
<event>
 4    5  0.6615028E-008  0.9508251E+03  0.7818608E-02  0.9448928E-01
         -2   -1    0    0    0  501 -0.00000000000E+00  0.00000000000E+00  0.14021329596E+04  0.14021329596E+04  0.25500000000E-02 0.  1.
          2   -1    0    0  501    0  0.00000000000E+00 -0.00000000000E+00 -0.16231074783E+04  0.16231074783E+04  0.25500000000E-02 0. -1.
    8880023    1    1    2    0    0 -0.53105469092E+03  0.43386521685E+03 -0.13764455381E+04  0.16729227827E+04  0.65864270000E+03 0. -1.
    8880022    1    1    2    0    0  0.53105469092E+03 -0.43386521685E+03  0.11554710193E+04  0.13523176552E+04  0.15294330000E+03 0.  0.
<mgrwt>
<rscale>  0 0.88156195E+03</rscale>
<asrwt>0</asrwt>
<pdfrwt beam="1">  1        2 0.24970884E+00 0.95082507E+03</pdfrwt>
<pdfrwt beam="2">  1       -2 0.21571276E+00 0.95082507E+03</pdfrwt>
<totfact> 0.11424635E+00</totfact>
</mgrwt>
</event>
<event>
 4    5  0.6615028E-008  0.6842202E+03  0.7818608E-02  0.1007031E+00
          2   -1    0    0  501    0  0.00000000000E+00  0.00000000000E+00  0.95739205077E+03  0.95739205077E+03  0.25500000000E-02 0. -1.
         -2   -1    0    0    0  501 -0.00000000000E+00 -0.00000000000E+00 -0.33943430203E+03  0.33943430204E+03  0.25500000000E-02 0.  1.
    8880023    1    1    2    0    0 -0.16214332322E+03  0.89758719029E+02  0.75604421489E+03  0.10196862979E+04  0.65864270000E+03 0. -1.
    8880022    1    1    2    0    0  0.16214332322E+03 -0.89758719029E+02 -0.13808646615E+03  0.27714005495E+03  0.15294330000E+03 0.  0.
<mgrwt>
<rscale>  0 0.52672063E+03</rscale>
<asrwt>0</asrwt>
<pdfrwt beam="1">  1        2 0.14729109E+00 0.68422021E+03</pdfrwt>
<pdfrwt beam="2">  1       -2 0.52220661E-01 0.68422021E+03</pdfrwt>
<totfact> 0.94655903E+01</totfact>
</mgrwt>
</event>
<event>
 4    5  0.6615028E-008  0.6996985E+03  0.7818608E-02  0.9998454E-01
          2   -1    0    0  501    0  0.00000000000E+00  0.00000000000E+00  0.59038327144E+03  0.59038327144E+03  0.25500000000E-02 0. -1.
         -2   -1    0    0    0  501 -0.00000000000E+00 -0.00000000000E+00 -0.86841044705E+03  0.86841044705E+03  0.25500000000E-02 0.  1.
    8880023    1    1    2    0    0 -0.22527117026E+03  0.70856632882E+02  0.34133963933E+03  0.77851828380E+03  0.65864270000E+03 0. -1.
    8880022    1    1    2    0    0  0.22527117026E+03 -0.70856632882E+02 -0.61936681495E+03  0.68027543469E+03  0.15294330000E+03 0.  0.
<mgrwt>
<rscale>  0 0.55718065E+03</rscale>
<asrwt>0</asrwt>
<pdfrwt beam="1">  1        2 0.90828195E-01 0.69969848E+03</pdfrwt>
<pdfrwt beam="2">  1       -2 0.13360161E+00 0.69969848E+03</pdfrwt>
<totfact> 0.20861026E+01</totfact>
</mgrwt>
</event>
<event>
 4    5  0.6615028E-008  0.1756461E+04  0.7818608E-02  0.8747011E-01
          2   -1    0    0  501    0  0.00000000000E+00  0.00000000000E+00  0.33105844735E+04  0.33105844735E+04  0.25500000000E-02 0. -1.
         -2   -1    0    0    0  501 -0.00000000000E+00 -0.00000000000E+00 -0.14165091161E+04  0.14165091161E+04  0.25500000000E-02 0.  1.
    8880023    1    1    2    0    0 -0.53129742951E+03 -0.15391774695E+04  0.24368677881E+04  0.30039106286E+04  0.65864270000E+03 0. -1.
    8880022    1    1    2    0    0  0.53129742951E+03  0.15391774695E+04 -0.54279243073E+03  0.17231829610E+04  0.15294330000E+03 0.  0.
<mgrwt>
<rscale>  0 0.17253967E+04</rscale>
<asrwt>0</asrwt>
<pdfrwt beam="1">  1        2 0.50932069E+00 0.17564608E+04</pdfrwt>
<pdfrwt beam="2">  1       -2 0.21792448E+00 0.17564608E+04</pdfrwt>
<totfact> 0.10214266E-01</totfact>
</mgrwt>
</event>
<event>
 4    5  0.6615028E-008  0.1227554E+04  0.7818608E-02  0.9130793E-01
         -2   -1    0    0    0  501 -0.00000000000E+00  0.00000000000E+00  0.11984321979E+04  0.11984321979E+04  0.25500000000E-02 0.  1.
          2   -1    0    0  501    0  0.00000000000E+00 -0.00000000000E+00 -0.18148379859E+04  0.18148379859E+04  0.25500000000E-02 0. -1.
    8880023    1    1    2    0    0  0.87995746225E+03 -0.54658235360E+03 -0.12800686616E+04  0.17735454291E+04  0.65864270000E+03 0. -1.
    8880022    1    1    2    0    0 -0.87995746225E+03  0.54658235360E+03  0.66366287357E+03  0.12397247547E+04  0.15294330000E+03 0.  0.
<mgrwt>
<rscale>  0 0.11797225E+04</rscale>
<asrwt>0</asrwt>
<pdfrwt beam="1">  1        2 0.27920584E+00 0.12275535E+04</pdfrwt>
<pdfrwt beam="2">  1       -2 0.18437418E+00 0.12275535E+04</pdfrwt>
<totfact> 0.13862714E+00</totfact>
</mgrwt>
</event>
<event>
 4    5  0.6615028E-008  0.1237724E+04  0.7818608E-02  0.9121296E-01
          2   -1    0    0  501    0  0.00000000000E+00  0.00000000000E+00  0.21148737303E+04  0.21148737303E+04  0.25500000000E-02 0. -1.
         -2   -1    0    0    0  501 -0.00000000000E+00 -0.00000000000E+00 -0.86050966720E+03  0.86050966721E+03  0.25500000000E-02 0.  1.
    8880023    1    1    2    0    0  0.25511001124E+03  0.10164003840E+04  0.14414766339E+04  0.18999515654E+04  0.65864270000E+03 0.  0.
    8880022    1    1    2    0    0 -0.25511001124E+03 -0.10164003840E+04 -0.18711257076E+03  0.10754318322E+04  0.15294330000E+03 0.  0.
<mgrwt>
<rscale>  0 0.11904053E+04</rscale>
<asrwt>0</asrwt>
<pdfrwt beam="1">  1        2 0.32536518E+00 0.12377241E+04</pdfrwt>
<pdfrwt beam="2">  1       -2 0.13238610E+00 0.12377241E+04</pdfrwt>
<totfact> 0.23226344E+00</totfact>
</mgrwt>
</event>
<event>
 4    5  0.6615028E-008  0.1973424E+04  0.7818608E-02  0.8632223E-01
         -2   -1    0    0    0  501 -0.00000000000E+00  0.00000000000E+00  0.17858076267E+04  0.17858076267E+04  0.25500000000E-02 0.  1.
          2   -1    0    0  501    0  0.00000000000E+00 -0.00000000000E+00 -0.23671834842E+04  0.23671834842E+04  0.25500000000E-02 0. -1.
    8880023    1    1    2    0    0 -0.12887875198E+03 -0.18557971566E+04 -0.10403318294E+04  0.22308503627E+04  0.65864270000E+03 0.  0.
    8880022    1    1    2    0    0  0.12887875198E+03  0.18557971566E+04  0.45895597186E+03  0.19221407483E+04  0.15294330000E+03 0.  0.
<mgrwt>
<rscale>  0 0.19461435E+04</rscale>
<asrwt>0</asrwt>
<pdfrwt beam="1">  1        2 0.36418208E+00 0.19734242E+04</pdfrwt>
<pdfrwt beam="2">  1       -2 0.27473963E+00 0.19734242E+04</pdfrwt>
<totfact> 0.16775589E-01</totfact>
</mgrwt>
</event>
<event>
 4    5  0.6615028E-008  0.1193101E+04  0.7818608E-02  0.9163858E-01
         -2   -1    0    0    0  501 -0.00000000000E+00  0.00000000000E+00  0.71470564942E+03  0.71470564943E+03  0.25500000000E-02 0.  1.
          2   -1    0    0  501    0  0.00000000000E+00 -0.00000000000E+00 -0.21027916001E+04  0.21027916001E+04  0.25500000000E-02 0. -1.
    8880023    1    1    2    0    0 -0.53340902500E+03 -0.83973481785E+03 -0.13619622006E+04  0.18106438066E+04  0.65864270000E+03 0.  0.
    8880022    1    1    2    0    0  0.53340902500E+03  0.83973481785E+03 -0.26123750103E+02  0.10068534430E+04  0.15294330000E+03 0.  0.
<mgrwt>
<rscale>  0 0.11434388E+04</rscale>
<asrwt>0</asrwt>
<pdfrwt beam="1">  1        2 0.32350640E+00 0.11931010E+04</pdfrwt>
<pdfrwt beam="2">  1       -2 0.10995472E+00 0.11931010E+04</pdfrwt>
<totfact> 0.37696021E+00</totfact>
</mgrwt>
</event>
<event>
 4    5  0.6615028E-008  0.1357310E+04  0.7818608E-02  0.9017585E-01
         -2   -1    0    0    0  501 -0.00000000000E+00  0.00000000000E+00  0.10331343561E+04  0.10331343561E+04  0.25500000000E-02 0.  1.
          2   -1    0    0  501    0  0.00000000000E+00 -0.00000000000E+00 -0.19350887998E+04  0.19350887998E+04  0.25500000000E-02 0. -1.
    8880023    1    1    2    0    0  0.10938745820E+04  0.46034555710E+03 -0.11103356837E+04  0.17536063327E+04  0.65864270000E+03 0.  0.
    8880022    1    1    2    0    0 -0.10938745820E+04 -0.46034555710E+03  0.20838124003E+03  0.12146168233E+04  0.15294330000E+03 0.  0.
<mgrwt>
<rscale>  0 0.13152164E+04</rscale>
<asrwt>0</asrwt>
<pdfrwt beam="1">  1        2 0.29770597E+00 0.13573098E+04</pdfrwt>
<pdfrwt beam="2">  1       -2 0.15894375E+00 0.13573098E+04</pdfrwt>
<totfact> 0.17808002E+00</totfact>
</mgrwt>
</event>
<event>
 4    5  0.6615028E-008  0.1705995E+04  0.7818608E-02  0.8776400E-01
         -2   -1    0    0    0  501 -0.00000000000E+00  0.00000000000E+00  0.15759998972E+04  0.15759998972E+04  0.25500000000E-02 0.  1.
          2   -1    0    0  501    0  0.00000000000E+00 -0.00000000000E+00 -0.23590708142E+04  0.23590708142E+04  0.25500000000E-02 0. -1.
    8880023    1    1    2    0    0 -0.10912325877E+04  0.11339401593E+04 -0.14306355892E+04  0.22264629439E+04  0.65864270000E+03 0.  0.
    8880022    1    1    2    0    0  0.10912325877E+04 -0.11339401593E+04  0.64756467227E+03  0.17086077675E+04  0.15294330000E+03 0.  0.
<mgrwt>
<rscale>  0 0.16738858E+04</rscale>
<asrwt>0</asrwt>
<pdfrwt beam="1">  1        2 0.36293397E+00 0.17059950E+04</pdfrwt>
<pdfrwt beam="2">  1       -2 0.24246152E+00 0.17059950E+04</pdfrwt>
<totfact> 0.27510241E-01</totfact>
</mgrwt>
</event>
<event>
 4    5  0.6615028E-008  0.8669670E+03  0.7818608E-02  0.9581289E-01
          2   -1    0    0  501    0  0.00000000000E+00  0.00000000000E+00  0.20188107039E+04  0.20188107039E+04  0.25500000000E-02 0. -1.
         -2   -1    0    0    0  501 -0.00000000000E+00 -0.00000000000E+00 -0.40317008225E+03  0.40317008226E+03  0.25500000000E-02 0.  1.
    8880023    1    1    2    0    0 -0.54895123976E+03 -0.12835171078E+03  0.16204853524E+04  0.18378260551E+04  0.65864270000E+03 0.  1.
    8880022    1    1    2    0    0  0.54895123976E+03  0.12835171078E+03 -0.48447308039E+01  0.58415473098E+03  0.15294330000E+03 0.  0.
<mgrwt>
<rscale>  0 0.78547104E+03</rscale>
<asrwt>0</asrwt>
<pdfrwt beam="1">  1        2 0.31058626E+00 0.86696703E+03</pdfrwt>
<pdfrwt beam="2">  1       -2 0.62026167E-01 0.86696703E+03</pdfrwt>
<totfact> 0.16040834E+01</totfact>
</mgrwt>
</event>
<event>
 4    5  0.6615028E-008  0.1625650E+04  0.7818608E-02  0.8825655E-01
          2   -1    0    0  501    0  0.00000000000E+00  0.00000000000E+00  0.16790058319E+04  0.16790058319E+04  0.25500000000E-02 0. -1.
         -2   -1    0    0    0  501 -0.00000000000E+00 -0.00000000000E+00 -0.19584424433E+04  0.19584424433E+04  0.25500000000E-02 0.  1.
    8880023    1    1    2    0    0 -0.36028304893E+03 -0.14419163138E+04  0.78273364275E+03  0.18042751157E+04  0.65864270000E+03 0.  0.
    8880022    1    1    2    0    0  0.36028304893E+03  0.14419163138E+04 -0.10621702542E+04  0.18331731596E+04  0.15294330000E+03 0.  0.
<mgrwt>
<rscale>  0 0.15917129E+04</rscale>
<asrwt>0</asrwt>
<pdfrwt beam="1">  1        2 0.25830859E+00 0.16256496E+04</pdfrwt>
<pdfrwt beam="2">  1       -2 0.30129884E+00 0.16256496E+04</pdfrwt>
<totfact> 0.29141926E-01</totfact>
</mgrwt>
</event>
<event>
 4    5  0.6615028E-008  0.1437570E+04  0.7818608E-02  0.8955026E-01
          2   -1    0    0  501    0  0.00000000000E+00  0.00000000000E+00  0.43055943867E+04  0.43055943867E+04  0.25500000000E-02 0. -1.
         -2   -1    0    0    0  501 -0.00000000000E+00 -0.00000000000E+00 -0.61911961790E+03  0.61911961791E+03  0.25500000000E-02 0.  1.
    8880023    1    1    2    0    0 -0.11105773606E+04 -0.63199274473E+03  0.32700444321E+04  0.35720859029E+04  0.65864270000E+03 0. -1.
    8880022    1    1    2    0    0  0.11105773606E+04  0.63199274473E+03  0.41643033674E+03  0.13526281018E+04  0.15294330000E+03 0.  0.
<mgrwt>
<rscale>  0 0.13983325E+04</rscale>
<asrwt>0</asrwt>
<pdfrwt beam="1">  1        2 0.66239912E+00 0.14375699E+04</pdfrwt>
<pdfrwt beam="2">  1       -2 0.95249174E-01 0.14375699E+04</pdfrwt>
<totfact> 0.17120926E-01</totfact>
</mgrwt>
</event>
<event>
 4    5  0.6615028E-008  0.1006195E+04  0.7818608E-02  0.9373497E-01
          2   -1    0    0  501    0  0.00000000000E+00  0.00000000000E+00  0.19632108049E+04  0.19632108049E+04  0.25500000000E-02 0. -1.
         -2   -1    0    0    0  501 -0.00000000000E+00 -0.00000000000E+00 -0.77685985304E+03  0.77685985305E+03  0.25500000000E-02 0.  1.
    8880023    1    1    2    0    0  0.11776745007E+03 -0.75149846544E+03  0.15775616848E+04  0.18711307253E+04  0.65864270000E+03 0. -1.
    8880022    1    1    2    0    0 -0.11776745007E+03  0.75149846544E+03 -0.39121073293E+03  0.86893993258E+03  0.15294330000E+03 0.  0.
<mgrwt>
<rscale>  0 0.94289276E+03</rscale>
<asrwt>0</asrwt>
<pdfrwt beam="1">  1        2 0.30203243E+00 0.10061955E+04</pdfrwt>
<pdfrwt beam="2">  1       -2 0.11951690E+00 0.10061955E+04</pdfrwt>
<totfact> 0.37481941E+00</totfact>
</mgrwt>
</event>
<event>
 4    5  0.6615028E-008  0.9388009E+03  0.7818608E-02  0.9466414E-01
          2   -1    0    0  501    0  0.00000000000E+00  0.00000000000E+00  0.12440319048E+04  0.12440319048E+04  0.25500000000E-02 0. -1.
         -2   -1    0    0    0  501 -0.00000000000E+00 -0.00000000000E+00 -0.14630641460E+04  0.14630641460E+04  0.25500000000E-02 0.  1.
    8880023    1    1    2    0    0 -0.66845483066E+03  0.26552529425E+02  0.96009874953E+03  0.13428092614E+04  0.65864270000E+03 0.  0.
    8880022    1    1    2    0    0  0.66845483066E+03 -0.26552529425E+02 -0.11791309907E+04  0.13642867894E+04  0.15294330000E+03 0.  0.
<mgrwt>
<rscale>  0 0.86805950E+03</rscale>
<asrwt>0</asrwt>
<pdfrwt beam="1">  1        2 0.19138953E+00 0.93880089E+03</pdfrwt>
<pdfrwt beam="2">  1       -2 0.22508679E+00 0.93880089E+03</pdfrwt>
<totfact> 0.16408400E+00</totfact>
</mgrwt>
</event>
<event>
 4    5  0.6615028E-008  0.9875278E+03  0.7818608E-02  0.9398060E-01
          2   -1    0    0  501    0  0.00000000000E+00  0.00000000000E+00  0.33177464211E+04  0.33177464211E+04  0.25500000000E-02 0. -1.
         -2   -1    0    0    0  501 -0.00000000000E+00 -0.00000000000E+00 -0.35536564668E+03  0.35536564669E+03  0.25500000000E-02 0.  1.
    8880023    1    1    2    0    0 -0.67557525209E+03  0.29154590279E+03  0.27035502359E+04  0.28782625000E+04  0.65864270000E+03 0.  0.
    8880022    1    1    2    0    0  0.67557525209E+03 -0.29154590279E+03  0.25883053848E+03  0.79484956774E+03  0.15294330000E+03 0.  0.
<mgrwt>
<rscale>  0 0.92235503E+03</rscale>
<asrwt>0</asrwt>
<pdfrwt beam="1">  1        2 0.51042253E+00 0.98752779E+03</pdfrwt>
<pdfrwt beam="2">  1       -2 0.54671637E-01 0.98752779E+03</pdfrwt>
<totfact> 0.35261630E+00</totfact>
</mgrwt>
</event>
<event>
 4    5  0.6615028E-008  0.7979676E+03  0.7818608E-02  0.9715208E-01
         -2   -1    0    0    0  501 -0.00000000000E+00  0.00000000000E+00  0.81875014555E+03  0.81875014555E+03  0.25500000000E-02 0.  1.
          2   -1    0    0  501    0  0.00000000000E+00 -0.00000000000E+00 -0.78561368231E+03  0.78561368231E+03  0.25500000000E-02 0. -1.
    8880023    1    1    2    0    0 -0.34455213907E+03  0.29021698216E+03 -0.45843182445E+03  0.92027822814E+03  0.65864270000E+03 0. -1.
    8880022    1    1    2    0    0  0.34455213907E+03 -0.29021698216E+03  0.49156828769E+03  0.68408559972E+03  0.15294330000E+03 0.  0.
<mgrwt>
<rscale>  0 0.70118497E+03</rscale>
<asrwt>0</asrwt>
<pdfrwt beam="1">  1        2 0.12086364E+00 0.79796759E+03</pdfrwt>
<pdfrwt beam="2">  1       -2 0.12596156E+00 0.79796759E+03</pdfrwt>
<totfact> 0.16762699E+01</totfact>
</mgrwt>
</event>
<event>
 4    5  0.6615028E-008  0.9307919E+03  0.7818608E-02  0.9478306E-01
          2   -1    0    0  501    0  0.00000000000E+00  0.00000000000E+00  0.29251987991E+04  0.29251987991E+04  0.25500000000E-02 0. -1.
         -2   -1    0    0    0  501 -0.00000000000E+00 -0.00000000000E+00 -0.26334653387E+03  0.26334653389E+03  0.25500000000E-02 0.  1.
    8880023    1    1    2    0    0 -0.58427227006E+03 -0.30197560998E+03  0.21448406931E+04  0.23381007591E+04  0.65864270000E+03 0. -1.
    8880022    1    1    2    0    0  0.58427227006E+03  0.30197560998E+03  0.51701157215E+03  0.85044457393E+03  0.15294330000E+03 0.  0.
<mgrwt>
<rscale>  0 0.85902281E+03</rscale>
<asrwt>0</asrwt>
<pdfrwt beam="1">  1        2 0.45003056E+00 0.93079190E+03</pdfrwt>
<pdfrwt beam="2">  1       -2 0.40514854E-01 0.93079190E+03</pdfrwt>
<totfact> 0.11523529E+01</totfact>
</mgrwt>
</event>
<event>
 4    5  0.6615028E-008  0.8180828E+03  0.7818608E-02  0.9672980E-01
          2   -1    0    0  501    0  0.00000000000E+00  0.00000000000E+00  0.18348433885E+04  0.18348433885E+04  0.25500000000E-02 0. -1.
         -2   -1    0    0    0  501 -0.00000000000E+00 -0.00000000000E+00 -0.79764398275E+03  0.79764398276E+03  0.25500000000E-02 0.  1.
    8880023    1    1    2    0    0 -0.27464582754E+03 -0.40002365682E+03  0.16466013358E+04  0.18386286797E+04  0.65864270000E+03 0. -1.
    8880022    1    1    2    0    0  0.27464582754E+03  0.40002365682E+03 -0.60940193011E+03  0.79385869148E+03  0.15294330000E+03 0.  0.
<mgrwt>
<rscale>  0 0.72648568E+03</rscale>
<asrwt>0</asrwt>
<pdfrwt beam="1">  1        2 0.28228360E+00 0.81808280E+03</pdfrwt>
<pdfrwt beam="2">  1       -2 0.12271446E+00 0.81808280E+03</pdfrwt>
<totfact> 0.42336766E+00</totfact>
</mgrwt>
</event>
<event>
 4    5  0.6615028E-008  0.1199651E+04  0.7818608E-02  0.9157462E-01
          2   -1    0    0  501    0  0.00000000000E+00  0.00000000000E+00  0.32927179938E+04  0.32927179938E+04  0.25500000000E-02 0. -1.
         -2   -1    0    0    0  501 -0.00000000000E+00 -0.00000000000E+00 -0.41597503929E+03  0.41597503930E+03  0.25500000000E-02 0.  1.
    8880023    1    1    2    0    0  0.10020598700E+04  0.35043729495E+02  0.21461712588E+04  0.24587015525E+04  0.65864270000E+03 0. -1.
    8880022    1    1    2    0    0 -0.10020598700E+04 -0.35043729495E+02  0.73057169571E+03  0.12499914806E+04  0.15294330000E+03 0.  1.
<mgrwt>
<rscale>  0 0.11503488E+04</rscale>
<asrwt>0</asrwt>
<pdfrwt beam="1">  1        2 0.50657198E+00 0.11996509E+04</pdfrwt>
<pdfrwt beam="2">  1       -2 0.63996162E-01 0.11996509E+04</pdfrwt>
<totfact> 0.25465091E+00</totfact>
</mgrwt>
</event>
<event>
 4    5  0.6615028E-008  0.8184109E+03  0.7818608E-02  0.9672316E-01
         -2   -1    0    0    0  501 -0.00000000000E+00  0.00000000000E+00  0.35506032625E+03  0.35506032626E+03  0.25500000000E-02 0.  1.
          2   -1    0    0  501    0  0.00000000000E+00 -0.00000000000E+00 -0.16220347589E+04  0.16220347589E+04  0.25500000000E-02 0. -1.
    8880023    1    1    2    0    0 -0.17240412017E+03  0.45416192645E+03 -0.12153128468E+04  0.14651900074E+04  0.65864270000E+03 0.  0.
    8880022    1    1    2    0    0  0.17240412017E+03 -0.45416192645E+03 -0.51661585815E+02  0.51190507768E+03  0.15294330000E+03 0.  0.
<mgrwt>
<rscale>  0 0.72689249E+03</rscale>
<asrwt>0</asrwt>
<pdfrwt beam="1">  1        2 0.24954380E+00 0.81841093E+03</pdfrwt>
<pdfrwt beam="2">  1       -2 0.54624666E-01 0.81841093E+03</pdfrwt>
<totfact> 0.34772016E+01</totfact>
</mgrwt>
</event>
<event>
 4    5  0.6615028E-008  0.1353021E+04  0.7818608E-02  0.9021074E-01
         -2   -1    0    0    0  501 -0.00000000000E+00  0.00000000000E+00  0.28130397976E+04  0.28130397976E+04  0.25500000000E-02 0.  1.
          2   -1    0    0  501    0  0.00000000000E+00 -0.00000000000E+00 -0.76295509131E+03  0.76295509131E+03  0.25500000000E-02 0. -1.
    8880023    1    1    2    0    0  0.35658698285E+03  0.11268107525E+04  0.18916270118E+03  0.13661806184E+04  0.65864270000E+03 0.  0.
    8880022    1    1    2    0    0 -0.35658698285E+03 -0.11268107525E+04  0.18609220051E+04  0.22098142705E+04  0.15294330000E+03 0.  0.
<mgrwt>
<rscale>  0 0.13107626E+04</rscale>
<asrwt>0</asrwt>
<pdfrwt beam="1">  1        2 0.11737770E+00 0.13530214E+04</pdfrwt>
<pdfrwt beam="2">  1       -2 0.43277536E+00 0.13530214E+04</pdfrwt>
<totfact> 0.16057062E-01</totfact>
</mgrwt>
</event>
<event>
 4    5  0.6615028E-008  0.8451977E+03  0.7818608E-02  0.9620456E-01
         -2   -1    0    0    0  501 -0.00000000000E+00  0.00000000000E+00  0.12894328317E+04  0.12894328317E+04  0.25500000000E-02 0.  1.
          2   -1    0    0  501    0  0.00000000000E+00 -0.00000000000E+00 -0.53615700001E+03  0.53615700001E+03  0.25500000000E-02 0. -1.
    8880023    1    1    2    0    0  0.30232691853E+02 -0.52880518063E+03  0.92031160042E+03  0.12495329459E+04  0.65864270000E+03 0.  1.
    8880022    1    1    2    0    0 -0.30232691853E+02  0.52880518063E+03 -0.16703576869E+03  0.57605688587E+03  0.15294330000E+03 0.  0.
<mgrwt>
<rscale>  0 0.75956915E+03</rscale>
<asrwt>0</asrwt>
<pdfrwt beam="1">  1        2 0.82485694E-01 0.84519769E+03</pdfrwt>
<pdfrwt beam="2">  1       -2 0.19837428E+00 0.84519769E+03</pdfrwt>
<totfact> 0.78050946E+00</totfact>
</mgrwt>
</event>
<event>
 4    5  0.6615028E-008  0.9255216E+03  0.7818608E-02  0.9486244E-01
          2   -1    0    0  501    0  0.00000000000E+00  0.00000000000E+00  0.24489202519E+04  0.24489202519E+04  0.25500000000E-02 0. -1.
         -2   -1    0    0    0  501 -0.00000000000E+00 -0.00000000000E+00 -0.41377793275E+03  0.41377793276E+03  0.25500000000E-02 0.  1.
    8880023    1    1    2    0    0  0.89119553132E+02  0.64407904035E+03  0.19882309295E+04  0.21930920045E+04  0.65864270000E+03 0.  0.
    8880022    1    1    2    0    0 -0.89119553132E+02 -0.64407904035E+03  0.46911389623E+02  0.66960618013E+03  0.15294330000E+03 0.  0.
<mgrwt>
<rscale>  0 0.85305630E+03</rscale>
<asrwt>0</asrwt>
<pdfrwt beam="1">  1        2 0.37675696E+00 0.92552164E+03</pdfrwt>
<pdfrwt beam="2">  1       -2 0.63658144E-01 0.92552164E+03</pdfrwt>
<totfact> 0.86802698E+00</totfact>
</mgrwt>
</event>
<event>
 4    5  0.6615028E-008  0.6684653E+03  0.7818608E-02  0.1016788E+00
          2   -1    0    0  501    0  0.00000000000E+00  0.00000000000E+00  0.17686714290E+04  0.17686714290E+04  0.25500000000E-02 0. -1.
         -2   -1    0    0    0  501 -0.00000000000E+00 -0.00000000000E+00 -0.11589551927E+04  0.11589551927E+04  0.25500000000E-02 0.  1.
    8880023    1    1    2    0    0  0.59499074671E+02  0.97444787259E+02  0.16968989672E+04  0.18238179563E+04  0.65864270000E+03 0. -1.
    8880022    1    1    2    0    0 -0.59499074671E+02 -0.97444787259E+02 -0.10871827309E+04  0.11038086654E+04  0.15294330000E+03 0.  0.
<mgrwt>
<rscale>  0 0.48863828E+03</rscale>
<asrwt>0</asrwt>
<pdfrwt beam="1">  1        2 0.27210330E+00 0.66846528E+03</pdfrwt>
<pdfrwt beam="2">  1       -2 0.17830080E+00 0.66846528E+03</pdfrwt>
<totfact> 0.17600203E+00</totfact>
</mgrwt>
</event>
<event>
 4    5  0.6615028E-008  0.8457153E+03  0.7818608E-02  0.9619496E-01
          2   -1    0    0  501    0  0.00000000000E+00  0.00000000000E+00  0.23998114040E+04  0.23998114040E+04  0.25500000000E-02 0. -1.
         -2   -1    0    0    0  501 -0.00000000000E+00 -0.00000000000E+00 -0.50499688239E+03  0.50499688239E+03  0.25500000000E-02 0.  1.
    8880023    1    1    2    0    0 -0.42749559639E+03  0.31412050319E+03  0.21397467725E+04  0.23008152103E+04  0.65864270000E+03 0. -1.
    8880022    1    1    2    0    0  0.42749559639E+03 -0.31412050319E+03 -0.24493225084E+03  0.60399307610E+03  0.15294330000E+03 0.  0.
<mgrwt>
<rscale>  0 0.76019119E+03</rscale>
<asrwt>0</asrwt>
<pdfrwt beam="1">  1        2 0.36920176E+00 0.84571531E+03</pdfrwt>
<pdfrwt beam="2">  1       -2 0.77691828E-01 0.84571531E+03</pdfrwt>
<totfact> 0.60488623E+00</totfact>
</mgrwt>
</event>
<event>
 4    5  0.6615028E-008  0.1151656E+04  0.7818608E-02  0.9205611E-01
         -2   -1    0    0    0  501 -0.00000000000E+00  0.00000000000E+00  0.79427790644E+03  0.79427790644E+03  0.25500000000E-02 0.  1.
          2   -1    0    0  501    0  0.00000000000E+00 -0.00000000000E+00 -0.25457235872E+04  0.25457235872E+04  0.25500000000E-02 0. -1.
    8880023    1    1    2    0    0 -0.93043264357E+03  0.16369782387E+03 -0.20380955938E+04  0.23409711099E+04  0.65864270000E+03 0. -1.
    8880022    1    1    2    0    0  0.93043264357E+03 -0.16369782387E+03  0.28664991312E+03  0.99903038365E+03  0.15294330000E+03 0.  0.
<mgrwt>
<rscale>  0 0.10995697E+04</rscale>
<asrwt>0</asrwt>
<pdfrwt beam="1">  1        2 0.39164978E+00 0.11516562E+04</pdfrwt>
<pdfrwt beam="2">  1       -2 0.12219660E+00 0.11516562E+04</pdfrwt>
<totfact> 0.16402010E+00</totfact>
</mgrwt>
</event>
<event>
 4    5  0.6615028E-008  0.1320708E+04  0.7818608E-02  0.9047880E-01
          2   -1    0    0  501    0  0.00000000000E+00  0.00000000000E+00  0.19140490086E+04  0.19140490086E+04  0.25500000000E-02 0. -1.
         -2   -1    0    0    0  501 -0.00000000000E+00 -0.00000000000E+00 -0.17759652063E+04  0.17759652063E+04  0.25500000000E-02 0.  1.
    8880023    1    1    2    0    0  0.10761458867E+04 -0.39034646631E+03  0.14371175048E+04  0.19518138390E+04  0.65864270000E+03 0. -1.
    8880022    1    1    2    0    0 -0.10761458867E+04  0.39034646631E+03 -0.12990337026E+04  0.17382003759E+04  0.15294330000E+03 0.  0.
<mgrwt>
<rscale>  0 0.12771551E+04</rscale>
<asrwt>0</asrwt>
<pdfrwt beam="1">  1        2 0.29446908E+00 0.13207083E+04</pdfrwt>
<pdfrwt beam="2">  1       -2 0.27322542E+00 0.13207083E+04</pdfrwt>
<totfact> 0.33105548E-01</totfact>
</mgrwt>
</event>
<event>
 4    5  0.6615028E-008  0.7197154E+03  0.7818608E-02  0.9923550E-01
          2   -1    0    0  501    0  0.00000000000E+00  0.00000000000E+00  0.26923382266E+04  0.26923382266E+04  0.25500000000E-02 0. -1.
         -2   -1    0    0    0  501 -0.00000000000E+00 -0.00000000000E+00 -0.55975424563E+03  0.55975424563E+03  0.25500000000E-02 0.  1.
    8880023    1    1    2    0    0 -0.27411517285E+03  0.95083812570E+02  0.25906208013E+04  0.26887369529E+04  0.65864270000E+03 0. -1.
    8880022    1    1    2    0    0  0.27411517285E+03 -0.95083812570E+02 -0.45803682033E+03  0.56335551936E+03  0.15294330000E+03 0.  0.
<mgrwt>
<rscale>  0 0.59133401E+03</rscale>
<asrwt>0</asrwt>
<pdfrwt beam="1">  1        2 0.41420588E+00 0.71971541E+03</pdfrwt>
<pdfrwt beam="2">  1       -2 0.86116039E-01 0.71971541E+03</pdfrwt>
<totfact> 0.33350767E+00</totfact>
</mgrwt>
</event>
<event>
 4    5  0.6615028E-008  0.9332667E+03  0.7818608E-02  0.9474610E-01
         -2   -1    0    0    0  501 -0.00000000000E+00  0.00000000000E+00  0.70625853735E+03  0.70625853735E+03  0.25500000000E-02 0.  1.
          2   -1    0    0  501    0  0.00000000000E+00 -0.00000000000E+00 -0.30887953607E+04  0.30887953607E+04  0.25500000000E-02 0. -1.
    8880023    1    1    2    0    0  0.58256229696E+03  0.31272615679E+03 -0.28314986779E+04  0.29813371913E+04  0.65864270000E+03 0. -1.
    8880022    1    1    2    0    0 -0.58256229696E+03 -0.31272615679E+03  0.44896185456E+03  0.81371670675E+03  0.15294330000E+03 0.  0.
<mgrwt>
<rscale>  0 0.86181898E+03</rscale>
<asrwt>0</asrwt>
<pdfrwt beam="1">  1        2 0.47519928E+00 0.93326667E+03</pdfrwt>
<pdfrwt beam="2">  1       -2 0.10865516E+00 0.93326667E+03</pdfrwt>
<totfact> 0.10696421E+00</totfact>
</mgrwt>
</event>
<event>
 4    5  0.6615028E-008  0.7824438E+03  0.7818608E-02  0.9750127E-01
          2   -1    0    0  501    0  0.00000000000E+00  0.00000000000E+00  0.98241318751E+03  0.98241318752E+03  0.25500000000E-02 0. -1.
         -2   -1    0    0    0  501 -0.00000000000E+00 -0.00000000000E+00 -0.80864315417E+03  0.80864315417E+03  0.25500000000E-02 0.  1.
    8880023    1    1    2    0    0 -0.16577981849E+03 -0.38849089485E+03  0.73408791396E+03  0.10728948668E+04  0.65864270000E+03 0. -1.
    8880022    1    1    2    0    0  0.16577981849E+03  0.38849089485E+03 -0.56031788062E+03  0.71816147485E+03  0.15294330000E+03 0.  0.
<mgrwt>
<rscale>  0 0.68109071E+03</rscale>
<asrwt>0</asrwt>
<pdfrwt beam="1">  1        2 0.15114049E+00 0.78244382E+03</pdfrwt>
<pdfrwt beam="2">  1       -2 0.12440664E+00 0.78244382E+03</pdfrwt>
<totfact> 0.12712574E+01</totfact>
</mgrwt>
</event>
<event>
 4    5  0.6615028E-008  0.8074943E+03  0.7818608E-02  0.9694820E-01
          2   -1    0    0  501    0  0.00000000000E+00  0.00000000000E+00  0.37441601123E+04  0.37441601123E+04  0.25500000000E-02 0. -1.
         -2   -1    0    0    0  501 -0.00000000000E+00 -0.00000000000E+00 -0.52182976514E+03  0.52182976515E+03  0.25500000000E-02 0.  1.
    8880023    1    1    2    0    0  0.30085986228E+03 -0.35737955706E+03  0.35723961322E+04  0.36625211448E+04  0.65864270000E+03 0.  0.
    8880022    1    1    2    0    0 -0.30085986228E+03  0.35737955706E+03 -0.35006578497E+03  0.60346873271E+03  0.15294330000E+03 0.  0.
<mgrwt>
<rscale>  0 0.71326038E+03</rscale>
<asrwt>0</asrwt>
<pdfrwt beam="1">  1        2 0.57602461E+00 0.80749428E+03</pdfrwt>
<pdfrwt beam="2">  1       -2 0.80281505E-01 0.80749428E+03</pdfrwt>
<totfact> 0.80535617E-01</totfact>
</mgrwt>
</event>
<event>
 4    5  0.6615028E-008  0.1049852E+04  0.7818608E-02  0.9319059E-01
         -2   -1    0    0    0  501 -0.00000000000E+00  0.00000000000E+00  0.10799655679E+04  0.10799655679E+04  0.25500000000E-02 0.  1.
          2   -1    0    0  501    0  0.00000000000E+00 -0.00000000000E+00 -0.24465478039E+04  0.24465478039E+04  0.25500000000E-02 0. -1.
    8880023    1    1    2    0    0  0.38679352504E+03 -0.72025723544E+03 -0.21444966931E+04  0.23876884196E+04  0.65864270000E+03 0.  0.
    8880022    1    1    2    0    0 -0.38679352504E+03  0.72025723544E+03  0.77791445706E+03  0.11388249522E+04  0.15294330000E+03 0.  0.
<mgrwt>
<rscale>  0 0.99047037E+03</rscale>
<asrwt>0</asrwt>
<pdfrwt beam="1">  1        2 0.37639197E+00 0.10498523E+04</pdfrwt>
<pdfrwt beam="2">  1       -2 0.16614855E+00 0.10498523E+04</pdfrwt>
<totfact> 0.84630712E-01</totfact>
</mgrwt>
</event>
<event>
 4    5  0.6615028E-008  0.7345786E+03  0.7818608E-02  0.9876030E-01
         -2   -1    0    0    0  501 -0.00000000000E+00  0.00000000000E+00  0.75437432563E+03  0.75437432563E+03  0.25500000000E-02 0.  1.
          2   -1    0    0  501    0  0.00000000000E+00 -0.00000000000E+00 -0.19690966215E+04  0.19690966215E+04  0.25500000000E-02 0. -1.
    8880023    1    1    2    0    0 -0.32479911131E+03 -0.17351323542E+02 -0.18516996582E+04  0.19920836733E+04  0.65864270000E+03 0.  0.
    8880022    1    1    2    0    0  0.32479911131E+03  0.17351323542E+02  0.63697736233E+03  0.73138727380E+03  0.15294330000E+03 0.  1.
<mgrwt>
<rscale>  0 0.61437161E+03</rscale>
<asrwt>0</asrwt>
<pdfrwt beam="1">  1        2 0.30293794E+00 0.73457861E+03</pdfrwt>
<pdfrwt beam="2">  1       -2 0.11605759E+00 0.73457861E+03</pdfrwt>
<totfact> 0.41611792E+00</totfact>
</mgrwt>
</event>
<event>
 4    5  0.6615028E-008  0.7942066E+03  0.7818608E-02  0.9723465E-01
         -2   -1    0    0    0  501 -0.00000000000E+00  0.00000000000E+00  0.11721583872E+04  0.11721583872E+04  0.25500000000E-02 0.  1.
          2   -1    0    0  501    0  0.00000000000E+00 -0.00000000000E+00 -0.84590521079E+03  0.84590521079E+03  0.25500000000E-02 0. -1.
    8880023    1    1    2    0    0 -0.16500168009E+03 -0.41198110854E+03 -0.58945510794E+03  0.98905081708E+03  0.65864270000E+03 0. -1.
    8880022    1    1    2    0    0  0.16500168009E+03  0.41198110854E+03  0.91570828430E+03  0.10290127809E+04  0.15294330000E+03 0.  0.
<mgrwt>
<rscale>  0 0.69636702E+03</rscale>
<asrwt>0</asrwt>
<pdfrwt beam="1">  1        2 0.13013926E+00 0.79420664E+03</pdfrwt>
<pdfrwt beam="2">  1       -2 0.18033206E+00 0.79420664E+03</pdfrwt>
<totfact> 0.58433748E+00</totfact>
</mgrwt>
</event>
<event>
 4    5  0.6615028E-008  0.7084645E+03  0.7818608E-02  0.9963748E-01
          2   -1    0    0  501    0  0.00000000000E+00  0.00000000000E+00  0.16807185014E+04  0.16807185014E+04  0.25500000000E-02 0. -1.
         -2   -1    0    0    0  501 -0.00000000000E+00 -0.00000000000E+00 -0.10571773670E+04  0.10571773670E+04  0.25500000000E-02 0.  1.
    8880023    1    1    2    0    0 -0.24113162109E+03  0.99835932183E+02  0.15817020114E+04  0.17331194798E+04  0.65864270000E+03 0. -1.
    8880022    1    1    2    0    0  0.24113162109E+03 -0.99835932183E+02 -0.95816087696E+03  0.10047763887E+04  0.15294330000E+03 0.  0.
<mgrwt>
<rscale>  0 0.57268810E+03</rscale>
<asrwt>0</asrwt>
<pdfrwt beam="1">  1        2 0.25857208E+00 0.70846445E+03</pdfrwt>
<pdfrwt beam="2">  1       -2 0.16264267E+00 0.70846445E+03</pdfrwt>
<totfact> 0.25157475E+00</totfact>
</mgrwt>
</event>
<event>
 4    5  0.6615028E-008  0.1121901E+04  0.7818608E-02  0.9237056E-01
         -2   -1    0    0    0  501 -0.00000000000E+00  0.00000000000E+00  0.10914830292E+04  0.10914830292E+04  0.25500000000E-02 0.  1.
          2   -1    0    0  501    0  0.00000000000E+00 -0.00000000000E+00 -0.12930253016E+04  0.12930253016E+04  0.25500000000E-02 0. -1.
    8880023    1    1    2    0    0 -0.12173111829E+03  0.90001782562E+03 -0.71468765104E+03  0.13302026900E+04  0.65864270000E+03 0.  0.
    8880022    1    1    2    0    0  0.12173111829E+03 -0.90001782562E+03  0.51314537870E+03  0.10543056408E+04  0.15294330000E+03 0.  0.
<mgrwt>
<rscale>  0 0.10679004E+04</rscale>
<asrwt>0</asrwt>
<pdfrwt beam="1">  1        2 0.19892697E+00 0.11219005E+04</pdfrwt>
<pdfrwt beam="2">  1       -2 0.16792047E+00 0.11219005E+04</pdfrwt>
<totfact> 0.36023597E+00</totfact>
</mgrwt>
</event>
<event>
 4    5  0.6615028E-008  0.1068716E+04  0.7818608E-02  0.9296714E-01
         -2   -1    0    0    0  501 -0.00000000000E+00  0.00000000000E+00  0.65574031962E+03  0.65574031962E+03  0.25500000000E-02 0.  1.
          2   -1    0    0  501    0  0.00000000000E+00 -0.00000000000E+00 -0.23006675315E+04  0.23006675315E+04  0.25500000000E-02 0. -1.
    8880023    1    1    2    0    0 -0.76026553233E+03 -0.36102580698E+03 -0.17939010754E+04  0.20881174746E+04  0.65864270000E+03 0.  0.
    8880022    1    1    2    0    0  0.76026553233E+03  0.36102580698E+03  0.14897386355E+03  0.86829037654E+03  0.15294330000E+03 0.  0.
<mgrwt>
<rscale>  0 0.10108598E+04</rscale>
<asrwt>0</asrwt>
<pdfrwt beam="1">  1        2 0.35394885E+00 0.10687158E+04</pdfrwt>
<pdfrwt beam="2">  1       -2 0.10088313E+00 0.10687158E+04</pdfrwt>
<totfact> 0.36499506E+00</totfact>
</mgrwt>
</event>
<event>
 4    5  0.6615028E-008  0.8520219E+03  0.7818608E-02  0.9607916E-01
         -2   -1    0    0    0  501 -0.00000000000E+00  0.00000000000E+00  0.97051169477E+03  0.97051169477E+03  0.25500000000E-02 0.  1.
          2   -1    0    0  501    0  0.00000000000E+00 -0.00000000000E+00 -0.13787601731E+04  0.13787601731E+04  0.25500000000E-02 0. -1.
    8880023    1    1    2    0    0  0.48836478618E+03  0.23158349976E+03 -0.11422378669E+04  0.14250082921E+04  0.65864270000E+03 0. -1.
    8880022    1    1    2    0    0 -0.48836478618E+03 -0.23158349976E+03  0.73398938863E+03  0.92426357571E+03  0.15294330000E+03 0.  0.
<mgrwt>
<rscale>  0 0.76774482E+03</rscale>
<asrwt>0</asrwt>
<pdfrwt beam="1">  1        2 0.21211695E+00 0.85202188E+03</pdfrwt>
<pdfrwt beam="2">  1       -2 0.14930949E+00 0.85202188E+03</pdfrwt>
<totfact> 0.45581772E+00</totfact>
</mgrwt>
</event>
<event>
 4    5  0.6615028E-008  0.8083946E+03  0.7818608E-02  0.9692931E-01
          2   -1    0    0  501    0  0.00000000000E+00  0.00000000000E+00  0.15565104146E+04  0.15565104146E+04  0.25500000000E-02 0. -1.
         -2   -1    0    0    0  501 -0.00000000000E+00 -0.00000000000E+00 -0.81603125073E+03  0.81603125074E+03  0.25500000000E-02 0.  1.
    8880023    1    1    2    0    0 -0.40686226862E+03  0.23271161343E+03  0.13591831125E+04  0.15814172568E+04  0.65864270000E+03 0. -1.
    8880022    1    1    2    0    0  0.40686226862E+03 -0.23271161343E+03 -0.61870394863E+03  0.79112440850E+03  0.15294330000E+03 0.  0.
<mgrwt>
<rscale>  0 0.71439257E+03</rscale>
<asrwt>0</asrwt>
<pdfrwt beam="1">  1        2 0.23946314E+00 0.80839459E+03</pdfrwt>
<pdfrwt beam="2">  1       -2 0.12554327E+00 0.80839459E+03</pdfrwt>
<totfact> 0.56947216E+00</totfact>
</mgrwt>
</event>
<event>
 4    5  0.6615028E-008  0.1192975E+04  0.7818608E-02  0.9163982E-01
         -2   -1    0    0    0  501 -0.00000000000E+00  0.00000000000E+00  0.62114336936E+03  0.62114336937E+03  0.25500000000E-02 0.  1.
          2   -1    0    0  501    0  0.00000000000E+00 -0.00000000000E+00 -0.27343729597E+04  0.27343729597E+04  0.25500000000E-02 0. -1.
    8880023    1    1    2    0    0 -0.37729428001E+03 -0.92034102174E+03 -0.20185278966E+04  0.23447054497E+04  0.65864270000E+03 0.  0.
    8880022    1    1    2    0    0  0.37729428001E+03  0.92034102174E+03 -0.94701693678E+02  0.10108108794E+04  0.15294330000E+03 0.  0.
<mgrwt>
<rscale>  0 0.11433055E+04</rscale>
<asrwt>0</asrwt>
<pdfrwt beam="1">  1        2 0.42067276E+00 0.11929748E+04</pdfrwt>
<pdfrwt beam="2">  1       -2 0.95560520E-01 0.11929748E+04</pdfrwt>
<totfact> 0.23001177E+00</totfact>
</mgrwt>
</event>
<event>
 4    5  0.6615028E-008  0.8038713E+03  0.7818608E-02  0.9702487E-01
          2   -1    0    0  501    0  0.00000000000E+00  0.00000000000E+00  0.88001227402E+03  0.88001227403E+03  0.25500000000E-02 0. -1.
         -2   -1    0    0    0  501 -0.00000000000E+00 -0.00000000000E+00 -0.76017498158E+03  0.76017498158E+03  0.25500000000E-02 0.  1.
    8880023    1    1    2    0    0  0.57368433673E+01  0.46083178349E+03  0.56409252515E+03  0.98204349559E+03  0.65864270000E+03 0.  0.
    8880022    1    1    2    0    0 -0.57368433673E+01 -0.46083178349E+03 -0.44425523270E+03  0.65814376001E+03  0.15294330000E+03 0.  0.
<mgrwt>
<rscale>  0 0.70868897E+03</rscale>
<asrwt>0</asrwt>
<pdfrwt beam="1">  1        2 0.13538650E+00 0.80387129E+03</pdfrwt>
<pdfrwt beam="2">  1       -2 0.11695000E+00 0.80387129E+03</pdfrwt>
<totfact> 0.17292146E+01</totfact>
</mgrwt>
</event>
<event>
 4    5  0.6615028E-008  0.1348358E+04  0.7818608E-02  0.9024886E-01
         -2   -1    0    0    0  501 -0.00000000000E+00  0.00000000000E+00  0.24464053944E+04  0.24464053944E+04  0.25500000000E-02 0.  1.
          2   -1    0    0  501    0  0.00000000000E+00 -0.00000000000E+00 -0.22524884883E+04  0.22524884883E+04  0.25500000000E-02 0. -1.
    8880023    1    1    2    0    0 -0.55549903411E+03  0.10371496444E+04 -0.18776480035E+04  0.23116294671E+04  0.65864270000E+03 0. -1.
    8880022    1    1    2    0    0  0.55549903411E+03 -0.10371496444E+04  0.20715649096E+04  0.23872644155E+04  0.15294330000E+03 0.  0.
<mgrwt>
<rscale>  0 0.13059174E+04</rscale>
<asrwt>0</asrwt>
<pdfrwt beam="1">  1        2 0.34653669E+00 0.13483578E+04</pdfrwt>
<pdfrwt beam="2">  1       -2 0.37637006E+00 0.13483578E+04</pdfrwt>
<totfact> 0.48985496E-02</totfact>
</mgrwt>
</event>
<event>
 4    5  0.6615028E-008  0.1002155E+04  0.7818608E-02  0.9378743E-01
         -2   -1    0    0    0  501 -0.00000000000E+00  0.00000000000E+00  0.15425127719E+04  0.15425127719E+04  0.25500000000E-02 0.  1.
          2   -1    0    0  501    0  0.00000000000E+00 -0.00000000000E+00 -0.14665595160E+04  0.14665595160E+04  0.25500000000E-02 0. -1.
    8880023    1    1    2    0    0  0.70019579276E+03  0.28325046924E+03 -0.11721880073E+04  0.15421867291E+04  0.65864270000E+03 0.  0.
    8880022    1    1    2    0    0 -0.70019579276E+03 -0.28325046924E+03  0.12481412632E+04  0.14668855588E+04  0.15294330000E+03 0.  0.
<mgrwt>
<rscale>  0 0.93845860E+03</rscale>
<asrwt>0</asrwt>
<pdfrwt beam="1">  1        2 0.22562454E+00 0.10021553E+04</pdfrwt>
<pdfrwt beam="2">  1       -2 0.23730966E+00 0.10021553E+04</pdfrwt>
<totfact> 0.10168829E+00</totfact>
</mgrwt>
</event>
<event>
 4    5  0.6615028E-008  0.1169893E+04  0.7818608E-02  0.9186958E-01
          2   -1    0    0  501    0  0.00000000000E+00  0.00000000000E+00  0.25503553807E+04  0.25503553807E+04  0.25500000000E-02 0. -1.
         -2   -1    0    0    0  501 -0.00000000000E+00 -0.00000000000E+00 -0.11984157803E+04  0.11984157803E+04  0.25500000000E-02 0.  1.
    8880023    1    1    2    0    0  0.95860777502E+03 -0.12614099989E+03  0.21751119039E+04  0.24697697097E+04  0.65864270000E+03 0.  0.
    8880022    1    1    2    0    0 -0.95860777502E+03  0.12614099989E+03 -0.82317230354E+03  0.12790014513E+04  0.15294330000E+03 0.  0.
<mgrwt>
<rscale>  0 0.11189059E+04</rscale>
<asrwt>0</asrwt>
<pdfrwt beam="1">  1        2 0.39236236E+00 0.11698934E+04</pdfrwt>
<pdfrwt beam="2">  1       -2 0.18437166E+00 0.11698934E+04</pdfrwt>
<totfact> 0.54002924E-01</totfact>
</mgrwt>
</event>
<event>
 4    5  0.6615028E-008  0.9161500E+03  0.7818608E-02  0.9500588E-01
          2   -1    0    0  501    0  0.00000000000E+00  0.00000000000E+00  0.12381627699E+04  0.12381627699E+04  0.25500000000E-02 0. -1.
         -2   -1    0    0    0  501 -0.00000000000E+00 -0.00000000000E+00 -0.71897834483E+03  0.71897834483E+03  0.25500000000E-02 0.  1.
    8880023    1    1    2    0    0 -0.51661325762E+02 -0.63470608263E+03  0.82635289702E+03  0.12337706515E+04  0.65864270000E+03 0. -1.
    8880022    1    1    2    0    0  0.51661325762E+02  0.63470608263E+03 -0.30716847193E+03  0.72337046322E+03  0.15294330000E+03 0.  0.
<mgrwt>
<rscale>  0 0.84240518E+03</rscale>
<asrwt>0</asrwt>
<pdfrwt beam="1">  1        2 0.19048658E+00 0.91615005E+03</pdfrwt>
<pdfrwt beam="2">  1       -2 0.11061205E+00 0.91615005E+03</pdfrwt>
<totfact> 0.11669477E+01</totfact>
</mgrwt>
</event>
<event>
 4    5  0.6615028E-008  0.1272413E+04  0.7818608E-02  0.9089757E-01
          2   -1    0    0  501    0  0.00000000000E+00  0.00000000000E+00  0.12696680503E+04  0.12696680503E+04  0.25500000000E-02 0. -1.
         -2   -1    0    0    0  501 -0.00000000000E+00 -0.00000000000E+00 -0.13637392788E+04  0.13637392788E+04  0.25500000000E-02 0.  1.
    8880023    1    1    2    0    0 -0.10820937992E+04  0.11957215626E+03  0.51953166595E+03  0.13743899916E+04  0.65864270000E+03 0.  0.
    8880022    1    1    2    0    0  0.10820937992E+04 -0.11957215626E+03 -0.61360289452E+03  0.12590173375E+04  0.15294330000E+03 0.  0.
<mgrwt>
<rscale>  0 0.12267529E+04</rscale>
<asrwt>0</asrwt>
<pdfrwt beam="1">  1        2 0.19533355E+00 0.12724129E+04</pdfrwt>
<pdfrwt beam="2">  1       -2 0.20980604E+00 0.12724129E+04</pdfrwt>
<totfact> 0.19059597E+00</totfact>
</mgrwt>
</event>
<event>
 4    5  0.6615028E-008  0.7803343E+03  0.7818608E-02  0.9755052E-01
         -2   -1    0    0    0  501 -0.00000000000E+00  0.00000000000E+00  0.68897054803E+03  0.68897054803E+03  0.25500000000E-02 0.  1.
          2   -1    0    0  501    0  0.00000000000E+00 -0.00000000000E+00 -0.13659110957E+04  0.13659110957E+04  0.25500000000E-02 0. -1.
    8880023    1    1    2    0    0 -0.40273138421E+03 -0.11366087650E+03 -0.11598000047E+04  0.13978761103E+04  0.65864270000E+03 0. -1.
    8880022    1    1    2    0    0  0.40273138421E+03  0.11366087650E+03  0.48285945702E+03  0.65700553341E+03  0.15294330000E+03 0.  1.
<mgrwt>
<rscale>  0 0.67831496E+03</rscale>
<asrwt>0</asrwt>
<pdfrwt beam="1">  1        2 0.21014017E+00 0.78033427E+03</pdfrwt>
<pdfrwt beam="2">  1       -2 0.10599547E+00 0.78033427E+03</pdfrwt>
<totfact> 0.11077699E+01</totfact>
</mgrwt>
</event>
<event>
 4    5  0.6615028E-008  0.7821998E+03  0.7818608E-02  0.9750695E-01
          2   -1    0    0  501    0  0.00000000000E+00  0.00000000000E+00  0.73518291805E+03  0.73518291805E+03  0.25500000000E-02 0. -1.
         -2   -1    0    0    0  501 -0.00000000000E+00 -0.00000000000E+00 -0.10773797148E+04  0.10773797148E+04  0.25500000000E-02 0.  1.
    8880023    1    1    2    0    0  0.42054364399E+03 -0.34196254123E+02  0.44975574680E+03  0.90228420043E+03  0.65864270000E+03 0. -1.
    8880022    1    1    2    0    0 -0.42054364399E+03  0.34196254123E+02 -0.79195254359E+03  0.91027843247E+03  0.15294330000E+03 0.  0.
<mgrwt>
<rscale>  0 0.68077024E+03</rscale>
<asrwt>0</asrwt>
<pdfrwt beam="1">  1        2 0.11310506E+00 0.78219981E+03</pdfrwt>
<pdfrwt beam="2">  1       -2 0.16575073E+00 0.78219981E+03</pdfrwt>
<totfact> 0.89149570E+00</totfact>
</mgrwt>
</event>
<event>
 4    5  0.6615028E-008  0.9103259E+03  0.7818608E-02  0.9509654E-01
         -2   -1    0    0    0  501 -0.00000000000E+00  0.00000000000E+00  0.48235214017E+03  0.48235214017E+03  0.25500000000E-02 0.  1.
          2   -1    0    0  501    0  0.00000000000E+00 -0.00000000000E+00 -0.13898928067E+04  0.13898928067E+04  0.25500000000E-02 0. -1.
    8880023    1    1    2    0    0 -0.45095354325E+03  0.43763456738E+03 -0.80935574786E+03  0.12180927902E+04  0.65864270000E+03 0. -1.
    8880022    1    1    2    0    0  0.45095354325E+03 -0.43763456738E+03 -0.98184918631E+02  0.65415215661E+03  0.15294330000E+03 0.  0.
<mgrwt>
<rscale>  0 0.83575772E+03</rscale>
<asrwt>0</asrwt>
<pdfrwt beam="1">  1        2 0.21382966E+00 0.91032594E+03</pdfrwt>
<pdfrwt beam="2">  1       -2 0.74208022E-01 0.91032594E+03</pdfrwt>
<totfact> 0.24094287E+01</totfact>
</mgrwt>
</event>
<event>
 4    5  0.6615028E-008  0.7079056E+03  0.7818608E-02  0.9965862E-01
         -2   -1    0    0    0  501 -0.00000000000E+00  0.00000000000E+00  0.55154967149E+03  0.55154967150E+03  0.25500000000E-02 0.  1.
          2   -1    0    0  501    0  0.00000000000E+00 -0.00000000000E+00 -0.76566184189E+03  0.76566184190E+03  0.25500000000E-02 0. -1.
    8880023    1    1    2    0    0  0.18731640255E+03  0.17953447960E+03 -0.52729468579E+03  0.88270604164E+03  0.65864270000E+03 0.  0.
    8880022    1    1    2    0    0 -0.18731640255E+03 -0.17953447960E+03  0.31318251539E+03  0.43450547176E+03  0.15294330000E+03 0.  0.
<mgrwt>
<rscale>  0 0.57172793E+03</rscale>
<asrwt>0</asrwt>
<pdfrwt beam="1">  1        2 0.11779413E+00 0.70790555E+03</pdfrwt>
<pdfrwt beam="2">  1       -2 0.84853796E-01 0.70790555E+03</pdfrwt>
<totfact> 0.44906287E+01</totfact>
</mgrwt>
</event>
<event>
 4    5  0.6615028E-008  0.9437021E+03  0.7818608E-02  0.9459234E-01
          2   -1    0    0  501    0  0.00000000000E+00  0.00000000000E+00  0.31434753565E+04  0.31434753565E+04  0.25500000000E-02 0. -1.
         -2   -1    0    0    0  501 -0.00000000000E+00 -0.00000000000E+00 -0.28917191166E+03  0.28917191167E+03  0.25500000000E-02 0.  1.
    8880023    1    1    2    0    0 -0.10899406620E+03  0.66699610060E+03  0.24613245378E+04  0.26360372135E+04  0.65864270000E+03 0.  0.
    8880022    1    1    2    0    0  0.10899406620E+03 -0.66699610060E+03  0.39297890702E+03  0.79661005458E+03  0.15294330000E+03 0.  0.
<mgrwt>
<rscale>  0 0.87357239E+03</rscale>
<asrwt>0</asrwt>
<pdfrwt beam="1">  1        2 0.48361158E+00 0.94370213E+03</pdfrwt>
<pdfrwt beam="2">  1       -2 0.44487987E-01 0.94370213E+03</pdfrwt>
<totfact> 0.69999203E+00</totfact>
</mgrwt>
</event>
<event>
 4    5  0.6615028E-008  0.1131185E+04  0.7818608E-02  0.9227105E-01
          2   -1    0    0  501    0  0.00000000000E+00  0.00000000000E+00  0.36860481742E+04  0.36860481742E+04  0.25500000000E-02 0. -1.
         -2   -1    0    0    0  501 -0.00000000000E+00 -0.00000000000E+00 -0.35287527399E+03  0.35287527400E+03  0.25500000000E-02 0.  1.
    8880023    1    1    2    0    0 -0.62706972123E+03  0.67272010545E+03  0.26554053575E+04  0.28863050072E+04  0.65864270000E+03 0.  0.
    8880022    1    1    2    0    0  0.62706972123E+03 -0.67272010545E+03  0.67776754265E+03  0.11526184410E+04  0.15294330000E+03 0.  0.
<mgrwt>
<rscale>  0 0.10777987E+04</rscale>
<asrwt>0</asrwt>
<pdfrwt beam="1">  1        2 0.56708434E+00 0.11311848E+04</pdfrwt>
<pdfrwt beam="2">  1       -2 0.54288503E-01 0.11311848E+04</pdfrwt>
<totfact> 0.19509748E+00</totfact>
</mgrwt>
</event>
<event>
 4    5  0.6615028E-008  0.7346862E+03  0.7818608E-02  0.9875705E-01
          2   -1    0    0  501    0  0.00000000000E+00  0.00000000000E+00  0.13211536659E+04  0.13211536659E+04  0.25500000000E-02 0. -1.
         -2   -1    0    0    0  501 -0.00000000000E+00 -0.00000000000E+00 -0.38281491146E+03  0.38281491146E+03  0.25500000000E-02 0.  1.
    8880023    1    1    2    0    0 -0.32447311384E+03 -0.25900867161E+02  0.10893182997E+04  0.13139171286E+04  0.65864270000E+03 0.  0.
    8880022    1    1    2    0    0  0.32447311384E+03  0.25900867161E+02 -0.15097954531E+03  0.39005144871E+03  0.15294330000E+03 0.  0.
<mgrwt>
<rscale>  0 0.61453308E+03</rscale>
<asrwt>0</asrwt>
<pdfrwt beam="1">  1        2 0.20325441E+00 0.73468623E+03</pdfrwt>
<pdfrwt beam="2">  1       -2 0.58894601E-01 0.73468623E+03</pdfrwt>
<totfact> 0.44202406E+01</totfact>
</mgrwt>
</event>
<event>
 4    5  0.6615028E-008  0.8622925E+03  0.7818608E-02  0.9589498E-01
         -2   -1    0    0    0  501 -0.00000000000E+00  0.00000000000E+00  0.58771599680E+03  0.58771599681E+03  0.25500000000E-02 0.  1.
          2   -1    0    0  501    0  0.00000000000E+00 -0.00000000000E+00 -0.37731068966E+04  0.37731068966E+04  0.25500000000E-02 0. -1.
    8880023    1    1    2    0    0  0.37030434106E+03  0.41546709903E+03 -0.35664453604E+04  0.36692071255E+04  0.65864270000E+03 0. -1.
    8880022    1    1    2    0    0 -0.37030434106E+03 -0.41546709903E+03  0.38105446059E+03  0.69161576785E+03  0.15294330000E+03 0.  0.
<mgrwt>
<rscale>  0 0.77995163E+03</rscale>
<asrwt>0</asrwt>
<pdfrwt beam="1">  1        2 0.58047797E+00 0.86229254E+03</pdfrwt>
<pdfrwt beam="2">  1       -2 0.90417848E-01 0.86229254E+03</pdfrwt>
<totfact> 0.57738862E-01</totfact>
</mgrwt>
</event>
<event>
 4    5  0.6615028E-008  0.8985430E+03  0.7818608E-02  0.9528375E-01
          2   -1    0    0  501    0  0.00000000000E+00  0.00000000000E+00  0.23067909260E+04  0.23067909260E+04  0.25500000000E-02 0. -1.
         -2   -1    0    0    0  501 -0.00000000000E+00 -0.00000000000E+00 -0.97805476105E+03  0.97805476105E+03  0.25500000000E-02 0.  1.
    8880023    1    1    2    0    0 -0.23750990928E+03  0.56316816332E+03  0.21028275764E+04  0.22867582643E+04  0.65864270000E+03 0. -1.
    8880022    1    1    2    0    0  0.23750990928E+03 -0.56316816332E+03 -0.77409141142E+03  0.99808742274E+03  0.15294330000E+03 0.  0.
<mgrwt>
<rscale>  0 0.82223817E+03</rscale>
<asrwt>0</asrwt>
<pdfrwt beam="1">  1        2 0.35489091E+00 0.89854301E+03</pdfrwt>
<pdfrwt beam="2">  1       -2 0.15046996E+00 0.89854301E+03</pdfrwt>
<totfact> 0.13598093E+00</totfact>
</mgrwt>
</event>
<event>
 4    5  0.6615028E-008  0.9844447E+03  0.7818608E-02  0.9402198E-01
         -2   -1    0    0    0  501 -0.00000000000E+00  0.00000000000E+00  0.90767679197E+03  0.90767679197E+03  0.25500000000E-02 0.  1.
          2   -1    0    0  501    0  0.00000000000E+00 -0.00000000000E+00 -0.14362168186E+04  0.14362168186E+04  0.25500000000E-02 0. -1.
    8880023    1    1    2    0    0 -0.16127224865E+03 -0.71366121209E+03 -0.10447543384E+04  0.14354939560E+04  0.65864270000E+03 0. -1.
    8880022    1    1    2    0    0  0.16127224865E+03  0.71366121209E+03  0.51621431175E+03  0.90839965461E+03  0.15294330000E+03 0.  0.
<mgrwt>
<rscale>  0 0.91895035E+03</rscale>
<asrwt>0</asrwt>
<pdfrwt beam="1">  1        2 0.22095643E+00 0.98444465E+03</pdfrwt>
<pdfrwt beam="2">  1       -2 0.13964258E+00 0.98444465E+03</pdfrwt>
<totfact> 0.49602144E+00</totfact>
</mgrwt>
</event>
<event>
 4    5  0.6615028E-008  0.8803178E+03  0.7818608E-02  0.9558397E-01
         -2   -1    0    0    0  501 -0.00000000000E+00  0.00000000000E+00  0.36042581126E+03  0.36042581127E+03  0.25500000000E-02 0.  1.
          2   -1    0    0  501    0  0.00000000000E+00 -0.00000000000E+00 -0.28753712033E+04  0.28753712033E+04  0.25500000000E-02 0. -1.
    8880023    1    1    2    0    0  0.47537362002E+03 -0.33936568823E+03 -0.24793288459E+04  0.26309752719E+04  0.65864270000E+03 0.  0.
    8880022    1    1    2    0    0 -0.47537362002E+03  0.33936568823E+03 -0.35616546079E+02  0.60482174261E+03  0.15294330000E+03 0.  0.
<mgrwt>
<rscale>  0 0.80112054E+03</rscale>
<asrwt>0</asrwt>
<pdfrwt beam="1">  1        2 0.44236479E+00 0.88031776E+03</pdfrwt>
<pdfrwt beam="2">  1       -2 0.55450127E-01 0.88031776E+03</pdfrwt>
<totfact> 0.65992104E+00</totfact>
</mgrwt>
</event>
<event>
 4    5  0.6615028E-008  0.8994155E+03  0.7818608E-02  0.9526970E-01
         -2   -1    0    0    0  501 -0.00000000000E+00  0.00000000000E+00  0.90356887152E+03  0.90356887153E+03  0.25500000000E-02 0.  1.
          2   -1    0    0  501    0  0.00000000000E+00 -0.00000000000E+00 -0.72454961480E+03  0.72454961481E+03  0.25500000000E-02 0. -1.
    8880023    1    1    2    0    0  0.21736103691E+02 -0.61209938812E+03  0.36400360921E+03  0.97028189354E+03  0.65864270000E+03 0.  0.
    8880022    1    1    2    0    0 -0.21736103691E+02  0.61209938812E+03 -0.18498435249E+03  0.65783659280E+03  0.15294330000E+03 0.  0.
<mgrwt>
<rscale>  0 0.82324270E+03</rscale>
<asrwt>0</asrwt>
<pdfrwt beam="1">  1        2 0.11146917E+00 0.89941555E+03</pdfrwt>
<pdfrwt beam="2">  1       -2 0.13901060E+00 0.89941555E+03</pdfrwt>
<totfact> 0.14356069E+01</totfact>
</mgrwt>
</event>
<event>
 4    5  0.6615028E-008  0.1368911E+04  0.7818608E-02  0.9008224E-01
          2   -1    0    0  501    0  0.00000000000E+00  0.00000000000E+00  0.14835043973E+04  0.14835043973E+04  0.25500000000E-02 0. -1.
         -2   -1    0    0    0  501 -0.00000000000E+00 -0.00000000000E+00 -0.16944779914E+04  0.16944779914E+04  0.25500000000E-02 0.  1.
    8880023    1    1    2    0    0  0.44706885063E+03 -0.11136595188E+04  0.81378960776E+03  0.15925362831E+04  0.65864270000E+03 0.  0.
    8880022    1    1    2    0    0 -0.44706885063E+03  0.11136595188E+04 -0.10247632018E+04  0.15854461057E+04  0.15294330000E+03 0.  0.
<mgrwt>
<rscale>  0 0.13272587E+04</rscale>
<asrwt>0</asrwt>
<pdfrwt beam="1">  1        2 0.22823145E+00 0.13689114E+04</pdfrwt>
<pdfrwt beam="2">  1       -2 0.26068892E+00 0.13689114E+04</pdfrwt>
<totfact> 0.68327625E-01</totfact>
</mgrwt>
</event>
<event>
 4    5  0.6615028E-008  0.1266063E+04  0.7818608E-02  0.9095435E-01
          2   -1    0    0  501    0  0.00000000000E+00  0.00000000000E+00  0.81006606765E+03  0.81006606765E+03  0.25500000000E-02 0. -1.
         -2   -1    0    0    0  501 -0.00000000000E+00 -0.00000000000E+00 -0.19559254508E+04  0.19559254508E+04  0.25500000000E-02 0.  1.
    8880023    1    1    2    0    0  0.39262293971E+03  0.10074488738E+04 -0.12688934595E+03  0.12724060352E+04  0.65864270000E+03 0.  0.
    8880022    1    1    2    0    0 -0.39262293971E+03 -0.10074488738E+04 -0.10189700372E+04  0.14935854833E+04  0.15294330000E+03 0.  0.
<mgrwt>
<rscale>  0 0.12201093E+04</rscale>
<asrwt>0</asrwt>
<pdfrwt beam="1">  1        2 0.12462555E+00 0.12660633E+04</pdfrwt>
<pdfrwt beam="2">  1       -2 0.30091161E+00 0.12660633E+04</pdfrwt>
<totfact> 0.10348237E+00</totfact>
</mgrwt>
</event>
<event>
 4    5  0.6615028E-008  0.1039373E+04  0.7818608E-02  0.9331767E-01
          2   -1    0    0  501    0  0.00000000000E+00  0.00000000000E+00  0.22227054263E+04  0.22227054263E+04  0.25500000000E-02 0. -1.
         -2   -1    0    0    0  501 -0.00000000000E+00 -0.00000000000E+00 -0.84519640226E+03  0.84519640227E+03  0.25500000000E-02 0.  1.
    8880023    1    1    2    0    0  0.66511046701E+03 -0.45178923752E+03 -0.39788958539E+03  0.11129293674E+04  0.65864270000E+03 0.  1.
    8880022    1    1    2    0    0 -0.66511046701E+03  0.45178923752E+03  0.17753986095E+04  0.19549724612E+04  0.15294330000E+03 0.  0.
<mgrwt>
<rscale>  0 0.97910186E+03</rscale>
<asrwt>0</asrwt>
<pdfrwt beam="1">  1        2 0.34195468E+00 0.10393727E+04</pdfrwt>
<pdfrwt beam="2">  1       -2 0.13003022E+00 0.10393727E+04</pdfrwt>
<totfact> 0.21682291E+00</totfact>
</mgrwt>
</event>
<event>
 4    5  0.6615028E-008  0.8314402E+03  0.7818608E-02  0.9646537E-01
         -2   -1    0    0    0  501 -0.00000000000E+00  0.00000000000E+00  0.18019505651E+04  0.18019505651E+04  0.25500000000E-02 0.  1.
          2   -1    0    0  501    0  0.00000000000E+00 -0.00000000000E+00 -0.59094993908E+03  0.59094993909E+03  0.25500000000E-02 0. -1.
    8880023    1    1    2    0    0  0.43256920914E+03  0.26526685594E+03 -0.22573094639E+03  0.86153774843E+03  0.65864270000E+03 0. -1.
    8880022    1    1    2    0    0 -0.43256920914E+03 -0.26526685594E+03  0.14367315724E+04  0.15313627558E+04  0.15294330000E+03 0.  0.
<mgrwt>
<rscale>  0 0.74291182E+03</rscale>
<asrwt>0</asrwt>
<pdfrwt beam="1">  1        2 0.90915377E-01 0.83144022E+03</pdfrwt>
<pdfrwt beam="2">  1       -2 0.27722316E+00 0.83144022E+03</pdfrwt>
<totfact> 0.22654796E+00</totfact>
</mgrwt>
</event>
<event>
 4    5  0.6615028E-008  0.6777865E+03  0.7818608E-02  0.1010604E+00
         -2   -1    0    0    0  501 -0.00000000000E+00  0.00000000000E+00  0.13050873950E+04  0.13050873950E+04  0.25500000000E-02 0.  1.
          2   -1    0    0  501    0  0.00000000000E+00 -0.00000000000E+00 -0.12176557927E+04  0.12176557927E+04  0.25500000000E-02 0. -1.
    8880023    1    1    2    0    0  0.68573677108E+02 -0.14450605903E+03 -0.11124267337E+04  0.13026464580E+04  0.65864270000E+03 0. -1.
    8880022    1    1    2    0    0 -0.68573677108E+02  0.14450605903E+03  0.11998583360E+04  0.12200967297E+04  0.15294330000E+03 0.  0.
<mgrwt>
<rscale>  0 0.51235103E+03</rscale>
<asrwt>0</asrwt>
<pdfrwt beam="1">  1        2 0.18733166E+00 0.67778651E+03</pdfrwt>
<pdfrwt beam="2">  1       -2 0.20078268E+00 0.67778651E+03</pdfrwt>
<totfact> 0.25275714E+00</totfact>
</mgrwt>
</event>
<event>
 4    5  0.6615028E-008  0.7747518E+03  0.7818608E-02  0.9768313E-01
          2   -1    0    0  501    0  0.00000000000E+00  0.00000000000E+00  0.13010279963E+04  0.13010279963E+04  0.25500000000E-02 0. -1.
         -2   -1    0    0    0  501 -0.00000000000E+00 -0.00000000000E+00 -0.81736806729E+03  0.81736806730E+03  0.25500000000E-02 0.  1.
    8880023    1    1    2    0    0 -0.19443239605E+03 -0.35864497296E+03  0.11110882018E+04  0.13545321597E+04  0.65864270000E+03 0.  0.
    8880022    1    1    2    0    0  0.19443239605E+03  0.35864497296E+03 -0.62742827275E+03  0.76386390392E+03  0.15294330000E+03 0.  0.
<mgrwt>
<rscale>  0 0.67091148E+03</rscale>
<asrwt>0</asrwt>
<pdfrwt beam="1">  1        2 0.20015815E+00 0.77475182E+03</pdfrwt>
<pdfrwt beam="2">  1       -2 0.12574893E+00 0.77475182E+03</pdfrwt>
<totfact> 0.79405198E+00</totfact>
</mgrwt>
</event>
<event>
 4    5  0.6615028E-008  0.7892941E+03  0.7818608E-02  0.9734441E-01
          2   -1    0    0  501    0  0.00000000000E+00  0.00000000000E+00  0.42241541556E+03  0.42241541557E+03  0.25500000000E-02 0. -1.
         -2   -1    0    0    0  501 -0.00000000000E+00 -0.00000000000E+00 -0.18267315483E+04  0.18267315483E+04  0.25500000000E-02 0.  1.
    8880023    1    1    2    0    0  0.39473374847E+03 -0.18264793601E+03 -0.19431490722E+02  0.78953327340E+03  0.65864270000E+03 0.  0.
    8880022    1    1    2    0    0 -0.39473374847E+03  0.18264793601E+03 -0.13848846420E+04  0.14596136905E+04  0.15294330000E+03 0.  0.
<mgrwt>
<rscale>  0 0.69002693E+03</rscale>
<asrwt>0</asrwt>
<pdfrwt beam="1">  1        2 0.64986988E-01 0.78929412E+03</pdfrwt>
<pdfrwt beam="2">  1       -2 0.28103562E+00 0.78929412E+03</pdfrwt>
<totfact> 0.31972156E+00</totfact>
</mgrwt>
</event>
<event>
 4    5  0.6615028E-008  0.1728585E+04  0.7818608E-02  0.8763104E-01
         -2   -1    0    0    0  501 -0.00000000000E+00  0.00000000000E+00  0.13594384966E+04  0.13594384966E+04  0.25500000000E-02 0.  1.
          2   -1    0    0  501    0  0.00000000000E+00 -0.00000000000E+00 -0.25611115503E+04  0.25611115503E+04  0.25500000000E-02 0. -1.
    8880023    1    1    2    0    0  0.13534175086E+04 -0.84997551959E+03  0.26161423169E+03  0.17482704450E+04  0.65864270000E+03 0.  1.
    8880022    1    1    2    0    0 -0.13534175086E+04  0.84997551959E+03 -0.14632872854E+04  0.21722796020E+04  0.15294330000E+03 0.  0.
<mgrwt>
<rscale>  0 0.16969531E+04</rscale>
<asrwt>0</asrwt>
<pdfrwt beam="1">  1        2 0.39401716E+00 0.17285854E+04</pdfrwt>
<pdfrwt beam="2">  1       -2 0.20914438E+00 0.17285854E+04</pdfrwt>
<totfact> 0.34098036E-01</totfact>
</mgrwt>
</event>
<event>
 4    5  0.6615028E-008  0.8859441E+03  0.7818608E-02  0.9548983E-01
         -2   -1    0    0    0  501 -0.00000000000E+00  0.00000000000E+00  0.77591455711E+03  0.77591455711E+03  0.25500000000E-02 0.  1.
          2   -1    0    0  501    0  0.00000000000E+00 -0.00000000000E+00 -0.11683442579E+04  0.11683442579E+04  0.25500000000E-02 0. -1.
    8880023    1    1    2    0    0 -0.23373547580E+03  0.54447637950E+03 -0.81242227873E+03  0.12020511494E+04  0.65864270000E+03 0.  0.
    8880022    1    1    2    0    0  0.23373547580E+03 -0.54447637950E+03  0.41999257791E+03  0.74220766567E+03  0.15294330000E+03 0.  0.
<mgrwt>
<rscale>  0 0.80766843E+03</rscale>
<asrwt>0</asrwt>
<pdfrwt beam="1">  1        2 0.17974527E+00 0.88594413E+03</pdfrwt>
<pdfrwt beam="2">  1       -2 0.11937147E+00 0.88594413E+03</pdfrwt>
<totfact> 0.10686186E+01</totfact>
</mgrwt>
</event>
<event>
 4    5  0.6615028E-008  0.7111693E+03  0.7818608E-02  0.9953684E-01
          2   -1    0    0  501    0  0.00000000000E+00  0.00000000000E+00  0.15821671082E+04  0.15821671082E+04  0.25500000000E-02 0. -1.
         -2   -1    0    0    0  501 -0.00000000000E+00 -0.00000000000E+00 -0.16454076605E+03  0.16454076607E+03  0.25500000000E-02 0.  1.
    8880023    1    1    2    0    0  0.13202892563E+03 -0.23349499106E+03  0.96289258099E+03  0.11970479843E+04  0.65864270000E+03 0.  1.
    8880022    1    1    2    0    0 -0.13202892563E+03  0.23349499106E+03  0.45473376119E+03  0.54965988996E+03  0.15294330000E+03 0. -1.
<mgrwt>
<rscale>  0 0.57728591E+03</rscale>
<asrwt>0</asrwt>
<pdfrwt beam="1">  1        2 0.24341032E+00 0.71116929E+03</pdfrwt>
<pdfrwt beam="2">  1       -2 0.25313965E-01 0.71116929E+03</pdfrwt>
<totfact> 0.16313428E+02</totfact>
</mgrwt>
</event>
<event>
 4    5  0.6615028E-008  0.6873969E+03  0.7818608E-02  0.1005415E+00
         -2   -1    0    0    0  501 -0.00000000000E+00  0.00000000000E+00  0.24954381471E+03  0.24954381473E+03  0.25500000000E-02 0.  1.
          2   -1    0    0  501    0  0.00000000000E+00 -0.00000000000E+00 -0.11984196920E+04  0.11984196920E+04  0.25500000000E-02 0. -1.
    8880023    1    1    2    0    0 -0.19008297730E+03 -0.50722325623E+02 -0.97977993698E+03  0.11968639120E+04  0.65864270000E+03 0.  0.
    8880022    1    1    2    0    0  0.19008297730E+03  0.50722325623E+02  0.30904059687E+02  0.25109959477E+03  0.15294330000E+03 0.  0.
<mgrwt>
<rscale>  0 0.53338228E+03</rscale>
<asrwt>0</asrwt>
<pdfrwt beam="1">  1        2 0.18437226E+00 0.68739690E+03</pdfrwt>
<pdfrwt beam="2">  1       -2 0.38391357E-01 0.68739690E+03</pdfrwt>
<totfact> 0.12395655E+02</totfact>
</mgrwt>
</event>
<event>
 4    5  0.6615028E-008  0.1287753E+04  0.7818608E-02  0.9076208E-01
         -2   -1    0    0    0  501 -0.00000000000E+00  0.00000000000E+00  0.89023787927E+03  0.89023787927E+03  0.25500000000E-02 0.  1.
          2   -1    0    0  501    0  0.00000000000E+00 -0.00000000000E+00 -0.23947160222E+04  0.23947160222E+04  0.25500000000E-02 0. -1.
    8880023    1    1    2    0    0  0.10138924869E+04 -0.44330637644E+03 -0.17185954261E+04  0.21475285710E+04  0.65864270000E+03 0.  0.
    8880022    1    1    2    0    0 -0.10138924869E+04  0.44330637644E+03  0.21411728319E+03  0.11374253304E+04  0.15294330000E+03 0.  0.
<mgrwt>
<rscale>  0 0.12427866E+04</rscale>
<asrwt>0</asrwt>
<pdfrwt beam="1">  1        2 0.36841785E+00 0.12877534E+04</pdfrwt>
<pdfrwt beam="2">  1       -2 0.13695967E+00 0.12877534E+04</pdfrwt>
<totfact> 0.14728621E+00</totfact>
</mgrwt>
</event>
<event>
 4    5  0.6615028E-008  0.1245031E+04  0.7818608E-02  0.9114545E-01
         -2   -1    0    0    0  501 -0.00000000000E+00  0.00000000000E+00  0.54412628210E+03  0.54412628210E+03  0.25500000000E-02 0.  1.
          2   -1    0    0  501    0  0.00000000000E+00 -0.00000000000E+00 -0.27008815350E+04  0.27008815350E+04  0.25500000000E-02 0. -1.
    8880023    1    1    2    0    0 -0.95014964474E+03  0.46206942245E+03 -0.66760633446E+03  0.14127281843E+04  0.65864270000E+03 0.  0.
    8880022    1    1    2    0    0  0.95014964474E+03 -0.46206942245E+03 -0.14891489184E+04  0.18322796328E+04  0.15294330000E+03 0.  0.
<mgrwt>
<rscale>  0 0.11980729E+04</rscale>
<asrwt>0</asrwt>
<pdfrwt beam="1">  1        2 0.41552023E+00 0.12450312E+04</pdfrwt>
<pdfrwt beam="2">  1       -2 0.83711738E-01 0.12450312E+04</pdfrwt>
<totfact> 0.32531557E+00</totfact>
</mgrwt>
</event>
<event>
 4    5  0.6615028E-008  0.1710169E+04  0.7818608E-02  0.8773926E-01
         -2   -1    0    0    0  501 -0.00000000000E+00  0.00000000000E+00  0.97177413262E+03  0.97177413262E+03  0.25500000000E-02 0.  1.
          2   -1    0    0  501    0  0.00000000000E+00 -0.00000000000E+00 -0.45956904490E+04  0.45956904490E+04  0.25500000000E-02 0. -1.
    8880023    1    1    2    0    0  0.43723692171E+03 -0.15164730333E+04 -0.35955840340E+04  0.39815702101E+04  0.65864270000E+03 0.  1.
    8880022    1    1    2    0    0 -0.43723692171E+03  0.15164730333E+04 -0.28332282361E+02  0.15858943715E+04  0.15294330000E+03 0.  0.
<mgrwt>
<rscale>  0 0.16781487E+04</rscale>
<asrwt>0</asrwt>
<pdfrwt beam="1">  1        2 0.70702929E+00 0.17101686E+04</pdfrwt>
<pdfrwt beam="2">  1       -2 0.14950372E+00 0.17101686E+04</pdfrwt>
<totfact> 0.28173567E-02</totfact>
</mgrwt>
</event>
<event>
 4    5  0.6615028E-008  0.7286876E+03  0.7818608E-02  0.9894216E-01
          2   -1    0    0  501    0  0.00000000000E+00  0.00000000000E+00  0.98511769985E+03  0.98511769985E+03  0.25500000000E-02 0. -1.
         -2   -1    0    0    0  501 -0.00000000000E+00 -0.00000000000E+00 -0.56196991516E+03  0.56196991516E+03  0.25500000000E-02 0.  1.
    8880023    1    1    2    0    0  0.29869306644E+03 -0.89207078673E+02  0.76731961503E+03  0.10581895145E+04  0.65864270000E+03 0. -1.
    8880022    1    1    2    0    0 -0.29869306644E+03  0.89207078673E+02 -0.34417183034E+03  0.48889810047E+03  0.15294330000E+03 0.  0.
<mgrwt>
<rscale>  0 0.60542402E+03</rscale>
<asrwt>0</asrwt>
<pdfrwt beam="1">  1        2 0.15155657E+00 0.72868763E+03</pdfrwt>
<pdfrwt beam="2">  1       -2 0.86456910E-01 0.72868763E+03</pdfrwt>
<totfact> 0.30386826E+01</totfact>
</mgrwt>
</event>
<event>
 4    5  0.6615028E-008  0.7449866E+03  0.7818608E-02  0.9845652E-01
         -2   -1    0    0    0  501 -0.00000000000E+00  0.00000000000E+00  0.17584275865E+04  0.17584275865E+04  0.25500000000E-02 0.  1.
          2   -1    0    0  501    0  0.00000000000E+00 -0.00000000000E+00 -0.10966906853E+04  0.10966906853E+04  0.25500000000E-02 0. -1.
    8880023    1    1    2    0    0  0.52308489229E+02 -0.34417832848E+03 -0.94537488534E+03  0.12036356508E+04  0.65864270000E+03 0. -1.
    8880022    1    1    2    0    0 -0.52308489229E+02  0.34417832848E+03  0.16071117865E+04  0.16514826210E+04  0.15294330000E+03 0.  0.
<mgrwt>
<rscale>  0 0.62969081E+03</rscale>
<asrwt>0</asrwt>
<pdfrwt beam="1">  1        2 0.16872164E+00 0.74498665E+03</pdfrwt>
<pdfrwt beam="2">  1       -2 0.27052732E+00 0.74498665E+03</pdfrwt>
<totfact> 0.10964820E+00</totfact>
</mgrwt>
</event>
<event>
 4    5  0.6615028E-008  0.1202509E+04  0.7818608E-02  0.9154687E-01
          2   -1    0    0  501    0  0.00000000000E+00  0.00000000000E+00  0.28203025209E+04  0.28203025209E+04  0.25500000000E-02 0. -1.
         -2   -1    0    0    0  501 -0.00000000000E+00 -0.00000000000E+00 -0.11584952779E+04  0.11584952779E+04  0.25500000000E-02 0.  1.
    8880023    1    1    2    0    0  0.89811248396E+03 -0.45344481659E+03  0.24249890515E+04  0.27067693551E+04  0.65864270000E+03 0. -1.
    8880022    1    1    2    0    0 -0.89811248396E+03  0.45344481659E+03 -0.76318180858E+03  0.12720284437E+04  0.15294330000E+03 0.  0.
<mgrwt>
<rscale>  0 0.11533625E+04</rscale>
<asrwt>0</asrwt>
<pdfrwt beam="1">  1        2 0.43389269E+00 0.12025092E+04</pdfrwt>
<pdfrwt beam="2">  1       -2 0.17823004E+00 0.12025092E+04</pdfrwt>
<totfact> 0.41091567E-01</totfact>
</mgrwt>
</event>
<event>
 4    5  0.6615028E-008  0.7499493E+03  0.7818608E-02  0.9831859E-01
          2   -1    0    0  501    0  0.00000000000E+00  0.00000000000E+00  0.17566810906E+04  0.17566810906E+04  0.25500000000E-02 0. -1.
         -2   -1    0    0    0  501 -0.00000000000E+00 -0.00000000000E+00 -0.45386264974E+03  0.45386264975E+03  0.25500000000E-02 0.  1.
    8880023    1    1    2    0    0  0.30170694374E+03  0.19387290732E+03  0.15686226579E+04  0.17386779556E+04  0.65864270000E+03 0.  0.
    8880022    1    1    2    0    0 -0.30170694374E+03 -0.19387290732E+03 -0.26580421699E+03  0.47186578482E+03  0.15294330000E+03 0.  0.
<mgrwt>
<rscale>  0 0.63680480E+03</rscale>
<asrwt>0</asrwt>
<pdfrwt beam="1">  1        2 0.27025863E+00 0.74994933E+03</pdfrwt>
<pdfrwt beam="2">  1       -2 0.69825022E-01 0.74994933E+03</pdfrwt>
<totfact> 0.17543519E+01</totfact>
</mgrwt>
</event>
<event>
 4    5  0.6615028E-008  0.1006304E+04  0.7818608E-02  0.9373356E-01
         -2   -1    0    0    0  501 -0.00000000000E+00  0.00000000000E+00  0.13148525655E+04  0.13148525655E+04  0.25500000000E-02 0.  1.
          2   -1    0    0  501    0  0.00000000000E+00 -0.00000000000E+00 -0.20657642343E+04  0.20657642343E+04  0.25500000000E-02 0. -1.
    8880023    1    1    2    0    0  0.75225184946E+03 -0.11381779049E+03 -0.18080449750E+04  0.20692206679E+04  0.65864270000E+03 0. -1.
    8880022    1    1    2    0    0 -0.75225184946E+03  0.11381779049E+03  0.10571333062E+04  0.13113961318E+04  0.15294330000E+03 0.  0.
<mgrwt>
<rscale>  0 0.94301168E+03</rscale>
<asrwt>0</asrwt>
<pdfrwt beam="1">  1        2 0.31780988E+00 0.10063039E+04</pdfrwt>
<pdfrwt beam="2">  1       -2 0.20228501E+00 0.10063039E+04</pdfrwt>
<totfact> 0.78794453E-01</totfact>
</mgrwt>
</event>
<event>
 4    5  0.6615028E-008  0.1313983E+04  0.7818608E-02  0.9053578E-01
          2   -1    0    0  501    0  0.00000000000E+00  0.00000000000E+00  0.22144727475E+04  0.22144727475E+04  0.25500000000E-02 0. -1.
         -2   -1    0    0    0  501 -0.00000000000E+00 -0.00000000000E+00 -0.85157198787E+03  0.85157198787E+03  0.25500000000E-02 0.  1.
    8880023    1    1    2    0    0 -0.39834661682E+03 -0.10649228387E+04  0.13976025776E+04  0.19182919097E+04  0.65864270000E+03 0.  0.
    8880022    1    1    2    0    0  0.39834661682E+03  0.10649228387E+04 -0.34701818027E+02  0.11477528256E+04  0.15294330000E+03 0.  0.
<mgrwt>
<rscale>  0 0.12701491E+04</rscale>
<asrwt>0</asrwt>
<pdfrwt beam="1">  1        2 0.34068811E+00 0.13139828E+04</pdfrwt>
<pdfrwt beam="2">  1       -2 0.13101108E+00 0.13139828E+04</pdfrwt>
<totfact> 0.20815945E+00</totfact>
</mgrwt>
</event>
<event>
 4    5  0.6615028E-008  0.7769692E+03  0.7818608E-02  0.9763005E-01
          2   -1    0    0  501    0  0.00000000000E+00  0.00000000000E+00  0.19648890387E+04  0.19648890387E+04  0.25500000000E-02 0. -1.
         -2   -1    0    0    0  501 -0.00000000000E+00 -0.00000000000E+00 -0.31214506597E+03  0.31214506598E+03  0.25500000000E-02 0.  1.
    8880023    1    1    2    0    0 -0.40571329232E+03  0.72578099689E+02  0.16648748119E+04  0.18372504461E+04  0.65864270000E+03 0. -1.
    8880022    1    1    2    0    0  0.40571329232E+03 -0.72578099689E+02 -0.12130839122E+02  0.43978365862E+03  0.15294330000E+03 0.  0.
<mgrwt>
<rscale>  0 0.67386249E+03</rscale>
<asrwt>0</asrwt>
<pdfrwt beam="1">  1        2 0.30229062E+00 0.77696915E+03</pdfrwt>
<pdfrwt beam="2">  1       -2 0.48022318E-01 0.77696915E+03</pdfrwt>
<totfact> 0.29524870E+01</totfact>
</mgrwt>
</event>
<event>
 4    5  0.6615028E-008  0.1046206E+04  0.7818608E-02  0.9323456E-01
         -2   -1    0    0    0  501 -0.00000000000E+00  0.00000000000E+00  0.11385096231E+04  0.11385096231E+04  0.25500000000E-02 0.  1.
          2   -1    0    0  501    0  0.00000000000E+00 -0.00000000000E+00 -0.18026676262E+04  0.18026676262E+04  0.25500000000E-02 0. -1.
    8880023    1    1    2    0    0  0.70421955570E+03  0.40597021898E+03  0.76078414663E+03  0.12935763315E+04  0.65864270000E+03 0.  1.
    8880022    1    1    2    0    0 -0.70421955570E+03 -0.40597021898E+03 -0.14249421498E+04  0.16476009178E+04  0.15294330000E+03 0.  0.
<mgrwt>
<rscale>  0 0.98651833E+03</rscale>
<asrwt>0</asrwt>
<pdfrwt beam="1">  1        2 0.27733348E+00 0.10462061E+04</pdfrwt>
<pdfrwt beam="2">  1       -2 0.17515533E+00 0.10462061E+04</pdfrwt>
<totfact> 0.16670697E+00</totfact>
</mgrwt>
</event>
<event>
 4    5  0.6615028E-008  0.1127842E+04  0.7818608E-02  0.9230673E-01
         -2   -1    0    0    0  501 -0.00000000000E+00  0.00000000000E+00  0.11178642461E+04  0.11178642461E+04  0.25500000000E-02 0.  1.
          2   -1    0    0  501    0  0.00000000000E+00 -0.00000000000E+00 -0.11703665038E+04  0.11703665038E+04  0.25500000000E-02 0. -1.
    8880023    1    1    2    0    0 -0.60934717998E+03 -0.68331086915E+03 -0.52798021787E+03  0.12453076111E+04  0.65864270000E+03 0.  0.
    8880022    1    1    2    0    0  0.60934717998E+03  0.68331086915E+03  0.47547796017E+03  0.10429231387E+04  0.15294330000E+03 0.  0.
<mgrwt>
<rscale>  0 0.10742368E+04</rscale>
<asrwt>0</asrwt>
<pdfrwt beam="1">  1        2 0.18005638E+00 0.11278422E+04</pdfrwt>
<pdfrwt beam="2">  1       -2 0.17197912E+00 0.11278422E+04</pdfrwt>
<totfact> 0.39842093E+00</totfact>
</mgrwt>
</event>
<event>
 4    5  0.6615028E-008  0.1159561E+04  0.7818608E-02  0.9197471E-01
         -2   -1    0    0    0  501 -0.00000000000E+00  0.00000000000E+00  0.18570976756E+04  0.18570976756E+04  0.25500000000E-02 0.  1.
          2   -1    0    0  501    0  0.00000000000E+00 -0.00000000000E+00 -0.15183233338E+04  0.15183233338E+04  0.25500000000E-02 0. -1.
    8880023    1    1    2    0    0  0.79499016374E+03 -0.52797877102E+03 -0.11287391368E+04  0.16182191410E+04  0.65864270000E+03 0.  0.
    8880022    1    1    2    0    0 -0.79499016374E+03  0.52797877102E+03  0.14675134786E+04  0.17572018683E+04  0.15294330000E+03 0.  0.
<mgrwt>
<rscale>  0 0.11079571E+04</rscale>
<asrwt>0</asrwt>
<pdfrwt beam="1">  1        2 0.23358821E+00 0.11595608E+04</pdfrwt>
<pdfrwt beam="2">  1       -2 0.28570733E+00 0.11595608E+04</pdfrwt>
<totfact> 0.47198294E-01</totfact>
</mgrwt>
</event>
<event>
 4    5  0.6615028E-008  0.9795268E+03  0.7818608E-02  0.9408847E-01
         -2   -1    0    0    0  501 -0.00000000000E+00  0.00000000000E+00  0.80396440800E+03  0.80396440801E+03  0.25500000000E-02 0.  1.
          2   -1    0    0  501    0  0.00000000000E+00 -0.00000000000E+00 -0.15640419209E+04  0.15640419209E+04  0.25500000000E-02 0. -1.
    8880023    1    1    2    0    0 -0.68309724791E+03  0.24298273989E+03 -0.11662308163E+04  0.15230124704E+04  0.65864270000E+03 0.  0.
    8880022    1    1    2    0    0  0.68309724791E+03 -0.24298273989E+03  0.40615330338E+03  0.84499385847E+03  0.15294330000E+03 0.  0.
<mgrwt>
<rscale>  0 0.91351172E+03</rscale>
<asrwt>0</asrwt>
<pdfrwt beam="1">  1        2 0.24062183E+00 0.97952676E+03</pdfrwt>
<pdfrwt beam="2">  1       -2 0.12368683E+00 0.97952676E+03</pdfrwt>
<totfact> 0.57317294E+00</totfact>
</mgrwt>
</event>
<event>
 4    5  0.6615028E-008  0.7504282E+03  0.7818608E-02  0.9830549E-01
         -2   -1    0    0    0  501 -0.00000000000E+00  0.00000000000E+00  0.67698131891E+03  0.67698131892E+03  0.25500000000E-02 0.  1.
          2   -1    0    0  501    0  0.00000000000E+00 -0.00000000000E+00 -0.29538684321E+04  0.29538684321E+04  0.25500000000E-02 0. -1.
    8880023    1    1    2    0    0  0.18118847765E+03  0.31064939396E+03 -0.28444389968E+04  0.29417640495E+04  0.65864270000E+03 0. -1.
    8880022    1    1    2    0    0 -0.18118847765E+03 -0.31064939396E+03  0.56755188360E+03  0.68908570149E+03  0.15294330000E+03 0.  0.
<mgrwt>
<rscale>  0 0.63748544E+03</rscale>
<asrwt>0</asrwt>
<pdfrwt beam="1">  1        2 0.45444129E+00 0.75042822E+03</pdfrwt>
<pdfrwt beam="2">  1       -2 0.10415097E+00 0.75042822E+03</pdfrwt>
<totfact> 0.14867403E+00</totfact>
</mgrwt>
</event>
<event>
 4    5  0.6615028E-008  0.8706812E+03  0.7818608E-02  0.9574839E-01
          2   -1    0    0  501    0  0.00000000000E+00  0.00000000000E+00  0.11049228205E+04  0.11049228205E+04  0.25500000000E-02 0. -1.
         -2   -1    0    0    0  501 -0.00000000000E+00 -0.00000000000E+00 -0.58005403594E+03  0.58005403594E+03  0.25500000000E-02 0.  1.
    8880023    1    1    2    0    0  0.56382778862E+03  0.79835629644E+02  0.64458035350E+03  0.10833141471E+04  0.65864270000E+03 0.  0.
    8880022    1    1    2    0    0 -0.56382778862E+03 -0.79835629644E+02 -0.11971156897E+03  0.60166270929E+03  0.15294330000E+03 0.  0.
<mgrwt>
<rscale>  0 0.78984127E+03</rscale>
<asrwt>0</asrwt>
<pdfrwt beam="1">  1        2 0.16998812E+00 0.87068118E+03</pdfrwt>
<pdfrwt beam="2">  1       -2 0.89239084E-01 0.87068118E+03</pdfrwt>
<totfact> 0.23449662E+01</totfact>
</mgrwt>
</event>
<event>
 4    5  0.6615028E-008  0.1000118E+04  0.7818608E-02  0.9381404E-01
          2   -1    0    0  501    0  0.00000000000E+00  0.00000000000E+00  0.15953322996E+04  0.15953322996E+04  0.25500000000E-02 0. -1.
         -2   -1    0    0    0  501 -0.00000000000E+00 -0.00000000000E+00 -0.76265513990E+03  0.76265513990E+03  0.25500000000E-02 0.  1.
    8880023    1    1    2    0    0 -0.26661300385E+03  0.70380571765E+03  0.11526056889E+04  0.15260193519E+04  0.65864270000E+03 0.  0.
    8880022    1    1    2    0    0  0.26661300385E+03 -0.70380571765E+03 -0.31992852918E+03  0.83196808762E+03  0.15294330000E+03 0.  0.
<mgrwt>
<rscale>  0 0.93622002E+03</rscale>
<asrwt>0</asrwt>
<pdfrwt beam="1">  1        2 0.24543574E+00 0.10001176E+04</pdfrwt>
<pdfrwt beam="2">  1       -2 0.11733156E+00 0.10001176E+04</pdfrwt>
<totfact> 0.62658741E+00</totfact>
</mgrwt>
</event>
<event>
 4    5  0.6615028E-008  0.9470298E+03  0.7818608E-02  0.9454401E-01
         -2   -1    0    0    0  501 -0.00000000000E+00  0.00000000000E+00  0.89059579248E+03  0.89059579248E+03  0.25500000000E-02 0.  1.
          2   -1    0    0  501    0  0.00000000000E+00 -0.00000000000E+00 -0.17265072612E+04  0.17265072612E+04  0.25500000000E-02 0. -1.
    8880023    1    1    2    0    0  0.66075594914E+03  0.16265524455E+03 -0.14203699526E+04  0.17071368315E+04  0.65864270000E+03 0.  0.
    8880022    1    1    2    0    0 -0.66075594914E+03 -0.16265524455E+03  0.58445848397E+03  0.90996622212E+03  0.15294330000E+03 0.  0.
<mgrwt>
<rscale>  0 0.87730810E+03</rscale>
<asrwt>0</asrwt>
<pdfrwt beam="1">  1        2 0.26561650E+00 0.94702976E+03</pdfrwt>
<pdfrwt beam="2">  1       -2 0.13701474E+00 0.94702976E+03</pdfrwt>
<totfact> 0.36060676E+00</totfact>
</mgrwt>
</event>
<event>
 4    5  0.6615028E-008  0.1136197E+04  0.7818608E-02  0.9221787E-01
          2   -1    0    0  501    0  0.00000000000E+00  0.00000000000E+00  0.11004353839E+04  0.11004353839E+04  0.25500000000E-02 0. -1.
         -2   -1    0    0    0  501 -0.00000000000E+00 -0.00000000000E+00 -0.14004898801E+04  0.14004898801E+04  0.25500000000E-02 0.  1.
    8880023    1    1    2    0    0 -0.80062088257E+03 -0.46490747303E+03  0.52481800460E+03  0.12515497994E+04  0.65864270000E+03 0.  0.
    8880022    1    1    2    0    0  0.80062088257E+03  0.46490747303E+03 -0.82487250081E+03  0.12493754647E+04  0.15294330000E+03 0.  0.
<mgrwt>
<rscale>  0 0.10831356E+04</rscale>
<asrwt>0</asrwt>
<pdfrwt beam="1">  1        2 0.16929775E+00 0.11361967E+04</pdfrwt>
<pdfrwt beam="2">  1       -2 0.21545998E+00 0.11361967E+04</pdfrwt>
<totfact> 0.22498665E+00</totfact>
</mgrwt>
</event>
<event>
 4    5  0.6615028E-008  0.6856365E+03  0.7818608E-02  0.1006300E+00
         -2   -1    0    0    0  501 -0.00000000000E+00  0.00000000000E+00  0.46646657407E+03  0.46646657407E+03  0.25500000000E-02 0.  1.
          2   -1    0    0  501    0  0.00000000000E+00 -0.00000000000E+00 -0.17441613767E+04  0.17441613767E+04  0.25500000000E-02 0. -1.
    8880023    1    1    2    0    0 -0.27260562552E+02 -0.18853134006E+03 -0.16377741595E+04  0.17755003825E+04  0.65864270000E+03 0. -1.
    8880022    1    1    2    0    0  0.27260562552E+02  0.18853134006E+03  0.36007935684E+03  0.43512756830E+03  0.15294330000E+03 0.  0.
<mgrwt>
<rscale>  0 0.52972200E+03</rscale>
<asrwt>0</asrwt>
<pdfrwt beam="1">  1        2 0.26833252E+00 0.68563650E+03</pdfrwt>
<pdfrwt beam="2">  1       -2 0.71764089E-01 0.68563650E+03</pdfrwt>
<totfact> 0.16936924E+01</totfact>
</mgrwt>
</event>
<event>
 4    5  0.6615028E-008  0.6688065E+03  0.7818608E-02  0.1016533E+00
         -2   -1    0    0    0  501 -0.00000000000E+00  0.00000000000E+00  0.10114781122E+04  0.10114781122E+04  0.25500000000E-02 0.  1.
          2   -1    0    0  501    0  0.00000000000E+00 -0.00000000000E+00 -0.80312837148E+03  0.80312837149E+03  0.25500000000E-02 0. -1.
    8880023    1    1    2    0    0  0.43444948789E+02 -0.10772395016E+03 -0.65143559750E+03  0.93363293481E+03  0.65864270000E+03 0. -1.
    8880022    1    1    2    0    0 -0.43444948789E+02  0.10772395016E+03  0.85978533824E+03  0.88097354891E+03  0.15294330000E+03 0.  0.
<mgrwt>
<rscale>  0 0.48958654E+03</rscale>
<asrwt>0</asrwt>
<pdfrwt beam="1">  1        2 0.12355821E+00 0.66880649E+03</pdfrwt>
<pdfrwt beam="2">  1       -2 0.15561202E+00 0.66880649E+03</pdfrwt>
<totfact> 0.95565634E+00</totfact>
</mgrwt>
</event>
<event>
 4    5  0.6615028E-008  0.1268100E+04  0.7818608E-02  0.9093609E-01
          2   -1    0    0  501    0  0.00000000000E+00  0.00000000000E+00  0.35800415516E+04  0.35800415516E+04  0.25500000000E-02 0. -1.
         -2   -1    0    0    0  501 -0.00000000000E+00 -0.00000000000E+00 -0.81478508701E+03  0.81478508701E+03  0.25500000000E-02 0.  1.
    8880023    1    1    2    0    0  0.57840090671E+03  0.91636223692E+03  0.30163012220E+04  0.32720254623E+04  0.65864270000E+03 0.  0.
    8880022    1    1    2    0    0 -0.57840090671E+03 -0.91636223692E+03 -0.25104475742E+03  0.11228011762E+04  0.15294330000E+03 0.  0.
<mgrwt>
<rscale>  0 0.12222408E+04</rscale>
<asrwt>0</asrwt>
<pdfrwt beam="1">  1        2 0.55077561E+00 0.12681000E+04</pdfrwt>
<pdfrwt beam="2">  1       -2 0.12535156E+00 0.12681000E+04</pdfrwt>
<totfact> 0.33585286E-01</totfact>
</mgrwt>
</event>
<event>
 4    5  0.6615028E-008  0.9122149E+03  0.7818608E-02  0.9506701E-01
         -2   -1    0    0    0  501 -0.00000000000E+00  0.00000000000E+00  0.13967071417E+04  0.13967071417E+04  0.25500000000E-02 0.  1.
          2   -1    0    0  501    0  0.00000000000E+00 -0.00000000000E+00 -0.56218909617E+03  0.56218909617E+03  0.25500000000E-02 0. -1.
    8880023    1    1    2    0    0  0.36057935773E+03 -0.51798487579E+03  0.13782742739E+02  0.91231900946E+03  0.65864270000E+03 0.  0.
    8880022    1    1    2    0    0 -0.36057935773E+03  0.51798487579E+03  0.82073530279E+03  0.10465772284E+04  0.15294330000E+03 0.  0.
<mgrwt>
<rscale>  0 0.83791616E+03</rscale>
<asrwt>0</asrwt>
<pdfrwt beam="1">  1        2 0.86490631E-01 0.91221489E+03</pdfrwt>
<pdfrwt beam="2">  1       -2 0.21487802E+00 0.91221489E+03</pdfrwt>
<totfact> 0.57380355E+00</totfact>
</mgrwt>
</event>
<event>
 4    5  0.6615028E-008  0.1197161E+04  0.7818608E-02  0.9159887E-01
         -2   -1    0    0    0  501 -0.00000000000E+00  0.00000000000E+00  0.13153541945E+04  0.13153541945E+04  0.25500000000E-02 0.  1.
          2   -1    0    0  501    0  0.00000000000E+00 -0.00000000000E+00 -0.11324122892E+04  0.11324122892E+04  0.25500000000E-02 0. -1.
    8880023    1    1    2    0    0  0.99940203128E+03 -0.24104482588E+02 -0.42195261030E+03  0.12693461537E+04  0.65864270000E+03 0.  0.
    8880022    1    1    2    0    0 -0.99940203128E+03  0.24104482588E+02  0.60489451563E+03  0.11784203300E+04  0.15294330000E+03 0.  0.
<mgrwt>
<rscale>  0 0.11477233E+04</rscale>
<asrwt>0</asrwt>
<pdfrwt beam="1">  1        2 0.17421728E+00 0.11971615E+04</pdfrwt>
<pdfrwt beam="2">  1       -2 0.20236218E+00 0.11971615E+04</pdfrwt>
<totfact> 0.25953859E+00</totfact>
</mgrwt>
</event>
<event>
 4    5  0.6615028E-008  0.1033735E+04  0.7818608E-02  0.9338695E-01
          2   -1    0    0  501    0  0.00000000000E+00  0.00000000000E+00  0.83768653713E+03  0.83768653714E+03  0.25500000000E-02 0. -1.
         -2   -1    0    0    0  501 -0.00000000000E+00 -0.00000000000E+00 -0.15454440897E+04  0.15454440897E+04  0.25500000000E-02 0.  1.
    8880023    1    1    2    0    0 -0.60225359020E+03  0.52162055372E+03  0.31221340349E+03  0.10798540663E+04  0.65864270000E+03 0.  0.
    8880022    1    1    2    0    0  0.60225359020E+03 -0.52162055372E+03 -0.10199709561E+04  0.13032765605E+04  0.15294330000E+03 0.  0.
<mgrwt>
<rscale>  0 0.97297275E+03</rscale>
<asrwt>0</asrwt>
<pdfrwt beam="1">  1        2 0.12887485E+00 0.10337348E+04</pdfrwt>
<pdfrwt beam="2">  1       -2 0.23776063E+00 0.10337348E+04</pdfrwt>
<totfact> 0.24567083E+00</totfact>
</mgrwt>
</event>
<event>
 4    5  0.7244485E-008  0.8900305E+03  0.7818608E-02  0.9542229E-01
          2   -1    0    0  501    0  0.00000000000E+00  0.00000000000E+00  0.16389811608E+04  0.16389811608E+04  0.25500000000E-02 0. -1.
         -2   -1    0    0    0  501 -0.00000000000E+00 -0.00000000000E+00 -0.19195282655E+04  0.19195282655E+04  0.25500000000E-02 0.  1.
    8880023    1    1    2    0    0 -0.13546041567E+03  0.58309053404E+03  0.14609220240E+04  0.17106862545E+04  0.65864270000E+03 0.  0.
    8880022    1    1    2    0    0  0.13546041567E+03 -0.58309053404E+03 -0.17414691286E+04  0.18478231717E+04  0.15294330000E+03 0.  0.
<mgrwt>
<rscale>  0 0.81240769E+03</rscale>
<asrwt>0</asrwt>
<pdfrwt beam="1">  1        2 0.25215095E+00 0.89003051E+03</pdfrwt>
<pdfrwt beam="2">  1       -2 0.29531204E+00 0.89003051E+03</pdfrwt>
<totfact> 0.36940703E-01</totfact>
</mgrwt>
</event>
<event>
 4    5  0.6615028E-008  0.8463948E+03  0.7818608E-02  0.9618238E-01
         -2   -1    0    0    0  501 -0.00000000000E+00  0.00000000000E+00  0.26227370456E+03  0.26227370457E+03  0.25500000000E-02 0.  1.
          2   -1    0    0  501    0  0.00000000000E+00 -0.00000000000E+00 -0.25921126569E+04  0.25921126569E+04  0.25500000000E-02 0. -1.
    8880023    1    1    2    0    0  0.74660133626E+02 -0.52630777283E+03 -0.20835280126E+04  0.22488826543E+04  0.65864270000E+03 0.  0.
    8880022    1    1    2    0    0 -0.74660133626E+02  0.52630777283E+03 -0.24631093969E+03  0.60550370711E+03  0.15294330000E+03 0.  0.
<mgrwt>
<rscale>  0 0.76100733E+03</rscale>
<asrwt>0</asrwt>
<pdfrwt beam="1">  1        2 0.39878654E+00 0.84639483E+03</pdfrwt>
<pdfrwt beam="2">  1       -2 0.40349803E-01 0.84639483E+03</pdfrwt>
<totfact> 0.18485698E+01</totfact>
</mgrwt>
</event>
<event>
 4    5  0.6615028E-008  0.7825976E+03  0.7818608E-02  0.9749770E-01
         -2   -1    0    0    0  501 -0.00000000000E+00  0.00000000000E+00  0.29154904615E+03  0.29154904616E+03  0.25500000000E-02 0.  1.
          2   -1    0    0  501    0  0.00000000000E+00 -0.00000000000E+00 -0.19974759075E+04  0.19974759075E+04  0.25500000000E-02 0. -1.
    8880023    1    1    2    0    0 -0.28488002620E+03 -0.31223736461E+03 -0.16624431808E+04  0.18374374376E+04  0.65864270000E+03 0. -1.
    8880022    1    1    2    0    0  0.28488002620E+03  0.31223736461E+03 -0.43483680484E+02  0.45158751607E+03  0.15294330000E+03 0.  0.
<mgrwt>
<rscale>  0 0.68129261E+03</rscale>
<asrwt>0</asrwt>
<pdfrwt beam="1">  1        2 0.30730398E+00 0.78259760E+03</pdfrwt>
<pdfrwt beam="2">  1       -2 0.44853701E-01 0.78259760E+03</pdfrwt>
<totfact> 0.32477698E+01</totfact>
</mgrwt>
</event>
<event>
 4    5  0.6615028E-008  0.9336250E+03  0.7818608E-02  0.9474076E-01
         -2   -1    0    0    0  501 -0.00000000000E+00  0.00000000000E+00  0.88971054547E+03  0.88971054548E+03  0.25500000000E-02 0.  1.
          2   -1    0    0  501    0  0.00000000000E+00 -0.00000000000E+00 -0.10042753943E+04  0.10042753943E+04  0.25500000000E-02 0. -1.
    8880023    1    1    2    0    0  0.63932094935E+03 -0.17062877667E+03 -0.55348009248E+03  0.10853551837E+04  0.65864270000E+03 0.  0.
    8880022    1    1    2    0    0 -0.63932094935E+03  0.17062877667E+03  0.43891524361E+03  0.80863075615E+03  0.15294330000E+03 0.  0.
<mgrwt>
<rscale>  0 0.86222357E+03</rscale>
<asrwt>0</asrwt>
<pdfrwt beam="1">  1        2 0.15450391E+00 0.93362501E+03</pdfrwt>
<pdfrwt beam="2">  1       -2 0.13687855E+00 0.93362501E+03</pdfrwt>
<totfact> 0.95100630E+00</totfact>
</mgrwt>
</event>
<event>
 4    5  0.6615028E-008  0.8857329E+03  0.7818608E-02  0.9549334E-01
         -2   -1    0    0    0  501 -0.00000000000E+00  0.00000000000E+00  0.34386978376E+03  0.34386978377E+03  0.25500000000E-02 0.  1.
          2   -1    0    0  501    0  0.00000000000E+00 -0.00000000000E+00 -0.32220412099E+04  0.32220412099E+04  0.25500000000E-02 0. -1.
    8880023    1    1    2    0    0 -0.25212272180E+03  0.53586069318E+03 -0.28149507463E+04  0.29510117689E+04  0.65864270000E+03 0.  0.
    8880022    1    1    2    0    0  0.25212272180E+03 -0.53586069318E+03 -0.63220679819E+02  0.61489922484E+03  0.15294330000E+03 0.  0.
<mgrwt>
<rscale>  0 0.80742307E+03</rscale>
<asrwt>0</asrwt>
<pdfrwt beam="1">  1        2 0.49569863E+00 0.88573289E+03</pdfrwt>
<pdfrwt beam="2">  1       -2 0.52903046E-01 0.88573289E+03</pdfrwt>
<totfact> 0.44283563E+00</totfact>
</mgrwt>
</event>
<event>
 4    5  0.6615028E-008  0.8349418E+03  0.7818608E-02  0.9639793E-01
          2   -1    0    0  501    0  0.00000000000E+00  0.00000000000E+00  0.20972912634E+04  0.20972912634E+04  0.25500000000E-02 0. -1.
         -2   -1    0    0    0  501 -0.00000000000E+00 -0.00000000000E+00 -0.63322746358E+03  0.63322746359E+03  0.25500000000E-02 0.  1.
    8880023    1    1    2    0    0  0.46308900718E+03  0.22105711733E+03  0.18770050697E+04  0.20543310141E+04  0.65864270000E+03 0. -1.
    8880022    1    1    2    0    0 -0.46308900718E+03 -0.22105711733E+03 -0.41294126986E+03  0.67618771288E+03  0.15294330000E+03 0.  0.
<mgrwt>
<rscale>  0 0.74717511E+03</rscale>
<asrwt>0</asrwt>
<pdfrwt beam="1">  1        2 0.32266020E+00 0.83494184E+03</pdfrwt>
<pdfrwt beam="2">  1       -2 0.97419609E-01 0.83494184E+03</pdfrwt>
<totfact> 0.53083626E+00</totfact>
</mgrwt>
</event>
<event>
 4    5  0.6615028E-008  0.7250357E+03  0.7818608E-02  0.9905901E-01
         -2   -1    0    0    0  501 -0.00000000000E+00  0.00000000000E+00  0.85165537630E+03  0.85165537630E+03  0.25500000000E-02 0.  1.
          2   -1    0    0  501    0  0.00000000000E+00 -0.00000000000E+00 -0.11888003438E+04  0.11888003438E+04  0.25500000000E-02 0. -1.
    8880023    1    1    2    0    0  0.24594806327E+03 -0.17713286292E+03 -0.10354166522E+04  0.12640270372E+04  0.65864270000E+03 0. -1.
    8880022    1    1    2    0    0 -0.24594806327E+03  0.17713286292E+03  0.69827168469E+03  0.77642868288E+03  0.15294330000E+03 0.  0.
<mgrwt>
<rscale>  0 0.59976136E+03</rscale>
<asrwt>0</asrwt>
<pdfrwt beam="1">  1        2 0.18289236E+00 0.72503566E+03</pdfrwt>
<pdfrwt beam="2">  1       -2 0.13102390E+00 0.72503566E+03</pdfrwt>
<totfact> 0.83811000E+00</totfact>
</mgrwt>
</event>
<event>
 4    5  0.6615028E-008  0.1395493E+04  0.7818608E-02  0.8987193E-01
         -2   -1    0    0    0  501 -0.00000000000E+00  0.00000000000E+00  0.66618708273E+03  0.66618708274E+03  0.25500000000E-02 0.  1.
          2   -1    0    0  501    0  0.00000000000E+00 -0.00000000000E+00 -0.34583347305E+04  0.34583347305E+04  0.25500000000E-02 0. -1.
    8880023    1    1    2    0    0 -0.52000287654E+03 -0.11149829294E+04 -0.43583545537E+03  0.14619687667E+04  0.65864270000E+03 0.  0.
    8880022    1    1    2    0    0  0.52000287654E+03  0.11149829294E+04 -0.23563121924E+04  0.26625530465E+04  0.15294330000E+03 0.  0.
<mgrwt>
<rscale>  0 0.13548128E+04</rscale>
<asrwt>0</asrwt>
<pdfrwt beam="1">  1        2 0.53205148E+00 0.13954928E+04</pdfrwt>
<pdfrwt beam="2">  1       -2 0.10249032E+00 0.13954928E+04</pdfrwt>
<totfact> 0.65889182E-01</totfact>
</mgrwt>
</event>
<event>
 4    5  0.6615028E-008  0.6817498E+03  0.7818608E-02  0.1008351E+00
          2   -1    0    0  501    0  0.00000000000E+00  0.00000000000E+00  0.26359101967E+04  0.26359101967E+04  0.25500000000E-02 0. -1.
         -2   -1    0    0    0  501 -0.00000000000E+00 -0.00000000000E+00 -0.51248941428E+03  0.51248941429E+03  0.25500000000E-02 0.  1.
    8880023    1    1    2    0    0  0.16797906932E+03 -0.52494160052E+02  0.25622912970E+04  0.26514372521E+04  0.65864270000E+03 0. -1.
    8880022    1    1    2    0    0 -0.16797906932E+03  0.52494160052E+02 -0.43887051461E+03  0.49696235891E+03  0.15294330000E+03 0.  0.
<mgrwt>
<rscale>  0 0.52135429E+03</rscale>
<asrwt>0</asrwt>
<pdfrwt beam="1">  1        2 0.40552465E+00 0.68174982E+03</pdfrwt>
<pdfrwt beam="2">  1       -2 0.78844524E-01 0.68174982E+03</pdfrwt>
<totfact> 0.44230306E+00</totfact>
</mgrwt>
</event>
<event>
 4    5  0.6615028E-008  0.6917135E+03  0.7818608E-02  0.1003349E+00
         -2   -1    0    0    0  501 -0.00000000000E+00  0.00000000000E+00  0.68574471460E+03  0.68574471461E+03  0.25500000000E-02 0.  1.
          2   -1    0    0  501    0  0.00000000000E+00 -0.00000000000E+00 -0.11760324907E+04  0.11760324907E+04  0.25500000000E-02 0. -1.
    8880023    1    1    2    0    0  0.21132218016E+03 -0.54357004853E+00 -0.10424661952E+04  0.12510808661E+04  0.65864270000E+03 0. -1.
    8880022    1    1    2    0    0 -0.21132218016E+03  0.54357004853E+00  0.55217841901E+03  0.61069633922E+03  0.15294330000E+03 0.  0.
<mgrwt>
<rscale>  0 0.54206007E+03</rscale>
<asrwt>0</asrwt>
<pdfrwt beam="1">  1        2 0.18092807E+00 0.69171350E+03</pdfrwt>
<pdfrwt beam="2">  1       -2 0.10549919E+00 0.69171350E+03</pdfrwt>
<totfact> 0.14604508E+01</totfact>
</mgrwt>
</event>
<event>
 4    5  0.6615028E-008  0.7881449E+03  0.7818608E-02  0.9737041E-01
         -2   -1    0    0    0  501 -0.00000000000E+00  0.00000000000E+00  0.10448742112E+04  0.10448742112E+04  0.25500000000E-02 0.  1.
          2   -1    0    0  501    0  0.00000000000E+00 -0.00000000000E+00 -0.14224481400E+04  0.14224481400E+04  0.25500000000E-02 0. -1.
    8880023    1    1    2    0    0  0.39707803751E+03  0.17231138899E+03 -0.12521698438E+04  0.14795613224E+04  0.65864270000E+03 0. -1.
    8880022    1    1    2    0    0 -0.39707803751E+03 -0.17231138899E+03  0.87459591494E+03  0.98776102884E+03  0.15294330000E+03 0.  0.
<mgrwt>
<rscale>  0 0.68853574E+03</rscale>
<asrwt>0</asrwt>
<pdfrwt beam="1">  1        2 0.21883817E+00 0.78814490E+03</pdfrwt>
<pdfrwt beam="2">  1       -2 0.16074988E+00 0.78814490E+03</pdfrwt>
<totfact> 0.35640476E+00</totfact>
</mgrwt>
</event>
<event>
 4    5  0.6615028E-008  0.7065422E+03  0.7818608E-02  0.9971072E-01
          2   -1    0    0  501    0  0.00000000000E+00  0.00000000000E+00  0.12125543214E+04  0.12125543214E+04  0.25500000000E-02 0. -1.
         -2   -1    0    0    0  501 -0.00000000000E+00 -0.00000000000E+00 -0.73876434177E+03  0.73876434178E+03  0.25500000000E-02 0.  1.
    8880023    1    1    2    0    0 -0.25537014153E+03 -0.13332213971E+02  0.10714876382E+04  0.12834670320E+04  0.65864270000E+03 0. -1.
    8880022    1    1    2    0    0  0.25537014153E+03  0.13332213971E+02 -0.59769765862E+03  0.66785163116E+03  0.15294330000E+03 0.  0.
<mgrwt>
<rscale>  0 0.56937054E+03</rscale>
<asrwt>0</asrwt>
<pdfrwt beam="1">  1        2 0.18654682E+00 0.70654219E+03</pdfrwt>
<pdfrwt beam="2">  1       -2 0.11365605E+00 0.70654219E+03</pdfrwt>
<totfact> 0.11584595E+01</totfact>
</mgrwt>
</event>
<event>
 4    5  0.6615028E-008  0.8960195E+03  0.7818608E-02  0.9532452E-01
         -2   -1    0    0    0  501 -0.00000000000E+00  0.00000000000E+00  0.86620699719E+03  0.86620699720E+03  0.25500000000E-02 0.  1.
          2   -1    0    0  501    0  0.00000000000E+00 -0.00000000000E+00 -0.35838004730E+04  0.35838004730E+04  0.25500000000E-02 0. -1.
    8880023    1    1    2    0    0 -0.17175103200E+03  0.58270260127E+03 -0.34044463196E+04  0.35203843097E+04  0.65864270000E+03 0.  0.
    8880022    1    1    2    0    0  0.17175103200E+03 -0.58270260127E+03  0.68685284379E+03  0.92962316052E+03  0.15294330000E+03 0.  0.
<mgrwt>
<rscale>  0 0.81932971E+03</rscale>
<asrwt>0</asrwt>
<pdfrwt beam="1">  1        2 0.55135391E+00 0.89601950E+03</pdfrwt>
<pdfrwt beam="2">  1       -2 0.13326262E+00 0.89601950E+03</pdfrwt>
<totfact> 0.30541404E-01</totfact>
</mgrwt>
</event>
<event>
 4    5  0.6615028E-008  0.1127741E+04  0.7818608E-02  0.9230781E-01
         -2   -1    0    0    0  501 -0.00000000000E+00  0.00000000000E+00  0.28160248187E+03  0.28160248189E+03  0.25500000000E-02 0.  1.
          2   -1    0    0  501    0  0.00000000000E+00 -0.00000000000E+00 -0.45115448783E+04  0.45115448783E+04  0.25500000000E-02 0. -1.
    8880023    1    1    2    0    0 -0.50462384353E+03 -0.76377029249E+03 -0.32651325247E+04  0.34544016693E+04  0.65864270000E+03 0.  0.
    8880022    1    1    2    0    0  0.50462384353E+03  0.76377029249E+03 -0.96480987177E+03  0.13387456909E+04  0.15294330000E+03 0.  0.
<mgrwt>
<rscale>  0 0.10741294E+04</rscale>
<asrwt>0</asrwt>
<pdfrwt beam="1">  1        2 0.69408377E+00 0.11277413E+04</pdfrwt>
<pdfrwt beam="2">  1       -2 0.43323462E-01 0.11277413E+04</pdfrwt>
<totfact> 0.63700003E-01</totfact>
</mgrwt>
</event>
<event>
 4    5  0.6615028E-008  0.1578022E+04  0.7818608E-02  0.8856420E-01
         -2   -1    0    0    0  501 -0.00000000000E+00  0.00000000000E+00  0.97994146800E+03  0.97994146800E+03  0.25500000000E-02 0.  1.
          2   -1    0    0  501    0  0.00000000000E+00 -0.00000000000E+00 -0.27562325091E+04  0.27562325091E+04  0.25500000000E-02 0. -1.
    8880023    1    1    2    0    0 -0.99091393021E+03  0.10365485312E+04 -0.16584514773E+04  0.22892389093E+04  0.65864270000E+03 0.  0.
    8880022    1    1    2    0    0  0.99091393021E+03 -0.10365485312E+04 -0.11783956372E+03  0.14469350678E+04  0.15294330000E+03 0.  0.
<mgrwt>
<rscale>  0 0.15428929E+04</rscale>
<asrwt>0</asrwt>
<pdfrwt beam="1">  1        2 0.42403577E+00 0.15780220E+04</pdfrwt>
<pdfrwt beam="2">  1       -2 0.15076023E+00 0.15780220E+04</pdfrwt>
<totfact> 0.68160360E-01</totfact>
</mgrwt>
</event>
<event>
 4    5  0.6615028E-008  0.7923325E+03  0.7818608E-02  0.9727627E-01
         -2   -1    0    0    0  501 -0.00000000000E+00  0.00000000000E+00  0.12522601988E+04  0.12522601988E+04  0.25500000000E-02 0.  1.
          2   -1    0    0  501    0  0.00000000000E+00 -0.00000000000E+00 -0.66012179703E+03  0.66012179703E+03  0.25500000000E-02 0. -1.
    8880023    1    1    2    0    0  0.42038412120E+03 -0.13136862843E+03 -0.34614853404E+03  0.86464416946E+03  0.65864270000E+03 0. -1.
    8880022    1    1    2    0    0 -0.42038412120E+03  0.13136862843E+03  0.93828693582E+03  0.10477378264E+04  0.15294330000E+03 0.  0.
<mgrwt>
<rscale>  0 0.69395464E+03</rscale>
<asrwt>0</asrwt>
<pdfrwt beam="1">  1        2 0.10155720E+00 0.79233246E+03</pdfrwt>
<pdfrwt beam="2">  1       -2 0.19265541E+00 0.79233246E+03</pdfrwt>
<totfact> 0.66573469E+00</totfact>
</mgrwt>
</event>
<event>
 4    5  0.6615028E-008  0.8602827E+03  0.7818608E-02  0.9593061E-01
         -2   -1    0    0    0  501 -0.00000000000E+00  0.00000000000E+00  0.36299396806E+03  0.36299396806E+03  0.25500000000E-02 0.  1.
          2   -1    0    0  501    0  0.00000000000E+00 -0.00000000000E+00 -0.20270417190E+04  0.20270417190E+04  0.25500000000E-02 0. -1.
    8880023    1    1    2    0    0 -0.20865867552E+03  0.51257936450E+03 -0.15943687932E+04  0.18116561768E+04  0.65864270000E+03 0. -1.
    8880022    1    1    2    0    0  0.20865867552E+03 -0.51257936450E+03 -0.69678957747E+02  0.57837951032E+03  0.15294330000E+03 0.  0.
<mgrwt>
<rscale>  0 0.77757167E+03</rscale>
<asrwt>0</asrwt>
<pdfrwt beam="1">  1        2 0.31185257E+00 0.86028266E+03</pdfrwt>
<pdfrwt beam="2">  1       -2 0.55845227E-01 0.86028266E+03</pdfrwt>
<totfact> 0.19823022E+01</totfact>
</mgrwt>
</event>
<event>
 4    5  0.6615028E-008  0.7840667E+03  0.7818608E-02  0.9746370E-01
          2   -1    0    0  501    0  0.00000000000E+00  0.00000000000E+00  0.93078950056E+03  0.93078950057E+03  0.25500000000E-02 0. -1.
         -2   -1    0    0    0  501 -0.00000000000E+00 -0.00000000000E+00 -0.42361424738E+03  0.42361424739E+03  0.25500000000E-02 0.  1.
    8880023    1    1    2    0    0  0.42235389206E+03 -0.50671102437E+02  0.43494988861E+03  0.89662811835E+03  0.65864270000E+03 0.  0.
    8880022    1    1    2    0    0 -0.42235389206E+03  0.50671102437E+02  0.72225364572E+02  0.45777562960E+03  0.15294330000E+03 0.  0.
<mgrwt>
<rscale>  0 0.68321826E+03</rscale>
<asrwt>0</asrwt>
<pdfrwt beam="1">  1        2 0.14319838E+00 0.78406669E+03</pdfrwt>
<pdfrwt beam="2">  1       -2 0.65171424E-01 0.78406669E+03</pdfrwt>
<totfact> 0.61401568E+01</totfact>
</mgrwt>
</event>
<event>
 4    5  0.6615028E-008  0.9001596E+03  0.7818608E-02  0.9525775E-01
         -2   -1    0    0    0  501 -0.00000000000E+00  0.00000000000E+00  0.45824686475E+03  0.45824686475E+03  0.25500000000E-02 0.  1.
          2   -1    0    0  501    0  0.00000000000E+00 -0.00000000000E+00 -0.25872193240E+04  0.25872193240E+04  0.25500000000E-02 0. -1.
    8880023    1    1    2    0    0  0.32824428362E+03  0.51839451491E+03 -0.22302478997E+04  0.24050557339E+04  0.65864270000E+03 0. -1.
    8880022    1    1    2    0    0 -0.32824428362E+03 -0.51839451491E+03  0.10127544046E+03  0.64041045484E+03  0.15294330000E+03 0.  0.
<mgrwt>
<rscale>  0 0.82409893E+03</rscale>
<asrwt>0</asrwt>
<pdfrwt beam="1">  1        2 0.39803373E+00 0.90015965E+03</pdfrwt>
<pdfrwt beam="2">  1       -2 0.70499520E-01 0.90015965E+03</pdfrwt>
<totfact> 0.58195112E+00</totfact>
</mgrwt>
</event>
<event>
 4    5  0.6615028E-008  0.1151155E+04  0.7818608E-02  0.9206131E-01
          2   -1    0    0  501    0  0.00000000000E+00  0.00000000000E+00  0.12924055983E+04  0.12924055983E+04  0.25500000000E-02 0. -1.
         -2   -1    0    0    0  501 -0.00000000000E+00 -0.00000000000E+00 -0.10881945248E+04  0.10881945248E+04  0.25500000000E-02 0.  1.
    8880023    1    1    2    0    0  0.93865481627E+03 -0.10136166726E+03  0.65371027083E+03  0.13238181054E+04  0.65864270000E+03 0.  0.
    8880022    1    1    2    0    0 -0.93865481627E+03  0.10136166726E+03 -0.44949919728E+03  0.10567820178E+04  0.15294330000E+03 0.  0.
<mgrwt>
<rscale>  0 0.10990373E+04</rscale>
<asrwt>0</asrwt>
<pdfrwt beam="1">  1        2 0.19883163E+00 0.11511547E+04</pdfrwt>
<pdfrwt beam="2">  1       -2 0.16741454E+00 0.11511547E+04</pdfrwt>
<totfact> 0.36252768E+00</totfact>
</mgrwt>
</event>
<event>
 4    5  0.6615028E-008  0.9984193E+03  0.7818608E-02  0.9383629E-01
          2   -1    0    0  501    0  0.00000000000E+00  0.00000000000E+00  0.17043003636E+04  0.17043003636E+04  0.25500000000E-02 0. -1.
         -2   -1    0    0    0  501 -0.00000000000E+00 -0.00000000000E+00 -0.11398703127E+04  0.11398703128E+04  0.25500000000E-02 0.  1.
    8880023    1    1    2    0    0 -0.53873537852E+03 -0.52229797686E+03  0.13943356503E+04  0.17149382195E+04  0.65864270000E+03 0.  0.
    8880022    1    1    2    0    0  0.53873537852E+03  0.52229797686E+03 -0.82990559942E+03  0.11292324569E+04  0.15294330000E+03 0.  0.
<mgrwt>
<rscale>  0 0.93435321E+03</rscale>
<asrwt>0</asrwt>
<pdfrwt beam="1">  1        2 0.26220006E+00 0.99841935E+03</pdfrwt>
<pdfrwt beam="2">  1       -2 0.17536466E+00 0.99841935E+03</pdfrwt>
<totfact> 0.18945691E+00</totfact>
</mgrwt>
</event>
<event>
 4    5  0.6615028E-008  0.8363969E+03  0.7818608E-02  0.9637012E-01
          2   -1    0    0  501    0  0.00000000000E+00  0.00000000000E+00  0.28690667452E+04  0.28690667452E+04  0.25500000000E-02 0. -1.
         -2   -1    0    0    0  501 -0.00000000000E+00 -0.00000000000E+00 -0.17577552559E+03  0.17577552561E+03  0.25500000000E-02 0.  1.
    8880023    1    1    2    0    0  0.48623851630E+03 -0.17123577015E+03  0.19970868924E+04  0.21651595428E+04  0.65864270000E+03 0. -1.
    8880022    1    1    2    0    0 -0.48623851630E+03  0.17123577015E+03  0.69620432718E+03  0.87968272799E+03  0.15294330000E+03 0.  0.
<mgrwt>
<rscale>  0 0.74894180E+03</rscale>
<asrwt>0</asrwt>
<pdfrwt beam="1">  1        2 0.44139486E+00 0.83639691E+03</pdfrwt>
<pdfrwt beam="2">  1       -2 0.27042390E-01 0.83639691E+03</pdfrwt>
<totfact> 0.27128388E+01</totfact>
</mgrwt>
</event>
<event>
 4    5  0.6615028E-008  0.9283046E+03  0.7818608E-02  0.9482041E-01
         -2   -1    0    0    0  501 -0.00000000000E+00  0.00000000000E+00  0.57942140965E+03  0.57942140965E+03  0.25500000000E-02 0.  1.
          2   -1    0    0  501    0  0.00000000000E+00 -0.00000000000E+00 -0.25925852269E+04  0.25925852269E+04  0.25500000000E-02 0. -1.
    8880023    1    1    2    0    0 -0.63457454170E+03  0.15891609108E+03 -0.22702305378E+04  0.24526915979E+04  0.65864270000E+03 0.  0.
    8880022    1    1    2    0    0  0.63457454170E+03 -0.15891609108E+03  0.25706672062E+03  0.71931503866E+03  0.15294330000E+03 0.  1.
<mgrwt>
<rscale>  0 0.85620891E+03</rscale>
<asrwt>0</asrwt>
<pdfrwt beam="1">  1        2 0.39885926E+00 0.92830457E+03</pdfrwt>
<pdfrwt beam="2">  1       -2 0.89141757E-01 0.92830457E+03</pdfrwt>
<totfact> 0.33939118E+00</totfact>
</mgrwt>
</event>
<event>
 4    5  0.6615028E-008  0.9423834E+03  0.7818608E-02  0.9461158E-01
          2   -1    0    0  501    0  0.00000000000E+00  0.00000000000E+00  0.34346491743E+04  0.34346491743E+04  0.25500000000E-02 0. -1.
         -2   -1    0    0    0  501 -0.00000000000E+00 -0.00000000000E+00 -0.36972342304E+03  0.36972342305E+03  0.25500000000E-02 0.  1.
    8880023    1    1    2    0    0  0.57227789343E+03 -0.35605368740E+03  0.29586575434E+04  0.31051152766E+04  0.65864270000E+03 0. -1.
    8880022    1    1    2    0    0 -0.57227789343E+03  0.35605368740E+03  0.10626820788E+03  0.69925732076E+03  0.15294330000E+03 0.  0.
<mgrwt>
<rscale>  0 0.87209032E+03</rscale>
<asrwt>0</asrwt>
<pdfrwt beam="1">  1        2 0.52840755E+00 0.94238337E+03</pdfrwt>
<pdfrwt beam="2">  1       -2 0.56880528E-01 0.94238337E+03</pdfrwt>
<totfact> 0.27329174E+00</totfact>
</mgrwt>
</event>
<event>
 4    5  0.6615028E-008  0.8908076E+03  0.7818608E-02  0.9540952E-01
         -2   -1    0    0    0  501 -0.00000000000E+00  0.00000000000E+00  0.68200788969E+03  0.68200788969E+03  0.25500000000E-02 0.  1.
          2   -1    0    0  501    0  0.00000000000E+00 -0.00000000000E+00 -0.27830752805E+04  0.27830752805E+04  0.25500000000E-02 0. -1.
    8880023    1    1    2    0    0  0.49733771584E+03 -0.33523592784E+03 -0.25495653454E+04  0.27007076087E+04  0.65864270000E+03 0.  0.
    8880022    1    1    2    0    0 -0.49733771584E+03  0.33523592784E+03  0.44849795451E+03  0.76437556157E+03  0.15294330000E+03 0.  0.
<mgrwt>
<rscale>  0 0.81330739E+03</rscale>
<asrwt>0</asrwt>
<pdfrwt beam="1">  1        2 0.42816542E+00 0.89080758E+03</pdfrwt>
<pdfrwt beam="2">  1       -2 0.10492429E+00 0.89080758E+03</pdfrwt>
<totfact> 0.17994144E+00</totfact>
</mgrwt>
</event>
<event>
 4    5  0.6615028E-008  0.1371783E+04  0.7818608E-02  0.9005924E-01
         -2   -1    0    0    0  501 -0.00000000000E+00  0.00000000000E+00  0.25137595872E+04  0.25137595872E+04  0.25500000000E-02 0.  1.
          2   -1    0    0  501    0  0.00000000000E+00 -0.00000000000E+00 -0.11750245471E+04  0.11750245471E+04  0.25500000000E-02 0. -1.
    8880023    1    1    2    0    0 -0.65910978017E+03 -0.10067539323E+04 -0.52187023801E+03  0.14676981754E+04  0.65864270000E+03 0.  0.
    8880022    1    1    2    0    0  0.65910978017E+03  0.10067539323E+04  0.18606052781E+04  0.22210859588E+04  0.15294330000E+03 0.  0.
<mgrwt>
<rscale>  0 0.13302381E+04</rscale>
<asrwt>0</asrwt>
<pdfrwt beam="1">  1        2 0.18077301E+00 0.13717833E+04</pdfrwt>
<pdfrwt beam="2">  1       -2 0.38673224E+00 0.13717833E+04</pdfrwt>
<totfact> 0.17073156E-01</totfact>
</mgrwt>
</event>
<event>
 4    5  0.6615028E-008  0.8025776E+03  0.7818608E-02  0.9705250E-01
         -2   -1    0    0    0  501 -0.00000000000E+00  0.00000000000E+00  0.22471574975E+03  0.22471574976E+03  0.25500000000E-02 0.  1.
          2   -1    0    0  501    0  0.00000000000E+00 -0.00000000000E+00 -0.18406334451E+04  0.18406334451E+04  0.25500000000E-02 0. -1.
    8880023    1    1    2    0    0  0.45451270244E+03 -0.61145981822E+02 -0.10280790901E+04  0.13042535986E+04  0.65864270000E+03 0. -1.
    8880022    1    1    2    0    0 -0.45451270244E+03  0.61145981822E+02 -0.58783860531E+03  0.76109559629E+03  0.15294330000E+03 0. -1.
<mgrwt>
<rscale>  0 0.70705057E+03</rscale>
<asrwt>0</asrwt>
<pdfrwt beam="1">  1        2 0.28317437E+00 0.80257762E+03</pdfrwt>
<pdfrwt beam="2">  1       -2 0.34571655E-01 0.80257762E+03</pdfrwt>
<totfact> 0.65527248E+01</totfact>
</mgrwt>
</event>
<event>
 4    5  0.6615028E-008  0.1274981E+04  0.7818608E-02  0.9087472E-01
         -2   -1    0    0    0  501 -0.00000000000E+00  0.00000000000E+00  0.75374690993E+03  0.75374690993E+03  0.25500000000E-02 0.  1.
          2   -1    0    0  501    0  0.00000000000E+00 -0.00000000000E+00 -0.20151442070E+04  0.20151442070E+04  0.25500000000E-02 0. -1.
    8880023    1    1    2    0    0  0.10425219977E+04 -0.32390434262E+03 -0.30848202075E+03  0.13117688449E+04  0.65864270000E+03 0.  0.
    8880022    1    1    2    0    0 -0.10425219977E+04  0.32390434262E+03 -0.95291527633E+03  0.14571222721E+04  0.15294330000E+03 0.  0.
<mgrwt>
<rscale>  0 0.12294386E+04</rscale>
<asrwt>0</asrwt>
<pdfrwt beam="1">  1        2 0.31002218E+00 0.12749809E+04</pdfrwt>
<pdfrwt beam="2">  1       -2 0.11596106E+00 0.12749809E+04</pdfrwt>
<totfact> 0.36705246E+00</totfact>
</mgrwt>
</event>
<event>
 4    5  0.6615028E-008  0.7731957E+03  0.7818608E-02  0.9772070E-01
          2   -1    0    0  501    0  0.00000000000E+00  0.00000000000E+00  0.18648069338E+04  0.18648069338E+04  0.25500000000E-02 0. -1.
         -2   -1    0    0    0  501 -0.00000000000E+00 -0.00000000000E+00 -0.75284069470E+03  0.75284069471E+03  0.25500000000E-02 0.  1.
    8880023    1    1    2    0    0 -0.20366723645E+03 -0.35005868491E+03  0.17115604457E+04  0.18781029769E+04  0.65864270000E+03 0. -1.
    8880022    1    1    2    0    0  0.20366723645E+03  0.35005868491E+03 -0.59959420665E+03  0.73954465162E+03  0.15294330000E+03 0.  0.
<mgrwt>
<rscale>  0 0.66883204E+03</rscale>
<asrwt>0</asrwt>
<pdfrwt beam="1">  1        2 0.28689337E+00 0.77319573E+03</pdfrwt>
<pdfrwt beam="2">  1       -2 0.11582165E+00 0.77319573E+03</pdfrwt>
<totfact> 0.47368388E+00</totfact>
</mgrwt>
</event>
<event>
 4    5  0.6615028E-008  0.1000928E+04  0.7818608E-02  0.9380345E-01
          2   -1    0    0  501    0  0.00000000000E+00  0.00000000000E+00  0.29801925320E+04  0.29801925320E+04  0.25500000000E-02 0. -1.
         -2   -1    0    0    0  501 -0.00000000000E+00 -0.00000000000E+00 -0.41732108314E+03  0.41732108315E+03  0.25500000000E-02 0.  1.
    8880023    1    1    2    0    0 -0.54078335193E+03 -0.52497529411E+03  0.24152302533E+04  0.26144202179E+04  0.65864270000E+03 0. -1.
    8880022    1    1    2    0    0  0.54078335193E+03  0.52497529411E+03  0.14764119557E+03  0.78309339724E+03  0.15294330000E+03 0.  0.
<mgrwt>
<rscale>  0 0.93710999E+03</rscale>
<asrwt>0</asrwt>
<pdfrwt beam="1">  1        2 0.45849115E+00 0.10009275E+04</pdfrwt>
<pdfrwt beam="2">  1       -2 0.64203244E-01 0.10009275E+04</pdfrwt>
<totfact> 0.41041644E+00</totfact>
</mgrwt>
</event>
<event>
 4    5  0.6615028E-008  0.7822388E+03  0.7818608E-02  0.9750604E-01
         -2   -1    0    0    0  501 -0.00000000000E+00  0.00000000000E+00  0.42164396132E+03  0.42164396133E+03  0.25500000000E-02 0.  1.
          2   -1    0    0  501    0  0.00000000000E+00 -0.00000000000E+00 -0.25145644624E+04  0.25145644624E+04  0.25500000000E-02 0. -1.
    8880023    1    1    2    0    0 -0.17824475970E+03  0.38251301567E+03 -0.23090998076E+04  0.24379990831E+04  0.65864270000E+03 0. -1.
    8880022    1    1    2    0    0  0.17824475970E+03 -0.38251301567E+03  0.21617930651E+03  0.49820934064E+03  0.15294330000E+03 0.  0.
<mgrwt>
<rscale>  0 0.68082151E+03</rscale>
<asrwt>0</asrwt>
<pdfrwt beam="1">  1        2 0.38685606E+00 0.78223884E+03</pdfrwt>
<pdfrwt beam="2">  1       -2 0.64868303E-01 0.78223884E+03</pdfrwt>
<totfact> 0.78146664E+00</totfact>
</mgrwt>
</event>
<event>
 4    5  0.6615028E-008  0.1089617E+04  0.7818608E-02  0.9272706E-01
         -2   -1    0    0    0  501 -0.00000000000E+00  0.00000000000E+00  0.52434207162E+03  0.52434207162E+03  0.25500000000E-02 0.  1.
          2   -1    0    0  501    0  0.00000000000E+00 -0.00000000000E+00 -0.29236519177E+04  0.29236519177E+04  0.25500000000E-02 0. -1.
    8880023    1    1    2    0    0  0.68688125766E+03 -0.53070574984E+03 -0.23198877610E+04  0.25630341170E+04  0.65864270000E+03 0.  0.
    8880022    1    1    2    0    0 -0.68688125766E+03  0.53070574984E+03 -0.79422085112E+02  0.88495987234E+03  0.15294330000E+03 0.  0.
<mgrwt>
<rscale>  0 0.10333494E+04</rscale>
<asrwt>0</asrwt>
<pdfrwt beam="1">  1        2 0.44979259E+00 0.10896167E+04</pdfrwt>
<pdfrwt beam="2">  1       -2 0.80668013E-01 0.10896167E+04</pdfrwt>
<totfact> 0.26522733E+00</totfact>
</mgrwt>
</event>
<event>
 4    5  0.6615028E-008  0.6680016E+03  0.7818608E-02  0.1017138E+00
          2   -1    0    0  501    0  0.00000000000E+00  0.00000000000E+00  0.13086977016E+04  0.13086977016E+04  0.25500000000E-02 0. -1.
         -2   -1    0    0    0  501 -0.00000000000E+00 -0.00000000000E+00 -0.51912025989E+03  0.51912025990E+03  0.25500000000E-02 0.  1.
    8880023    1    1    2    0    0 -0.29649792400E+02 -0.10740985712E+03  0.12013878028E+04  0.13746122532E+04  0.65864270000E+03 0. -1.
    8880022    1    1    2    0    0  0.29649792400E+02  0.10740985712E+03 -0.41181036106E+03  0.45320570836E+03  0.15294330000E+03 0.  0.
<mgrwt>
<rscale>  0 0.48733781E+03</rscale>
<asrwt>0</asrwt>
<pdfrwt beam="1">  1        2 0.20133811E+00 0.66800164E+03</pdfrwt>
<pdfrwt beam="2">  1       -2 0.79864655E-01 0.66800164E+03</pdfrwt>
<totfact> 0.23367335E+01</totfact>
</mgrwt>
</event>
<event>
 4    5  0.6615028E-008  0.6847631E+03  0.7818608E-02  0.1006748E+00
         -2   -1    0    0    0  501 -0.00000000000E+00  0.00000000000E+00  0.43375534188E+03  0.43375534189E+03  0.25500000000E-02 0.  1.
          2   -1    0    0  501    0  0.00000000000E+00 -0.00000000000E+00 -0.52641425326E+03  0.52641425327E+03  0.25500000000E-02 0. -1.
    8880023    1    1    2    0    0  0.32102381620E+02 -0.18455282272E+03 -0.17131737020E+03  0.70586836937E+03  0.65864270000E+03 0.  0.
    8880022    1    1    2    0    0 -0.32102381620E+02  0.18455282272E+03  0.78658458817E+02  0.25430122579E+03  0.15294330000E+03 0. -1.
<mgrwt>
<rscale>  0 0.52787732E+03</rscale>
<asrwt>0</asrwt>
<pdfrwt beam="1">  1        2 0.80986808E-01 0.68476311E+03</pdfrwt>
<pdfrwt beam="2">  1       -2 0.66731591E-01 0.68476311E+03</pdfrwt>
<totfact> 0.12130221E+02</totfact>
</mgrwt>
</event>
<event>
 4    5  0.6615028E-008  0.7587851E+03  0.7818608E-02  0.9808263E-01
         -2   -1    0    0    0  501 -0.00000000000E+00  0.00000000000E+00  0.17492027499E+04  0.17492027499E+04  0.25500000000E-02 0.  1.
          2   -1    0    0  501    0  0.00000000000E+00 -0.00000000000E+00 -0.11718552276E+04  0.11718552276E+04  0.25500000000E-02 0. -1.
    8880023    1    1    2    0    0  0.31159318248E+03 -0.21178834642E+03 -0.10208402598E+04  0.12719550532E+04  0.65864270000E+03 0. -1.
    8880022    1    1    2    0    0 -0.31159318248E+03  0.21178834642E+03  0.15981877821E+04  0.16491029243E+04  0.15294330000E+03 0.  0.
<mgrwt>
<rscale>  0 0.64920986E+03</rscale>
<asrwt>0</asrwt>
<pdfrwt beam="1">  1        2 0.18028542E+00 0.75878510E+03</pdfrwt>
<pdfrwt beam="2">  1       -2 0.26910811E+00 0.75878510E+03</pdfrwt>
<totfact> 0.10045220E+00</totfact>
</mgrwt>
</event>
<event>
 4    5  0.6615028E-008  0.1590424E+04  0.7818608E-02  0.8848290E-01
         -2   -1    0    0    0  501 -0.00000000000E+00  0.00000000000E+00  0.20978516216E+04  0.20978516216E+04  0.25500000000E-02 0.  1.
          2   -1    0    0  501    0  0.00000000000E+00 -0.00000000000E+00 -0.16194159690E+04  0.16194159690E+04  0.25500000000E-02 0. -1.
    8880023    1    1    2    0    0 -0.10747344353E+04 -0.96983727897E+03 -0.79963620877E+03  0.17801310982E+04  0.65864270000E+03 0.  0.
    8880022    1    1    2    0    0  0.10747344353E+04  0.96983727897E+03  0.12780718614E+04  0.19371364924E+04  0.15294330000E+03 0.  0.
<mgrwt>
<rscale>  0 0.15556140E+04</rscale>
<asrwt>0</asrwt>
<pdfrwt beam="1">  1        2 0.24914092E+00 0.15904241E+04</pdfrwt>
<pdfrwt beam="2">  1       -2 0.32274640E+00 0.15904241E+04</pdfrwt>
<totfact> 0.23316836E-01</totfact>
</mgrwt>
</event>
<event>
 4    5  0.6615028E-008  0.7145599E+03  0.7818608E-02  0.9941443E-01
          2   -1    0    0  501    0  0.00000000000E+00  0.00000000000E+00  0.85856589545E+03  0.85856589545E+03  0.25500000000E-02 0. -1.
         -2   -1    0    0    0  501 -0.00000000000E+00 -0.00000000000E+00 -0.47972114947E+03  0.47972114948E+03  0.25500000000E-02 0.  1.
    8880023    1    1    2    0    0 -0.16687233474E+03  0.22122205899E+03  0.61549041992E+03  0.94309291099E+03  0.65864270000E+03 0. -1.
    8880022    1    1    2    0    0  0.16687233474E+03 -0.22122205899E+03 -0.23664567394E+03  0.39519413394E+03  0.15294330000E+03 0.  1.
<mgrwt>
<rscale>  0 0.58294165E+03</rscale>
<asrwt>0</asrwt>
<pdfrwt beam="1">  1        2 0.13208706E+00 0.71455985E+03</pdfrwt>
<pdfrwt beam="2">  1       -2 0.73803254E-01 0.71455985E+03</pdfrwt>
<totfact> 0.52685058E+01</totfact>
</mgrwt>
</event>
<event>
 4    5  0.6615028E-008  0.1138866E+04  0.7818608E-02  0.9218969E-01
          2   -1    0    0  501    0  0.00000000000E+00  0.00000000000E+00  0.16026676992E+04  0.16026676992E+04  0.25500000000E-02 0. -1.
         -2   -1    0    0    0  501 -0.00000000000E+00 -0.00000000000E+00 -0.12482495356E+04  0.12482495356E+04  0.25500000000E-02 0.  1.
    8880023    1    1    2    0    0 -0.92797098065E+03  0.45569056606E+02  0.11497973773E+04  0.16183481996E+04  0.65864270000E+03 0. -1.
    8880022    1    1    2    0    0  0.92797098065E+03 -0.45569056606E+02 -0.79537921373E+03  0.12325690352E+04  0.15294330000E+03 0.  0.
<mgrwt>
<rscale>  0 0.10859766E+04</rscale>
<asrwt>0</asrwt>
<pdfrwt beam="1">  1        2 0.24656426E+00 0.11388665E+04</pdfrwt>
<pdfrwt beam="2">  1       -2 0.19203839E+00 0.11388665E+04</pdfrwt>
<totfact> 0.16307085E+00</totfact>
</mgrwt>
</event>
<event>
 4    5  0.6615028E-008  0.7043526E+03  0.7818608E-02  0.9979602E-01
         -2   -1    0    0    0  501 -0.00000000000E+00  0.00000000000E+00  0.11016573820E+04  0.11016573820E+04  0.25500000000E-02 0.  1.
          2   -1    0    0  501    0  0.00000000000E+00 -0.00000000000E+00 -0.38660580854E+03  0.38660580854E+03  0.25500000000E-02 0. -1.
    8880023    1    1    2    0    0  0.24859490998E+03 -0.22427706137E+02 -0.12038786105E+02  0.70445551308E+03  0.65864270000E+03 0.  0.
    8880022    1    1    2    0    0 -0.24859490998E+03  0.22427706137E+02  0.72709035957E+03  0.78380767747E+03  0.15294330000E+03 0.  0.
<mgrwt>
<rscale>  0 0.56553757E+03</rscale>
<asrwt>0</asrwt>
<pdfrwt beam="1">  1        2 0.59477817E-01 0.70435264E+03</pdfrwt>
<pdfrwt beam="2">  1       -2 0.16948575E+00 0.70435264E+03</pdfrwt>
<totfact> 0.18091558E+01</totfact>
</mgrwt>
</event>
<event>
 4    5  0.6615028E-008  0.8534442E+03  0.7818608E-02  0.9605333E-01
          2   -1    0    0  501    0  0.00000000000E+00  0.00000000000E+00  0.20988348214E+04  0.20988348214E+04  0.25500000000E-02 0. -1.
         -2   -1    0    0    0  501 -0.00000000000E+00 -0.00000000000E+00 -0.41862345206E+03  0.41862345206E+03  0.25500000000E-02 0.  1.
    8880023    1    1    2    0    0 -0.52633887418E+03 -0.13237871764E+03  0.17522193629E+04  0.19490099121E+04  0.65864270000E+03 0. -1.
    8880022    1    1    2    0    0  0.52633887418E+03  0.13237871764E+03 -0.72007993610E+02  0.56844836135E+03  0.15294330000E+03 0.  0.
<mgrwt>
<rscale>  0 0.76944204E+03</rscale>
<asrwt>0</asrwt>
<pdfrwt beam="1">  1        2 0.32289767E+00 0.85344416E+03</pdfrwt>
<pdfrwt beam="2">  1       -2 0.64403607E-01 0.85344416E+03</pdfrwt>
<totfact> 0.13398661E+01</totfact>
</mgrwt>
</event>
<event>
 4    5  0.6615028E-008  0.9126703E+03  0.7818608E-02  0.9505990E-01
          2   -1    0    0  501    0  0.00000000000E+00  0.00000000000E+00  0.87668528446E+03  0.87668528446E+03  0.25500000000E-02 0. -1.
         -2   -1    0    0    0  501 -0.00000000000E+00 -0.00000000000E+00 -0.13379592704E+04  0.13379592704E+04  0.25500000000E-02 0.  1.
    8880023    1    1    2    0    0  0.44166859687E+03  0.45175849010E+03  0.51031807096E+03  0.10456536820E+04  0.65864270000E+03 0. -1.
    8880022    1    1    2    0    0 -0.44166859687E+03 -0.45175849010E+03 -0.97159205692E+03  0.11689908729E+04  0.15294330000E+03 0.  0.
<mgrwt>
<rscale>  0 0.83843619E+03</rscale>
<asrwt>0</asrwt>
<pdfrwt beam="1">  1        2 0.13487466E+00 0.91267031E+03</pdfrwt>
<pdfrwt beam="2">  1       -2 0.20583989E+00 0.91267031E+03</pdfrwt>
<totfact> 0.37145755E+00</totfact>
</mgrwt>
</event>
<event>
 4    5  0.6615028E-008  0.8212754E+03  0.7818608E-02  0.9666552E-01
         -2   -1    0    0    0  501 -0.00000000000E+00  0.00000000000E+00  0.12349050177E+04  0.12349050177E+04  0.25500000000E-02 0.  1.
          2   -1    0    0  501    0  0.00000000000E+00 -0.00000000000E+00 -0.16601894990E+04  0.16601894990E+04  0.25500000000E-02 0. -1.
    8880023    1    1    2    0    0 -0.47073324701E+03 -0.13817855934E+03 -0.14964721146E+04  0.17070214117E+04  0.65864270000E+03 0. -1.
    8880022    1    1    2    0    0  0.47073324701E+03  0.13817855934E+03  0.10711876333E+04  0.11880731050E+04  0.15294330000E+03 0.  0.
<mgrwt>
<rscale>  0 0.73043652E+03</rscale>
<asrwt>0</asrwt>
<pdfrwt beam="1">  1        2 0.25541377E+00 0.82127542E+03</pdfrwt>
<pdfrwt beam="2">  1       -2 0.18998539E+00 0.82127542E+03</pdfrwt>
<totfact> 0.16343376E+00</totfact>
</mgrwt>
</event>
<event>
 4    5  0.6615028E-008  0.1497632E+04  0.7818608E-02  0.8911310E-01
          2   -1    0    0  501    0  0.00000000000E+00  0.00000000000E+00  0.15788949558E+04  0.15788949558E+04  0.25500000000E-02 0. -1.
         -2   -1    0    0    0  501 -0.00000000000E+00 -0.00000000000E+00 -0.15050114422E+04  0.15050114422E+04  0.25500000000E-02 0.  1.
    8880023    1    1    2    0    0  0.37445593824E+03  0.12918489051E+04  0.62436155705E+03  0.16225684588E+04  0.65864270000E+03 0.  0.
    8880022    1    1    2    0    0 -0.37445593824E+03 -0.12918489051E+04 -0.55047804353E+03  0.14613379392E+04  0.15294330000E+03 0.  0.
<mgrwt>
<rscale>  0 0.14602720E+04</rscale>
<asrwt>0</asrwt>
<pdfrwt beam="1">  1        2 0.24290692E+00 0.14976318E+04</pdfrwt>
<pdfrwt beam="2">  1       -2 0.23154022E+00 0.14976318E+04</pdfrwt>
<totfact> 0.90110330E-01</totfact>
</mgrwt>
</event>
<event>
 4    5  0.6615028E-008  0.9078031E+03  0.7818608E-02  0.9513619E-01
         -2   -1    0    0    0  501 -0.00000000000E+00  0.00000000000E+00  0.50746262109E+03  0.50746262110E+03  0.25500000000E-02 0.  1.
          2   -1    0    0  501    0  0.00000000000E+00 -0.00000000000E+00 -0.22407810924E+04  0.22407810924E+04  0.25500000000E-02 0. -1.
    8880023    1    1    2    0    0 -0.33281988350E+03  0.52870336721E+03 -0.18807481989E+04  0.20883774369E+04  0.65864270000E+03 0.  0.
    8880022    1    1    2    0    0  0.33281988350E+03 -0.52870336721E+03  0.14742972756E+03  0.65986627655E+03  0.15294330000E+03 0.  0.
<mgrwt>
<rscale>  0 0.83287125E+03</rscale>
<asrwt>0</asrwt>
<pdfrwt beam="1">  1        2 0.34473555E+00 0.90780313E+03</pdfrwt>
<pdfrwt beam="2">  1       -2 0.78071174E-01 0.90780313E+03</pdfrwt>
<totfact> 0.72782601E+00</totfact>
</mgrwt>
</event>
<event>
 4    5  0.6615028E-008  0.7705718E+03  0.7818608E-02  0.9778469E-01
         -2   -1    0    0    0  501 -0.00000000000E+00  0.00000000000E+00  0.55273969694E+03  0.55273969695E+03  0.25500000000E-02 0.  1.
          2   -1    0    0  501    0  0.00000000000E+00 -0.00000000000E+00 -0.92899836125E+03  0.92899836125E+03  0.25500000000E-02 0. -1.
    8880023    1    1    2    0    0 -0.39863063233E+03  0.32624134137E+02 -0.61998980690E+03  0.98902390370E+03  0.65864270000E+03 0. -1.
    8880022    1    1    2    0    0  0.39863063233E+03 -0.32624134137E+02  0.24373114260E+03  0.49271415450E+03  0.15294330000E+03 0.  0.
<mgrwt>
<rscale>  0 0.66530933E+03</rscale>
<asrwt>0</asrwt>
<pdfrwt beam="1">  1        2 0.14292282E+00 0.77057181E+03</pdfrwt>
<pdfrwt beam="2">  1       -2 0.85036876E-01 0.77057181E+03</pdfrwt>
<totfact> 0.34196653E+01</totfact>
</mgrwt>
</event>
<event>
 4    5  0.6615028E-008  0.7099354E+03  0.7818608E-02  0.9958241E-01
          2   -1    0    0  501    0  0.00000000000E+00  0.00000000000E+00  0.15715265685E+04  0.15715265685E+04  0.25500000000E-02 0. -1.
         -2   -1    0    0    0  501 -0.00000000000E+00 -0.00000000000E+00 -0.11651167619E+04  0.11651167619E+04  0.25500000000E-02 0.  1.
    8880023    1    1    2    0    0 -0.10109066831E+03  0.24490545901E+03  0.14686438276E+04  0.16312335534E+04  0.65864270000E+03 0. -1.
    8880022    1    1    2    0    0  0.10109066831E+03 -0.24490545901E+03 -0.10622340210E+04  0.11054097771E+04  0.15294330000E+03 0.  0.
<mgrwt>
<rscale>  0 0.57519829E+03</rscale>
<asrwt>0</asrwt>
<pdfrwt beam="1">  1        2 0.24177332E+00 0.70993536E+03</pdfrwt>
<pdfrwt beam="2">  1       -2 0.17924873E+00 0.70993536E+03</pdfrwt>
<totfact> 0.22043993E+00</totfact>
</mgrwt>
</event>
<event>
 4    5  0.6615028E-008  0.7945673E+03  0.7818608E-02  0.9722668E-01
         -2   -1    0    0    0  501 -0.00000000000E+00  0.00000000000E+00  0.28574748482E+03  0.28574748484E+03  0.25500000000E-02 0.  1.
          2   -1    0    0  501    0  0.00000000000E+00 -0.00000000000E+00 -0.17701897417E+04  0.17701897417E+04  0.25500000000E-02 0. -1.
    8880023    1    1    2    0    0 -0.26283105040E+03 -0.35839482732E+03 -0.13510119517E+04  0.15673450524E+04  0.65864270000E+03 0.  0.
    8880022    1    1    2    0    0  0.26283105040E+03  0.35839482732E+03 -0.13343030518E+03  0.48859217417E+03  0.15294330000E+03 0.  1.
<mgrwt>
<rscale>  0 0.69683038E+03</rscale>
<asrwt>0</asrwt>
<pdfrwt beam="1">  1        2 0.27233688E+00 0.79456732E+03</pdfrwt>
<pdfrwt beam="2">  1       -2 0.43961153E-01 0.79456732E+03</pdfrwt>
<totfact> 0.44924115E+01</totfact>
</mgrwt>
</event>
<event>
 4    5  0.6615028E-008  0.1172207E+04  0.7818608E-02  0.9184624E-01
          2   -1    0    0  501    0  0.00000000000E+00  0.00000000000E+00  0.22397789546E+04  0.22397789546E+04  0.25500000000E-02 0. -1.
         -2   -1    0    0    0  501 -0.00000000000E+00 -0.00000000000E+00 -0.13614343361E+04  0.13614343361E+04  0.25500000000E-02 0.  1.
    8880023    1    1    2    0    0 -0.30260620045E+03 -0.92124293052E+03  0.18692460383E+04  0.22063884535E+04  0.65864270000E+03 0.  0.
    8880022    1    1    2    0    0  0.30260620045E+03  0.92124293052E+03 -0.99090141985E+03  0.13948248372E+04  0.15294330000E+03 0.  0.
<mgrwt>
<rscale>  0 0.11213552E+04</rscale>
<asrwt>0</asrwt>
<pdfrwt beam="1">  1        2 0.34458138E+00 0.11722070E+04</pdfrwt>
<pdfrwt beam="2">  1       -2 0.20945144E+00 0.11722070E+04</pdfrwt>
<totfact> 0.55307171E-01</totfact>
</mgrwt>
</event>
<event>
 4    5  0.6615028E-008  0.1124010E+04  0.7818608E-02  0.9234784E-01
         -2   -1    0    0    0  501 -0.00000000000E+00  0.00000000000E+00  0.95400821500E+03  0.95400821500E+03  0.25500000000E-02 0.  1.
          2   -1    0    0  501    0  0.00000000000E+00 -0.00000000000E+00 -0.27097875343E+04  0.27097875343E+04  0.25500000000E-02 0. -1.
    8880023    1    1    2    0    0 -0.90813530026E+03 -0.69843537213E+02 -0.23225128305E+04  0.25802061734E+04  0.65864270000E+03 0.  0.
    8880022    1    1    2    0    0  0.90813530026E+03  0.69843537213E+02  0.56673351119E+03  0.10835895759E+04  0.15294330000E+03 0.  0.
<mgrwt>
<rscale>  0 0.10701506E+04</rscale>
<asrwt>0</asrwt>
<pdfrwt beam="1">  1        2 0.41689039E+00 0.11240098E+04</pdfrwt>
<pdfrwt beam="2">  1       -2 0.14677050E+00 0.11240098E+04</pdfrwt>
<totfact> 0.82416725E-01</totfact>
</mgrwt>
</event>
<event>
 4    5  0.6615028E-008  0.2276969E+04  0.7818608E-02  0.8496437E-01
         -2   -1    0    0    0  501 -0.00000000000E+00  0.00000000000E+00  0.29703369714E+04  0.29703369714E+04  0.25500000000E-02 0.  1.
          2   -1    0    0  501    0  0.00000000000E+00 -0.00000000000E+00 -0.25644135644E+04  0.25644135644E+04  0.25500000000E-02 0. -1.
    8880023    1    1    2    0    0 -0.11641922874E+04 -0.18426706698E+04 -0.14232449110E+04  0.26851843814E+04  0.65864270000E+03 0. -1.
    8880022    1    1    2    0    0  0.11641922874E+04  0.18426706698E+04  0.18291683181E+04  0.28495661544E+04  0.15294330000E+03 0.  0.
<mgrwt>
<rscale>  0 0.22536170E+04</rscale>
<asrwt>0</asrwt>
<pdfrwt beam="1">  1        2 0.39452516E+00 0.22769693E+04</pdfrwt>
<pdfrwt beam="2">  1       -2 0.45697492E+00 0.22769693E+04</pdfrwt>
<totfact> 0.84874553E-03</totfact>
</mgrwt>
</event>
<event>
 4    5  0.6615028E-008  0.1297050E+04  0.7818608E-02  0.9068112E-01
          2   -1    0    0  501    0  0.00000000000E+00  0.00000000000E+00  0.12574206015E+04  0.12574206015E+04  0.25500000000E-02 0. -1.
         -2   -1    0    0    0  501 -0.00000000000E+00 -0.00000000000E+00 -0.15846301170E+04  0.15846301170E+04  0.25500000000E-02 0.  1.
    8880023    1    1    2    0    0 -0.10860164873E+04  0.26286252456E+03 -0.89845591162E+03  0.15778345125E+04  0.65864270000E+03 0.  0.
    8880022    1    1    2    0    0  0.10860164873E+04 -0.26286252456E+03  0.57124639610E+03  0.12642162060E+04  0.15294330000E+03 0.  0.
<mgrwt>
<rscale>  0 0.12524922E+04</rscale>
<asrwt>0</asrwt>
<pdfrwt beam="1">  1        2 0.19344932E+00 0.12970500E+04</pdfrwt>
<pdfrwt beam="2">  1       -2 0.24378925E+00 0.12970500E+04</pdfrwt>
<totfact> 0.11820886E+00</totfact>
</mgrwt>
</event>
<event>
 4    5  0.6615028E-008  0.9736308E+03  0.7818608E-02  0.9416900E-01
         -2   -1    0    0    0  501 -0.00000000000E+00  0.00000000000E+00  0.81231642558E+03  0.81231642558E+03  0.25500000000E-02 0.  1.
          2   -1    0    0  501    0  0.00000000000E+00 -0.00000000000E+00 -0.15410773546E+04  0.15410773546E+04  0.25500000000E-02 0. -1.
    8880023    1    1    2    0    0  0.46726952076E+03 -0.54388035703E+03 -0.11508122741E+04  0.15074235451E+04  0.65864270000E+03 0. -1.
    8880022    1    1    2    0    0 -0.46726952076E+03  0.54388035703E+03  0.42205134507E+03  0.84597023511E+03  0.15294330000E+03 0.  0.
<mgrwt>
<rscale>  0 0.90697829E+03</rscale>
<asrwt>0</asrwt>
<pdfrwt beam="1">  1        2 0.23708882E+00 0.97363076E+03</pdfrwt>
<pdfrwt beam="2">  1       -2 0.12497176E+00 0.97363076E+03</pdfrwt>
<totfact> 0.57558902E+00</totfact>
</mgrwt>
</event>
<event>
 4    5  0.6615028E-008  0.9184644E+03  0.7818608E-02  0.9497018E-01
         -2   -1    0    0    0  501 -0.00000000000E+00  0.00000000000E+00  0.15203971610E+04  0.15203971610E+04  0.25500000000E-02 0.  1.
          2   -1    0    0  501    0  0.00000000000E+00 -0.00000000000E+00 -0.11028491702E+04  0.11028491702E+04  0.25500000000E-02 0. -1.
    8880023    1    1    2    0    0  0.59913188414E+03  0.22540558946E+03 -0.81374561909E+03  0.12270936530E+04  0.65864270000E+03 0. -1.
    8880022    1    1    2    0    0 -0.59913188414E+03 -0.22540558946E+03  0.12312936098E+04  0.13961526782E+04  0.15294330000E+03 0.  0.
<mgrwt>
<rscale>  0 0.84504063E+03</rscale>
<asrwt>0</asrwt>
<pdfrwt beam="1">  1        2 0.16966910E+00 0.91846443E+03</pdfrwt>
<pdfrwt beam="2">  1       -2 0.23390726E+00 0.91846443E+03</pdfrwt>
<totfact> 0.17637033E+00</totfact>
</mgrwt>
</event>
<event>
 4    5  0.6615028E-008  0.8237669E+03  0.7818608E-02  0.9661584E-01
         -2   -1    0    0    0  501 -0.00000000000E+00  0.00000000000E+00  0.39242662067E+03  0.39242662068E+03  0.25500000000E-02 0.  1.
          2   -1    0    0  501    0  0.00000000000E+00 -0.00000000000E+00 -0.18595232144E+04  0.18595232144E+04  0.25500000000E-02 0. -1.
    8880023    1    1    2    0    0 -0.46401201077E+03  0.17168170119E+03 -0.15225724436E+04  0.17311322321E+04  0.65864270000E+03 0. -1.
    8880022    1    1    2    0    0  0.46401201077E+03 -0.17168170119E+03  0.55475849876E+02  0.52081760300E+03  0.15294330000E+03 0.  0.
<mgrwt>
<rscale>  0 0.73350863E+03</rscale>
<asrwt>0</asrwt>
<pdfrwt beam="1">  1        2 0.28608049E+00 0.82376693E+03</pdfrwt>
<pdfrwt beam="2">  1       -2 0.60373327E-01 0.82376693E+03</pdfrwt>
<totfact> 0.20875752E+01</totfact>
</mgrwt>
</event>
<event>
 4    5  0.6615028E-008  0.8437731E+03  0.7818608E-02  0.9623106E-01
          2   -1    0    0  501    0  0.00000000000E+00  0.00000000000E+00  0.18465005058E+04  0.18465005058E+04  0.25500000000E-02 0. -1.
         -2   -1    0    0    0  501 -0.00000000000E+00 -0.00000000000E+00 -0.18732964359E+04  0.18732964359E+04  0.25500000000E-02 0.  1.
    8880023    1    1    2    0    0 -0.22852136427E+03  0.47531136704E+03  0.17053601855E+04  0.19026840196E+04  0.65864270000E+03 0.  0.
    8880022    1    1    2    0    0  0.22852136427E+03 -0.47531136704E+03 -0.17321561157E+04  0.18171129221E+04  0.15294330000E+03 0.  0.
<mgrwt>
<rscale>  0 0.75785551E+03</rscale>
<asrwt>0</asrwt>
<pdfrwt beam="1">  1        2 0.28407700E+00 0.84377314E+03</pdfrwt>
<pdfrwt beam="2">  1       -2 0.28819945E+00 0.84377314E+03</pdfrwt>
<totfact> 0.31654579E-01</totfact>
</mgrwt>
</event>
<event>
 4    5  0.6615028E-008  0.7089393E+03  0.7818608E-02  0.9961961E-01
          2   -1    0    0  501    0  0.00000000000E+00  0.00000000000E+00  0.42220284260E+04  0.42220284260E+04  0.25500000000E-02 0. -1.
         -2   -1    0    0    0  501 -0.00000000000E+00 -0.00000000000E+00 -0.21358914504E+03  0.21358914506E+03  0.25500000000E-02 0.  1.
    8880023    1    1    2    0    0  0.11241895848E+02  0.26202745566E+03  0.40653691895E+04  0.41267204437E+04  0.65864270000E+03 0.  0.
    8880022    1    1    2    0    0 -0.11241895848E+02 -0.26202745566E+03 -0.56929908563E+02  0.30889712728E+03  0.15294330000E+03 0.  0.
<mgrwt>
<rscale>  0 0.57350114E+03</rscale>
<asrwt>0</asrwt>
<pdfrwt beam="1">  1        2 0.64954280E+00 0.70893933E+03</pdfrwt>
<pdfrwt beam="2">  1       -2 0.32859870E-01 0.70893933E+03</pdfrwt>
<totfact> 0.21735997E+00</totfact>
</mgrwt>
</event>
<event>
 4    5  0.6615028E-008  0.7165607E+03  0.7818608E-02  0.9934400E-01
          2   -1    0    0  501    0  0.00000000000E+00  0.00000000000E+00  0.25560269905E+04  0.25560269905E+04  0.25500000000E-02 0. -1.
         -2   -1    0    0    0  501 -0.00000000000E+00 -0.00000000000E+00 -0.13574967982E+03  0.13574967984E+03  0.25500000000E-02 0.  1.
    8880023    1    1    2    0    0  0.27648313062E+03  0.56622289935E+02  0.21684742439E+04  0.22837994128E+04  0.65864270000E+03 0. -1.
    8880022    1    1    2    0    0 -0.27648313062E+03 -0.56622289935E+02  0.25180306686E+03  0.40797725761E+03  0.15294330000E+03 0.  0.
<mgrwt>
<rscale>  0 0.58622699E+03</rscale>
<asrwt>0</asrwt>
<pdfrwt beam="1">  1        2 0.39323494E+00 0.71656068E+03</pdfrwt>
<pdfrwt beam="2">  1       -2 0.20884565E-01 0.71656068E+03</pdfrwt>
<totfact> 0.66766482E+01</totfact>
</mgrwt>
</event>
<event>
 4    5  0.6615028E-008  0.1015684E+04  0.7818608E-02  0.9361320E-01
         -2   -1    0    0    0  501 -0.00000000000E+00  0.00000000000E+00  0.28415695741E+03  0.28415695742E+03  0.25500000000E-02 0.  1.
          2   -1    0    0  501    0  0.00000000000E+00 -0.00000000000E+00 -0.33279835422E+04  0.33279835422E+04  0.25500000000E-02 0. -1.
    8880023    1    1    2    0    0 -0.56189087185E+03  0.53111435802E+03 -0.10163845170E+04  0.14368895246E+04  0.65864270000E+03 0. -1.
    8880022    1    1    2    0    0  0.56189087185E+03 -0.53111435802E+03 -0.20274420678E+04  0.21752509750E+04  0.15294330000E+03 0.  0.
<mgrwt>
<rscale>  0 0.95328443E+03</rscale>
<asrwt>0</asrwt>
<pdfrwt beam="1">  1        2 0.51199744E+00 0.10156840E+04</pdfrwt>
<pdfrwt beam="2">  1       -2 0.43716457E-01 0.10156840E+04</pdfrwt>
<totfact> 0.54499661E+00</totfact>
</mgrwt>
</event>
<event>
 4    5  0.6615028E-008  0.6958328E+03  0.7818608E-02  0.1001495E+00
          2   -1    0    0  501    0  0.00000000000E+00  0.00000000000E+00  0.76162511881E+03  0.76162511882E+03  0.25500000000E-02 0. -1.
         -2   -1    0    0    0  501 -0.00000000000E+00 -0.00000000000E+00 -0.71569671187E+03  0.71569671187E+03  0.25500000000E-02 0.  1.
    8880023    1    1    2    0    0 -0.60491945521E+02  0.21613360534E+03  0.56180382870E+03  0.89431915949E+03  0.65864270000E+03 0. -1.
    8880022    1    1    2    0    0  0.60491945521E+02 -0.21613360534E+03 -0.51587542176E+03  0.58300267120E+03  0.15294330000E+03 0.  0.
<mgrwt>
<rscale>  0 0.54999621E+03</rscale>
<asrwt>0</asrwt>
<pdfrwt beam="1">  1        2 0.11717309E+00 0.69583275E+03</pdfrwt>
<pdfrwt beam="2">  1       -2 0.11010719E+00 0.69583275E+03</pdfrwt>
<totfact> 0.24557583E+01</totfact>
</mgrwt>
</event>
<event>
 4    5  0.6615028E-008  0.6784502E+03  0.7818608E-02  0.1010214E+00
         -2   -1    0    0    0  501 -0.00000000000E+00  0.00000000000E+00  0.53589584141E+03  0.53589584141E+03  0.25500000000E-02 0.  1.
          2   -1    0    0  501    0  0.00000000000E+00 -0.00000000000E+00 -0.13363058992E+04  0.13363058992E+04  0.25500000000E-02 0. -1.
    8880023    1    1    2    0    0 -0.48662361378E+02 -0.15529456521E+03 -0.12205250104E+04  0.13964153876E+04  0.65864270000E+03 0. -1.
    8880022    1    1    2    0    0  0.48662361378E+02  0.15529456521E+03  0.42011495256E+03  0.47578635308E+03  0.15294330000E+03 0.  0.
<mgrwt>
<rscale>  0 0.51389573E+03</rscale>
<asrwt>0</asrwt>
<pdfrwt beam="1">  1        2 0.20558552E+00 0.67845017E+03</pdfrwt>
<pdfrwt beam="2">  1       -2 0.82445514E-01 0.67845017E+03</pdfrwt>
<totfact> 0.20947602E+01</totfact>
</mgrwt>
</event>
<event>
 4    5  0.6615028E-008  0.9381951E+03  0.7818608E-02  0.9467306E-01
          2   -1    0    0  501    0  0.00000000000E+00  0.00000000000E+00  0.10377391024E+04  0.10377391024E+04  0.25500000000E-02 0. -1.
         -2   -1    0    0    0  501 -0.00000000000E+00 -0.00000000000E+00 -0.10383417584E+04  0.10383417584E+04  0.25500000000E-02 0.  1.
    8880023    1    1    2    0    0 -0.58168907679E+03  0.32869088707E+03  0.64177379743E+03  0.11366985945E+04  0.65864270000E+03 0. -1.
    8880022    1    1    2    0    0  0.58168907679E+03 -0.32869088707E+03 -0.64237645345E+03  0.93938226631E+03  0.15294330000E+03 0.  0.
<mgrwt>
<rscale>  0 0.86737725E+03</rscale>
<asrwt>0</asrwt>
<pdfrwt beam="1">  1        2 0.15965217E+00 0.93819512E+03</pdfrwt>
<pdfrwt beam="2">  1       -2 0.15974489E+00 0.93819512E+03</pdfrwt>
<totfact> 0.60127924E+00</totfact>
</mgrwt>
</event>
<event>
 4    5  0.6615028E-008  0.9097109E+03  0.7818608E-02  0.9510619E-01
         -2   -1    0    0    0  501 -0.00000000000E+00  0.00000000000E+00  0.39178555580E+03  0.39178555581E+03  0.25500000000E-02 0.  1.
          2   -1    0    0  501    0  0.00000000000E+00 -0.00000000000E+00 -0.21123697732E+04  0.21123697732E+04  0.25500000000E-02 0. -1.
    8880023    1    1    2    0    0 -0.81527661701E+02  0.62218720076E+03 -0.16094941510E+04  0.18487956352E+04  0.65864270000E+03 0. -1.
    8880022    1    1    2    0    0  0.81527661701E+02 -0.62218720076E+03 -0.11109006642E+03  0.65535969382E+03  0.15294330000E+03 0.  0.
<mgrwt>
<rscale>  0 0.83505439E+03</rscale>
<asrwt>0</asrwt>
<pdfrwt beam="1">  1        2 0.32497996E+00 0.90971088E+03</pdfrwt>
<pdfrwt beam="2">  1       -2 0.60274702E-01 0.90971088E+03</pdfrwt>
<totfact> 0.15064738E+01</totfact>
</mgrwt>
</event>
<event>
 4    5  0.6615028E-008  0.1120425E+04  0.7818608E-02  0.9238649E-01
         -2   -1    0    0    0  501 -0.00000000000E+00  0.00000000000E+00  0.54688755577E+03  0.54688755578E+03  0.25500000000E-02 0.  1.
          2   -1    0    0  501    0  0.00000000000E+00 -0.00000000000E+00 -0.24183174783E+04  0.24183174783E+04  0.25500000000E-02 0. -1.
    8880023    1    1    2    0    0  0.55883200068E+03  0.71361621439E+03 -0.16909325854E+04  0.20284487967E+04  0.65864270000E+03 0.  0.
    8880022    1    1    2    0    0 -0.55883200068E+03 -0.71361621439E+03 -0.18049733712E+03  0.93675623731E+03  0.15294330000E+03 0.  0.
<mgrwt>
<rscale>  0 0.10663255E+04</rscale>
<asrwt>0</asrwt>
<pdfrwt beam="1">  1        2 0.37204884E+00 0.11204247E+04</pdfrwt>
<pdfrwt beam="2">  1       -2 0.84136549E-01 0.11204247E+04</pdfrwt>
<totfact> 0.47546986E+00</totfact>
</mgrwt>
</event>
<event>
 4    5  0.6615028E-008  0.1051454E+04  0.7818608E-02  0.9317136E-01
          2   -1    0    0  501    0  0.00000000000E+00  0.00000000000E+00  0.44093033018E+04  0.44093033018E+04  0.25500000000E-02 0. -1.
         -2   -1    0    0    0  501 -0.00000000000E+00 -0.00000000000E+00 -0.36363319318E+03  0.36363319319E+03  0.25500000000E-02 0.  1.
    8880023    1    1    2    0    0  0.66835289633E+03  0.47439375752E+03  0.37398873351E+04  0.38848825615E+04  0.65864270000E+03 0. -1.
    8880022    1    1    2    0    0 -0.66835289633E+03 -0.47439375752E+03  0.30578277355E+03  0.88805393351E+03  0.15294330000E+03 0.  0.
<mgrwt>
<rscale>  0 0.99220507E+03</rscale>
<asrwt>0</asrwt>
<pdfrwt beam="1">  1        2 0.67835432E+00 0.10514539E+04</pdfrwt>
<pdfrwt beam="2">  1       -2 0.55943571E-01 0.10514539E+04</pdfrwt>
<totfact> 0.47885799E-01</totfact>
</mgrwt>
</event>
<event>
 4    5  0.6615028E-008  0.8441834E+03  0.7818608E-02  0.9622342E-01
         -2   -1    0    0    0  501 -0.00000000000E+00  0.00000000000E+00  0.75163992707E+03  0.75163992708E+03  0.25500000000E-02 0.  1.
          2   -1    0    0  501    0  0.00000000000E+00 -0.00000000000E+00 -0.12576657925E+04  0.12576657925E+04  0.25500000000E-02 0. -1.
    8880023    1    1    2    0    0 -0.14052881588E+03 -0.50900587497E+03 -0.97287596925E+03  0.12880734399E+04  0.65864270000E+03 0. -1.
    8880022    1    1    2    0    0  0.14052881588E+03  0.50900587497E+03  0.46685010378E+03  0.72123227969E+03  0.15294330000E+03 0.  0.
<mgrwt>
<rscale>  0 0.75834922E+03</rscale>
<asrwt>0</asrwt>
<pdfrwt beam="1">  1        2 0.19348705E+00 0.84418335E+03</pdfrwt>
<pdfrwt beam="2">  1       -2 0.11563691E+00 0.84418335E+03</pdfrwt>
<totfact> 0.10276434E+01</totfact>
</mgrwt>
</event>
<event>
 4    5  0.6615028E-008  0.7070651E+03  0.7818608E-02  0.9969065E-01
          2   -1    0    0  501    0  0.00000000000E+00  0.00000000000E+00  0.26090382618E+04  0.26090382618E+04  0.25500000000E-02 0. -1.
         -2   -1    0    0    0  501 -0.00000000000E+00 -0.00000000000E+00 -0.44001380984E+03  0.44001380985E+03  0.25500000000E-02 0.  1.
    8880023    1    1    2    0    0  0.11747642447E+03 -0.22875773550E+03  0.25028247269E+04  0.26007830805E+04  0.65864270000E+03 0. -1.
    8880022    1    1    2    0    0 -0.11747642447E+03  0.22875773550E+03 -0.33380027496E+03  0.44826899116E+03  0.15294330000E+03 0.  0.
<mgrwt>
<rscale>  0 0.57027724E+03</rscale>
<asrwt>0</asrwt>
<pdfrwt beam="1">  1        2 0.40139051E+00 0.70706507E+03</pdfrwt>
<pdfrwt beam="2">  1       -2 0.67694431E-01 0.70706507E+03</pdfrwt>
<totfact> 0.63787956E+00</totfact>
</mgrwt>
</event>
<event>
 4    5  0.6615028E-008  0.1002200E+04  0.7818608E-02  0.9378685E-01
         -2   -1    0    0    0  501 -0.00000000000E+00  0.00000000000E+00  0.14864655967E+04  0.14864655967E+04  0.25500000000E-02 0.  1.
          2   -1    0    0  501    0  0.00000000000E+00 -0.00000000000E+00 -0.80287888409E+03  0.80287888410E+03  0.25500000000E-02 0. -1.
    8880023    1    1    2    0    0 -0.74224183027E+03  0.14025424967E+03 -0.29405378026E+03  0.10444481898E+04  0.65864270000E+03 0.  0.
    8880022    1    1    2    0    0  0.74224183027E+03 -0.14025424967E+03  0.97764049289E+03  0.12448962911E+04  0.15294330000E+03 0.  0.
<mgrwt>
<rscale>  0 0.93850748E+03</rscale>
<asrwt>0</asrwt>
<pdfrwt beam="1">  1        2 0.12351983E+00 0.10021998E+04</pdfrwt>
<pdfrwt beam="2">  1       -2 0.22868701E+00 0.10021998E+04</pdfrwt>
<totfact> 0.29718010E+00</totfact>
</mgrwt>
</event>
<event>
 4    5  0.6615028E-008  0.7148424E+03  0.7818608E-02  0.9940440E-01
          2   -1    0    0  501    0  0.00000000000E+00  0.00000000000E+00  0.13830055829E+04  0.13830055829E+04  0.25500000000E-02 0. -1.
         -2   -1    0    0    0  501 -0.00000000000E+00 -0.00000000000E+00 -0.78693836234E+03  0.78693836234E+03  0.25500000000E-02 0.  1.
    8880023    1    1    2    0    0 -0.36030788306E+02 -0.27548368045E+03  0.12518090078E+04  0.14415358040E+04  0.65864270000E+03 0. -1.
    8880022    1    1    2    0    0  0.36030788306E+02  0.27548368045E+03 -0.65574178717E+03  0.72840814133E+03  0.15294330000E+03 0.  0.
<mgrwt>
<rscale>  0 0.58340789E+03</rscale>
<asrwt>0</asrwt>
<pdfrwt beam="1">  1        2 0.21277009E+00 0.71484242E+03</pdfrwt>
<pdfrwt beam="2">  1       -2 0.12106744E+00 0.71484242E+03</pdfrwt>
<totfact> 0.79018954E+00</totfact>
</mgrwt>
</event>
<event>
 4    5  0.6615028E-008  0.1373440E+04  0.7818608E-02  0.9004600E-01
          2   -1    0    0  501    0  0.00000000000E+00  0.00000000000E+00  0.12950099870E+04  0.12950099870E+04  0.25500000000E-02 0. -1.
         -2   -1    0    0    0  501 -0.00000000000E+00 -0.00000000000E+00 -0.15828192373E+04  0.15828192373E+04  0.25500000000E-02 0.  1.
    8880023    1    1    2    0    0 -0.86969420163E+03  0.83436203462E+03  0.46334297401E+03  0.14494912649E+04  0.65864270000E+03 0.  0.
    8880022    1    1    2    0    0  0.86969420163E+03 -0.83436203462E+03 -0.75115222436E+03  0.14283379594E+04  0.15294330000E+03 0.  0.
<mgrwt>
<rscale>  0 0.13319569E+04</rscale>
<asrwt>0</asrwt>
<pdfrwt beam="1">  1        2 0.19923230E+00 0.13734403E+04</pdfrwt>
<pdfrwt beam="2">  1       -2 0.24351065E+00 0.13734403E+04</pdfrwt>
<totfact> 0.11189687E+00</totfact>
</mgrwt>
</event>
<event>
 4    5  0.7384123E-008  0.1360803E+04  0.7818608E-02  0.9014754E-01
         -2   -1    0    0    0  501 -0.00000000000E+00  0.00000000000E+00  0.25081546120E+04  0.25081546120E+04  0.25500000000E-02 0.  1.
          2   -1    0    0  501    0  0.00000000000E+00 -0.00000000000E+00 -0.23601073772E+04  0.23601073772E+04  0.25500000000E-02 0. -1.
    8880023    1    1    2    0    0 -0.10056940960E+03  0.11865330589E+04 -0.19931888514E+04  0.24134180968E+04  0.65864270000E+03 0. -1.
    8880022    1    1    2    0    0  0.10056940960E+03 -0.11865330589E+04  0.21412360862E+04  0.24548438924E+04  0.15294330000E+03 0.  0.
<mgrwt>
<rscale>  0 0.13188435E+04</rscale>
<asrwt>0</asrwt>
<pdfrwt beam="1">  1        2 0.36309344E+00 0.13608031E+04</pdfrwt>
<pdfrwt beam="2">  1       -2 0.38586994E+00 0.13608031E+04</pdfrwt>
<totfact> 0.36903910E-02</totfact>
</mgrwt>
</event>
<event>
 4    5  0.6615028E-008  0.8182483E+03  0.7818608E-02  0.9672645E-01
          2   -1    0    0  501    0  0.00000000000E+00  0.00000000000E+00  0.77534093123E+03  0.77534093124E+03  0.25500000000E-02 0. -1.
         -2   -1    0    0    0  501 -0.00000000000E+00 -0.00000000000E+00 -0.80357257742E+03  0.80357257743E+03  0.25500000000E-02 0.  1.
    8880023    1    1    2    0    0  0.33787170828E+03 -0.34865844073E+03  0.40269579544E+03  0.91197264733E+03  0.65864270000E+03 0.  0.
    8880022    1    1    2    0    0 -0.33787170828E+03  0.34865844073E+03 -0.43092744163E+03  0.66694086133E+03  0.15294330000E+03 0.  0.
<mgrwt>
<rscale>  0 0.72669084E+03</rscale>
<asrwt>0</asrwt>
<pdfrwt beam="1">  1        2 0.11928322E+00 0.81824825E+03</pdfrwt>
<pdfrwt beam="2">  1       -2 0.12362655E+00 0.81824825E+03</pdfrwt>
<totfact> 0.17841979E+01</totfact>
</mgrwt>
</event>
<event>
 4    5  0.6615028E-008  0.7883255E+03  0.7818608E-02  0.9736632E-01
          2   -1    0    0  501    0  0.00000000000E+00  0.00000000000E+00  0.23021432745E+04  0.23021432745E+04  0.25500000000E-02 0. -1.
         -2   -1    0    0    0  501 -0.00000000000E+00 -0.00000000000E+00 -0.10390209215E+04  0.10390209215E+04  0.25500000000E-02 0.  1.
    8880023    1    1    2    0    0 -0.39157904054E+03  0.18523694386E+03  0.21786263266E+04  0.23168663638E+04  0.65864270000E+03 0. -1.
    8880022    1    1    2    0    0  0.39157904054E+03 -0.18523694386E+03 -0.91550397359E+03  0.10242978322E+04  0.15294330000E+03 0.  0.
<mgrwt>
<rscale>  0 0.68877027E+03</rscale>
<asrwt>0</asrwt>
<pdfrwt beam="1">  1        2 0.35417588E+00 0.78832549E+03</pdfrwt>
<pdfrwt beam="2">  1       -2 0.15984938E+00 0.78832549E+03</pdfrwt>
<totfact> 0.11864303E+00</totfact>
</mgrwt>
</event>
<event>
 4    5  0.6615028E-008  0.9863228E+03  0.7818608E-02  0.9399674E-01
         -2   -1    0    0    0  501 -0.00000000000E+00  0.00000000000E+00  0.32550262988E+03  0.32550262989E+03  0.25500000000E-02 0.  1.
          2   -1    0    0  501    0  0.00000000000E+00 -0.00000000000E+00 -0.30962263876E+04  0.30962263876E+04  0.25500000000E-02 0. -1.
    8880023    1    1    2    0    0  0.72027728298E+03 -0.14220769280E+03 -0.23796161137E+04  0.25759280749E+04  0.65864270000E+03 0. -1.
    8880022    1    1    2    0    0 -0.72027728298E+03  0.14220769280E+03 -0.39110764404E+03  0.84580094261E+03  0.15294330000E+03 0.  0.
<mgrwt>
<rscale>  0 0.92102478E+03</rscale>
<asrwt>0</asrwt>
<pdfrwt beam="1">  1        2 0.47634250E+00 0.98632277E+03</pdfrwt>
<pdfrwt beam="2">  1       -2 0.50077330E-01 0.98632277E+03</pdfrwt>
<totfact> 0.58659981E+00</totfact>
</mgrwt>
</event>
<event>
 4    5  0.6615028E-008  0.1347401E+04  0.7818608E-02  0.9025670E-01
         -2   -1    0    0    0  501 -0.00000000000E+00  0.00000000000E+00  0.22995596337E+04  0.22995596337E+04  0.25500000000E-02 0.  1.
          2   -1    0    0  501    0  0.00000000000E+00 -0.00000000000E+00 -0.79561458453E+03  0.79561458454E+03  0.25500000000E-02 0. -1.
    8880023    1    1    2    0    0  0.11753849379E+04  0.12206809961E+02  0.25138274388E+03  0.13706503013E+04  0.65864270000E+03 0.  0.
    8880022    1    1    2    0    0 -0.11753849379E+04 -0.12206809961E+02  0.12525623052E+04  0.17245239169E+04  0.15294330000E+03 0.  0.
<mgrwt>
<rscale>  0 0.13049229E+04</rscale>
<asrwt>0</asrwt>
<pdfrwt beam="1">  1        2 0.12240225E+00 0.13474008E+04</pdfrwt>
<pdfrwt beam="2">  1       -2 0.35377840E+00 0.13474008E+04</pdfrwt>
<totfact> 0.49513211E-01</totfact>
</mgrwt>
</event>
<event>
 4    5  0.6615028E-008  0.6869424E+03  0.7818608E-02  0.1005641E+00
         -2   -1    0    0    0  501 -0.00000000000E+00  0.00000000000E+00  0.23196369188E+03  0.23196369189E+03  0.25500000000E-02 0.  1.
          2   -1    0    0  501    0  0.00000000000E+00 -0.00000000000E+00 -0.16337156001E+04  0.16337156001E+04  0.25500000000E-02 0. -1.
    8880023    1    1    2    0    0  0.18566548256E+03  0.60066117988E+02 -0.14577521438E+04  0.16114996521E+04  0.65864270000E+03 0. -1.
    8880022    1    1    2    0    0 -0.18566548256E+03 -0.60066117988E+02  0.56000235503E+02  0.25417963989E+03  0.15294330000E+03 0.  0.
<mgrwt>
<rscale>  0 0.53244438E+03</rscale>
<asrwt>0</asrwt>
<pdfrwt beam="1">  1        2 0.25134085E+00 0.68694237E+03</pdfrwt>
<pdfrwt beam="2">  1       -2 0.35686723E-01 0.68694237E+03</pdfrwt>
<totfact> 0.81007121E+01</totfact>
</mgrwt>
</event>
<event>
 4    5  0.6615028E-008  0.1889389E+04  0.7818608E-02  0.8674637E-01
          2   -1    0    0  501    0  0.00000000000E+00  0.00000000000E+00  0.26586081746E+04  0.26586081746E+04  0.25500000000E-02 0. -1.
         -2   -1    0    0    0  501 -0.00000000000E+00 -0.00000000000E+00 -0.19949198798E+04  0.19949198798E+04  0.25500000000E-02 0.  1.
    8880023    1    1    2    0    0  0.17698901033E+04  0.58917708785E+02  0.17458914641E+04  0.25725336703E+04  0.65864270000E+03 0.  0.
    8880022    1    1    2    0    0 -0.17698901033E+04 -0.58917708785E+02 -0.10822031694E+04  0.20809943841E+04  0.15294330000E+03 0.  0.
<mgrwt>
<rscale>  0 0.18607638E+04</rscale>
<asrwt>0</asrwt>
<pdfrwt beam="1">  1        2 0.40901664E+00 0.18893894E+04</pdfrwt>
<pdfrwt beam="2">  1       -2 0.30691075E+00 0.18893894E+04</pdfrwt>
<totfact> 0.72555808E-02</totfact>
</mgrwt>
</event>
<event>
 4    5  0.6615028E-008  0.1172556E+04  0.7818608E-02  0.9184273E-01
         -2   -1    0    0    0  501 -0.00000000000E+00  0.00000000000E+00  0.12687007564E+04  0.12687007564E+04  0.25500000000E-02 0.  1.
          2   -1    0    0  501    0  0.00000000000E+00 -0.00000000000E+00 -0.12142421127E+04  0.12142421127E+04  0.25500000000E-02 0. -1.
    8880023    1    1    2    0    0  0.35101569953E+03  0.90435898465E+03 -0.58565005467E+03  0.13106766906E+04  0.65864270000E+03 0.  0.
    8880022    1    1    2    0    0 -0.35101569953E+03 -0.90435898465E+03  0.64010869837E+03  0.11722661785E+04  0.15294330000E+03 0.  0.
<mgrwt>
<rscale>  0 0.11217245E+04</rscale>
<asrwt>0</asrwt>
<pdfrwt beam="1">  1        2 0.18680648E+00 0.11725559E+04</pdfrwt>
<pdfrwt beam="2">  1       -2 0.19518473E+00 0.11725559E+04</pdfrwt>
<totfact> 0.25880809E+00</totfact>
</mgrwt>
</event>
<event>
 4    5  0.6615028E-008  0.9300302E+03  0.7818608E-02  0.9479448E-01
          2   -1    0    0  501    0  0.00000000000E+00  0.00000000000E+00  0.10310765017E+04  0.10310765018E+04  0.25500000000E-02 0. -1.
         -2   -1    0    0    0  501 -0.00000000000E+00 -0.00000000000E+00 -0.99897993078E+03  0.99897993078E+03  0.25500000000E-02 0.  1.
    8880023    1    1    2    0    0 -0.40525769626E+03  0.51663544264E+03  0.63456975974E+03  0.11258929644E+04  0.65864270000E+03 0. -1.
    8880022    1    1    2    0    0  0.40525769626E+03 -0.51663544264E+03 -0.60247318876E+03  0.90416346817E+03  0.15294330000E+03 0.  0.
<mgrwt>
<rscale>  0 0.85816149E+03</rscale>
<asrwt>0</asrwt>
<pdfrwt beam="1">  1        2 0.15862715E+00 0.93003021E+03</pdfrwt>
<pdfrwt beam="2">  1       -2 0.15368922E+00 0.93003021E+03</pdfrwt>
<totfact> 0.67451040E+00</totfact>
</mgrwt>
</event>
<event>
 4    5  0.6615028E-008  0.1048248E+04  0.7818608E-02  0.9320991E-01
         -2   -1    0    0    0  501 -0.00000000000E+00  0.00000000000E+00  0.71136789015E+03  0.71136789015E+03  0.25500000000E-02 0.  1.
          2   -1    0    0  501    0  0.00000000000E+00 -0.00000000000E+00 -0.20754529862E+04  0.20754529862E+04  0.25500000000E-02 0. -1.
    8880023    1    1    2    0    0 -0.60084145088E+03  0.55136427725E+03 -0.16102365356E+04  0.19213757889E+04  0.65864270000E+03 0. -1.
    8880022    1    1    2    0    0  0.60084145088E+03 -0.55136427725E+03  0.24615143949E+03  0.86544508751E+03  0.15294330000E+03 0.  0.
<mgrwt>
<rscale>  0 0.98873159E+03</rscale>
<asrwt>0</asrwt>
<pdfrwt beam="1">  1        2 0.31930046E+00 0.10482477E+04</pdfrwt>
<pdfrwt beam="2">  1       -2 0.10944121E+00 0.10482477E+04</pdfrwt>
<totfact> 0.40130779E+00</totfact>
</mgrwt>
</event>
<event>
 4    5  0.6615028E-008  0.1849294E+04  0.7818608E-02  0.8695748E-01
         -2   -1    0    0    0  501 -0.00000000000E+00  0.00000000000E+00  0.17540059905E+04  0.17540059905E+04  0.25500000000E-02 0.  1.
          2   -1    0    0  501    0  0.00000000000E+00 -0.00000000000E+00 -0.23342972195E+04  0.23342972195E+04  0.25500000000E-02 0. -1.
    8880023    1    1    2    0    0 -0.98963089749E+02  0.17251906662E+04 -0.12463135753E+04  0.22300637350E+04  0.65864270000E+03 0.  0.
    8880022    1    1    2    0    0  0.98963089749E+02 -0.17251906662E+04  0.66602234633E+03  0.18582394751E+04  0.15294330000E+03 0.  0.
<mgrwt>
<rscale>  0 0.18199758E+04</rscale>
<asrwt>0</asrwt>
<pdfrwt beam="1">  1        2 0.35912265E+00 0.18492936E+04</pdfrwt>
<pdfrwt beam="2">  1       -2 0.26984708E+00 0.18492936E+04</pdfrwt>
<totfact> 0.18995179E-01</totfact>
</mgrwt>
</event>
<event>
 4    5  0.6615028E-008  0.7790017E+03  0.7818608E-02  0.9758187E-01
         -2   -1    0    0    0  501 -0.00000000000E+00  0.00000000000E+00  0.42862528713E+03  0.42862528714E+03  0.25500000000E-02 0.  1.
          2   -1    0    0  501    0  0.00000000000E+00 -0.00000000000E+00 -0.13692338363E+04  0.13692338363E+04  0.25500000000E-02 0. -1.
    8880023    1    1    2    0    0 -0.89389602696E+02  0.40625469181E+03 -0.10814606362E+04  0.13328168253E+04  0.65864270000E+03 0.  0.
    8880022    1    1    2    0    0  0.89389602696E+02 -0.40625469181E+03  0.14085208704E+03  0.46504229821E+03  0.15294330000E+03 0.  0.
<mgrwt>
<rscale>  0 0.67655544E+03</rscale>
<asrwt>0</asrwt>
<pdfrwt beam="1">  1        2 0.21065136E+00 0.77900166E+03</pdfrwt>
<pdfrwt beam="2">  1       -2 0.65942352E-01 0.77900166E+03</pdfrwt>
<totfact> 0.32468506E+01</totfact>
</mgrwt>
</event>
<event>
 4    5  0.6615028E-008  0.7627666E+03  0.7818608E-02  0.9797997E-01
         -2   -1    0    0    0  501 -0.00000000000E+00  0.00000000000E+00  0.28857725575E+03  0.28857725577E+03  0.25500000000E-02 0.  1.
          2   -1    0    0  501    0  0.00000000000E+00 -0.00000000000E+00 -0.21978984728E+04  0.21978984728E+04  0.25500000000E-02 0. -1.
    8880023    1    1    2    0    0  0.34601182958E+03 -0.16816198213E+03 -0.19266173860E+04  0.20721166465E+04  0.65864270000E+03 0. -1.
    8880022    1    1    2    0    0 -0.34601182958E+03  0.16816198213E+03  0.17296168910E+02  0.41435908210E+03  0.15294330000E+03 0.  0.
<mgrwt>
<rscale>  0 0.65470142E+03</rscale>
<asrwt>0</asrwt>
<pdfrwt beam="1">  1        2 0.33813822E+00 0.76276657E+03</pdfrwt>
<pdfrwt beam="2">  1       -2 0.44396502E-01 0.76276657E+03</pdfrwt>
<totfact> 0.25799123E+01</totfact>
</mgrwt>
</event>
<event>
 4    5  0.7063372E-008  0.1350503E+04  0.7818608E-02  0.9023130E-01
          2   -1    0    0  501    0  0.00000000000E+00  0.00000000000E+00  0.17497345821E+04  0.17497345821E+04  0.25500000000E-02 0. -1.
         -2   -1    0    0    0  501 -0.00000000000E+00 -0.00000000000E+00 -0.29196013285E+04  0.29196013285E+04  0.25500000000E-02 0.  1.
    8880023    1    1    2    0    0 -0.26668838805E+03  0.11484445388E+04  0.13335552212E+04  0.18979534476E+04  0.65864270000E+03 0.  0.
    8880022    1    1    2    0    0  0.26668838805E+03 -0.11484445388E+04 -0.25034219676E+04  0.27713824629E+04  0.15294330000E+03 0.  0.
<mgrwt>
<rscale>  0 0.13081461E+04</rscale>
<asrwt>0</asrwt>
<pdfrwt beam="1">  1        2 0.26918994E+00 0.13505028E+04</pdfrwt>
<pdfrwt beam="2">  1       -2 0.44916944E+00 0.13505028E+04</pdfrwt>
<totfact> 0.31027283E-02</totfact>
</mgrwt>
</event>
<event>
 4    5  0.6615028E-008  0.6677868E+03  0.7818608E-02  0.1017302E+00
         -2   -1    0    0    0  501 -0.00000000000E+00  0.00000000000E+00  0.27935500504E+03  0.27935500505E+03  0.25500000000E-02 0.  1.
          2   -1    0    0  501    0  0.00000000000E+00 -0.00000000000E+00 -0.24139293756E+04  0.24139293756E+04  0.25500000000E-02 0. -1.
    8880023    1    1    2    0    0  0.10963326048E+03 -0.10466690518E+02 -0.23287966665E+04  0.24226500209E+04  0.65864270000E+03 0. -1.
    8880022    1    1    2    0    0 -0.10963326048E+03  0.10466690518E+02  0.19422229597E+03  0.27063435975E+03  0.15294330000E+03 0.  0.
<mgrwt>
<rscale>  0 0.48673043E+03</rscale>
<asrwt>0</asrwt>
<pdfrwt beam="1">  1        2 0.37137374E+00 0.66778680E+03</pdfrwt>
<pdfrwt beam="2">  1       -2 0.42977695E-01 0.66778680E+03</pdfrwt>
<totfact> 0.21178456E+01</totfact>
</mgrwt>
</event>
<event>
 4    5  0.6615028E-008  0.8560179E+03  0.7818608E-02  0.9600686E-01
          2   -1    0    0  501    0  0.00000000000E+00  0.00000000000E+00  0.14899654177E+04  0.14899654177E+04  0.25500000000E-02 0. -1.
         -2   -1    0    0    0  501 -0.00000000000E+00 -0.00000000000E+00 -0.10737043397E+04  0.10737043397E+04  0.25500000000E-02 0.  1.
    8880023    1    1    2    0    0 -0.28263831338E+03 -0.46805134677E+03  0.12741032629E+04  0.15349611755E+04  0.65864270000E+03 0. -1.
    8880022    1    1    2    0    0  0.28263831338E+03  0.46805134677E+03 -0.85784218493E+03  0.10287085820E+04  0.15294330000E+03 0.  0.
<mgrwt>
<rscale>  0 0.77250765E+03</rscale>
<asrwt>0</asrwt>
<pdfrwt beam="1">  1        2 0.22922545E+00 0.85601792E+03</pdfrwt>
<pdfrwt beam="2">  1       -2 0.16518528E+00 0.85601792E+03</pdfrwt>
<totfact> 0.30018106E+00</totfact>
</mgrwt>
</event>
<event>
 4    5  0.6615028E-008  0.1212041E+04  0.7818608E-02  0.9145505E-01
          2   -1    0    0  501    0  0.00000000000E+00  0.00000000000E+00  0.20090859765E+04  0.20090859765E+04  0.25500000000E-02 0. -1.
         -2   -1    0    0    0  501 -0.00000000000E+00 -0.00000000000E+00 -0.15181653256E+04  0.15181653256E+04  0.25500000000E-02 0.  1.
    8880023    1    1    2    0    0  0.57420407172E+03 -0.83995446811E+03  0.16046783348E+04  0.20109790126E+04  0.65864270000E+03 0.  0.
    8880022    1    1    2    0    0 -0.57420407172E+03  0.83995446811E+03 -0.11137576839E+04  0.15162722895E+04  0.15294330000E+03 0.  0.
<mgrwt>
<rscale>  0 0.11634048E+04</rscale>
<asrwt>0</asrwt>
<pdfrwt beam="1">  1        2 0.30909015E+00 0.12120413E+04</pdfrwt>
<pdfrwt beam="2">  1       -2 0.23356390E+00 0.12120413E+04</pdfrwt>
<totfact> 0.52062089E-01</totfact>
</mgrwt>
</event>
<event>
 4    5  0.6615028E-008  0.9098526E+03  0.7818608E-02  0.9510397E-01
          2   -1    0    0  501    0  0.00000000000E+00  0.00000000000E+00  0.19151408143E+04  0.19151408143E+04  0.25500000000E-02 0. -1.
         -2   -1    0    0    0  501 -0.00000000000E+00 -0.00000000000E+00 -0.61802791481E+03  0.61802791481E+03  0.25500000000E-02 0.  1.
    8880023    1    1    2    0    0  0.61756321384E+03 -0.11241505703E+03  0.15836439614E+04  0.18264062721E+04  0.65864270000E+03 0.  0.
    8880022    1    1    2    0    0 -0.61756321384E+03  0.11241505703E+03 -0.28653106191E+03  0.70676245698E+03  0.15294330000E+03 0.  0.
<mgrwt>
<rscale>  0 0.83521643E+03</rscale>
<asrwt>0</asrwt>
<pdfrwt beam="1">  1        2 0.29463704E+00 0.90985256E+03</pdfrwt>
<pdfrwt beam="2">  1       -2 0.95081219E-01 0.90985256E+03</pdfrwt>
<totfact> 0.70022587E+00</totfact>
</mgrwt>
</event>
<event>
 4    5  0.6615028E-008  0.1153317E+04  0.7818608E-02  0.9203893E-01
         -2   -1    0    0    0  501 -0.00000000000E+00  0.00000000000E+00  0.39973407143E+03  0.39973407144E+03  0.25500000000E-02 0.  1.
          2   -1    0    0  501    0  0.00000000000E+00 -0.00000000000E+00 -0.33550508686E+04  0.33550508686E+04  0.25500000000E-02 0. -1.
    8880023    1    1    2    0    0  0.93233064820E+03  0.16459098722E+03 -0.23580504894E+04  0.26249843709E+04  0.65864270000E+03 0.  0.
    8880022    1    1    2    0    0 -0.93233064820E+03 -0.16459098722E+03 -0.59726630780E+03  0.11298005692E+04  0.15294330000E+03 0.  0.
<mgrwt>
<rscale>  0 0.11013331E+04</rscale>
<asrwt>0</asrwt>
<pdfrwt beam="1">  1        2 0.51616165E+00 0.11533173E+04</pdfrwt>
<pdfrwt beam="2">  1       -2 0.61497552E-01 0.11533173E+04</pdfrwt>
<totfact> 0.25378137E+00</totfact>
</mgrwt>
</event>
<event>
 4    5  0.6615028E-008  0.7000973E+03  0.7818608E-02  0.9996798E-01
         -2   -1    0    0    0  501 -0.00000000000E+00  0.00000000000E+00  0.13098814592E+03  0.13098814594E+03  0.25500000000E-02 0.  1.
          2   -1    0    0  501    0  0.00000000000E+00 -0.00000000000E+00 -0.35713492884E+04  0.35713492884E+04  0.25500000000E-02 0. -1.
    8880023    1    1    2    0    0 -0.11456245568E+03  0.20784948585E+03 -0.33240495312E+04  0.33969753395E+04  0.65864270000E+03 0.  0.
    8880022    1    1    2    0    0  0.11456245568E+03 -0.20784948585E+03 -0.11631161124E+03  0.30536209480E+03  0.15294330000E+03 0. -1.
<mgrwt>
<rscale>  0 0.55790862E+03</rscale>
<asrwt>0</asrwt>
<pdfrwt beam="1">  1        2 0.54943828E+00 0.70009726E+03</pdfrwt>
<pdfrwt beam="2">  1       -2 0.20152025E-01 0.70009726E+03</pdfrwt>
<totfact> 0.16622628E+01</totfact>
</mgrwt>
</event>
<event>
 4    5  0.6615028E-008  0.7297665E+03  0.7818608E-02  0.9890827E-01
         -2   -1    0    0    0  501 -0.00000000000E+00  0.00000000000E+00  0.66119269119E+03  0.66119269119E+03  0.25500000000E-02 0.  1.
          2   -1    0    0  501    0  0.00000000000E+00 -0.00000000000E+00 -0.10057966909E+04  0.10057966909E+04  0.25500000000E-02 0. -1.
    8880023    1    1    2    0    0  0.29177849747E+03 -0.11667983347E+03 -0.80657608433E+03  0.10877150643E+04  0.65864270000E+03 0. -1.
    8880022    1    1    2    0    0 -0.29177849747E+03  0.11667983347E+03  0.46197208467E+03  0.57927431770E+03  0.15294330000E+03 0.  0.
<mgrwt>
<rscale>  0 0.60707926E+03</rscale>
<asrwt>0</asrwt>
<pdfrwt beam="1">  1        2 0.15473795E+00 0.72976646E+03</pdfrwt>
<pdfrwt beam="2">  1       -2 0.10172195E+00 0.72976646E+03</pdfrwt>
<totfact> 0.20177727E+01</totfact>
</mgrwt>
</event>
<event>
 4    5  0.6615028E-008  0.1371124E+04  0.7818608E-02  0.9006451E-01
          2   -1    0    0  501    0  0.00000000000E+00  0.00000000000E+00  0.20218336607E+04  0.20218336607E+04  0.25500000000E-02 0. -1.
         -2   -1    0    0    0  501 -0.00000000000E+00 -0.00000000000E+00 -0.13747169918E+04  0.13747169918E+04  0.25500000000E-02 0.  1.
    8880023    1    1    2    0    0  0.72682981080E+03  0.95806560377E+03  0.14079837412E+04  0.19652988823E+04  0.65864270000E+03 0.  0.
    8880022    1    1    2    0    0 -0.72682981080E+03 -0.95806560377E+03 -0.76086707228E+03  0.14312517702E+04  0.15294330000E+03 0.  0.
<mgrwt>
<rscale>  0 0.13295544E+04</rscale>
<asrwt>0</asrwt>
<pdfrwt beam="1">  1        2 0.31105133E+00 0.13711242E+04</pdfrwt>
<pdfrwt beam="2">  1       -2 0.21149492E+00 0.13711242E+04</pdfrwt>
<totfact> 0.69253873E-01</totfact>
</mgrwt>
</event>
<event>
 4    5  0.6615028E-008  0.8915645E+03  0.7818608E-02  0.9539711E-01
         -2   -1    0    0    0  501 -0.00000000000E+00  0.00000000000E+00  0.59374754307E+03  0.59374754308E+03  0.25500000000E-02 0.  1.
          2   -1    0    0  501    0  0.00000000000E+00 -0.00000000000E+00 -0.99298416362E+03  0.99298416363E+03  0.25500000000E-02 0. -1.
    8880023    1    1    2    0    0 -0.35343668092E+03  0.48596242569E+03 -0.37205523207E+03  0.96608088097E+03  0.65864270000E+03 0. -1.
    8880022    1    1    2    0    0  0.35343668092E+03 -0.48596242569E+03 -0.27181388480E+02  0.62065082574E+03  0.15294330000E+03 0.  1.
<mgrwt>
<rscale>  0 0.81418326E+03</rscale>
<asrwt>0</asrwt>
<pdfrwt beam="1">  1        2 0.15276679E+00 0.89156445E+03</pdfrwt>
<pdfrwt beam="2">  1       -2 0.91345776E-01 0.89156445E+03</pdfrwt>
<totfact> 0.26074415E+01</totfact>
</mgrwt>
</event>
<event>
 4    5  0.6615028E-008  0.9644002E+03  0.7818608E-02  0.9429691E-01
          2   -1    0    0  501    0  0.00000000000E+00  0.00000000000E+00  0.22874423468E+04  0.22874423468E+04  0.25500000000E-02 0. -1.
         -2   -1    0    0    0  501 -0.00000000000E+00 -0.00000000000E+00 -0.21677231272E+04  0.21677231272E+04  0.25500000000E-02 0.  1.
    8880023    1    1    2    0    0  0.20381339725E+02  0.70416053345E+03  0.21199492315E+04  0.23290024488E+04  0.65864270000E+03 0.  0.
    8880022    1    1    2    0    0 -0.20381339725E+02 -0.70416053345E+03 -0.20002300119E+04  0.21261630252E+04  0.15294330000E+03 0.  0.
<mgrwt>
<rscale>  0 0.89671973E+03</rscale>
<asrwt>0</asrwt>
<pdfrwt beam="1">  1        2 0.35191421E+00 0.96440016E+03</pdfrwt>
<pdfrwt beam="2">  1       -2 0.33349587E+00 0.96440016E+03</pdfrwt>
<totfact> 0.93509135E-02</totfact>
</mgrwt>
</event>
<event>
 4    5  0.6615028E-008  0.9937609E+03  0.7818608E-02  0.9389766E-01
          2   -1    0    0  501    0  0.00000000000E+00  0.00000000000E+00  0.19675049880E+04  0.19675049880E+04  0.25500000000E-02 0. -1.
         -2   -1    0    0    0  501 -0.00000000000E+00 -0.00000000000E+00 -0.97474776732E+03  0.97474776733E+03  0.25500000000E-02 0.  1.
    8880023    1    1    2    0    0  0.68057591272E+03 -0.30094334200E+03  0.16576349758E+04  0.19326961446E+04  0.65864270000E+03 0.  0.
    8880022    1    1    2    0    0 -0.68057591272E+03  0.30094334200E+03 -0.66487775510E+03  0.10095566108E+04  0.15294330000E+03 0.  0.
<mgrwt>
<rscale>  0 0.92922689E+03</rscale>
<asrwt>0</asrwt>
<pdfrwt beam="1">  1        2 0.30269307E+00 0.99376087E+03</pdfrwt>
<pdfrwt beam="2">  1       -2 0.14996120E+00 0.99376087E+03</pdfrwt>
<totfact> 0.20844784E+00</totfact>
</mgrwt>
</event>
<event>
 4    5  0.1035436E-007  0.1270449E+04  0.7818608E-02  0.9091509E-01
         -2   -1    0    0    0  501 -0.00000000000E+00  0.00000000000E+00  0.19933431342E+04  0.19933431342E+04  0.25500000000E-02 0.  1.
          2   -1    0    0  501    0  0.00000000000E+00 -0.00000000000E+00 -0.28480964557E+04  0.28480964557E+04  0.25500000000E-02 0. -1.
    8880023    1    1    2    0    0 -0.73556320945E+03  0.79948531757E+03 -0.25345390887E+04  0.28351240901E+04  0.65864270000E+03 0.  0.
    8880022    1    1    2    0    0  0.73556320945E+03 -0.79948531757E+03  0.16797857671E+04  0.20063154998E+04  0.15294330000E+03 0.  0.
<mgrwt>
<rscale>  0 0.12246983E+04</rscale>
<asrwt>0</asrwt>
<pdfrwt beam="1">  1        2 0.43816868E+00 0.12704488E+04</pdfrwt>
<pdfrwt beam="2">  1       -2 0.30666818E+00 0.12704488E+04</pdfrwt>
<totfact> 0.60935769E-02</totfact>
</mgrwt>
</event>
<event>
 4    5  0.6615028E-008  0.6765090E+03  0.7818608E-02  0.1011372E+00
          2   -1    0    0  501    0  0.00000000000E+00  0.00000000000E+00  0.11527546999E+04  0.11527546999E+04  0.25500000000E-02 0. -1.
         -2   -1    0    0    0  501 -0.00000000000E+00 -0.00000000000E+00 -0.33301893479E+03  0.33301893480E+03  0.25500000000E-02 0.  1.
    8880023    1    1    2    0    0  0.13915117317E+03 -0.67015869251E+02  0.99730181084E+03  0.12051038478E+04  0.65864270000E+03 0. -1.
    8880022    1    1    2    0    0 -0.13915117317E+03  0.67015869251E+02 -0.17756604568E+03  0.28066978698E+03  0.15294330000E+03 0.  0.
<mgrwt>
<rscale>  0 0.50933158E+03</rscale>
<asrwt>0</asrwt>
<pdfrwt beam="1">  1        2 0.17734688E+00 0.67650897E+03</pdfrwt>
<pdfrwt beam="2">  1       -2 0.51233682E-01 0.67650897E+03</pdfrwt>
<totfact> 0.74457656E+01</totfact>
</mgrwt>
</event>
<event>
 4    5  0.6615028E-008  0.9336051E+03  0.7818608E-02  0.9474106E-01
         -2   -1    0    0    0  501 -0.00000000000E+00  0.00000000000E+00  0.49988137443E+03  0.49988137443E+03  0.25500000000E-02 0.  1.
          2   -1    0    0  501    0  0.00000000000E+00 -0.00000000000E+00 -0.28218475048E+04  0.28218475048E+04  0.25500000000E-02 0. -1.
    8880023    1    1    2    0    0  0.48455577554E+03  0.45057074099E+03 -0.24578145046E+04  0.26291577810E+04  0.65864270000E+03 0. -1.
    8880022    1    1    2    0    0 -0.48455577554E+03 -0.45057074099E+03  0.13584837424E+03  0.69257109819E+03  0.15294330000E+03 0.  0.
<mgrwt>
<rscale>  0 0.86220110E+03</rscale>
<asrwt>0</asrwt>
<pdfrwt beam="1">  1        2 0.43413037E+00 0.93360511E+03</pdfrwt>
<pdfrwt beam="2">  1       -2 0.76904829E-01 0.93360511E+03</pdfrwt>
<totfact> 0.34798457E+00</totfact>
</mgrwt>
</event>
<event>
 4    5  0.6615028E-008  0.7797004E+03  0.7818608E-02  0.9756541E-01
          2   -1    0    0  501    0  0.00000000000E+00  0.00000000000E+00  0.10674643696E+04  0.10674643696E+04  0.25500000000E-02 0. -1.
         -2   -1    0    0    0  501 -0.00000000000E+00 -0.00000000000E+00 -0.85457496526E+03  0.85457496526E+03  0.25500000000E-02 0.  1.
    8880023    1    1    2    0    0  0.27892037276E+03  0.31036425248E+03  0.84472109236E+03  0.11495592519E+04  0.65864270000E+03 0. -1.
    8880022    1    1    2    0    0 -0.27892037276E+03 -0.31036425248E+03 -0.63183168801E+03  0.77248008294E+03  0.15294330000E+03 0.  0.
<mgrwt>
<rscale>  0 0.67747866E+03</rscale>
<asrwt>0</asrwt>
<pdfrwt beam="1">  1        2 0.16422529E+00 0.77970042E+03</pdfrwt>
<pdfrwt beam="2">  1       -2 0.13147307E+00 0.77970042E+03</pdfrwt>
<totfact> 0.97748080E+00</totfact>
</mgrwt>
</event>
<event>
 4    5  0.6615028E-008  0.6596807E+03  0.7818608E-02  0.1024486E+00
          2   -1    0    0  501    0  0.00000000000E+00  0.00000000000E+00  0.14683899447E+04  0.14683899447E+04  0.25500000000E-02 0. -1.
         -2   -1    0    0    0  501 -0.00000000000E+00 -0.00000000000E+00 -0.15094907308E+03  0.15094907310E+03  0.25500000000E-02 0.  1.
    8880023    1    1    2    0    0  0.36579535440E+02 -0.55062524030E+01  0.13040562651E+04  0.14614175755E+04  0.65864270000E+03 0. -1.
    8880022    1    1    2    0    0 -0.36579535440E+02  0.55062524030E+01  0.13384606532E+02  0.15792144229E+03  0.15294330000E+03 0.  0.
<mgrwt>
<rscale>  0 0.46101942E+03</rscale>
<asrwt>0</asrwt>
<pdfrwt beam="1">  1        2 0.22590615E+00 0.65968067E+03</pdfrwt>
<pdfrwt beam="2">  1       -2 0.23222934E-01 0.65968067E+03</pdfrwt>
<totfact> 0.22110315E+02</totfact>
</mgrwt>
</event>
<event>
 4    5  0.6615028E-008  0.1046518E+04  0.7818608E-02  0.9323078E-01
         -2   -1    0    0    0  501 -0.00000000000E+00  0.00000000000E+00  0.80651695912E+03  0.80651695912E+03  0.25500000000E-02 0.  1.
          2   -1    0    0  501    0  0.00000000000E+00 -0.00000000000E+00 -0.25139960012E+04  0.25139960012E+04  0.25500000000E-02 0. -1.
    8880023    1    1    2    0    0 -0.43104031412E+03  0.68963381031E+03 -0.21433719539E+04  0.23852136348E+04  0.65864270000E+03 0.  0.
    8880022    1    1    2    0    0  0.43104031412E+03 -0.68963381031E+03  0.43589291181E+03  0.93529932551E+03  0.15294330000E+03 0.  0.
<mgrwt>
<rscale>  0 0.98685696E+03</rscale>
<asrwt>0</asrwt>
<pdfrwt beam="1">  1        2 0.38676861E+00 0.10465184E+04</pdfrwt>
<pdfrwt beam="2">  1       -2 0.12407953E+00 0.10465184E+04</pdfrwt>
<totfact> 0.16694023E+00</totfact>
</mgrwt>
</event>
<event>
 4    5  0.6615028E-008  0.1039345E+04  0.7818608E-02  0.9331801E-01
          2   -1    0    0  501    0  0.00000000000E+00  0.00000000000E+00  0.48335958257E+04  0.48335958257E+04  0.25500000000E-02 0. -1.
         -2   -1    0    0    0  501 -0.00000000000E+00 -0.00000000000E+00 -0.33759648848E+03  0.33759648849E+03  0.25500000000E-02 0.  1.
    8880023    1    1    2    0    0 -0.75574190861E+03  0.27437501740E+03  0.41576404697E+04  0.42855818700E+04  0.65864270000E+03 0.  0.
    8880022    1    1    2    0    0  0.75574190861E+03 -0.27437501740E+03  0.33835886746E+03  0.88561044416E+03  0.15294330000E+03 0.  0.
<mgrwt>
<rscale>  0 0.97907157E+03</rscale>
<asrwt>0</asrwt>
<pdfrwt beam="1">  1        2 0.74363002E+00 0.10393448E+04</pdfrwt>
<pdfrwt beam="2">  1       -2 0.51937928E-01 0.10393448E+04</pdfrwt>
<totfact> 0.20695600E-01</totfact>
</mgrwt>
</event>
<event>
 4    5  0.6615028E-008  0.8490864E+03  0.7818608E-02  0.9613279E-01
         -2   -1    0    0    0  501 -0.00000000000E+00  0.00000000000E+00  0.18088059403E+03  0.18088059404E+03  0.25500000000E-02 0.  1.
          2   -1    0    0  501    0  0.00000000000E+00 -0.00000000000E+00 -0.33692608500E+04  0.33692608500E+04  0.25500000000E-02 0. -1.
    8880023    1    1    2    0    0  0.15289924053E+03  0.51357501166E+03 -0.26200412091E+04  0.27541901920E+04  0.65864270000E+03 0. -1.
    8880022    1    1    2    0    0 -0.15289924053E+03 -0.51357501166E+03 -0.56833904693E+03  0.79595125205E+03  0.15294330000E+03 0.  0.
<mgrwt>
<rscale>  0 0.76423460E+03</rscale>
<asrwt>0</asrwt>
<pdfrwt beam="1">  1        2 0.51834778E+00 0.84908638E+03</pdfrwt>
<pdfrwt beam="2">  1       -2 0.27827786E-01 0.84908638E+03</pdfrwt>
<totfact> 0.12446938E+01</totfact>
</mgrwt>
</event>
<event>
 4    5  0.6615028E-008  0.1772498E+04  0.7818608E-02  0.8737904E-01
          2   -1    0    0  501    0  0.00000000000E+00  0.00000000000E+00  0.13424641746E+04  0.13424641746E+04  0.25500000000E-02 0. -1.
         -2   -1    0    0    0  501 -0.00000000000E+00 -0.00000000000E+00 -0.28562674860E+04  0.28562674860E+04  0.25500000000E-02 0.  1.
    8880023    1    1    2    0    0  0.15573799078E+04 -0.53151395564E+03 -0.17946062967E+04  0.25223721432E+04  0.65864270000E+03 0.  0.
    8880022    1    1    2    0    0 -0.15573799078E+04  0.53151395564E+03  0.28080298528E+03  0.16763595175E+04  0.15294330000E+03 0.  0.
<mgrwt>
<rscale>  0 0.17417512E+04</rscale>
<asrwt>0</asrwt>
<pdfrwt beam="1">  1        2 0.20653295E+00 0.17724981E+04</pdfrwt>
<pdfrwt beam="2">  1       -2 0.43942577E+00 0.17724981E+04</pdfrwt>
<totfact> 0.58238089E-02</totfact>
</mgrwt>
</event>
<event>
 4    5  0.6615028E-008  0.7843282E+03  0.7818608E-02  0.9745766E-01
         -2   -1    0    0    0  501 -0.00000000000E+00  0.00000000000E+00  0.29338698818E+03  0.29338698819E+03  0.25500000000E-02 0.  1.
          2   -1    0    0  501    0  0.00000000000E+00 -0.00000000000E+00 -0.18937402870E+04  0.18937402870E+04  0.25500000000E-02 0. -1.
    8880023    1    1    2    0    0 -0.65259626665E+02  0.42083448458E+03 -0.15431438390E+04  0.17310296348E+04  0.65864270000E+03 0.  0.
    8880022    1    1    2    0    0  0.65259626665E+02 -0.42083448458E+03 -0.57209459779E+02  0.45609764041E+03  0.15294330000E+03 0.  0.
<mgrwt>
<rscale>  0 0.68356044E+03</rscale>
<asrwt>0</asrwt>
<pdfrwt beam="1">  1        2 0.29134465E+00 0.78432818E+03</pdfrwt>
<pdfrwt beam="2">  1       -2 0.45136461E-01 0.78432818E+03</pdfrwt>
<totfact> 0.36533495E+01</totfact>
</mgrwt>
</event>
<event>
 4    5  0.6615028E-008  0.9023936E+03  0.7818608E-02  0.9522200E-01
          2   -1    0    0  501    0  0.00000000000E+00  0.00000000000E+00  0.41203979550E+03  0.41203979550E+03  0.25500000000E-02 0. -1.
         -2   -1    0    0    0  501 -0.00000000000E+00 -0.00000000000E+00 -0.29989201014E+04  0.29989201014E+04  0.25500000000E-02 0.  1.
    8880023    1    1    2    0    0 -0.46937320884E+03 -0.40024083963E+03 -0.17816363663E+03  0.91981325635E+03  0.65864270000E+03 0. -1.
    8880022    1    1    2    0    0  0.46937320884E+03  0.40024083963E+03 -0.24087166693E+04  0.24911466406E+04  0.15294330000E+03 0.  0.
<mgrwt>
<rscale>  0 0.82666706E+03</rscale>
<asrwt>0</asrwt>
<pdfrwt beam="1">  1        2 0.63390740E-01 0.90239356E+03</pdfrwt>
<pdfrwt beam="2">  1       -2 0.46137231E+00 0.90239356E+03</pdfrwt>
<totfact> 0.23272955E-01</totfact>
</mgrwt>
</event>
<event>
 4    5  0.6615028E-008  0.1066240E+04  0.7818608E-02  0.9299609E-01
          2   -1    0    0  501    0  0.00000000000E+00  0.00000000000E+00  0.11005588750E+04  0.11005588750E+04  0.25500000000E-02 0. -1.
         -2   -1    0    0    0  501 -0.00000000000E+00 -0.00000000000E+00 -0.10531159132E+04  0.10531159132E+04  0.25500000000E-02 0.  1.
    8880023    1    1    2    0    0 -0.79284084852E+02  0.83472836882E+03  0.51219153657E+03  0.11828811404E+04  0.65864270000E+03 0.  0.
    8880022    1    1    2    0    0  0.79284084852E+02 -0.83472836882E+03 -0.46474857479E+03  0.97079364780E+03  0.15294330000E+03 0.  0.
<mgrwt>
<rscale>  0 0.10081888E+04</rscale>
<asrwt>0</asrwt>
<pdfrwt beam="1">  1        2 0.16931675E+00 0.10662399E+04</pdfrwt>
<pdfrwt beam="2">  1       -2 0.16201783E+00 0.10662399E+04</pdfrwt>
<totfact> 0.52173772E+00</totfact>
</mgrwt>
</event>
<event>
 4    5  0.6615028E-008  0.1190359E+04  0.7818608E-02  0.9166551E-01
         -2   -1    0    0    0  501 -0.00000000000E+00  0.00000000000E+00  0.10308045513E+04  0.10308045513E+04  0.25500000000E-02 0.  1.
          2   -1    0    0  501    0  0.00000000000E+00 -0.00000000000E+00 -0.16829202205E+04  0.16829202205E+04  0.25500000000E-02 0. -1.
    8880023    1    1    2    0    0  0.96760551720E+03 -0.21652721503E+03 -0.10946824548E+04  0.16171840819E+04  0.65864270000E+03 0. -1.
    8880022    1    1    2    0    0 -0.96760551720E+03  0.21652721503E+03  0.44256678564E+03  0.10965406899E+04  0.15294330000E+03 0.  0.
<mgrwt>
<rscale>  0 0.11405443E+04</rscale>
<asrwt>0</asrwt>
<pdfrwt beam="1">  1        2 0.25891080E+00 0.11903591E+04</pdfrwt>
<pdfrwt beam="2">  1       -2 0.15858531E+00 0.11903591E+04</pdfrwt>
<totfact> 0.25156183E+00</totfact>
</mgrwt>
</event>
<event>
 4    5  0.6615028E-008  0.7695211E+03  0.7818608E-02  0.9781054E-01
         -2   -1    0    0    0  501 -0.00000000000E+00  0.00000000000E+00  0.84403142837E+03  0.84403142837E+03  0.25500000000E-02 0.  1.
          2   -1    0    0  501    0  0.00000000000E+00 -0.00000000000E+00 -0.17844532905E+04  0.17844532905E+04  0.25500000000E-02 0. -1.
    8880023    1    1    2    0    0  0.39791250256E+03  0.42677844585E+01 -0.16386817809E+04  0.18103703375E+04  0.65864270000E+03 0. -1.
    8880022    1    1    2    0    0 -0.39791250256E+03 -0.42677844585E+01  0.69825991881E+03  0.81811438131E+03  0.15294330000E+03 0.  0.
<mgrwt>
<rscale>  0 0.66389285E+03</rscale>
<asrwt>0</asrwt>
<pdfrwt beam="1">  1        2 0.27453127E+00 0.76952114E+03</pdfrwt>
<pdfrwt beam="2">  1       -2 0.12985099E+00 0.76952114E+03</pdfrwt>
<totfact> 0.39423970E+00</totfact>
</mgrwt>
</event>
<event>
 4    5  0.6615028E-008  0.1206158E+04  0.7818608E-02  0.9151159E-01
         -2   -1    0    0    0  501 -0.00000000000E+00  0.00000000000E+00  0.17151938149E+04  0.17151938149E+04  0.25500000000E-02 0.  1.
          2   -1    0    0  501    0  0.00000000000E+00 -0.00000000000E+00 -0.96038348474E+03  0.96038348475E+03  0.25500000000E-02 0. -1.
    8880023    1    1    2    0    0  0.75515220507E+03  0.67138108196E+03 -0.26162894793E+03  0.12342071636E+04  0.65864270000E+03 0.  0.
    8880022    1    1    2    0    0 -0.75515220507E+03 -0.67138108196E+03  0.10164392781E+04  0.14413701361E+04  0.15294330000E+03 0.  0.
<mgrwt>
<rscale>  0 0.11572082E+04</rscale>
<asrwt>0</asrwt>
<pdfrwt beam="1">  1        2 0.14775131E+00 0.12061582E+04</pdfrwt>
<pdfrwt beam="2">  1       -2 0.26387597E+00 0.12061582E+04</pdfrwt>
<totfact> 0.13765236E+00</totfact>
</mgrwt>
</event>
<event>
 4    5  0.6615028E-008  0.1320373E+04  0.7818608E-02  0.9048163E-01
          2   -1    0    0  501    0  0.00000000000E+00  0.00000000000E+00  0.14637588744E+04  0.14637588744E+04  0.25500000000E-02 0. -1.
         -2   -1    0    0    0  501 -0.00000000000E+00 -0.00000000000E+00 -0.10545843950E+04  0.10545843950E+04  0.25500000000E-02 0.  1.
    8880023    1    1    2    0    0 -0.11065534035E+04 -0.29174517334E+03  0.33058765844E+03  0.13611297099E+04  0.65864270000E+03 0. -1.
    8880022    1    1    2    0    0  0.11065534035E+04  0.29174517334E+03  0.78586820916E+02  0.11572135595E+04  0.15294330000E+03 0.  1.
<mgrwt>
<rscale>  0 0.12768063E+04</rscale>
<asrwt>0</asrwt>
<pdfrwt beam="1">  1        2 0.22519367E+00 0.13203734E+04</pdfrwt>
<pdfrwt beam="2">  1       -2 0.16224375E+00 0.13203734E+04</pdfrwt>
<totfact> 0.30994447E+00</totfact>
</mgrwt>
</event>
<event>
 4    5  0.6615028E-008  0.8304516E+03  0.7818608E-02  0.9648454E-01
          2   -1    0    0  501    0  0.00000000000E+00  0.00000000000E+00  0.16378035953E+04  0.16378035953E+04  0.25500000000E-02 0. -1.
         -2   -1    0    0    0  501 -0.00000000000E+00 -0.00000000000E+00 -0.37330828168E+03  0.37330828169E+03  0.25500000000E-02 0.  1.
    8880023    1    1    2    0    0  0.37767722535E+03  0.33645132501E+03  0.25003496888E+03  0.86727577654E+03  0.65864270000E+03 0.  0.
    8880022    1    1    2    0    0 -0.37767722535E+03 -0.33645132501E+03  0.10144603448E+04  0.11438361005E+04  0.15294330000E+03 0.  0.
<mgrwt>
<rscale>  0 0.74170503E+03</rscale>
<asrwt>0</asrwt>
<pdfrwt beam="1">  1        2 0.25196979E+00 0.83045156E+03</pdfrwt>
<pdfrwt beam="2">  1       -2 0.57432042E-01 0.83045156E+03</pdfrwt>
<totfact> 0.30660283E+01</totfact>
</mgrwt>
</event>
<event>
 4    5  0.6615028E-008  0.7540033E+03  0.7818608E-02  0.9820887E-01
         -2   -1    0    0    0  501 -0.00000000000E+00  0.00000000000E+00  0.28047102489E+03  0.28047102490E+03  0.25500000000E-02 0.  1.
          2   -1    0    0  501    0  0.00000000000E+00 -0.00000000000E+00 -0.14264940550E+04  0.14264940550E+04  0.25500000000E-02 0. -1.
    8880023    1    1    2    0    0  0.12631280327E+03  0.34460963317E+03 -0.10588866692E+04  0.12999084230E+04  0.65864270000E+03 0. -1.
    8880022    1    1    2    0    0 -0.12631280327E+03 -0.34460963317E+03 -0.87136360853E+02  0.40705665692E+03  0.15294330000E+03 0.  0.
<mgrwt>
<rscale>  0 0.64253564E+03</rscale>
<asrwt>0</asrwt>
<pdfrwt beam="1">  1        2 0.21946062E+00 0.75400327E+03</pdfrwt>
<pdfrwt beam="2">  1       -2 0.43149389E-01 0.75400327E+03</pdfrwt>
<totfact> 0.72496258E+01</totfact>
</mgrwt>
</event>
<event>
 4    5  0.6615028E-008  0.1038697E+04  0.7818608E-02  0.9332594E-01
         -2   -1    0    0    0  501 -0.00000000000E+00  0.00000000000E+00  0.23007513037E+04  0.23007513037E+04  0.25500000000E-02 0.  1.
          2   -1    0    0  501    0  0.00000000000E+00 -0.00000000000E+00 -0.12627171376E+04  0.12627171376E+04  0.25500000000E-02 0. -1.
    8880023    1    1    2    0    0  0.46829889558E+03  0.65251582402E+03 -0.95390849115E+03  0.14102596824E+04  0.65864270000E+03 0.  0.
    8880022    1    1    2    0    0 -0.46829889558E+03 -0.65251582402E+03  0.19919426572E+04  0.21532087588E+04  0.15294330000E+03 0.  0.
<mgrwt>
<rscale>  0 0.97836750E+03</rscale>
<asrwt>0</asrwt>
<pdfrwt beam="1">  1        2 0.19426418E+00 0.10386968E+04</pdfrwt>
<pdfrwt beam="2">  1       -2 0.35396173E+00 0.10386968E+04</pdfrwt>
<totfact> 0.25674788E-01</totfact>
</mgrwt>
</event>
<event>
 4    5  0.6615028E-008  0.6747106E+03  0.7818608E-02  0.1012489E+00
         -2   -1    0    0    0  501 -0.00000000000E+00  0.00000000000E+00  0.67305136118E+03  0.67305136118E+03  0.25500000000E-02 0.  1.
          2   -1    0    0  501    0  0.00000000000E+00 -0.00000000000E+00 -0.89960049392E+03  0.89960049393E+03  0.25500000000E-02 0. -1.
    8880023    1    1    2    0    0  0.96188009343E+02  0.11032686008E+03 -0.74951216997E+03  0.10084655911E+04  0.65864270000E+03 0. -1.
    8880022    1    1    2    0    0 -0.96188009343E+02 -0.11032686008E+03  0.52296303723E+03  0.56418626403E+03  0.15294330000E+03 0.  0.
<mgrwt>
<rscale>  0 0.50497169E+03</rscale>
<asrwt>0</asrwt>
<pdfrwt beam="1">  1        2 0.13840008E+00 0.67471057E+03</pdfrwt>
<pdfrwt beam="2">  1       -2 0.10354636E+00 0.67471057E+03</pdfrwt>
<totfact> 0.22820749E+01</totfact>
</mgrwt>
</event>
<event>
 4    5  0.6615028E-008  0.1031270E+04  0.7818608E-02  0.9341744E-01
         -2   -1    0    0    0  501 -0.00000000000E+00  0.00000000000E+00  0.19524527890E+04  0.19524527890E+04  0.25500000000E-02 0.  1.
          2   -1    0    0  501    0  0.00000000000E+00 -0.00000000000E+00 -0.76992027577E+03  0.76992027577E+03  0.25500000000E-02 0. -1.
    8880023    1    1    2    0    0 -0.29255008123E+03 -0.73764612362E+03 -0.26478143110E+03  0.10647191020E+04  0.65864270000E+03 0.  0.
    8880022    1    1    2    0    0  0.29255008123E+03  0.73764612362E+03  0.14473139443E+04  0.16576539628E+04  0.15294330000E+03 0.  0.
<mgrwt>
<rscale>  0 0.97029016E+03</rscale>
<asrwt>0</asrwt>
<pdfrwt beam="1">  1        2 0.11844927E+00 0.10312699E+04</pdfrwt>
<pdfrwt beam="2">  1       -2 0.30037735E+00 0.10312699E+04</pdfrwt>
<totfact> 0.11464516E+00</totfact>
</mgrwt>
</event>
<event>
 4    5  0.6615028E-008  0.1418559E+04  0.7818608E-02  0.8969394E-01
          2   -1    0    0  501    0  0.00000000000E+00  0.00000000000E+00  0.15902282009E+04  0.15902282009E+04  0.25500000000E-02 0. -1.
         -2   -1    0    0    0  501 -0.00000000000E+00 -0.00000000000E+00 -0.24121850560E+04  0.24121850560E+04  0.25500000000E-02 0.  1.
    8880023    1    1    2    0    0 -0.10187413471E+04 -0.73530012073E+03  0.10344014690E+04  0.17556471186E+04  0.65864270000E+03 0.  0.
    8880022    1    1    2    0    0  0.10187413471E+04  0.73530012073E+03 -0.18563583241E+04  0.22467661383E+04  0.15294330000E+03 0.  0.
<mgrwt>
<rscale>  0 0.13786841E+04</rscale>
<asrwt>0</asrwt>
<pdfrwt beam="1">  1        2 0.24465049E+00 0.14185593E+04</pdfrwt>
<pdfrwt beam="2">  1       -2 0.37110539E+00 0.14185593E+04</pdfrwt>
<totfact> 0.12275965E-01</totfact>
</mgrwt>
</event>
<event>
 4    5  0.6615028E-008  0.8338110E+03  0.7818608E-02  0.9641962E-01
          2   -1    0    0  501    0  0.00000000000E+00  0.00000000000E+00  0.14355762108E+04  0.14355762108E+04  0.25500000000E-02 0. -1.
         -2   -1    0    0    0  501 -0.00000000000E+00 -0.00000000000E+00 -0.68121705064E+03  0.68121705064E+03  0.25500000000E-02 0.  1.
    8880023    1    1    2    0    0  0.12348875983E+03 -0.49616640518E+03  0.11725416234E+04  0.14387823464E+04  0.65864270000E+03 0. -1.
    8880022    1    1    2    0    0 -0.12348875983E+03  0.49616640518E+03 -0.41818246320E+03  0.67801091509E+03  0.15294330000E+03 0.  0.
<mgrwt>
<rscale>  0 0.74580012E+03</rscale>
<asrwt>0</asrwt>
<pdfrwt beam="1">  1        2 0.22085788E+00 0.83381100E+03</pdfrwt>
<pdfrwt beam="2">  1       -2 0.10480262E+00 0.83381100E+03</pdfrwt>
<totfact> 0.10326705E+01</totfact>
</mgrwt>
</event>
<event>
 4    5  0.6615028E-008  0.1170055E+04  0.7818608E-02  0.9186795E-01
          2   -1    0    0  501    0  0.00000000000E+00  0.00000000000E+00  0.16106813673E+04  0.16106813673E+04  0.25500000000E-02 0. -1.
         -2   -1    0    0    0  501 -0.00000000000E+00 -0.00000000000E+00 -0.21384832113E+04  0.21384832113E+04  0.25500000000E-02 0.  1.
    8880023    1    1    2    0    0 -0.65195652144E+03  0.71426305345E+03  0.12546143841E+04  0.17155426181E+04  0.65864270000E+03 0.  0.
    8880022    1    1    2    0    0  0.65195652144E+03 -0.71426305345E+03 -0.17824162281E+04  0.20336219606E+04  0.15294330000E+03 0.  0.
<mgrwt>
<rscale>  0 0.11190772E+04</rscale>
<asrwt>0</asrwt>
<pdfrwt beam="1">  1        2 0.24779714E+00 0.11700552E+04</pdfrwt>
<pdfrwt beam="2">  1       -2 0.32899742E+00 0.11700552E+04</pdfrwt>
<totfact> 0.22763220E-01</totfact>
</mgrwt>
</event>
<event>
 4    5  0.6615028E-008  0.6772018E+03  0.7818608E-02  0.1010953E+00
          2   -1    0    0  501    0  0.00000000000E+00  0.00000000000E+00  0.12374908935E+04  0.12374908935E+04  0.25500000000E-02 0. -1.
         -2   -1    0    0    0  501 -0.00000000000E+00 -0.00000000000E+00 -0.21156110451E+03  0.21156110453E+03  0.25500000000E-02 0.  1.
    8880023    1    1    2    0    0 -0.15739571697E+03 -0.43123494510E+01  0.10262437537E+04  0.12295440035E+04  0.65864270000E+03 0.  0.
    8880022    1    1    2    0    0  0.15739571697E+03  0.43123494510E+01 -0.31396478762E+00  0.21950799454E+03  0.15294330000E+03 0.  0.
<mgrwt>
<rscale>  0 0.51097662E+03</rscale>
<asrwt>0</asrwt>
<pdfrwt beam="1">  1        2 0.19038321E+00 0.67720175E+03</pdfrwt>
<pdfrwt beam="2">  1       -2 0.32547863E-01 0.67720175E+03</pdfrwt>
<totfact> 0.16117857E+02</totfact>
</mgrwt>
</event>
<event>
 4    5  0.6615028E-008  0.6601769E+03  0.7818608E-02  0.1023976E+00
          2   -1    0    0  501    0  0.00000000000E+00  0.00000000000E+00  0.14113018337E+04  0.14113018337E+04  0.25500000000E-02 0. -1.
         -2   -1    0    0    0  501 -0.00000000000E+00 -0.00000000000E+00 -0.13154157240E+03  0.13154157242E+03  0.25500000000E-02 0.  1.
    8880023    1    1    2    0    0  0.29906432486E+02  0.33598849946E+02  0.11874432535E+04  0.13586224509E+04  0.65864270000E+03 0. -1.
    8880022    1    1    2    0    0 -0.29906432486E+02 -0.33598849946E+02  0.92317007840E+02  0.18422095530E+03  0.15294330000E+03 0.  0.
<mgrwt>
<rscale>  0 0.46278720E+03</rscale>
<asrwt>0</asrwt>
<pdfrwt beam="1">  1        2 0.21712336E+00 0.66017686E+03</pdfrwt>
<pdfrwt beam="2">  1       -2 0.20237165E-01 0.66017686E+03</pdfrwt>
<totfact> 0.30338908E+02</totfact>
</mgrwt>
</event>
<event>
 4    5  0.6615028E-008  0.1230542E+04  0.7818608E-02  0.9127990E-01
          2   -1    0    0  501    0  0.00000000000E+00  0.00000000000E+00  0.11971986568E+04  0.11971986568E+04  0.25500000000E-02 0. -1.
         -2   -1    0    0    0  501 -0.00000000000E+00 -0.00000000000E+00 -0.16783084237E+04  0.16783084237E+04  0.25500000000E-02 0.  1.
    8880023    1    1    2    0    0 -0.10294713473E+04 -0.14357057071E+03  0.59910074678E+03  0.13686327757E+04  0.65864270000E+03 0. -1.
    8880022    1    1    2    0    0  0.10294713473E+04  0.14357057071E+03 -0.10802105137E+04  0.15068743048E+04  0.15294330000E+03 0.  0.
<mgrwt>
<rscale>  0 0.11828629E+04</rscale>
<asrwt>0</asrwt>
<pdfrwt beam="1">  1        2 0.18418441E+00 0.12305421E+04</pdfrwt>
<pdfrwt beam="2">  1       -2 0.25820129E+00 0.12305421E+04</pdfrwt>
<totfact> 0.10553134E+00</totfact>
</mgrwt>
</event>
<event>
 4    5  0.6615028E-008  0.1104829E+04  0.7818608E-02  0.9255699E-01
         -2   -1    0    0    0  501 -0.00000000000E+00  0.00000000000E+00  0.85228103761E+03  0.85228103762E+03  0.25500000000E-02 0.  1.
          2   -1    0    0  501    0  0.00000000000E+00 -0.00000000000E+00 -0.13900246349E+04  0.13900246349E+04  0.25500000000E-02 0. -1.
    8880023    1    1    2    0    0  0.71658525996E+03 -0.52282156754E+03 -0.72691215335E+03  0.13225159021E+04  0.65864270000E+03 0. -1.
    8880022    1    1    2    0    0 -0.71658525996E+03  0.52282156754E+03  0.18916855603E+03  0.91978977048E+03  0.15294330000E+03 0.  0.
<mgrwt>
<rscale>  0 0.10496566E+04</rscale>
<asrwt>0</asrwt>
<pdfrwt beam="1">  1        2 0.21384994E+00 0.11048290E+04</pdfrwt>
<pdfrwt beam="2">  1       -2 0.13112016E+00 0.11048290E+04</pdfrwt>
<totfact> 0.61212785E+00</totfact>
</mgrwt>
</event>
<event>
 4    5  0.6615028E-008  0.1160935E+04  0.7818608E-02  0.9196064E-01
          2   -1    0    0  501    0  0.00000000000E+00  0.00000000000E+00  0.24492551899E+04  0.24492551899E+04  0.25500000000E-02 0. -1.
         -2   -1    0    0    0  501 -0.00000000000E+00 -0.00000000000E+00 -0.57225713911E+03  0.57225713912E+03  0.25500000000E-02 0.  1.
    8880023    1    1    2    0    0 -0.47060565845E+03 -0.83216032598E+03  0.16660329178E+04  0.20306246289E+04  0.65864270000E+03 0. -1.
    8880022    1    1    2    0    0  0.47060565845E+03  0.83216032598E+03  0.21096513294E+03  0.99088770011E+03  0.15294330000E+03 0.  0.
<mgrwt>
<rscale>  0 0.11094145E+04</rscale>
<asrwt>0</asrwt>
<pdfrwt beam="1">  1        2 0.37680850E+00 0.11609353E+04</pdfrwt>
<pdfrwt beam="2">  1       -2 0.88039559E-01 0.11609353E+04</pdfrwt>
<totfact> 0.40947518E+00</totfact>
</mgrwt>
</event>
<event>
 4    5  0.6615028E-008  0.1224171E+04  0.7818608E-02  0.9133977E-01
         -2   -1    0    0    0  501 -0.00000000000E+00  0.00000000000E+00  0.13642324265E+04  0.13642324265E+04  0.25500000000E-02 0.  1.
          2   -1    0    0  501    0  0.00000000000E+00 -0.00000000000E+00 -0.13842341463E+04  0.13842341463E+04  0.25500000000E-02 0. -1.
    8880023    1    1    2    0    0  0.99394508125E+03  0.27723148396E+03 -0.78555311788E+03  0.14545404867E+04  0.65864270000E+03 0.  0.
    8880022    1    1    2    0    0 -0.99394508125E+03 -0.27723148396E+03  0.76555139808E+03  0.12939260861E+04  0.15294330000E+03 0.  0.
<mgrwt>
<rscale>  0 0.11761668E+04</rscale>
<asrwt>0</asrwt>
<pdfrwt beam="1">  1        2 0.21295910E+00 0.12241709E+04</pdfrwt>
<pdfrwt beam="2">  1       -2 0.20988191E+00 0.12241709E+04</pdfrwt>
<totfact> 0.16403620E+00</totfact>
</mgrwt>
</event>
<event>
 4    5  0.6615028E-008  0.9529039E+03  0.7818608E-02  0.9445948E-01
          2   -1    0    0  501    0  0.00000000000E+00  0.00000000000E+00  0.23930468577E+04  0.23930468577E+04  0.25500000000E-02 0. -1.
         -2   -1    0    0    0  501 -0.00000000000E+00 -0.00000000000E+00 -0.41539294257E+03  0.41539294258E+03  0.25500000000E-02 0.  1.
    8880023    1    1    2    0    0 -0.65793540189E+03 -0.20331405614E+03  0.18646593261E+04  0.20940344331E+04  0.65864270000E+03 0.  0.
    8880022    1    1    2    0    0  0.65793540189E+03  0.20331405614E+03  0.11299458908E+03  0.71440536719E+03  0.15294330000E+03 0.  0.
<mgrwt>
<rscale>  0 0.88388886E+03</rscale>
<asrwt>0</asrwt>
<pdfrwt beam="1">  1        2 0.36816105E+00 0.95290388E+03</pdfrwt>
<pdfrwt beam="2">  1       -2 0.63906607E-01 0.95290388E+03</pdfrwt>
<totfact> 0.92250426E+00</totfact>
</mgrwt>
</event>
<event>
 4    5  0.6615028E-008  0.9799030E+03  0.7818608E-02  0.9408336E-01
         -2   -1    0    0    0  501 -0.00000000000E+00  0.00000000000E+00  0.35614514182E+03  0.35614514183E+03  0.25500000000E-02 0.  1.
          2   -1    0    0  501    0  0.00000000000E+00 -0.00000000000E+00 -0.21986689979E+04  0.21986689979E+04  0.25500000000E-02 0. -1.
    8880023    1    1    2    0    0 -0.13838259783E+03  0.71221483405E+03 -0.74793946634E+03  0.12327300454E+04  0.65864270000E+03 0.  0.
    8880022    1    1    2    0    0  0.13838259783E+03 -0.71221483405E+03 -0.10945843897E+04  0.13220840943E+04  0.15294330000E+03 0.  0.
<mgrwt>
<rscale>  0 0.91392816E+03</rscale>
<asrwt>0</asrwt>
<pdfrwt beam="1">  1        2 0.33825676E+00 0.97990302E+03</pdfrwt>
<pdfrwt beam="2">  1       -2 0.54791562E-01 0.97990302E+03</pdfrwt>
<totfact> 0.16355456E+01</totfact>
</mgrwt>
</event>
<event>
 4    5  0.6615028E-008  0.8907673E+03  0.7818608E-02  0.9541019E-01
          2   -1    0    0  501    0  0.00000000000E+00  0.00000000000E+00  0.10918849006E+04  0.10918849006E+04  0.25500000000E-02 0. -1.
         -2   -1    0    0    0  501 -0.00000000000E+00 -0.00000000000E+00 -0.12131113211E+04  0.12131113211E+04  0.25500000000E-02 0.  1.
    8880023    1    1    2    0    0 -0.86767726593E+01 -0.59965057317E+03  0.79859737176E+03  0.11963377720E+04  0.65864270000E+03 0.  0.
    8880022    1    1    2    0    0  0.86767726593E+01  0.59965057317E+03 -0.91982379226E+03  0.11086584497E+04  0.15294330000E+03 0.  0.
<mgrwt>
<rscale>  0 0.81326072E+03</rscale>
<asrwt>0</asrwt>
<pdfrwt beam="1">  1        2 0.16798229E+00 0.89076725E+03</pdfrwt>
<pdfrwt beam="2">  1       -2 0.18663251E+00 0.89076725E+03</pdfrwt>
<totfact> 0.36147054E+00</totfact>
</mgrwt>
</event>
<event>
 4    5  0.6615028E-008  0.1258399E+04  0.7818608E-02  0.9102344E-01
         -2   -1    0    0    0  501 -0.00000000000E+00  0.00000000000E+00  0.11475754664E+04  0.11475754664E+04  0.25500000000E-02 0.  1.
          2   -1    0    0  501    0  0.00000000000E+00 -0.00000000000E+00 -0.20860285967E+04  0.20860285967E+04  0.25500000000E-02 0. -1.
    8880023    1    1    2    0    0  0.34011914573E+02  0.10717283331E+04 -0.15446670361E+04  0.19923766936E+04  0.65864270000E+03 0. -1.
    8880022    1    1    2    0    0 -0.34011914573E+02 -0.10717283331E+04  0.60621390578E+03  0.12412273696E+04  0.15294330000E+03 0.  0.
<mgrwt>
<rscale>  0 0.12120849E+04</rscale>
<asrwt>0</asrwt>
<pdfrwt beam="1">  1        2 0.32092748E+00 0.12583992E+04</pdfrwt>
<pdfrwt beam="2">  1       -2 0.17655007E+00 0.12583992E+04</pdfrwt>
<totfact> 0.11069255E+00</totfact>
</mgrwt>
</event>
<event>
 4    5  0.6615028E-008  0.1144951E+04  0.7818608E-02  0.9212585E-01
         -2   -1    0    0    0  501 -0.00000000000E+00  0.00000000000E+00  0.10708506388E+04  0.10708506388E+04  0.25500000000E-02 0.  1.
          2   -1    0    0  501    0  0.00000000000E+00 -0.00000000000E+00 -0.14014497221E+04  0.14014497221E+04  0.25500000000E-02 0. -1.
    8880023    1    1    2    0    0 -0.83904278378E+03  0.41606482091E+03 -0.81642502179E+03  0.14062228666E+04  0.65864270000E+03 0.  0.
    8880022    1    1    2    0    0  0.83904278378E+03 -0.41606482091E+03  0.48582593848E+03  0.10660774942E+04  0.15294330000E+03 0.  0.
<mgrwt>
<rscale>  0 0.10924469E+04</rscale>
<asrwt>0</asrwt>
<pdfrwt beam="1">  1        2 0.21560765E+00 0.11449511E+04</pdfrwt>
<pdfrwt beam="2">  1       -2 0.16474625E+00 0.11449511E+04</pdfrwt>
<totfact> 0.32792066E+00</totfact>
</mgrwt>
</event>
<event>
 4    5  0.6615028E-008  0.1207190E+04  0.7818608E-02  0.9150165E-01
         -2   -1    0    0    0  501 -0.00000000000E+00  0.00000000000E+00  0.21055864411E+04  0.21055864411E+04  0.25500000000E-02 0.  1.
          2   -1    0    0  501    0  0.00000000000E+00 -0.00000000000E+00 -0.19392239201E+04  0.19392239201E+04  0.25500000000E-02 0. -1.
    8880023    1    1    2    0    0  0.79467640768E+03 -0.62608808121E+03 -0.15995091760E+04  0.20039303104E+04  0.65864270000E+03 0. -1.
    8880022    1    1    2    0    0 -0.79467640768E+03  0.62608808121E+03  0.17658716970E+04  0.20408800508E+04  0.15294330000E+03 0.  0.
<mgrwt>
<rscale>  0 0.11582951E+04</rscale>
<asrwt>0</asrwt>
<pdfrwt beam="1">  1        2 0.29834214E+00 0.12071897E+04</pdfrwt>
<pdfrwt beam="2">  1       -2 0.32393638E+00 0.12071897E+04</pdfrwt>
<totfact> 0.15984752E-01</totfact>
</mgrwt>
</event>
<event>
 4    5  0.6615028E-008  0.8413099E+03  0.7818608E-02  0.9627715E-01
          2   -1    0    0  501    0  0.00000000000E+00  0.00000000000E+00  0.27678129526E+04  0.27678129526E+04  0.25500000000E-02 0. -1.
         -2   -1    0    0    0  501 -0.00000000000E+00 -0.00000000000E+00 -0.31162734490E+03  0.31162734491E+03  0.25500000000E-02 0.  1.
    8880023    1    1    2    0    0 -0.52244439662E+03 -0.32310788829E+02  0.23855500989E+04  0.25295556162E+04  0.65864270000E+03 0. -1.
    8880022    1    1    2    0    0  0.52244439662E+03  0.32310788829E+02  0.70635508773E+02  0.54988468132E+03  0.15294330000E+03 0.  0.
<mgrwt>
<rscale>  0 0.75488650E+03</rscale>
<asrwt>0</asrwt>
<pdfrwt beam="1">  1        2 0.42581738E+00 0.84130990E+03</pdfrwt>
<pdfrwt beam="2">  1       -2 0.47942668E-01 0.84130990E+03</pdfrwt>
<totfact> 0.10371761E+01</totfact>
</mgrwt>
</event>
<event>
 4    5  0.6615028E-008  0.1172470E+04  0.7818608E-02  0.9184359E-01
          2   -1    0    0  501    0  0.00000000000E+00  0.00000000000E+00  0.31617062215E+04  0.31617062215E+04  0.25500000000E-02 0. -1.
         -2   -1    0    0    0  501 -0.00000000000E+00 -0.00000000000E+00 -0.93882433158E+03  0.93882433158E+03  0.25500000000E-02 0.  1.
    8880023    1    1    2    0    0 -0.54256081080E+01 -0.96997207996E+03  0.27474950936E+04  0.29872085244E+04  0.65864270000E+03 0.  0.
    8880022    1    1    2    0    0  0.54256081080E+01  0.96997207996E+03 -0.52461320360E+03  0.11133220287E+04  0.15294330000E+03 0.  0.
<mgrwt>
<rscale>  0 0.11216333E+04</rscale>
<asrwt>0</asrwt>
<pdfrwt beam="1">  1        2 0.48641635E+00 0.11724698E+04</pdfrwt>
<pdfrwt beam="2">  1       -2 0.14443451E+00 0.11724698E+04</pdfrwt>
<totfact> 0.45117552E-01</totfact>
</mgrwt>
</event>
<event>
 4    5  0.6615028E-008  0.7676381E+03  0.7818608E-02  0.9785720E-01
         -2   -1    0    0    0  501 -0.00000000000E+00  0.00000000000E+00  0.14173196063E+04  0.14173196063E+04  0.25500000000E-02 0.  1.
          2   -1    0    0  501    0  0.00000000000E+00 -0.00000000000E+00 -0.11544478149E+04  0.11544478149E+04  0.25500000000E-02 0. -1.
    8880023    1    1    2    0    0 -0.28409002324E+03  0.27340617629E+03 -0.98810080558E+03  0.12512439757E+04  0.65864270000E+03 0.  0.
    8880022    1    1    2    0    0  0.28409002324E+03 -0.27340617629E+03  0.12509725970E+04  0.13205234455E+04  0.15294330000E+03 0.  0.
<mgrwt>
<rscale>  0 0.66134555E+03</rscale>
<asrwt>0</asrwt>
<pdfrwt beam="1">  1        2 0.17760736E+00 0.76763812E+03</pdfrwt>
<pdfrwt beam="2">  1       -2 0.21804917E+00 0.76763812E+03</pdfrwt>
<totfact> 0.21062921E+00</totfact>
</mgrwt>
</event>
<event>
 4    5  0.6615028E-008  0.7902550E+03  0.7818608E-02  0.9732277E-01
          2   -1    0    0  501    0  0.00000000000E+00  0.00000000000E+00  0.24049707929E+04  0.24049707929E+04  0.25500000000E-02 0. -1.
         -2   -1    0    0    0  501 -0.00000000000E+00 -0.00000000000E+00 -0.37214106655E+03  0.37214106656E+03  0.25500000000E-02 0.  1.
    8880023    1    1    2    0    0 -0.27997362930E+03  0.33512321446E+03  0.21577024879E+04  0.22978648860E+04  0.65864270000E+03 0. -1.
    8880022    1    1    2    0    0  0.27997362930E+03 -0.33512321446E+03 -0.12487276152E+03  0.47924697344E+03  0.15294330000E+03 0.  0.
<mgrwt>
<rscale>  0 0.69127140E+03</rscale>
<asrwt>0</asrwt>
<pdfrwt beam="1">  1        2 0.36999549E+00 0.79025503E+03</pdfrwt>
<pdfrwt beam="2">  1       -2 0.57252474E-01 0.79025503E+03</pdfrwt>
<totfact> 0.11730384E+01</totfact>
</mgrwt>
</event>
<event>
 4    5  0.6615028E-008  0.8363104E+03  0.7818608E-02  0.9637177E-01
          2   -1    0    0  501    0  0.00000000000E+00  0.00000000000E+00  0.17765688302E+04  0.17765688302E+04  0.25500000000E-02 0. -1.
         -2   -1    0    0    0  501 -0.00000000000E+00 -0.00000000000E+00 -0.10328259821E+04  0.10328259821E+04  0.25500000000E-02 0.  1.
    8880023    1    1    2    0    0 -0.16809705914E+03 -0.48718393319E+03  0.15959501232E+04  0.18017968277E+04  0.65864270000E+03 0. -1.
    8880022    1    1    2    0    0  0.16809705914E+03  0.48718393319E+03 -0.85220727513E+03  0.10075979847E+04  0.15294330000E+03 0.  0.
<mgrwt>
<rscale>  0 0.74883679E+03</rscale>
<asrwt>0</asrwt>
<pdfrwt beam="1">  1        2 0.27331828E+00 0.83631036E+03</pdfrwt>
<pdfrwt beam="2">  1       -2 0.15889631E+00 0.83631036E+03</pdfrwt>
<totfact> 0.23244415E+00</totfact>
</mgrwt>
</event>
<event>
 4    5  0.6615028E-008  0.6718099E+03  0.7818608E-02  0.1014397E+00
         -2   -1    0    0    0  501 -0.00000000000E+00  0.00000000000E+00  0.35668324932E+03  0.35668324933E+03  0.25500000000E-02 0.  1.
          2   -1    0    0  501    0  0.00000000000E+00 -0.00000000000E+00 -0.88654723000E+03  0.88654723000E+03  0.25500000000E-02 0. -1.
    8880023    1    1    2    0    0  0.88416530569E+02  0.98493099794E+02 -0.70633788318E+03  0.97480345971E+03  0.65864270000E+03 0. -1.
    8880022    1    1    2    0    0 -0.88416530569E+02 -0.98493099794E+02  0.17647390249E+03  0.26842701962E+03  0.15294330000E+03 0.  0.
<mgrwt>
<rscale>  0 0.49763800E+03</rscale>
<asrwt>0</asrwt>
<pdfrwt beam="1">  1        2 0.13639188E+00 0.67180993E+03</pdfrwt>
<pdfrwt beam="2">  1       -2 0.54874346E-01 0.67180993E+03</pdfrwt>
<totfact> 0.95309941E+01</totfact>
</mgrwt>
</event>
<event>
 4    5  0.6615028E-008  0.8180120E+03  0.7818608E-02  0.9673124E-01
         -2   -1    0    0    0  501 -0.00000000000E+00  0.00000000000E+00  0.25474433952E+03  0.25474433953E+03  0.25500000000E-02 0.  1.
          2   -1    0    0  501    0  0.00000000000E+00 -0.00000000000E+00 -0.26614335228E+04  0.26614335228E+04  0.25500000000E-02 0. -1.
    8880023    1    1    2    0    0  0.43009686450E+03 -0.22438815112E+03 -0.22339323355E+04  0.23789908030E+04  0.65864270000E+03 0. -1.
    8880022    1    1    2    0    0 -0.43009686450E+03  0.22438815112E+03 -0.17275684784E+03  0.53718705932E+03  0.15294330000E+03 0.  0.
<mgrwt>
<rscale>  0 0.72639783E+03</rscale>
<asrwt>0</asrwt>
<pdfrwt beam="1">  1        2 0.40945129E+00 0.81801196E+03</pdfrwt>
<pdfrwt beam="2">  1       -2 0.39191439E-01 0.81801196E+03</pdfrwt>
<totfact> 0.17914766E+01</totfact>
</mgrwt>
</event>
<event>
 4    5  0.6615028E-008  0.1510386E+04  0.7818608E-02  0.8902337E-01
         -2   -1    0    0    0  501 -0.00000000000E+00  0.00000000000E+00  0.12832056705E+04  0.12832056705E+04  0.25500000000E-02 0.  1.
          2   -1    0    0  501    0  0.00000000000E+00 -0.00000000000E+00 -0.23110084459E+04  0.23110084459E+04  0.25500000000E-02 0. -1.
    8880023    1    1    2    0    0  0.46657490617E+03  0.12766221110E+04 -0.15178454507E+04  0.21412896057E+04  0.65864270000E+03 0.  0.
    8880022    1    1    2    0    0 -0.46657490617E+03 -0.12766221110E+04  0.49004267528E+03  0.14529245107E+04  0.15294330000E+03 0.  0.
<mgrwt>
<rscale>  0 0.14734005E+04</rscale>
<asrwt>0</asrwt>
<pdfrwt beam="1">  1        2 0.35553976E+00 0.15103862E+04</pdfrwt>
<pdfrwt beam="2">  1       -2 0.19741626E+00 0.15103862E+04</pdfrwt>
<totfact> 0.58002184E-01</totfact>
</mgrwt>
</event>
<event>
 4    5  0.6615028E-008  0.6848585E+03  0.7818608E-02  0.1006699E+00
          2   -1    0    0  501    0  0.00000000000E+00  0.00000000000E+00  0.22189605496E+04  0.22189605496E+04  0.25500000000E-02 0. -1.
         -2   -1    0    0    0  501 -0.00000000000E+00 -0.00000000000E+00 -0.13796589134E+03  0.13796589137E+03  0.25500000000E-02 0.  1.
    8880023    1    1    2    0    0  0.12983790232E+03 -0.13551062603E+03  0.19791191791E+04  0.20942645348E+04  0.65864270000E+03 0. -1.
    8880022    1    1    2    0    0 -0.12983790232E+03  0.13551062603E+03  0.10187547913E+03  0.26266190608E+03  0.15294330000E+03 0.  0.
<mgrwt>
<rscale>  0 0.52807984E+03</rscale>
<asrwt>0</asrwt>
<pdfrwt beam="1">  1        2 0.34137856E+00 0.68485854E+03</pdfrwt>
<pdfrwt beam="2">  1       -2 0.21225521E-01 0.68485854E+03</pdfrwt>
<totfact> 0.10057483E+02</totfact>
</mgrwt>
</event>
<event>
 4    5  0.6615028E-008  0.1002541E+04  0.7818608E-02  0.9378241E-01
          2   -1    0    0  501    0  0.00000000000E+00  0.00000000000E+00  0.29309597834E+04  0.29309597834E+04  0.25500000000E-02 0. -1.
         -2   -1    0    0    0  501 -0.00000000000E+00 -0.00000000000E+00 -0.40583513883E+03  0.40583513883E+03  0.25500000000E-02 0.  1.
    8880023    1    1    2    0    0 -0.66389298752E+03  0.36128187361E+03  0.23371007247E+04  0.25430549531E+04  0.65864270000E+03 0.  0.
    8880022    1    1    2    0    0  0.66389298752E+03 -0.36128187361E+03  0.18802391988E+03  0.79373996909E+03  0.15294330000E+03 0.  0.
<mgrwt>
<rscale>  0 0.93888232E+03</rscale>
<asrwt>0</asrwt>
<pdfrwt beam="1">  1        2 0.45091689E+00 0.10025411E+04</pdfrwt>
<pdfrwt beam="2">  1       -2 0.62436175E-01 0.10025411E+04</pdfrwt>
<totfact> 0.46692229E+00</totfact>
</mgrwt>
</event>
<event>
 4    5  0.6615028E-008  0.8458422E+03  0.7818608E-02  0.9619261E-01
          2   -1    0    0  501    0  0.00000000000E+00  0.00000000000E+00  0.14482994461E+04  0.14482994461E+04  0.25500000000E-02 0. -1.
         -2   -1    0    0    0  501 -0.00000000000E+00 -0.00000000000E+00 -0.14709116375E+04  0.14709116375E+04  0.25500000000E-02 0.  1.
    8880023    1    1    2    0    0 -0.51906129137E+03 -0.11051777586E+03  0.12629513542E+04  0.15200312932E+04  0.65864270000E+03 0. -1.
    8880022    1    1    2    0    0  0.51906129137E+03  0.11051777586E+03 -0.12855635456E+04  0.13991797904E+04  0.15294330000E+03 0.  0.
<mgrwt>
<rscale>  0 0.76034362E+03</rscale>
<asrwt>0</asrwt>
<pdfrwt beam="1">  1        2 0.22281530E+00 0.84584219E+03</pdfrwt>
<pdfrwt beam="2">  1       -2 0.22629410E+00 0.84584219E+03</pdfrwt>
<totfact> 0.12479306E+00</totfact>
</mgrwt>
</event>
<event>
 4    5  0.6615028E-008  0.1294381E+04  0.7818608E-02  0.9070428E-01
         -2   -1    0    0    0  501 -0.00000000000E+00  0.00000000000E+00  0.21204765767E+04  0.21204765767E+04  0.25500000000E-02 0.  1.
          2   -1    0    0  501    0  0.00000000000E+00 -0.00000000000E+00 -0.81256910371E+03  0.81256910371E+03  0.25500000000E-02 0. -1.
    8880023    1    1    2    0    0  0.65833319823E+03  0.89900393667E+03  0.12439010029E+03  0.13003437166E+04  0.65864270000E+03 0. -1.
    8880022    1    1    2    0    0 -0.65833319823E+03 -0.89900393667E+03  0.11835173727E+04  0.16327019638E+04  0.15294330000E+03 0.  0.
<mgrwt>
<rscale>  0 0.12497061E+04</rscale>
<asrwt>0</asrwt>
<pdfrwt beam="1">  1        2 0.12501063E+00 0.12943805E+04</pdfrwt>
<pdfrwt beam="2">  1       -2 0.32622716E+00 0.12943805E+04</pdfrwt>
<totfact> 0.71878445E-01</totfact>
</mgrwt>
</event>
<event>
 4    5  0.6615028E-008  0.2433218E+04  0.7818608E-02  0.8435223E-01
         -2   -1    0    0    0  501 -0.00000000000E+00  0.00000000000E+00  0.33137280220E+04  0.33137280220E+04  0.25500000000E-02 0.  1.
          2   -1    0    0  501    0  0.00000000000E+00 -0.00000000000E+00 -0.25638669426E+04  0.25638669426E+04  0.25500000000E-02 0. -1.
    8880023    1    1    2    0    0  0.39164382835E+03 -0.23094060675E+04 -0.13021724779E+04  0.27597472060E+04  0.65864270000E+03 0.  0.
    8880022    1    1    2    0    0 -0.39164382835E+03  0.23094060675E+04  0.20520335573E+04  0.31178477586E+04  0.15294330000E+03 0.  0.
<mgrwt>
<rscale>  0 0.24114656E+04</rscale>
<asrwt>0</asrwt>
<pdfrwt beam="1">  1        2 0.39444107E+00 0.24332183E+04</pdfrwt>
<pdfrwt beam="2">  1       -2 0.50980431E+00 0.24332183E+04</pdfrwt>
<totfact> 0.38210751E-03</totfact>
</mgrwt>
</event>
<event>
 4    5  0.6615028E-008  0.1339377E+04  0.7818608E-02  0.9032280E-01
          2   -1    0    0  501    0  0.00000000000E+00  0.00000000000E+00  0.30895360199E+04  0.30895360199E+04  0.25500000000E-02 0. -1.
         -2   -1    0    0    0  501 -0.00000000000E+00 -0.00000000000E+00 -0.96842733961E+03  0.96842733962E+03  0.25500000000E-02 0.  1.
    8880023    1    1    2    0    0  0.10347157175E+04 -0.53803620189E+03  0.24881974846E+04  0.28257842273E+04  0.65864270000E+03 0. -1.
    8880022    1    1    2    0    0 -0.10347157175E+04  0.53803620189E+03 -0.36708880433E+03  0.12321791322E+04  0.15294330000E+03 0.  0.
<mgrwt>
<rscale>  0 0.12965817E+04</rscale>
<asrwt>0</asrwt>
<pdfrwt beam="1">  1        2 0.47531323E+00 0.13393766E+04</pdfrwt>
<pdfrwt beam="2">  1       -2 0.14898882E+00 0.13393766E+04</pdfrwt>
<totfact> 0.45109615E-01</totfact>
</mgrwt>
</event>
<event>
 4    5  0.6615028E-008  0.1549791E+04  0.7818608E-02  0.8875254E-01
          2   -1    0    0  501    0  0.00000000000E+00  0.00000000000E+00  0.29941031201E+04  0.29941031202E+04  0.25500000000E-02 0. -1.
         -2   -1    0    0    0  501 -0.00000000000E+00 -0.00000000000E+00 -0.15127177706E+04  0.15127177706E+04  0.25500000000E-02 0.  1.
    8880023    1    1    2    0    0 -0.73219346993E+02 -0.14009570305E+04  0.23754162408E+04  0.28362747041E+04  0.65864270000E+03 0.  0.
    8880022    1    1    2    0    0  0.73219346993E+02  0.14009570305E+04 -0.89403089126E+03  0.16705461866E+04  0.15294330000E+03 0.  0.
<mgrwt>
<rscale>  0 0.15139117E+04</rscale>
<asrwt>0</asrwt>
<pdfrwt beam="1">  1        2 0.46063124E+00 0.15497909E+04</pdfrwt>
<pdfrwt beam="2">  1       -2 0.23272581E+00 0.15497909E+04</pdfrwt>
<totfact> 0.13496815E-01</totfact>
</mgrwt>
</event>
<event>
 4    5  0.6615028E-008  0.9240314E+03  0.7818608E-02  0.9488505E-01
         -2   -1    0    0    0  501 -0.00000000000E+00  0.00000000000E+00  0.10113401865E+04  0.10113401865E+04  0.25500000000E-02 0.  1.
          2   -1    0    0  501    0  0.00000000000E+00 -0.00000000000E+00 -0.65772975887E+03  0.65772975888E+03  0.25500000000E-02 0. -1.
    8880023    1    1    2    0    0 -0.60460810596E+03  0.23339438515E+03  0.19923688422E+02  0.92424621202E+03  0.65864270000E+03 0.  0.
    8880022    1    1    2    0    0  0.60460810596E+03 -0.23339438515E+03  0.33368673917E+03  0.74482373332E+03  0.15294330000E+03 0.  0.
<mgrwt>
<rscale>  0 0.85136625E+03</rscale>
<asrwt>0</asrwt>
<pdfrwt beam="1">  1        2 0.10118919E+00 0.92403144E+03</pdfrwt>
<pdfrwt beam="2">  1       -2 0.15559080E+00 0.92403144E+03</pdfrwt>
<totfact> 0.12026806E+01</totfact>
</mgrwt>
</event>
<event>
 4    5  0.6615028E-008  0.6735579E+03  0.7818608E-02  0.1013231E+00
         -2   -1    0    0    0  501 -0.00000000000E+00  0.00000000000E+00  0.11838618347E+04  0.11838618347E+04  0.25500000000E-02 0.  1.
          2   -1    0    0  501    0  0.00000000000E+00 -0.00000000000E+00 -0.70832364347E+03  0.70832364347E+03  0.25500000000E-02 0. -1.
    8880023    1    1    2    0    0 -0.30113237562E+02  0.13770722856E+03 -0.53517891794E+03  0.86028877032E+03  0.65864270000E+03 0.  0.
    8880022    1    1    2    0    0  0.30113237562E+02 -0.13770722856E+03  0.10107171092E+04  0.10318967078E+04  0.15294330000E+03 0.  1.
<mgrwt>
<rscale>  0 0.50210462E+03</rscale>
<asrwt>0</asrwt>
<pdfrwt beam="1">  1        2 0.10897287E+00 0.67355794E+03</pdfrwt>
<pdfrwt beam="2">  1       -2 0.18213259E+00 0.67355794E+03</pdfrwt>
<totfact> 0.72760245E+00</totfact>
</mgrwt>
</event>
<event>
 4    5  0.6615028E-008  0.6644548E+03  0.7818608E-02  0.1019995E+00
          2   -1    0    0  501    0  0.00000000000E+00  0.00000000000E+00  0.14785837969E+04  0.14785837969E+04  0.25500000000E-02 0. -1.
         -2   -1    0    0    0  501 -0.00000000000E+00 -0.00000000000E+00 -0.41797578757E+03  0.41797578758E+03  0.25500000000E-02 0.  1.
    8880023    1    1    2    0    0  0.63508521431E+02  0.60469884596E+02  0.13800605196E+04  0.15316876911E+04  0.65864270000E+03 0.  0.
    8880022    1    1    2    0    0 -0.63508521431E+02 -0.60469884596E+02 -0.31945251024E+03  0.36487189334E+03  0.15294330000E+03 0.  1.
<mgrwt>
<rscale>  0 0.47688315E+03</rscale>
<asrwt>0</asrwt>
<pdfrwt beam="1">  1        2 0.22747443E+00 0.66445477E+03</pdfrwt>
<pdfrwt beam="2">  1       -2 0.64303968E-01 0.66445477E+03</pdfrwt>
<totfact> 0.30143765E+01</totfact>
</mgrwt>
</event>
<event>
 4    5  0.6615028E-008  0.1932652E+04  0.7818608E-02  0.8652503E-01
         -2   -1    0    0    0  501 -0.00000000000E+00  0.00000000000E+00  0.20816473059E+04  0.20816473059E+04  0.25500000000E-02 0.  1.
          2   -1    0    0  501    0  0.00000000000E+00 -0.00000000000E+00 -0.27926867027E+04  0.27926867027E+04  0.25500000000E-02 0. -1.
    8880023    1    1    2    0    0 -0.11222756942E+04  0.14289258126E+04 -0.18898498693E+04  0.27030860967E+04  0.65864270000E+03 0.  0.
    8880022    1    1    2    0    0  0.11222756942E+04 -0.14289258126E+04  0.11788104725E+04  0.21712479118E+04  0.15294330000E+03 0.  0.
<mgrwt>
<rscale>  0 0.19047352E+04</rscale>
<asrwt>0</asrwt>
<pdfrwt beam="1">  1        2 0.42964411E+00 0.19326515E+04</pdfrwt>
<pdfrwt beam="2">  1       -2 0.32025343E+00 0.19326515E+04</pdfrwt>
<totfact> 0.49633634E-02</totfact>
</mgrwt>
</event>
<event>
 4    5  0.6615028E-008  0.7203638E+03  0.7818608E-02  0.9921357E-01
          2   -1    0    0  501    0  0.00000000000E+00  0.00000000000E+00  0.22695965085E+04  0.22695965085E+04  0.25500000000E-02 0. -1.
         -2   -1    0    0    0  501 -0.00000000000E+00 -0.00000000000E+00 -0.42133377402E+03  0.42133377403E+03  0.25500000000E-02 0.  1.
    8880023    1    1    2    0    0  0.73383588135E+02 -0.28236249049E+03  0.21355971600E+04  0.22538187955E+04  0.65864270000E+03 0. -1.
    8880022    1    1    2    0    0 -0.73383588135E+02  0.28236249049E+03 -0.28733442546E+03  0.43711148706E+03  0.15294330000E+03 0.  0.
<mgrwt>
<rscale>  0 0.59237306E+03</rscale>
<asrwt>0</asrwt>
<pdfrwt beam="1">  1        2 0.34916870E+00 0.72036375E+03</pdfrwt>
<pdfrwt beam="2">  1       -2 0.64820580E-01 0.72036375E+03</pdfrwt>
<totfact> 0.10847075E+01</totfact>
</mgrwt>
</event>
<event>
 4    5  0.6615028E-008  0.1034268E+04  0.7818608E-02  0.9338036E-01
          2   -1    0    0  501    0  0.00000000000E+00  0.00000000000E+00  0.76188516636E+03  0.76188516636E+03  0.25500000000E-02 0. -1.
         -2   -1    0    0    0  501 -0.00000000000E+00 -0.00000000000E+00 -0.13532996675E+04  0.13532996675E+04  0.25500000000E-02 0.  1.
    8880023    1    1    2    0    0  0.60935429263E+03 -0.51438150818E+03  0.11276878398E+03  0.10403979983E+04  0.65864270000E+03 0. -1.
    8880022    1    1    2    0    0 -0.60935429263E+03  0.51438150818E+03 -0.70418328517E+03  0.10747868356E+04  0.15294330000E+03 0.  0.
<mgrwt>
<rscale>  0 0.97355330E+03</rscale>
<asrwt>0</asrwt>
<pdfrwt beam="1">  1        2 0.11721310E+00 0.10342684E+04</pdfrwt>
<pdfrwt beam="2">  1       -2 0.20819995E+00 0.10342684E+04</pdfrwt>
<totfact> 0.42787098E+00</totfact>
</mgrwt>
</event>
<event>
 4    5  0.6615028E-008  0.7917052E+03  0.7818608E-02  0.9729027E-01
         -2   -1    0    0    0  501 -0.00000000000E+00  0.00000000000E+00  0.90001530339E+03  0.90001530340E+03  0.25500000000E-02 0.  1.
          2   -1    0    0  501    0  0.00000000000E+00 -0.00000000000E+00 -0.29220379912E+04  0.29220379912E+04  0.25500000000E-02 0. -1.
    8880023    1    1    2    0    0 -0.30929430559E+03  0.31196776207E+03 -0.28032072727E+04  0.29128625220E+04  0.65864270000E+03 0. -1.
    8880022    1    1    2    0    0  0.30929430559E+03 -0.31196776207E+03  0.78118458497E+03  0.90919077253E+03  0.15294330000E+03 0.  0.
<mgrwt>
<rscale>  0 0.69314544E+03</rscale>
<asrwt>0</asrwt>
<pdfrwt beam="1">  1        2 0.44954430E+00 0.79170516E+03</pdfrwt>
<pdfrwt beam="2">  1       -2 0.13846389E+00 0.79170516E+03</pdfrwt>
<totfact> 0.76020733E-01</totfact>
</mgrwt>
</event>
<event>
 4    5  0.6615028E-008  0.1505115E+04  0.7818608E-02  0.8906033E-01
          2   -1    0    0  501    0  0.00000000000E+00  0.00000000000E+00  0.17702190221E+04  0.17702190221E+04  0.25500000000E-02 0. -1.
         -2   -1    0    0    0  501 -0.00000000000E+00 -0.00000000000E+00 -0.20001295763E+04  0.20001295763E+04  0.25500000000E-02 0.  1.
    8880023    1    1    2    0    0  0.10738749547E+04  0.82362158225E+03 -0.13385392643E+04  0.20142138659E+04  0.65864270000E+03 0.  0.
    8880022    1    1    2    0    0 -0.10738749547E+04 -0.82362158225E+03  0.11086287100E+04  0.17561347326E+04  0.15294330000E+03 0.  0.
<mgrwt>
<rscale>  0 0.14679753E+04</rscale>
<asrwt>0</asrwt>
<pdfrwt beam="1">  1        2 0.27234139E+00 0.15051147E+04</pdfrwt>
<pdfrwt beam="2">  1       -2 0.30771224E+00 0.15051147E+04</pdfrwt>
<totfact> 0.23978664E-01</totfact>
</mgrwt>
</event>
<event>
 4    5  0.6615028E-008  0.1500232E+04  0.7818608E-02  0.8909472E-01
         -2   -1    0    0    0  501 -0.00000000000E+00  0.00000000000E+00  0.33506946517E+04  0.33506946517E+04  0.25500000000E-02 0.  1.
          2   -1    0    0  501    0  0.00000000000E+00 -0.00000000000E+00 -0.66898667685E+03  0.66898667685E+03  0.25500000000E-02 0. -1.
    8880023    1    1    2    0    0  0.10359096271E+04 -0.86242566998E+03  0.20037419900E+04  0.25031338280E+04  0.65864270000E+03 0.  0.
    8880022    1    1    2    0    0 -0.10359096271E+04  0.86242566998E+03  0.67796598476E+03  0.15165475005E+04  0.15294330000E+03 0.  0.
<mgrwt>
<rscale>  0 0.14629495E+04</rscale>
<asrwt>0</asrwt>
<pdfrwt beam="1">  1        2 0.10292103E+00 0.15002323E+04</pdfrwt>
<pdfrwt beam="2">  1       -2 0.51549148E+00 0.15002323E+04</pdfrwt>
<totfact> 0.54434741E-02</totfact>
</mgrwt>
</event>
<event>
 4    5  0.6615028E-008  0.6805907E+03  0.7818608E-02  0.1008991E+00
         -2   -1    0    0    0  501 -0.00000000000E+00  0.00000000000E+00  0.58344460478E+03  0.58344460478E+03  0.25500000000E-02 0.  1.
          2   -1    0    0  501    0  0.00000000000E+00 -0.00000000000E+00 -0.94066504167E+03  0.94066504167E+03  0.25500000000E-02 0. -1.
    8880023    1    1    2    0    0 -0.44675523730E+02  0.16552234254E+03 -0.78474434577E+03  0.10387624573E+04  0.65864270000E+03 0. -1.
    8880022    1    1    2    0    0  0.44675523730E+02 -0.16552234254E+03  0.42752390888E+03  0.48534718911E+03  0.15294330000E+03 0.  0.
<mgrwt>
<rscale>  0 0.51877442E+03</rscale>
<asrwt>0</asrwt>
<pdfrwt beam="1">  1        2 0.14471770E+00 0.68059074E+03</pdfrwt>
<pdfrwt beam="2">  1       -2 0.89760708E-01 0.68059074E+03</pdfrwt>
<totfact> 0.29942044E+01</totfact>
</mgrwt>
</event>
<event>
 4    5  0.6615028E-008  0.1658295E+04  0.7818608E-02  0.8805258E-01
         -2   -1    0    0    0  501 -0.00000000000E+00  0.00000000000E+00  0.15787294005E+04  0.15787294005E+04  0.25500000000E-02 0.  1.
          2   -1    0    0  501    0  0.00000000000E+00 -0.00000000000E+00 -0.28774342022E+04  0.28774342022E+04  0.25500000000E-02 0. -1.
    8880023    1    1    2    0    0  0.15143614720E+04 -0.15113806885E+03 -0.21425120436E+04  0.27092990693E+04  0.65864270000E+03 0.  0.
    8880022    1    1    2    0    0 -0.15143614720E+04  0.15113806885E+03  0.84380724186E+03  0.17468645334E+04  0.15294330000E+03 0.  0.
<mgrwt>
<rscale>  0 0.16251273E+04</rscale>
<asrwt>0</asrwt>
<pdfrwt beam="1">  1        2 0.44268218E+00 0.16582954E+04</pdfrwt>
<pdfrwt beam="2">  1       -2 0.24288145E+00 0.16582954E+04</pdfrwt>
<totfact> 0.13593580E-01</totfact>
</mgrwt>
</event>
<event>
 4    5  0.6615028E-008  0.1141820E+04  0.7818608E-02  0.9215863E-01
         -2   -1    0    0    0  501 -0.00000000000E+00  0.00000000000E+00  0.86888861973E+03  0.86888861973E+03  0.25500000000E-02 0.  1.
          2   -1    0    0  501    0  0.00000000000E+00 -0.00000000000E+00 -0.18001429336E+04  0.18001429336E+04  0.25500000000E-02 0. -1.
    8880023    1    1    2    0    0  0.18229832769E+03 -0.91471876424E+03 -0.12295059196E+04  0.16779267298E+04  0.65864270000E+03 0.  0.
    8880022    1    1    2    0    0 -0.18229832769E+03  0.91471876424E+03  0.29825160572E+03  0.99110482355E+03  0.15294330000E+03 0.  0.
<mgrwt>
<rscale>  0 0.10891183E+04</rscale>
<asrwt>0</asrwt>
<pdfrwt beam="1">  1        2 0.27694507E+00 0.11418202E+04</pdfrwt>
<pdfrwt beam="2">  1       -2 0.13367517E+00 0.11418202E+04</pdfrwt>
<totfact> 0.34199786E+00</totfact>
</mgrwt>
</event>
<event>
 4    5  0.6615028E-008  0.1399210E+04  0.7818608E-02  0.8984297E-01
          2   -1    0    0  501    0  0.00000000000E+00  0.00000000000E+00  0.28694744225E+04  0.28694744225E+04  0.25500000000E-02 0. -1.
         -2   -1    0    0    0  501 -0.00000000000E+00 -0.00000000000E+00 -0.94116664641E+03  0.94116664641E+03  0.25500000000E-02 0.  1.
    8880023    1    1    2    0    0  0.70953737933E+03  0.10102158345E+04  0.21320006704E+04  0.25501404647E+04  0.65864270000E+03 0.  0.
    8880022    1    1    2    0    0 -0.70953737933E+03 -0.10102158345E+04 -0.20369289434E+03  0.12605006042E+04  0.15294330000E+03 0.  0.
<mgrwt>
<rscale>  0 0.13586624E+04</rscale>
<asrwt>0</asrwt>
<pdfrwt beam="1">  1        2 0.44145760E+00 0.13992103E+04</pdfrwt>
<pdfrwt beam="2">  1       -2 0.14479487E+00 0.13992103E+04</pdfrwt>
<totfact> 0.66131237E-01</totfact>
</mgrwt>
</event>
<event>
 4    5  0.6615028E-008  0.7157682E+03  0.7818608E-02  0.9937174E-01
          2   -1    0    0  501    0  0.00000000000E+00  0.00000000000E+00  0.19280737210E+04  0.19280737210E+04  0.25500000000E-02 0. -1.
         -2   -1    0    0    0  501 -0.00000000000E+00 -0.00000000000E+00 -0.43225693728E+03  0.43225693729E+03  0.25500000000E-02 0.  1.
    8880023    1    1    2    0    0 -0.40490885843E+02 -0.27726222917E+03  0.17890160981E+04  0.19268893744E+04  0.65864270000E+03 0. -1.
    8880022    1    1    2    0    0  0.40490885843E+02  0.27726222917E+03 -0.29319931443E+03  0.43344128386E+03  0.15294330000E+03 0.  0.
<mgrwt>
<rscale>  0 0.58493013E+03</rscale>
<asrwt>0</asrwt>
<pdfrwt beam="1">  1        2 0.29662672E+00 0.71576816E+03</pdfrwt>
<pdfrwt beam="2">  1       -2 0.66501068E-01 0.71576816E+03</pdfrwt>
<totfact> 0.15804274E+01</totfact>
</mgrwt>
</event>
<event>
 4    5  0.6615028E-008  0.7329842E+03  0.7818608E-02  0.9880876E-01
         -2   -1    0    0    0  501 -0.00000000000E+00  0.00000000000E+00  0.98544069330E+03  0.98544069330E+03  0.25500000000E-02 0.  1.
          2   -1    0    0  501    0  0.00000000000E+00 -0.00000000000E+00 -0.34913354534E+04  0.34913354534E+04  0.25500000000E-02 0. -1.
    8880023    1    1    2    0    0  0.26270178706E+03 -0.18558916910E+03 -0.34189904963E+04  0.34966786796E+04  0.65864270000E+03 0. -1.
    8880022    1    1    2    0    0 -0.26270178706E+03  0.18558916910E+03  0.91309573616E+03  0.98009746710E+03  0.15294330000E+03 0.  0.
<mgrwt>
<rscale>  0 0.61197131E+03</rscale>
<asrwt>0</asrwt>
<pdfrwt beam="1">  1        2 0.53712852E+00 0.73298416E+03</pdfrwt>
<pdfrwt beam="2">  1       -2 0.15160626E+00 0.73298416E+03</pdfrwt>
<totfact> 0.26306240E-01</totfact>
</mgrwt>
</event>
<event>
 4    5  0.6615028E-008  0.1060275E+04  0.7818608E-02  0.9306631E-01
         -2   -1    0    0    0  501 -0.00000000000E+00  0.00000000000E+00  0.76851565231E+03  0.76851565231E+03  0.25500000000E-02 0.  1.
          2   -1    0    0  501    0  0.00000000000E+00 -0.00000000000E+00 -0.30874577828E+04  0.30874577828E+04  0.25500000000E-02 0. -1.
    8880023    1    1    2    0    0 -0.50605272237E+03  0.65900154831E+03  0.30182415691E+03  0.11023975809E+04  0.65864270000E+03 0.  0.
    8880022    1    1    2    0    0  0.50605272237E+03 -0.65900154831E+03 -0.26207662874E+04  0.27535758542E+04  0.15294330000E+03 0.  0.
<mgrwt>
<rscale>  0 0.10017472E+04</rscale>
<asrwt>0</asrwt>
<pdfrwt beam="1">  1        2 0.47499350E+00 0.10602748E+04</pdfrwt>
<pdfrwt beam="2">  1       -2 0.11823318E+00 0.10602748E+04</pdfrwt>
<totfact> 0.85317976E-01</totfact>
</mgrwt>
</event>
<event>
 4    5  0.6615028E-008  0.8730918E+03  0.7818608E-02  0.9570687E-01
          2   -1    0    0  501    0  0.00000000000E+00  0.00000000000E+00  0.21646335814E+04  0.21646335814E+04  0.25500000000E-02 0. -1.
         -2   -1    0    0    0  501 -0.00000000000E+00 -0.00000000000E+00 -0.28996509727E+03  0.28996509728E+03  0.25500000000E-02 0.  1.
    8880023    1    1    2    0    0 -0.26042924022E+03  0.51054454614E+03  0.15484316713E+04  0.17776191858E+04  0.65864270000E+03 0.  0.
    8880022    1    1    2    0    0  0.26042924022E+03 -0.51054454614E+03  0.32623681287E+03  0.67697949293E+03  0.15294330000E+03 0.  0.
<mgrwt>
<rscale>  0 0.79267076E+03</rscale>
<asrwt>0</asrwt>
<pdfrwt beam="1">  1        2 0.33302054E+00 0.87309182E+03</pdfrwt>
<pdfrwt beam="2">  1       -2 0.44610016E-01 0.87309182E+03</pdfrwt>
<totfact> 0.26286703E+01</totfact>
</mgrwt>
</event>
<event>
 4    5  0.6615028E-008  0.7793369E+03  0.7818608E-02  0.9757397E-01
         -2   -1    0    0    0  501 -0.00000000000E+00  0.00000000000E+00  0.52400570683E+03  0.52400570684E+03  0.25500000000E-02 0.  1.
          2   -1    0    0  501    0  0.00000000000E+00 -0.00000000000E+00 -0.12911302862E+04  0.12911302862E+04  0.25500000000E-02 0. -1.
    8880023    1    1    2    0    0 -0.18188311474E+03  0.37479911129E+03 -0.10358843315E+04  0.12963110721E+04  0.65864270000E+03 0. -1.
    8880022    1    1    2    0    0  0.18188311474E+03 -0.37479911129E+03  0.26875975207E+03  0.51882492095E+03  0.15294330000E+03 0.  0.
<mgrwt>
<rscale>  0 0.67699857E+03</rscale>
<asrwt>0</asrwt>
<pdfrwt beam="1">  1        2 0.19863543E+00 0.77933693E+03</pdfrwt>
<pdfrwt beam="2">  1       -2 0.80616263E-01 0.77933693E+03</pdfrwt>
<totfact> 0.23116481E+01</totfact>
</mgrwt>
</event>
<event>
 4    5  0.6615028E-008  0.6796397E+03  0.7818608E-02  0.1009528E+00
          2   -1    0    0  501    0  0.00000000000E+00  0.00000000000E+00  0.64025539324E+03  0.64025539325E+03  0.25500000000E-02 0. -1.
         -2   -1    0    0    0  501 -0.00000000000E+00 -0.00000000000E+00 -0.36894377725E+03  0.36894377726E+03  0.25500000000E-02 0.  1.
    8880023    1    1    2    0    0 -0.16725797704E+03 -0.11163734464E+02  0.35570560908E+03  0.76709617809E+03  0.65864270000E+03 0. -1.
    8880022    1    1    2    0    0  0.16725797704E+03  0.11163734464E+02 -0.84393993081E+02  0.24210299241E+03  0.15294330000E+03 0.  0.
<mgrwt>
<rscale>  0 0.51662568E+03</rscale>
<asrwt>0</asrwt>
<pdfrwt beam="1">  1        2 0.98500828E-01 0.67963966E+03</pdfrwt>
<pdfrwt beam="2">  1       -2 0.56760582E-01 0.67963966E+03</pdfrwt>
<totfact> 0.13533449E+02</totfact>
</mgrwt>
</event>
<event>
 4    5  0.6615028E-008  0.9403791E+03  0.7818608E-02  0.9464094E-01
          2   -1    0    0  501    0  0.00000000000E+00  0.00000000000E+00  0.19884309632E+04  0.19884309632E+04  0.25500000000E-02 0. -1.
         -2   -1    0    0    0  501 -0.00000000000E+00 -0.00000000000E+00 -0.46350545537E+03  0.46350545538E+03  0.25500000000E-02 0.  1.
    8880023    1    1    2    0    0 -0.20010341515E+03  0.64067258542E+03  0.14909007183E+04  0.17626962008E+04  0.65864270000E+03 0. -1.
    8880022    1    1    2    0    0  0.20010341515E+03 -0.64067258542E+03  0.34024789586E+02  0.68924021777E+03  0.15294330000E+03 0.  0.
<mgrwt>
<rscale>  0 0.86983612E+03</rscale>
<asrwt>0</asrwt>
<pdfrwt beam="1">  1        2 0.30591246E+00 0.94037915E+03</pdfrwt>
<pdfrwt beam="2">  1       -2 0.71308530E-01 0.94037915E+03</pdfrwt>
<totfact> 0.12218597E+01</totfact>
</mgrwt>
</event>
<event>
 4    5  0.6615028E-008  0.7594918E+03  0.7818608E-02  0.9806425E-01
          2   -1    0    0  501    0  0.00000000000E+00  0.00000000000E+00  0.11061962069E+04  0.11061962069E+04  0.25500000000E-02 0. -1.
         -2   -1    0    0    0  501 -0.00000000000E+00 -0.00000000000E+00 -0.38057911019E+03  0.38057911020E+03  0.25500000000E-02 0.  1.
    8880023    1    1    2    0    0  0.25421059370E+03  0.27999017037E+03  0.76370674083E+03  0.10770681101E+04  0.65864270000E+03 0.  0.
    8880022    1    1    2    0    0 -0.25421059370E+03 -0.27999017037E+03 -0.38089644162E+02  0.40970720699E+03  0.15294330000E+03 0.  0.
<mgrwt>
<rscale>  0 0.65018876E+03</rscale>
<asrwt>0</asrwt>
<pdfrwt beam="1">  1        2 0.17018403E+00 0.75949176E+03</pdfrwt>
<pdfrwt beam="2">  1       -2 0.58550634E-01 0.75949176E+03</pdfrwt>
<totfact> 0.59797610E+01</totfact>
</mgrwt>
</event>
<event>
 4    5  0.6615028E-008  0.6836804E+03  0.7818608E-02  0.1007314E+00
          2   -1    0    0  501    0  0.00000000000E+00  0.00000000000E+00  0.11715821832E+04  0.11715821832E+04  0.25500000000E-02 0. -1.
         -2   -1    0    0    0  501 -0.00000000000E+00 -0.00000000000E+00 -0.19930961492E+03  0.19930961493E+03  0.25500000000E-02 0.  1.
    8880023    1    1    2    0    0 -0.16014853258E+03 -0.89225470348E+02  0.51818769495E+03  0.85786795633E+03  0.65864270000E+03 0.  1.
    8880022    1    1    2    0    0  0.16014853258E+03  0.89225470348E+02  0.45408487332E+03  0.51302384178E+03  0.15294330000E+03 0.  0.
<mgrwt>
<rscale>  0 0.52556277E+03</rscale>
<asrwt>0</asrwt>
<pdfrwt beam="1">  1        2 0.18024341E+00 0.68368044E+03</pdfrwt>
<pdfrwt beam="2">  1       -2 0.30663018E-01 0.68368044E+03</pdfrwt>
<totfact> 0.19694711E+02</totfact>
</mgrwt>
</event>
<event>
 4    5  0.6615028E-008  0.9522190E+03  0.7818608E-02  0.9446929E-01
         -2   -1    0    0    0  501 -0.00000000000E+00  0.00000000000E+00  0.14955992454E+04  0.14955992454E+04  0.25500000000E-02 0.  1.
          2   -1    0    0  501    0  0.00000000000E+00 -0.00000000000E+00 -0.73522254119E+03  0.73522254120E+03  0.25500000000E-02 0. -1.
    8880023    1    1    2    0    0 -0.56653170454E+03  0.38981112954E+03 -0.26348826493E+03  0.98800159969E+03  0.65864270000E+03 0.  0.
    8880022    1    1    2    0    0  0.56653170454E+03 -0.38981112954E+03  0.10238649691E+04  0.12428201869E+04  0.15294330000E+03 0.  0.
<mgrwt>
<rscale>  0 0.88312252E+03</rscale>
<asrwt>0</asrwt>
<pdfrwt beam="1">  1        2 0.11311116E+00 0.95221904E+03</pdfrwt>
<pdfrwt beam="2">  1       -2 0.23009219E+00 0.95221904E+03</pdfrwt>
<totfact> 0.32884268E+00</totfact>
</mgrwt>
</event>
<event>
 4    5  0.6615028E-008  0.9267104E+03  0.7818608E-02  0.9484446E-01
         -2   -1    0    0    0  501 -0.00000000000E+00  0.00000000000E+00  0.91977659366E+03  0.91977659367E+03  0.25500000000E-02 0.  1.
          2   -1    0    0  501    0  0.00000000000E+00 -0.00000000000E+00 -0.13090527268E+04  0.13090527268E+04  0.25500000000E-02 0. -1.
    8880023    1    1    2    0    0  0.38401587583E+03 -0.52679570675E+03 -0.97069253314E+03  0.13420268662E+04  0.65864270000E+03 0. -1.
    8880022    1    1    2    0    0 -0.38401587583E+03  0.52679570675E+03  0.58141640003E+03  0.88680245420E+03  0.15294330000E+03 0.  0.
<mgrwt>
<rscale>  0 0.85440350E+03</rscale>
<asrwt>0</asrwt>
<pdfrwt beam="1">  1        2 0.20139273E+00 0.92671037E+03</pdfrwt>
<pdfrwt beam="2">  1       -2 0.14150409E+00 0.92671037E+03</pdfrwt>
<totfact> 0.57041835E+00</totfact>
</mgrwt>
</event>
<event>
 4    5  0.6615028E-008  0.7938926E+03  0.7818608E-02  0.9724160E-01
          2   -1    0    0  501    0  0.00000000000E+00  0.00000000000E+00  0.19032424962E+04  0.19032424962E+04  0.25500000000E-02 0. -1.
         -2   -1    0    0    0  501 -0.00000000000E+00 -0.00000000000E+00 -0.72099276853E+03  0.72099276853E+03  0.25500000000E-02 0.  1.
    8880023    1    1    2    0    0 -0.20935879803E+03 -0.39067135014E+03  0.17298493945E+04  0.19033245503E+04  0.65864270000E+03 0. -1.
    8880022    1    1    2    0    0  0.20935879803E+03  0.39067135014E+03 -0.54759966676E+03  0.72091071443E+03  0.15294330000E+03 0.  0.
<mgrwt>
<rscale>  0 0.69596330E+03</rscale>
<asrwt>0</asrwt>
<pdfrwt beam="1">  1        2 0.29280653E+00 0.79389257E+03</pdfrwt>
<pdfrwt beam="2">  1       -2 0.11092197E+00 0.79389257E+03</pdfrwt>
<totfact> 0.49987567E+00</totfact>
</mgrwt>
</event>
<event>
 4    5  0.6615028E-008  0.1007553E+04  0.7818608E-02  0.9371742E-01
          2   -1    0    0  501    0  0.00000000000E+00  0.00000000000E+00  0.18159298760E+04  0.18159298760E+04  0.25500000000E-02 0. -1.
         -2   -1    0    0    0  501 -0.00000000000E+00 -0.00000000000E+00 -0.44966854066E+03  0.44966854066E+03  0.25500000000E-02 0.  1.
    8880023    1    1    2    0    0 -0.67424382779E+03 -0.35601754006E+03  0.94404616594E+03  0.13807195942E+04  0.65864270000E+03 0.  0.
    8880022    1    1    2    0    0  0.67424382779E+03  0.35601754006E+03  0.42221516940E+03  0.88487882245E+03  0.15294330000E+03 0.  0.
<mgrwt>
<rscale>  0 0.94438159E+03</rscale>
<asrwt>0</asrwt>
<pdfrwt beam="1">  1        2 0.27937384E+00 0.10075532E+04</pdfrwt>
<pdfrwt beam="2">  1       -2 0.69179773E-01 0.10075532E+04</pdfrwt>
<totfact> 0.16127154E+01</totfact>
</mgrwt>
</event>
<event>
 4    5  0.6615028E-008  0.6840988E+03  0.7818608E-02  0.1007094E+00
          2   -1    0    0  501    0  0.00000000000E+00  0.00000000000E+00  0.20860611634E+04  0.20860611634E+04  0.25500000000E-02 0. -1.
         -2   -1    0    0    0  501 -0.00000000000E+00 -0.00000000000E+00 -0.48478201384E+03  0.48478201384E+03  0.25500000000E-02 0.  1.
    8880023    1    1    2    0    0 -0.13215007096E+03  0.12929568112E+03  0.19954097903E+04  0.21094196956E+04  0.65864270000E+03 0. -1.
    8880022    1    1    2    0    0  0.13215007096E+03 -0.12929568112E+03 -0.39413064078E+03  0.46142348167E+03  0.15294330000E+03 0.  0.
<mgrwt>
<rscale>  0 0.52646097E+03</rscale>
<asrwt>0</asrwt>
<pdfrwt beam="1">  1        2 0.32093248E+00 0.68409884E+03</pdfrwt>
<pdfrwt beam="2">  1       -2 0.74581850E-01 0.68409884E+03</pdfrwt>
<totfact> 0.10142113E+01</totfact>
</mgrwt>
</event>
<event>
 4    5  0.6615028E-008  0.7454804E+03  0.7818608E-02  0.9844261E-01
         -2   -1    0    0    0  501 -0.00000000000E+00  0.00000000000E+00  0.11913164106E+04  0.11913164106E+04  0.25500000000E-02 0.  1.
          2   -1    0    0  501    0  0.00000000000E+00 -0.00000000000E+00 -0.14425677762E+04  0.14425677762E+04  0.25500000000E-02 0. -1.
    8880023    1    1    2    0    0 -0.34708177278E+03 -0.38277072335E+02 -0.13107371081E+04  0.15079034664E+04  0.65864270000E+03 0. -1.
    8880022    1    1    2    0    0  0.34708177278E+03  0.38277072335E+02  0.10594857424E+04  0.11259807204E+04  0.15294330000E+03 0.  0.
<mgrwt>
<rscale>  0 0.63040379E+03</rscale>
<asrwt>0</asrwt>
<pdfrwt beam="1">  1        2 0.22193351E+00 0.74548045E+03</pdfrwt>
<pdfrwt beam="2">  1       -2 0.18327945E+00 0.74548045E+03</pdfrwt>
<totfact> 0.24252475E+00</totfact>
</mgrwt>
</event>
<event>
 4    5  0.6615028E-008  0.6792795E+03  0.7818608E-02  0.1009734E+00
          2   -1    0    0  501    0  0.00000000000E+00  0.00000000000E+00  0.62496225224E+03  0.62496225224E+03  0.25500000000E-02 0. -1.
         -2   -1    0    0    0  501 -0.00000000000E+00 -0.00000000000E+00 -0.71802758566E+03  0.71802758566E+03  0.25500000000E-02 0.  1.
    8880023    1    1    2    0    0  0.25565530887E+02 -0.16418543860E+03  0.40869407480E+03  0.79274933470E+03  0.65864270000E+03 0. -1.
    8880022    1    1    2    0    0 -0.25565530887E+02  0.16418543860E+03 -0.50175940823E+03  0.55024050321E+03  0.15294330000E+03 0.  0.
<mgrwt>
<rscale>  0 0.51580424E+03</rscale>
<asrwt>0</asrwt>
<pdfrwt beam="1">  1        2 0.96148040E-01 0.67927952E+03</pdfrwt>
<pdfrwt beam="2">  1       -2 0.11046578E+00 0.67927952E+03</pdfrwt>
<totfact> 0.31275136E+01</totfact>
</mgrwt>
</event>
<event>
 4    5  0.6615028E-008  0.7474046E+03  0.7818608E-02  0.9838880E-01
          2   -1    0    0  501    0  0.00000000000E+00  0.00000000000E+00  0.35331460488E+04  0.35331460488E+04  0.25500000000E-02 0. -1.
         -2   -1    0    0    0  501 -0.00000000000E+00 -0.00000000000E+00 -0.57831305232E+03  0.57831305232E+03  0.25500000000E-02 0.  1.
    8880023    1    1    2    0    0  0.18625386752E+02  0.35278387544E+03  0.34239699205E+04  0.35045946399E+04  0.65864270000E+03 0.  0.
    8880022    1    1    2    0    0 -0.18625386752E+02 -0.35278387544E+03 -0.46913692398E+03  0.60686446119E+03  0.15294330000E+03 0.  1.
<mgrwt>
<rscale>  0 0.63317099E+03</rscale>
<asrwt>0</asrwt>
<pdfrwt beam="1">  1        2 0.54356092E+00 0.74740456E+03</pdfrwt>
<pdfrwt beam="2">  1       -2 0.88971240E-01 0.74740456E+03</pdfrwt>
<totfact> 0.91197549E-01</totfact>
</mgrwt>
</event>
<event>
 4    5  0.6615028E-008  0.8300344E+03  0.7818608E-02  0.9649265E-01
         -2   -1    0    0    0  501 -0.00000000000E+00  0.00000000000E+00  0.71493281815E+03  0.71493281815E+03  0.25500000000E-02 0.  1.
          2   -1    0    0  501    0  0.00000000000E+00 -0.00000000000E+00 -0.77463688615E+03  0.77463688615E+03  0.25500000000E-02 0. -1.
    8880023    1    1    2    0    0 -0.44191606638E+03  0.24465709735E+03  0.26331166365E+03  0.87079856654E+03  0.65864270000E+03 0.  1.
    8880022    1    1    2    0    0  0.44191606638E+03 -0.24465709735E+03 -0.32301573165E+03  0.61877113776E+03  0.15294330000E+03 0.  0.
<mgrwt>
<rscale>  0 0.74119543E+03</rscale>
<asrwt>0</asrwt>
<pdfrwt beam="1">  1        2 0.11917491E+00 0.83003440E+03</pdfrwt>
<pdfrwt beam="2">  1       -2 0.10998966E+00 0.83003440E+03</pdfrwt>
<totfact> 0.23790912E+01</totfact>
</mgrwt>
</event>
<event>
 4    5  0.6615028E-008  0.7421821E+03  0.7818608E-02  0.9853636E-01
         -2   -1    0    0    0  501 -0.00000000000E+00  0.00000000000E+00  0.49214435842E+03  0.49214435843E+03  0.25500000000E-02 0.  1.
          2   -1    0    0  501    0  0.00000000000E+00 -0.00000000000E+00 -0.10714877199E+04  0.10714877199E+04  0.25500000000E-02 0. -1.
    8880023    1    1    2    0    0  0.24198260120E+03 -0.24180244927E+03 -0.82951743288E+03  0.11130738437E+04  0.65864270000E+03 0. -1.
    8880022    1    1    2    0    0 -0.24198260120E+03  0.24180244927E+03  0.25017407144E+03  0.45055823463E+03  0.15294330000E+03 0.  0.
<mgrwt>
<rscale>  0 0.62561879E+03</rscale>
<asrwt>0</asrwt>
<pdfrwt beam="1">  1        2 0.16484426E+00 0.74218206E+03</pdfrwt>
<pdfrwt beam="2">  1       -2 0.75714517E-01 0.74218206E+03</pdfrwt>
<totfact> 0.36103174E+01</totfact>
</mgrwt>
</event>
<event>
 4    5  0.6615028E-008  0.7057359E+03  0.7818608E-02  0.9974190E-01
          2   -1    0    0  501    0  0.00000000000E+00  0.00000000000E+00  0.15548850345E+04  0.15548850345E+04  0.25500000000E-02 0. -1.
         -2   -1    0    0    0  501 -0.00000000000E+00 -0.00000000000E+00 -0.67358408020E+03  0.67358408020E+03  0.25500000000E-02 0.  1.
    8880023    1    1    2    0    0 -0.20862231569E+03 -0.14397810202E+03  0.14358101579E+04  0.15998793643E+04  0.65864270000E+03 0. -1.
    8880022    1    1    2    0    0  0.20862231569E+03  0.14397810202E+03 -0.55450920359E+03  0.62858975043E+03  0.15294330000E+03 0.  0.
<mgrwt>
<rscale>  0 0.56796597E+03</rscale>
<asrwt>0</asrwt>
<pdfrwt beam="1">  1        2 0.23921308E+00 0.70573591E+03</pdfrwt>
<pdfrwt beam="2">  1       -2 0.10362832E+00 0.70573591E+03</pdfrwt>
<totfact> 0.92579254E+00</totfact>
</mgrwt>
</event>
<event>
 4    5  0.6615028E-008  0.7423111E+03  0.7818608E-02  0.9853266E-01
         -2   -1    0    0    0  501 -0.00000000000E+00  0.00000000000E+00  0.64277694659E+03  0.64277694660E+03  0.25500000000E-02 0.  1.
          2   -1    0    0  501    0  0.00000000000E+00 -0.00000000000E+00 -0.12397714629E+04  0.12397714629E+04  0.25500000000E-02 0. -1.
    8880023    1    1    2    0    0  0.27189766637E+02 -0.34128613289E+03 -0.10554031237E+04  0.12903106090E+04  0.65864270000E+03 0. -1.
    8880022    1    1    2    0    0 -0.27189766637E+02  0.34128613289E+03  0.45840860744E+03  0.59223780047E+03  0.15294330000E+03 0.  0.
<mgrwt>
<rscale>  0 0.62580695E+03</rscale>
<asrwt>0</asrwt>
<pdfrwt beam="1">  1        2 0.19073407E+00 0.74231106E+03</pdfrwt>
<pdfrwt beam="2">  1       -2 0.98888761E-01 0.74231106E+03</pdfrwt>
<totfact> 0.15529248E+01</totfact>
</mgrwt>
</event>
<event>
 4    5  0.6615028E-008  0.9286988E+03  0.7818608E-02  0.9481448E-01
          2   -1    0    0  501    0  0.00000000000E+00  0.00000000000E+00  0.30274472201E+04  0.30274472201E+04  0.25500000000E-02 0. -1.
         -2   -1    0    0    0  501 -0.00000000000E+00 -0.00000000000E+00 -0.34491407721E+03  0.34491407722E+03  0.25500000000E-02 0.  1.
    8880023    1    1    2    0    0 -0.62063648398E+03 -0.20852225332E+03  0.25127793634E+04  0.26789067753E+04  0.65864270000E+03 0. -1.
    8880022    1    1    2    0    0  0.62063648398E+03  0.20852225332E+03  0.16975377943E+03  0.69345452195E+03  0.15294330000E+03 0.  0.
<mgrwt>
<rscale>  0 0.85665509E+03</rscale>
<asrwt>0</asrwt>
<pdfrwt beam="1">  1        2 0.46576112E+00 0.92869876E+03</pdfrwt>
<pdfrwt beam="2">  1       -2 0.53063703E-01 0.92869876E+03</pdfrwt>
<totfact> 0.57970069E+00</totfact>
</mgrwt>
</event>
<event>
 4    5  0.6615028E-008  0.1026405E+04  0.7818608E-02  0.9347799E-01
         -2   -1    0    0    0  501 -0.00000000000E+00  0.00000000000E+00  0.29173712396E+03  0.29173712397E+03  0.25500000000E-02 0.  1.
          2   -1    0    0  501    0  0.00000000000E+00 -0.00000000000E+00 -0.44289609821E+04  0.44289609821E+04  0.25500000000E-02 0. -1.
    8880023    1    1    2    0    0  0.30080486591E+03 -0.72747092207E+03 -0.36288323142E+04  0.37711976454E+04  0.65864270000E+03 0.  0.
    8880022    1    1    2    0    0 -0.30080486591E+03  0.72747092207E+03 -0.50839154391E+03  0.94950046064E+03  0.15294330000E+03 0.  0.
<mgrwt>
<rscale>  0 0.96499051E+03</rscale>
<asrwt>0</asrwt>
<pdfrwt beam="1">  1        2 0.68137856E+00 0.10264052E+04</pdfrwt>
<pdfrwt beam="2">  1       -2 0.44882638E-01 0.10264052E+04</pdfrwt>
<totfact> 0.72423036E-01</totfact>
</mgrwt>
</event>
<event>
 4    5  0.6615028E-008  0.1099731E+04  0.7818608E-02  0.9261356E-01
         -2   -1    0    0    0  501 -0.00000000000E+00  0.00000000000E+00  0.84804260616E+03  0.84804260617E+03  0.25500000000E-02 0.  1.
          2   -1    0    0  501    0  0.00000000000E+00 -0.00000000000E+00 -0.13302186812E+04  0.13302186812E+04  0.25500000000E-02 0. -1.
    8880023    1    1    2    0    0  0.86607611780E+03  0.15971818409E+03  0.11125600951E+03  0.11053442206E+04  0.65864270000E+03 0.  1.
    8880022    1    1    2    0    0 -0.86607611780E+03 -0.15971818409E+03 -0.59343208459E+03  0.10729170668E+04  0.15294330000E+03 0.  0.
<mgrwt>
<rscale>  0 0.10441970E+04</rscale>
<asrwt>0</asrwt>
<pdfrwt beam="1">  1        2 0.20464903E+00 0.10997309E+04</pdfrwt>
<pdfrwt beam="2">  1       -2 0.13046809E+00 0.10997309E+04</pdfrwt>
<totfact> 0.67153429E+00</totfact>
</mgrwt>
</event>
<event>
 4    5  0.6615028E-008  0.1036247E+04  0.7818608E-02  0.9335600E-01
          2   -1    0    0  501    0  0.00000000000E+00  0.00000000000E+00  0.12899954605E+04  0.12899954605E+04  0.25500000000E-02 0. -1.
         -2   -1    0    0    0  501 -0.00000000000E+00 -0.00000000000E+00 -0.92959252507E+03  0.92959252508E+03  0.25500000000E-02 0.  1.
    8880023    1    1    2    0    0 -0.31526069860E+03 -0.73526038343E+03  0.78599331821E+03  0.13006124873E+04  0.65864270000E+03 0.  0.
    8880022    1    1    2    0    0  0.31526069860E+03  0.73526038343E+03 -0.42559038279E+03  0.91897549829E+03  0.15294330000E+03 0.  0.
<mgrwt>
<rscale>  0 0.97570472E+03</rscale>
<asrwt>0</asrwt>
<pdfrwt beam="1">  1        2 0.19846084E+00 0.10362468E+04</pdfrwt>
<pdfrwt beam="2">  1       -2 0.14301424E+00 0.10362468E+04</pdfrwt>
<totfact> 0.56249535E+00</totfact>
</mgrwt>
</event>
<event>
 4    5  0.6615028E-008  0.6799812E+03  0.7818608E-02  0.1009334E+00
         -2   -1    0    0    0  501 -0.00000000000E+00  0.00000000000E+00  0.93023522563E+03  0.93023522564E+03  0.25500000000E-02 0.  1.
          2   -1    0    0  501    0  0.00000000000E+00 -0.00000000000E+00 -0.39817006323E+03  0.39817006324E+03  0.25500000000E-02 0. -1.
    8880023    1    1    2    0    0  0.80976969673E+02  0.14834756319E+03 -0.71022304245E+02  0.68368021990E+03  0.65864270000E+03 0. -1.
    8880022    1    1    2    0    0 -0.80976969673E+02 -0.14834756319E+03  0.60308746665E+03  0.64472506898E+03  0.15294330000E+03 0.  0.
<mgrwt>
<rscale>  0 0.51740078E+03</rscale>
<asrwt>0</asrwt>
<pdfrwt beam="1">  1        2 0.61256934E-01 0.67998123E+03</pdfrwt>
<pdfrwt beam="2">  1       -2 0.14311311E+00 0.67998123E+03</pdfrwt>
<totfact> 0.27596590E+01</totfact>
</mgrwt>
</event>
<event>
 4    5  0.6615028E-008  0.7470139E+03  0.7818608E-02  0.9839968E-01
          2   -1    0    0  501    0  0.00000000000E+00  0.00000000000E+00  0.33428810708E+04  0.33428810708E+04  0.25500000000E-02 0. -1.
         -2   -1    0    0    0  501 -0.00000000000E+00 -0.00000000000E+00 -0.10024915745E+03  0.10024915749E+03  0.25500000000E-02 0.  1.
    8880023    1    1    2    0    0 -0.13463644056E+03 -0.32571857627E+03  0.24659931764E+04  0.25766552184E+04  0.65864270000E+03 0.  0.
    8880022    1    1    2    0    0  0.13463644056E+03  0.32571857627E+03  0.77663873687E+03  0.86647500984E+03  0.15294330000E+03 0.  0.
<mgrwt>
<rscale>  0 0.63261055E+03</rscale>
<asrwt>0</asrwt>
<pdfrwt beam="1">  1        2 0.51428946E+00 0.74701390E+03</pdfrwt>
<pdfrwt beam="2">  1       -2 0.15422945E-01 0.74701390E+03</pdfrwt>
<totfact> 0.37261931E+01</totfact>
</mgrwt>
</event>
<event>
 4    5  0.6615028E-008  0.1227907E+04  0.7818608E-02  0.9130461E-01
          2   -1    0    0  501    0  0.00000000000E+00  0.00000000000E+00  0.20470533442E+04  0.20470533442E+04  0.25500000000E-02 0. -1.
         -2   -1    0    0    0  501 -0.00000000000E+00 -0.00000000000E+00 -0.20271428839E+04  0.20271428839E+04  0.25500000000E-02 0.  1.
    8880023    1    1    2    0    0  0.10358715582E+04 -0.30244880188E+02 -0.16779126862E+04  0.20792175997E+04  0.65864270000E+03 0.  1.
    8880022    1    1    2    0    0 -0.10358715582E+04  0.30244880188E+02  0.16978231465E+04  0.19949786284E+04  0.15294330000E+03 0.  0.
<mgrwt>
<rscale>  0 0.11800937E+04</rscale>
<asrwt>0</asrwt>
<pdfrwt beam="1">  1        2 0.31493128E+00 0.12279067E+04</pdfrwt>
<pdfrwt beam="2">  1       -2 0.31186814E+00 0.12279067E+04</pdfrwt>
<totfact> 0.16465050E-01</totfact>
</mgrwt>
</event>
<event>
 4    5  0.6615028E-008  0.1174058E+04  0.7818608E-02  0.9182761E-01
          2   -1    0    0  501    0  0.00000000000E+00  0.00000000000E+00  0.18750528608E+04  0.18750528608E+04  0.25500000000E-02 0. -1.
         -2   -1    0    0    0  501 -0.00000000000E+00 -0.00000000000E+00 -0.81282554923E+03  0.81282554923E+03  0.25500000000E-02 0.  1.
    8880023    1    1    2    0    0  0.79683295255E+02  0.96863478549E+03  0.12180343608E+04  0.16917507753E+04  0.65864270000E+03 0.  0.
    8880022    1    1    2    0    0 -0.79683295255E+02 -0.96863478549E+03 -0.15580704921E+03  0.99612763480E+03  0.15294330000E+03 0.  0.
<mgrwt>
<rscale>  0 0.11233145E+04</rscale>
<asrwt>0</asrwt>
<pdfrwt beam="1">  1        2 0.28846967E+00 0.11740583E+04</pdfrwt>
<pdfrwt beam="2">  1       -2 0.12505009E+00 0.11740583E+04</pdfrwt>
<totfact> 0.36714508E+00</totfact>
</mgrwt>
</event>
<event>
 4    5  0.6615028E-008  0.8810218E+03  0.7818608E-02  0.9557211E-01
          2   -1    0    0  501    0  0.00000000000E+00  0.00000000000E+00  0.20301359917E+04  0.20301359917E+04  0.25500000000E-02 0. -1.
         -2   -1    0    0    0  501 -0.00000000000E+00 -0.00000000000E+00 -0.56865865743E+03  0.56865865744E+03  0.25500000000E-02 0.  1.
    8880023    1    1    2    0    0  0.42125369280E+03  0.40612135273E+03  0.17266388987E+04  0.19384223791E+04  0.65864270000E+03 0. -1.
    8880022    1    1    2    0    0 -0.42125369280E+03 -0.40612135273E+03 -0.26516156444E+03  0.66037227009E+03  0.15294330000E+03 0.  0.
<mgrwt>
<rscale>  0 0.80194137E+03</rscale>
<asrwt>0</asrwt>
<pdfrwt beam="1">  1        2 0.31232861E+00 0.88102181E+03</pdfrwt>
<pdfrwt beam="2">  1       -2 0.87485948E-01 0.88102181E+03</pdfrwt>
<totfact> 0.73734592E+00</totfact>
</mgrwt>
</event>
<event>
 4    5  0.6615028E-008  0.7282177E+03  0.7818608E-02  0.9895702E-01
          2   -1    0    0  501    0  0.00000000000E+00  0.00000000000E+00  0.18143640866E+04  0.18143640866E+04  0.25500000000E-02 0. -1.
         -2   -1    0    0    0  501 -0.00000000000E+00 -0.00000000000E+00 -0.63008508393E+03  0.63008508394E+03  0.25500000000E-02 0.  1.
    8880023    1    1    2    0    0 -0.21161150398E+03  0.22740134676E+03  0.16850286063E+04  0.18356531294E+04  0.65864270000E+03 0. -1.
    8880022    1    1    2    0    0  0.21161150398E+03 -0.22740134676E+03 -0.50074960365E+03  0.60879604113E+03  0.15294330000E+03 0.  0.
<mgrwt>
<rscale>  0 0.60470056E+03</rscale>
<asrwt>0</asrwt>
<pdfrwt beam="1">  1        2 0.27913294E+00 0.72821769E+03</pdfrwt>
<pdfrwt beam="2">  1       -2 0.96936167E-01 0.72821769E+03</pdfrwt>
<totfact> 0.77925599E+00</totfact>
</mgrwt>
</event>
<event>
 4    5  0.6615028E-008  0.9949086E+03  0.7818608E-02  0.9388249E-01
          2   -1    0    0  501    0  0.00000000000E+00  0.00000000000E+00  0.18652245972E+04  0.18652245972E+04  0.25500000000E-02 0. -1.
         -2   -1    0    0    0  501 -0.00000000000E+00 -0.00000000000E+00 -0.76219457998E+03  0.76219457999E+03  0.25500000000E-02 0.  1.
    8880023    1    1    2    0    0  0.74501923016E+03 -0.31291736351E+02  0.14758043499E+04  0.17798431143E+04  0.65864270000E+03 0. -1.
    8880022    1    1    2    0    0 -0.74501923016E+03  0.31291736351E+02 -0.37277433276E+03  0.84757606282E+03  0.15294330000E+03 0.  0.
<mgrwt>
<rscale>  0 0.93049058E+03</rscale>
<asrwt>0</asrwt>
<pdfrwt beam="1">  1        2 0.28695763E+00 0.99490855E+03</pdfrwt>
<pdfrwt beam="2">  1       -2 0.11726070E+00 0.99490855E+03</pdfrwt>
<totfact> 0.44549032E+00</totfact>
</mgrwt>
</event>
<event>
 4    5  0.6615028E-008  0.9314620E+03  0.7818608E-02  0.9477303E-01
          2   -1    0    0  501    0  0.00000000000E+00  0.00000000000E+00  0.20969002786E+04  0.20969002786E+04  0.25500000000E-02 0. -1.
         -2   -1    0    0    0  501 -0.00000000000E+00 -0.00000000000E+00 -0.67306570520E+03  0.67306570520E+03  0.25500000000E-02 0.  1.
    8880023    1    1    2    0    0  0.41467799016E+03 -0.51171610892E+03  0.17775899858E+04  0.20068501627E+04  0.65864270000E+03 0.  0.
    8880022    1    1    2    0    0 -0.41467799016E+03  0.51171610892E+03 -0.35375541237E+03  0.76311582112E+03  0.15294330000E+03 0.  0.
<mgrwt>
<rscale>  0 0.85978025E+03</rscale>
<asrwt>0</asrwt>
<pdfrwt beam="1">  1        2 0.32260004E+00 0.93146198E+03</pdfrwt>
<pdfrwt beam="2">  1       -2 0.10354857E+00 0.93146198E+03</pdfrwt>
<totfact> 0.45310918E+00</totfact>
</mgrwt>
</event>
<event>
 4    5  0.6615028E-008  0.8640146E+03  0.7818608E-02  0.9586462E-01
         -2   -1    0    0    0  501 -0.00000000000E+00  0.00000000000E+00  0.82658000170E+03  0.82658000171E+03  0.25500000000E-02 0.  1.
          2   -1    0    0  501    0  0.00000000000E+00 -0.00000000000E+00 -0.92616448497E+03  0.92616448497E+03  0.25500000000E-02 0. -1.
    8880023    1    1    2    0    0  0.76583491794E+02 -0.55393673528E+03 -0.54509626445E+03  0.10215924244E+04  0.65864270000E+03 0. -1.
    8880022    1    1    2    0    0 -0.76583491794E+02  0.55393673528E+03  0.44551178119E+03  0.73115206223E+03  0.15294330000E+03 0.  0.
<mgrwt>
<rscale>  0 0.78198744E+03</rscale>
<asrwt>0</asrwt>
<pdfrwt beam="1">  1        2 0.14248684E+00 0.86401455E+03</pdfrwt>
<pdfrwt beam="2">  1       -2 0.12716615E+00 0.86401455E+03</pdfrwt>
<totfact> 0.12986375E+01</totfact>
</mgrwt>
</event>
<event>
 4    5  0.6615028E-008  0.1820887E+04  0.7818608E-02  0.8711070E-01
          2   -1    0    0  501    0  0.00000000000E+00  0.00000000000E+00  0.25292380680E+04  0.25292380680E+04  0.25500000000E-02 0. -1.
         -2   -1    0    0    0  501 -0.00000000000E+00 -0.00000000000E+00 -0.14084755683E+04  0.14084755683E+04  0.25500000000E-02 0.  1.
    8880023    1    1    2    0    0 -0.88858472689E+03 -0.14464558838E+04  0.12800892377E+04  0.22258158288E+04  0.65864270000E+03 0.  1.
    8880022    1    1    2    0    0  0.88858472689E+03  0.14464558838E+04 -0.15932673800E+03  0.17118978075E+04  0.15294330000E+03 0.  0.
<mgrwt>
<rscale>  0 0.17910567E+04</rscale>
<asrwt>0</asrwt>
<pdfrwt beam="1">  1        2 0.38911354E+00 0.18208865E+04</pdfrwt>
<pdfrwt beam="2">  1       -2 0.21668855E+00 0.18208865E+04</pdfrwt>
<totfact> 0.31528889E-01</totfact>
</mgrwt>
</event>
<event>
 4    5  0.6615028E-008  0.7336517E+03  0.7818608E-02  0.9878841E-01
         -2   -1    0    0    0  501 -0.00000000000E+00  0.00000000000E+00  0.87858064063E+03  0.87858064064E+03  0.25500000000E-02 0.  1.
          2   -1    0    0  501    0  0.00000000000E+00 -0.00000000000E+00 -0.62907746788E+03  0.62907746788E+03  0.25500000000E-02 0. -1.
    8880023    1    1    2    0    0 -0.17023598066E+03  0.27468951391E+03 -0.34749721701E+03  0.81178762017E+03  0.65864270000E+03 0. -1.
    8880022    1    1    2    0    0  0.17023598066E+03 -0.27468951391E+03  0.59700038977E+03  0.69587048835E+03  0.15294330000E+03 0.  0.
<mgrwt>
<rscale>  0 0.61297811E+03</rscale>
<asrwt>0</asrwt>
<pdfrwt beam="1">  1        2 0.96781149E-01 0.73365171E+03</pdfrwt>
<pdfrwt beam="2">  1       -2 0.13516625E+00 0.73365171E+03</pdfrwt>
<totfact> 0.18692667E+01</totfact>
</mgrwt>
</event>
<event>
 4    5  0.6615028E-008  0.6815533E+03  0.7818608E-02  0.1008458E+00
          2   -1    0    0  501    0  0.00000000000E+00  0.00000000000E+00  0.77628230669E+03  0.77628230670E+03  0.25500000000E-02 0. -1.
         -2   -1    0    0    0  501 -0.00000000000E+00 -0.00000000000E+00 -0.62689236250E+03  0.62689236250E+03  0.25500000000E-02 0.  1.
    8880023    1    1    2    0    0 -0.11792706747E+02 -0.17483024137E+03  0.59226789624E+03  0.90293751080E+03  0.65864270000E+03 0.  0.
    8880022    1    1    2    0    0  0.11792706747E+02  0.17483024137E+03 -0.44287795204E+03  0.50023715840E+03  0.15294330000E+03 0.  0.
<mgrwt>
<rscale>  0 0.52091977E+03</rscale>
<asrwt>0</asrwt>
<pdfrwt beam="1">  1        2 0.11942805E+00 0.68155329E+03</pdfrwt>
<pdfrwt beam="2">  1       -2 0.96444979E-01 0.68155329E+03</pdfrwt>
<totfact> 0.32900465E+01</totfact>
</mgrwt>
</event>
<event>
 4    5  0.6615028E-008  0.1625793E+04  0.7818608E-02  0.8825565E-01
         -2   -1    0    0    0  501 -0.00000000000E+00  0.00000000000E+00  0.21841464245E+04  0.21841464245E+04  0.25500000000E-02 0.  1.
          2   -1    0    0  501    0  0.00000000000E+00 -0.00000000000E+00 -0.16357078076E+04  0.16357078076E+04  0.25500000000E-02 0. -1.
    8880023    1    1    2    0    0 -0.12042168364E+04 -0.87135216308E+03 -0.79564452459E+03  0.18100423191E+04  0.65864270000E+03 0.  0.
    8880022    1    1    2    0    0  0.12042168364E+04  0.87135216308E+03  0.13440831415E+04  0.20098119129E+04  0.15294330000E+03 0.  0.
<mgrwt>
<rscale>  0 0.15918597E+04</rscale>
<asrwt>0</asrwt>
<pdfrwt beam="1">  1        2 0.25164735E+00 0.16257930E+04</pdfrwt>
<pdfrwt beam="2">  1       -2 0.33602253E+00 0.16257930E+04</pdfrwt>
<totfact> 0.18808703E-01</totfact>
</mgrwt>
</event>
<event>
 4    5  0.6615028E-008  0.6778601E+03  0.7818608E-02  0.1010561E+00
          2   -1    0    0  501    0  0.00000000000E+00  0.00000000000E+00  0.11914756527E+04  0.11914756527E+04  0.25500000000E-02 0. -1.
         -2   -1    0    0    0  501 -0.00000000000E+00 -0.00000000000E+00 -0.68776347562E+03  0.68776347562E+03  0.25500000000E-02 0.  1.
    8880023    1    1    2    0    0 -0.15920577161E+03 -0.18375401566E+02  0.10725414997E+04  0.12687945491E+04  0.65864270000E+03 0. -1.
    8880022    1    1    2    0    0  0.15920577161E+03  0.18375401566E+02 -0.56882932256E+03  0.61044457924E+03  0.15294330000E+03 0.  0.
<mgrwt>
<rscale>  0 0.51252313E+03</rscale>
<asrwt>0</asrwt>
<pdfrwt beam="1">  1        2 0.18330395E+00 0.67786012E+03</pdfrwt>
<pdfrwt beam="2">  1       -2 0.10580977E+00 0.67786012E+03</pdfrwt>
<totfact> 0.14224883E+01</totfact>
</mgrwt>
</event>
<event>
 4    5  0.6615028E-008  0.2200688E+04  0.7818608E-02  0.8528289E-01
         -2   -1    0    0    0  501 -0.00000000000E+00  0.00000000000E+00  0.16072404203E+04  0.16072404203E+04  0.25500000000E-02 0.  1.
          2   -1    0    0  501    0  0.00000000000E+00 -0.00000000000E+00 -0.35823475136E+04  0.35823475136E+04  0.25500000000E-02 0. -1.
    8880023    1    1    2    0    0 -0.15861915878E+04  0.13759413213E+04 -0.21504476398E+04  0.30769227372E+04  0.65864270000E+03 0. -1.
    8880022    1    1    2    0    0  0.15861915878E+04 -0.13759413213E+04  0.17534054649E+03  0.21126651967E+04  0.15294330000E+03 0.  1.
<mgrwt>
<rscale>  0 0.21764632E+04</rscale>
<asrwt>0</asrwt>
<pdfrwt beam="1">  1        2 0.55113038E+00 0.22006882E+04</pdfrwt>
<pdfrwt beam="2">  1       -2 0.24726776E+00 0.22006882E+04</pdfrwt>
<totfact> 0.41326162E-02</totfact>
</mgrwt>
</event>
<event>
 4    5  0.6615028E-008  0.6826018E+03  0.7818608E-02  0.1007889E+00
          2   -1    0    0  501    0  0.00000000000E+00  0.00000000000E+00  0.41706431807E+04  0.41706431807E+04  0.25500000000E-02 0. -1.
         -2   -1    0    0    0  501 -0.00000000000E+00 -0.00000000000E+00 -0.89339192313E+02  0.89339192349E+02  0.25500000000E-02 0.  1.
    8880023    1    1    2    0    0  0.17833552143E+03 -0.18207247181E+02  0.39087824290E+04  0.39679371650E+04  0.65864270000E+03 0.  0.
    8880022    1    1    2    0    0 -0.17833552143E+03  0.18207247181E+02  0.17252155934E+03  0.29204520798E+03  0.15294330000E+03 0.  0.
<mgrwt>
<rscale>  0 0.52322482E+03</rscale>
<asrwt>0</asrwt>
<pdfrwt beam="1">  1        2 0.64163735E+00 0.68260184E+03</pdfrwt>
<pdfrwt beam="2">  1       -2 0.13744493E-01 0.68260184E+03</pdfrwt>
<totfact> 0.11277212E+01</totfact>
</mgrwt>
</event>
<event>
 4    5  0.6615028E-008  0.1038195E+04  0.7818608E-02  0.9333209E-01
         -2   -1    0    0    0  501 -0.00000000000E+00  0.00000000000E+00  0.73042734882E+03  0.73042734883E+03  0.25500000000E-02 0.  1.
          2   -1    0    0  501    0  0.00000000000E+00 -0.00000000000E+00 -0.32271714349E+04  0.32271714349E+04  0.25500000000E-02 0. -1.
    8880023    1    1    2    0    0  0.55014493048E+03 -0.58427615692E+03 -0.28754463638E+04  0.30571293838E+04  0.65864270000E+03 0. -1.
    8880022    1    1    2    0    0 -0.55014493048E+03  0.58427615692E+03  0.37870227769E+03  0.90046939994E+03  0.15294330000E+03 0.  0.
<mgrwt>
<rscale>  0 0.97782200E+03</rscale>
<asrwt>0</asrwt>
<pdfrwt beam="1">  1        2 0.49648791E+00 0.10381947E+04</pdfrwt>
<pdfrwt beam="2">  1       -2 0.11237344E+00 0.10381947E+04</pdfrwt>
<totfact> 0.79034608E-01</totfact>
</mgrwt>
</event>
<event>
 4    5  0.6615028E-008  0.9202979E+03  0.7818608E-02  0.9494202E-01
         -2   -1    0    0    0  501 -0.00000000000E+00  0.00000000000E+00  0.25781776109E+04  0.25781776109E+04  0.25500000000E-02 0.  1.
          2   -1    0    0  501    0  0.00000000000E+00 -0.00000000000E+00 -0.83416338602E+03  0.83416338602E+03  0.25500000000E-02 0. -1.
    8880023    1    1    2    0    0 -0.62172313177E+03 -0.16309012279E+03 -0.51782455879E+03  0.10559784660E+04  0.65864270000E+03 0. -1.
    8880022    1    1    2    0    0  0.62172313177E+03  0.16309012279E+03  0.22618387836E+04  0.23563625309E+04  0.15294330000E+03 0.  0.
<mgrwt>
<rscale>  0 0.84712608E+03</rscale>
<asrwt>0</asrwt>
<pdfrwt beam="1">  1        2 0.12833283E+00 0.92029791E+03</pdfrwt>
<pdfrwt beam="2">  1       -2 0.39664270E+00 0.92029791E+03</pdfrwt>
<totfact> 0.26210830E-01</totfact>
</mgrwt>
</event>
<event>
 4    5  0.6615028E-008  0.1283921E+04  0.7818608E-02  0.9079571E-01
          2   -1    0    0  501    0  0.00000000000E+00  0.00000000000E+00  0.10988813283E+04  0.10988813283E+04  0.25500000000E-02 0. -1.
         -2   -1    0    0    0  501 -0.00000000000E+00 -0.00000000000E+00 -0.14907749956E+04  0.14907749956E+04  0.25500000000E-02 0.  1.
    8880023    1    1    2    0    0  0.91544567174E+03 -0.61367966952E+03  0.24574777252E+03  0.13072282466E+04  0.65864270000E+03 0.  0.
    8880022    1    1    2    0    0 -0.91544567174E+03  0.61367966952E+03 -0.63764143979E+03  0.12824280773E+04  0.15294330000E+03 0.  0.
<mgrwt>
<rscale>  0 0.12387835E+04</rscale>
<asrwt>0</asrwt>
<pdfrwt beam="1">  1        2 0.16905867E+00 0.12839212E+04</pdfrwt>
<pdfrwt beam="2">  1       -2 0.22935000E+00 0.12839212E+04</pdfrwt>
<totfact> 0.18159408E+00</totfact>
</mgrwt>
</event>
<event>
 4    5  0.6615028E-008  0.7601285E+03  0.7818608E-02  0.9804775E-01
         -2   -1    0    0    0  501 -0.00000000000E+00  0.00000000000E+00  0.16759038450E+04  0.16759038450E+04  0.25500000000E-02 0.  1.
          2   -1    0    0  501    0  0.00000000000E+00 -0.00000000000E+00 -0.49632064807E+03  0.49632064808E+03  0.25500000000E-02 0. -1.
    8880023    1    1    2    0    0 -0.29227090881E+03  0.24199763580E+03 -0.15549366057E+03  0.77586959253E+03  0.65864270000E+03 0.  0.
    8880022    1    1    2    0    0  0.29227090881E+03 -0.24199763580E+03  0.13350768575E+04  0.13963549006E+04  0.15294330000E+03 0.  0.
<mgrwt>
<rscale>  0 0.65106923E+03</rscale>
<asrwt>0</asrwt>
<pdfrwt beam="1">  1        2 0.76357023E-01 0.76012851E+03</pdfrwt>
<pdfrwt beam="2">  1       -2 0.25783136E+00 0.76012851E+03</pdfrwt>
<totfact> 0.36785938E+00</totfact>
</mgrwt>
</event>
<event>
 4    5  0.6615028E-008  0.9088143E+03  0.7818608E-02  0.9512027E-01
          2   -1    0    0  501    0  0.00000000000E+00  0.00000000000E+00  0.68337154507E+03  0.68337154508E+03  0.25500000000E-02 0. -1.
         -2   -1    0    0    0  501 -0.00000000000E+00 -0.00000000000E+00 -0.17893977319E+04  0.17893977319E+04  0.25500000000E-02 0.  1.
    8880023    1    1    2    0    0 -0.49391818851E+03  0.38493902576E+03  0.27433070717E+03  0.94931595039E+03  0.65864270000E+03 0. -1.
    8880022    1    1    2    0    0  0.49391818851E+03 -0.38493902576E+03 -0.13803568940E+04  0.15234533266E+04  0.15294330000E+03 0.  0.
<mgrwt>
<rscale>  0 0.83402870E+03</rscale>
<asrwt>0</asrwt>
<pdfrwt beam="1">  1        2 0.10513408E+00 0.90881430E+03</pdfrwt>
<pdfrwt beam="2">  1       -2 0.27529196E+00 0.90881430E+03</pdfrwt>
<totfact> 0.19252601E+00</totfact>
</mgrwt>
</event>
<event>
 4    5  0.6615028E-008  0.1334629E+04  0.7818608E-02  0.9036218E-01
          2   -1    0    0  501    0  0.00000000000E+00  0.00000000000E+00  0.18461409283E+04  0.18461409283E+04  0.25500000000E-02 0. -1.
         -2   -1    0    0    0  501 -0.00000000000E+00 -0.00000000000E+00 -0.10950478266E+04  0.10950478266E+04  0.25500000000E-02 0.  1.
    8880023    1    1    2    0    0  0.10751315273E+04 -0.43762548951E+03  0.10890452888E+04  0.17225718323E+04  0.65864270000E+03 0. -1.
    8880022    1    1    2    0    0 -0.10751315273E+04  0.43762548951E+03 -0.33795218712E+03  0.12186169226E+04  0.15294330000E+03 0.  0.
<mgrwt>
<rscale>  0 0.12916438E+04</rscale>
<asrwt>0</asrwt>
<pdfrwt beam="1">  1        2 0.28402168E+00 0.13346288E+04</pdfrwt>
<pdfrwt beam="2">  1       -2 0.16846890E+00 0.13346288E+04</pdfrwt>
<totfact> 0.17026459E+00</totfact>
</mgrwt>
</event>
<event>
 4    5  0.6615028E-008  0.1336623E+04  0.7818608E-02  0.9034561E-01
         -2   -1    0    0    0  501 -0.00000000000E+00  0.00000000000E+00  0.10117726275E+04  0.10117726275E+04  0.25500000000E-02 0.  1.
          2   -1    0    0  501    0  0.00000000000E+00 -0.00000000000E+00 -0.18786762482E+04  0.18786762482E+04  0.25500000000E-02 0. -1.
    8880023    1    1    2    0    0  0.39734412343E+02  0.11623996907E+04 -0.10544287489E+04  0.17024635260E+04  0.65864270000E+03 0. -1.
    8880022    1    1    2    0    0 -0.39734412343E+02 -0.11623996907E+04  0.18752512831E+03  0.11879853497E+04  0.15294330000E+03 0.  0.
<mgrwt>
<rscale>  0 0.12937184E+04</rscale>
<asrwt>0</asrwt>
<pdfrwt beam="1">  1        2 0.28902712E+00 0.13366234E+04</pdfrwt>
<pdfrwt beam="2">  1       -2 0.15565733E+00 0.13366234E+04</pdfrwt>
<totfact> 0.20302335E+00</totfact>
</mgrwt>
</event>
<event>
 4    5  0.6615028E-008  0.9273614E+03  0.7818608E-02  0.9483463E-01
          2   -1    0    0  501    0  0.00000000000E+00  0.00000000000E+00  0.19574603235E+04  0.19574603235E+04  0.25500000000E-02 0. -1.
         -2   -1    0    0    0  501 -0.00000000000E+00 -0.00000000000E+00 -0.61887005820E+03  0.61887005820E+03  0.25500000000E-02 0.  1.
    8880023    1    1    2    0    0 -0.62679170800E+03  0.18254089414E+03  0.16059580755E+04  0.18544812132E+04  0.65864270000E+03 0.  0.
    8880022    1    1    2    0    0  0.62679170800E+03 -0.18254089414E+03 -0.26736781020E+03  0.72184916859E+03  0.15294330000E+03 0.  0.
<mgrwt>
<rscale>  0 0.85514100E+03</rscale>
<asrwt>0</asrwt>
<pdfrwt beam="1">  1        2 0.30114774E+00 0.92736143E+03</pdfrwt>
<pdfrwt beam="2">  1       -2 0.95210779E-01 0.92736143E+03</pdfrwt>
<totfact> 0.66019162E+00</totfact>
</mgrwt>
</event>
<event>
 4    5  0.6615028E-008  0.1270170E+04  0.7818608E-02  0.9091757E-01
         -2   -1    0    0    0  501 -0.00000000000E+00  0.00000000000E+00  0.78912592435E+03  0.78912592435E+03  0.25500000000E-02 0.  1.
          2   -1    0    0  501    0  0.00000000000E+00 -0.00000000000E+00 -0.23649726248E+04  0.23649726248E+04  0.25500000000E-02 0. -1.
    8880023    1    1    2    0    0 -0.73883814537E+03  0.79601528180E+03 -0.16174091433E+04  0.20565370595E+04  0.65864270000E+03 0.  0.
    8880022    1    1    2    0    0  0.73883814537E+03 -0.79601528180E+03  0.41562442856E+02  0.10975614897E+04  0.15294330000E+03 0.  0.
<mgrwt>
<rscale>  0 0.12244069E+04</rscale>
<asrwt>0</asrwt>
<pdfrwt beam="1">  1        2 0.36384194E+00 0.12701702E+04</pdfrwt>
<pdfrwt beam="2">  1       -2 0.12140399E+00 0.12701702E+04</pdfrwt>
<totfact> 0.20859287E+00</totfact>
</mgrwt>
</event>
<event>
 4    5  0.6615028E-008  0.9357041E+03  0.7818608E-02  0.9470988E-01
          2   -1    0    0  501    0  0.00000000000E+00  0.00000000000E+00  0.29135936842E+04  0.29135936842E+04  0.25500000000E-02 0. -1.
         -2   -1    0    0    0  501 -0.00000000000E+00 -0.00000000000E+00 -0.67544890697E+03  0.67544890698E+03  0.25500000000E-02 0.  1.
    8880023    1    1    2    0    0  0.60316024451E+03 -0.27915885549E+03 -0.28277515006E+03  0.97749881786E+03  0.65864270000E+03 0.  0.
    8880022    1    1    2    0    0 -0.60316024451E+03  0.27915885549E+03  0.25209199273E+04  0.26115437734E+04  0.15294330000E+03 0.  0.
<mgrwt>
<rscale>  0 0.86456957E+03</rscale>
<asrwt>0</asrwt>
<pdfrwt beam="1">  1        2 0.44824518E+00 0.93570410E+03</pdfrwt>
<pdfrwt beam="2">  1       -2 0.10391522E+00 0.93570410E+03</pdfrwt>
<totfact> 0.15265648E+00</totfact>
</mgrwt>
</event>
<event>
 4    5  0.6615028E-008  0.9185240E+03  0.7818608E-02  0.9496926E-01
         -2   -1    0    0    0  501 -0.00000000000E+00  0.00000000000E+00  0.62620295938E+03  0.62620295938E+03  0.25500000000E-02 0.  1.
          2   -1    0    0  501    0  0.00000000000E+00 -0.00000000000E+00 -0.14000827597E+04  0.14000827597E+04  0.25500000000E-02 0. -1.
    8880023    1    1    2    0    0  0.42971171052E+03  0.47457762906E+03 -0.97352342018E+03  0.13384446705E+04  0.65864270000E+03 0. -1.
    8880022    1    1    2    0    0 -0.42971171052E+03 -0.47457762906E+03  0.19964361983E+03  0.68784104858E+03  0.15294330000E+03 0.  0.
<mgrwt>
<rscale>  0 0.84510839E+03</rscale>
<asrwt>0</asrwt>
<pdfrwt beam="1">  1        2 0.21539735E+00 0.91852397E+03</pdfrwt>
<pdfrwt beam="2">  1       -2 0.96338917E-01 0.91852397E+03</pdfrwt>
<totfact> 0.13091787E+01</totfact>
</mgrwt>
</event>
<event>
 4    5  0.6615028E-008  0.7160163E+03  0.7818608E-02  0.9936303E-01
          2   -1    0    0  501    0  0.00000000000E+00  0.00000000000E+00  0.27808514253E+04  0.27808514253E+04  0.25500000000E-02 0. -1.
         -2   -1    0    0    0  501 -0.00000000000E+00 -0.00000000000E+00 -0.10863547796E+03  0.10863547799E+03  0.25500000000E-02 0.  1.
    8880023    1    1    2    0    0 -0.27361054102E+03 -0.63296675060E+02  0.13386062458E+04  0.15180731487E+04  0.65864270000E+03 0.  1.
    8880022    1    1    2    0    0  0.27361054102E+03  0.63296675060E+02  0.13336097016E+04  0.13714137546E+04  0.15294330000E+03 0.  0.
<mgrwt>
<rscale>  0 0.58533686E+03</rscale>
<asrwt>0</asrwt>
<pdfrwt beam="1">  1        2 0.42782325E+00 0.71601634E+03</pdfrwt>
<pdfrwt beam="2">  1       -2 0.16713152E-01 0.71601634E+03</pdfrwt>
<totfact> 0.72816446E+01</totfact>
</mgrwt>
</event>
<event>
 4    5  0.6615028E-008  0.9651818E+03  0.7818608E-02  0.9428599E-01
         -2   -1    0    0    0  501 -0.00000000000E+00  0.00000000000E+00  0.61293589477E+03  0.61293589478E+03  0.25500000000E-02 0.  1.
          2   -1    0    0  501    0  0.00000000000E+00 -0.00000000000E+00 -0.33184363618E+04  0.33184363618E+04  0.25500000000E-02 0. -1.
    8880023    1    1    2    0    0 -0.55905998803E+03 -0.43036917186E+03 -0.30001960292E+04  0.31516268996E+04  0.65864270000E+03 0.  0.
    8880022    1    1    2    0    0  0.55905998803E+03  0.43036917186E+03  0.29469556220E+03  0.77974535696E+03  0.15294330000E+03 0.  0.
<mgrwt>
<rscale>  0 0.89758989E+03</rscale>
<asrwt>0</asrwt>
<pdfrwt beam="1">  1        2 0.51052866E+00 0.96518180E+03</pdfrwt>
<pdfrwt beam="2">  1       -2 0.94297832E-01 0.96518180E+03</pdfrwt>
<totfact> 0.10624158E+00</totfact>
</mgrwt>
</event>
<event>
 4    5  0.6615028E-008  0.7141172E+03  0.7818608E-02  0.9943018E-01
          2   -1    0    0  501    0  0.00000000000E+00  0.00000000000E+00  0.26313081628E+03  0.26313081629E+03  0.25500000000E-02 0. -1.
         -2   -1    0    0    0  501 -0.00000000000E+00 -0.00000000000E+00 -0.14514637119E+04  0.14514637119E+04  0.25500000000E-02 0.  1.
    8880023    1    1    2    0    0 -0.14753473118E+02  0.27556402466E+03 -0.30484873042E+03  0.77646387640E+03  0.65864270000E+03 0.  0.
    8880022    1    1    2    0    0  0.14753473118E+02 -0.27556402466E+03 -0.88348416522E+03  0.93813065181E+03  0.15294330000E+03 0.  0.
<mgrwt>
<rscale>  0 0.58220976E+03</rscale>
<asrwt>0</asrwt>
<pdfrwt beam="1">  1        2 0.40481665E-01 0.71411722E+03</pdfrwt>
<pdfrwt beam="2">  1       -2 0.22330210E+00 0.71411722E+03</pdfrwt>
<totfact> 0.12267399E+01</totfact>
</mgrwt>
</event>
<event>
 4    5  0.6615028E-008  0.6828558E+03  0.7818608E-02  0.1007752E+00
         -2   -1    0    0    0  501 -0.00000000000E+00  0.00000000000E+00  0.53842566048E+03  0.53842566049E+03  0.25500000000E-02 0.  1.
          2   -1    0    0  501    0  0.00000000000E+00 -0.00000000000E+00 -0.18859399969E+04  0.18859399969E+04  0.25500000000E-02 0. -1.
    8880023    1    1    2    0    0  0.15819555676E+03 -0.86348237275E+02 -0.17937828507E+04  0.19193616058E+04  0.65864270000E+03 0. -1.
    8880022    1    1    2    0    0 -0.15819555676E+03  0.86348237275E+02  0.44626851426E+03  0.50500405156E+03  0.15294330000E+03 0.  0.
<mgrwt>
<rscale>  0 0.52377829E+03</rscale>
<asrwt>0</asrwt>
<pdfrwt beam="1">  1        2 0.29014461E+00 0.68285581E+03</pdfrwt>
<pdfrwt beam="2">  1       -2 0.82834718E-01 0.68285581E+03</pdfrwt>
<totfact> 0.10307763E+01</totfact>
</mgrwt>
</event>
<event>
 4    5  0.6615028E-008  0.1000868E+04  0.7818608E-02  0.9380422E-01
         -2   -1    0    0    0  501 -0.00000000000E+00  0.00000000000E+00  0.84473968986E+03  0.84473968986E+03  0.25500000000E-02 0.  1.
          2   -1    0    0  501    0  0.00000000000E+00 -0.00000000000E+00 -0.10818094005E+04  0.10818094005E+04  0.25500000000E-02 0. -1.
    8880023    1    1    2    0    0 -0.84808027728E+02  0.74882243375E+03  0.22984693574E+03  0.10269212526E+04  0.65864270000E+03 0.  1.
    8880022    1    1    2    0    0  0.84808027728E+02 -0.74882243375E+03 -0.46691664639E+03  0.89962783780E+03  0.15294330000E+03 0.  0.
<mgrwt>
<rscale>  0 0.93704508E+03</rscale>
<asrwt>0</asrwt>
<pdfrwt beam="1">  1        2 0.16643222E+00 0.10008684E+04</pdfrwt>
<pdfrwt beam="2">  1       -2 0.12995995E+00 0.10008684E+04</pdfrwt>
<totfact> 0.96396789E+00</totfact>
</mgrwt>
</event>
<event>
 4    5  0.6615028E-008  0.1477039E+04  0.7818608E-02  0.8926022E-01
          2   -1    0    0  501    0  0.00000000000E+00  0.00000000000E+00  0.17649834118E+04  0.17649834118E+04  0.25500000000E-02 0. -1.
         -2   -1    0    0    0  501 -0.00000000000E+00 -0.00000000000E+00 -0.14007770958E+04  0.14007770958E+04  0.25500000000E-02 0.  1.
    8880023    1    1    2    0    0  0.13054380247E+04 -0.20896268542E+03 -0.52229483761E+03  0.15666639537E+04  0.65864270000E+03 0.  0.
    8880022    1    1    2    0    0 -0.13054380247E+04  0.20896268542E+03  0.88650115367E+03  0.15990965539E+04  0.15294330000E+03 0.  0.
<mgrwt>
<rscale>  0 0.14390576E+04</rscale>
<asrwt>0</asrwt>
<pdfrwt beam="1">  1        2 0.27153591E+00 0.14770389E+04</pdfrwt>
<pdfrwt beam="2">  1       -2 0.21550417E+00 0.14770389E+04</pdfrwt>
<totfact> 0.89693632E-01</totfact>
</mgrwt>
</event>
<event>
 4    5  0.6615028E-008  0.9076013E+03  0.7818608E-02  0.9513938E-01
          2   -1    0    0  501    0  0.00000000000E+00  0.00000000000E+00  0.34205376355E+04  0.34205376355E+04  0.25500000000E-02 0. -1.
         -2   -1    0    0    0  501 -0.00000000000E+00 -0.00000000000E+00 -0.10767661957E+04  0.10767661957E+04  0.25500000000E-02 0.  1.
    8880023    1    1    2    0    0  0.60948400194E+03  0.13586481516E+03  0.32566526925E+04  0.33807583413E+04  0.65864270000E+03 0.  0.
    8880022    1    1    2    0    0 -0.60948400194E+03 -0.13586481516E+03 -0.91288125266E+03  0.11165454899E+04  0.15294330000E+03 0.  0.
<mgrwt>
<rscale>  0 0.83264019E+03</rscale>
<asrwt>0</asrwt>
<pdfrwt beam="1">  1        2 0.52623655E+00 0.90760135E+03</pdfrwt>
<pdfrwt beam="2">  1       -2 0.16565634E+00 0.90760135E+03</pdfrwt>
<totfact> 0.22150358E-01</totfact>
</mgrwt>
</event>
<event>
 4    5  0.6615028E-008  0.1715259E+04  0.7818608E-02  0.8770919E-01
         -2   -1    0    0    0  501 -0.00000000000E+00  0.00000000000E+00  0.19704443227E+04  0.19704443227E+04  0.25500000000E-02 0.  1.
          2   -1    0    0  501    0  0.00000000000E+00 -0.00000000000E+00 -0.20228574406E+04  0.20228574406E+04  0.25500000000E-02 0. -1.
    8880023    1    1    2    0    0  0.48964544838E+03  0.15061707930E+04 -0.11457559488E+04  0.20627336288E+04  0.65864270000E+03 0.  0.
    8880022    1    1    2    0    0 -0.48964544838E+03 -0.15061707930E+04  0.10933428309E+04  0.19305681345E+04  0.15294330000E+03 0.  0.
<mgrwt>
<rscale>  0 0.16833472E+04</rscale>
<asrwt>0</asrwt>
<pdfrwt beam="1">  1        2 0.31120884E+00 0.17152590E+04</pdfrwt>
<pdfrwt beam="2">  1       -2 0.30314528E+00 0.17152590E+04</pdfrwt>
<totfact> 0.18060483E-01</totfact>
</mgrwt>
</event>
<event>
 4    5  0.6615028E-008  0.1519664E+04  0.7818608E-02  0.8895874E-01
         -2   -1    0    0    0  501 -0.00000000000E+00  0.00000000000E+00  0.27229402636E+04  0.27229402636E+04  0.25500000000E-02 0.  1.
          2   -1    0    0  501    0  0.00000000000E+00 -0.00000000000E+00 -0.11780215174E+04  0.11780215174E+04  0.25500000000E-02 0. -1.
    8880023    1    1    2    0    0 -0.81813653175E+03 -0.10982804686E+04 -0.34855532279E+03  0.15591242386E+04  0.65864270000E+03 0.  0.
    8880022    1    1    2    0    0  0.81813653175E+03  0.10982804686E+04  0.18934740689E+04  0.23418375424E+04  0.15294330000E+03 0.  0.
<mgrwt>
<rscale>  0 0.14829450E+04</rscale>
<asrwt>0</asrwt>
<pdfrwt beam="1">  1        2 0.18123408E+00 0.15196636E+04</pdfrwt>
<pdfrwt beam="2">  1       -2 0.41891389E+00 0.15196636E+04</pdfrwt>
<totfact> 0.10275731E-01</totfact>
</mgrwt>
</event>
<event>
 4    5  0.6615028E-008  0.1397033E+04  0.7818608E-02  0.8985991E-01
         -2   -1    0    0    0  501 -0.00000000000E+00  0.00000000000E+00  0.16613792080E+04  0.16613792080E+04  0.25500000000E-02 0.  1.
          2   -1    0    0  501    0  0.00000000000E+00 -0.00000000000E+00 -0.12773098922E+04  0.12773098922E+04  0.25500000000E-02 0. -1.
    8880023    1    1    2    0    0 -0.10917582022E+04  0.57092553284E+03 -0.42091630779E+03  0.14590656876E+04  0.65864270000E+03 0.  1.
    8880022    1    1    2    0    0  0.10917582022E+04 -0.57092553284E+03  0.80498562354E+03  0.14796234127E+04  0.15294330000E+03 0.  0.
<mgrwt>
<rscale>  0 0.13564082E+04</rscale>
<asrwt>0</asrwt>
<pdfrwt beam="1">  1        2 0.19650921E+00 0.13970333E+04</pdfrwt>
<pdfrwt beam="2">  1       -2 0.25559680E+00 0.13970333E+04</pdfrwt>
<totfact> 0.96368842E-01</totfact>
</mgrwt>
</event>
<event>
 4    5  0.6615028E-008  0.8818805E+03  0.7818608E-02  0.9555769E-01
         -2   -1    0    0    0  501 -0.00000000000E+00  0.00000000000E+00  0.89266581419E+03  0.89266581419E+03  0.25500000000E-02 0.  1.
          2   -1    0    0  501    0  0.00000000000E+00 -0.00000000000E+00 -0.17185030030E+04  0.17185030030E+04  0.25500000000E-02 0. -1.
    8880023    1    1    2    0    0  0.34790017052E+03 -0.47208944763E+03 -0.14778606926E+04  0.17209838489E+04  0.65864270000E+03 0. -1.
    8880022    1    1    2    0    0 -0.34790017052E+03  0.47208944763E+03  0.65202350380E+03  0.89018496827E+03  0.15294330000E+03 0.  0.
<mgrwt>
<rscale>  0 0.80294190E+03</rscale>
<asrwt>0</asrwt>
<pdfrwt beam="1">  1        2 0.26438508E+00 0.88188048E+03</pdfrwt>
<pdfrwt beam="2">  1       -2 0.13733320E+00 0.88188048E+03</pdfrwt>
<totfact> 0.36523963E+00</totfact>
</mgrwt>
</event>
<event>
 4    5  0.6615028E-008  0.7604393E+03  0.7818608E-02  0.9803972E-01
          2   -1    0    0  501    0  0.00000000000E+00  0.00000000000E+00  0.40855962281E+03  0.40855962282E+03  0.25500000000E-02 0. -1.
         -2   -1    0    0    0  501 -0.00000000000E+00 -0.00000000000E+00 -0.95370887802E+03  0.95370887802E+03  0.25500000000E-02 0.  1.
    8880023    1    1    2    0    0 -0.26411826465E+03  0.27331160942E+03 -0.57221442597E+03  0.95168127497E+03  0.65864270000E+03 0.  0.
    8880022    1    1    2    0    0  0.26411826465E+03 -0.27331160942E+03  0.27065170768E+02  0.41058722587E+03  0.15294330000E+03 0.  0.
<mgrwt>
<rscale>  0 0.65149842E+03</rscale>
<asrwt>0</asrwt>
<pdfrwt beam="1">  1        2 0.62855327E-01 0.76043928E+03</pdfrwt>
<pdfrwt beam="2">  1       -2 0.14672444E+00 0.76043928E+03</pdfrwt>
<totfact> 0.24953693E+01</totfact>
</mgrwt>
</event>
<event>
 4    5  0.6615028E-008  0.1814170E+04  0.7818608E-02  0.8714738E-01
          2   -1    0    0  501    0  0.00000000000E+00  0.00000000000E+00  0.21161554215E+04  0.21161554215E+04  0.25500000000E-02 0. -1.
         -2   -1    0    0    0  501 -0.00000000000E+00 -0.00000000000E+00 -0.17991413964E+04  0.17991413964E+04  0.25500000000E-02 0.  1.
    8880023    1    1    2    0    0 -0.95307068663E+03  0.13960871431E+04  0.10164776892E+04  0.20795288274E+04  0.65864270000E+03 0. -1.
    8880022    1    1    2    0    0  0.95307068663E+03 -0.13960871431E+04 -0.69946366414E+03  0.18357679906E+04  0.15294330000E+03 0.  0.
<mgrwt>
<rscale>  0 0.17842165E+04</rscale>
<asrwt>0</asrwt>
<pdfrwt beam="1">  1        2 0.32556237E+00 0.18141701E+04</pdfrwt>
<pdfrwt beam="2">  1       -2 0.27679098E+00 0.18141701E+04</pdfrwt>
<totfact> 0.22980384E-01</totfact>
</mgrwt>
</event>
<event>
 4    5  0.6615028E-008  0.1060760E+04  0.7818608E-02  0.9306056E-01
          2   -1    0    0  501    0  0.00000000000E+00  0.00000000000E+00  0.60935424124E+03  0.60935424124E+03  0.25500000000E-02 0. -1.
         -2   -1    0    0    0  501 -0.00000000000E+00 -0.00000000000E+00 -0.17177683324E+04  0.17177683324E+04  0.25500000000E-02 0.  1.
    8880023    1    1    2    0    0  0.82402142175E+03 -0.11131507337E+03 -0.10291522262E+04  0.14779603716E+04  0.65864270000E+03 0.  0.
    8880022    1    1    2    0    0 -0.82402142175E+03  0.11131507337E+03 -0.79261864913E+02  0.84916220200E+03  0.15294330000E+03 0.  0.
<mgrwt>
<rscale>  0 0.10022719E+04</rscale>
<asrwt>0</asrwt>
<pdfrwt beam="1">  1        2 0.93746808E-01 0.10607604E+04</pdfrwt>
<pdfrwt beam="2">  1       -2 0.26427205E+00 0.10607604E+04</pdfrwt>
<totfact> 0.25422877E+00</totfact>
</mgrwt>
</event>
<event>
 4    5  0.6615028E-008  0.8376153E+03  0.7818608E-02  0.9634693E-01
         -2   -1    0    0    0  501 -0.00000000000E+00  0.00000000000E+00  0.99393752556E+03  0.99393752557E+03  0.25500000000E-02 0.  1.
          2   -1    0    0  501    0  0.00000000000E+00 -0.00000000000E+00 -0.22991771004E+04  0.22991771004E+04  0.25500000000E-02 0. -1.
    8880023    1    1    2    0    0 -0.51748186513E+03 -0.13147769454E+01 -0.21405893251E+04  0.22986348284E+04  0.65864270000E+03 0. -1.
    8880022    1    1    2    0    0  0.51748186513E+03  0.13147769454E+01  0.83534975029E+03  0.99447979754E+03  0.15294330000E+03 0.  0.
<mgrwt>
<rscale>  0 0.75041898E+03</rscale>
<asrwt>0</asrwt>
<pdfrwt beam="1">  1        2 0.35371955E+00 0.83761531E+03</pdfrwt>
<pdfrwt beam="2">  1       -2 0.15291347E+00 0.83761531E+03</pdfrwt>
<totfact> 0.13295490E+00</totfact>
</mgrwt>
</event>
<event>
 4    5  0.6615028E-008  0.9254657E+03  0.7818608E-02  0.9486329E-01
         -2   -1    0    0    0  501 -0.00000000000E+00  0.00000000000E+00  0.16106258884E+04  0.16106258884E+04  0.25500000000E-02 0.  1.
          2   -1    0    0  501    0  0.00000000000E+00 -0.00000000000E+00 -0.84831805069E+03  0.84831805070E+03  0.25500000000E-02 0. -1.
    8880023    1    1    2    0    0  0.61617219207E+03 -0.20738472647E+03 -0.48442627456E+03  0.10445839444E+04  0.65864270000E+03 0. -1.
    8880022    1    1    2    0    0 -0.61617219207E+03  0.20738472647E+03  0.12467341123E+04  0.14143599948E+04  0.15294330000E+03 0.  0.
<mgrwt>
<rscale>  0 0.85299290E+03</rscale>
<asrwt>0</asrwt>
<pdfrwt beam="1">  1        2 0.13051047E+00 0.92546572E+03</pdfrwt>
<pdfrwt beam="2">  1       -2 0.24778860E+00 0.92546572E+03</pdfrwt>
<totfact> 0.21233668E+00</totfact>
</mgrwt>
</event>
<event>
 4    5  0.6615028E-008  0.7477853E+03  0.7818608E-02  0.9837823E-01
          2   -1    0    0  501    0  0.00000000000E+00  0.00000000000E+00  0.27397956130E+04  0.27397956130E+04  0.25500000000E-02 0. -1.
         -2   -1    0    0    0  501 -0.00000000000E+00 -0.00000000000E+00 -0.34852563651E+03  0.34852563652E+03  0.25500000000E-02 0.  1.
    8880023    1    1    2    0    0  0.10480298645E+03 -0.33821438863E+03  0.25602566840E+04  0.26672264870E+04  0.65864270000E+03 0. -1.
    8880022    1    1    2    0    0 -0.10480298645E+03  0.33821438863E+03 -0.16898670757E+03  0.42109476249E+03  0.15294330000E+03 0.  0.
<mgrwt>
<rscale>  0 0.63371652E+03</rscale>
<asrwt>0</asrwt>
<pdfrwt beam="1">  1        2 0.42150702E+00 0.74778529E+03</pdfrwt>
<pdfrwt beam="2">  1       -2 0.53619329E-01 0.74778529E+03</pdfrwt>
<totfact> 0.87036351E+00</totfact>
</mgrwt>
</event>
<event>
 4    5  0.6615028E-008  0.1372602E+04  0.7818608E-02  0.9005269E-01
          2   -1    0    0  501    0  0.00000000000E+00  0.00000000000E+00  0.19441670993E+04  0.19441670993E+04  0.25500000000E-02 0. -1.
         -2   -1    0    0    0  501 -0.00000000000E+00 -0.00000000000E+00 -0.21731688852E+04  0.21731688852E+04  0.25500000000E-02 0.  1.
    8880023    1    1    2    0    0  0.72870581924E+03  0.95875661485E+03  0.14816482531E+04  0.20197322024E+04  0.65864270000E+03 0.  0.
    8880022    1    1    2    0    0 -0.72870581924E+03 -0.95875661485E+03 -0.17106500390E+04  0.20976037821E+04  0.15294330000E+03 0.  0.
<mgrwt>
<rscale>  0 0.13310875E+04</rscale>
<asrwt>0</asrwt>
<pdfrwt beam="1">  1        2 0.29910263E+00 0.13726021E+04</pdfrwt>
<pdfrwt beam="2">  1       -2 0.33433368E+00 0.13726021E+04</pdfrwt>
<totfact> 0.13370188E-01</totfact>
</mgrwt>
</event>
<event>
 4    5  0.6615028E-008  0.1628971E+04  0.7818608E-02  0.8823555E-01
          2   -1    0    0  501    0  0.00000000000E+00  0.00000000000E+00  0.31344889486E+04  0.31344889486E+04  0.25500000000E-02 0. -1.
         -2   -1    0    0    0  501 -0.00000000000E+00 -0.00000000000E+00 -0.98474659403E+03  0.98474659404E+03  0.25500000000E-02 0.  1.
    8880023    1    1    2    0    0 -0.42624632923E+03 -0.14276034562E+04  0.20497269507E+04  0.26181918073E+04  0.65864270000E+03 0.  0.
    8880022    1    1    2    0    0  0.42624632923E+03  0.14276034562E+04  0.10001540384E+03  0.15010437353E+04  0.15294330000E+03 0.  0.
<mgrwt>
<rscale>  0 0.15951146E+04</rscale>
<asrwt>0</asrwt>
<pdfrwt beam="1">  1        2 0.48222907E+00 0.16289714E+04</pdfrwt>
<pdfrwt beam="2">  1       -2 0.15149948E+00 0.16289714E+04</pdfrwt>
<totfact> 0.39023460E-01</totfact>
</mgrwt>
</event>
<event>
 4    5  0.6615028E-008  0.8182247E+03  0.7818608E-02  0.9672693E-01
         -2   -1    0    0    0  501 -0.00000000000E+00  0.00000000000E+00  0.95753342561E+03  0.95753342561E+03  0.25500000000E-02 0.  1.
          2   -1    0    0  501    0  0.00000000000E+00 -0.00000000000E+00 -0.31146753404E+04  0.31146753404E+04  0.25500000000E-02 0. -1.
    8880023    1    1    2    0    0  0.23178580651E+03 -0.42656389810E+03 -0.29879080876E+04  0.30979164556E+04  0.65864270000E+03 0. -1.
    8880022    1    1    2    0    0 -0.23178580651E+03  0.42656389810E+03  0.83076617283E+03  0.97429231045E+03  0.15294330000E+03 0.  0.
<mgrwt>
<rscale>  0 0.72666161E+03</rscale>
<asrwt>0</asrwt>
<pdfrwt beam="1">  1        2 0.47918082E+00 0.81822468E+03</pdfrwt>
<pdfrwt beam="2">  1       -2 0.14731284E+00 0.81822468E+03</pdfrwt>
<totfact> 0.48936611E-01</totfact>
</mgrwt>
</event>
<event>
 4    5  0.6615028E-008  0.8104673E+03  0.7818608E-02  0.9688604E-01
          2   -1    0    0  501    0  0.00000000000E+00  0.00000000000E+00  0.24331755676E+04  0.24331755676E+04  0.25500000000E-02 0. -1.
         -2   -1    0    0    0  501 -0.00000000000E+00 -0.00000000000E+00 -0.36529816078E+03  0.36529816079E+03  0.25500000000E-02 0.  1.
    8880023    1    1    2    0    0  0.38955682552E+03 -0.26700670099E+03  0.21478260885E+04  0.22956511519E+04  0.65864270000E+03 0.  0.
    8880022    1    1    2    0    0 -0.38955682552E+03  0.26700670099E+03 -0.79948681670E+02  0.50282257646E+03  0.15294330000E+03 0.  0.
<mgrwt>
<rscale>  0 0.71699357E+03</rscale>
<asrwt>0</asrwt>
<pdfrwt beam="1">  1        2 0.37433469E+00 0.81046734E+03</pdfrwt>
<pdfrwt beam="2">  1       -2 0.56199719E-01 0.81046734E+03</pdfrwt>
<totfact> 0.11720878E+01</totfact>
</mgrwt>
</event>
<event>
 4    5  0.6615028E-008  0.1200171E+04  0.7818608E-02  0.9156956E-01
          2   -1    0    0  501    0  0.00000000000E+00  0.00000000000E+00  0.65193864871E+03  0.65193864872E+03  0.25500000000E-02 0. -1.
         -2   -1    0    0    0  501 -0.00000000000E+00 -0.00000000000E+00 -0.22754006730E+04  0.22754006730E+04  0.25500000000E-02 0.  1.
    8880023    1    1    2    0    0 -0.33913899333E+03  0.94423762323E+03 -0.26064927053E+03  0.12281482787E+04  0.65864270000E+03 0.  0.
    8880022    1    1    2    0    0  0.33913899333E+03 -0.94423762323E+03 -0.13628127537E+04  0.16991910430E+04  0.15294330000E+03 0.  0.
<mgrwt>
<rscale>  0 0.11508972E+04</rscale>
<asrwt>0</asrwt>
<pdfrwt beam="1">  1        2 0.10029825E+00 0.12001709E+04</pdfrwt>
<pdfrwt beam="2">  1       -2 0.35006164E+00 0.12001709E+04</pdfrwt>
<totfact> 0.68772216E-01</totfact>
</mgrwt>
</event>
<event>
 4    5  0.6615028E-008  0.6632596E+03  0.7818608E-02  0.1021040E+00
          2   -1    0    0  501    0  0.00000000000E+00  0.00000000000E+00  0.89279486406E+03  0.89279486406E+03  0.25500000000E-02 0. -1.
         -2   -1    0    0    0  501 -0.00000000000E+00 -0.00000000000E+00 -0.77649345460E+03  0.77649345461E+03  0.25500000000E-02 0.  1.
    8880023    1    1    2    0    0 -0.77009939382E+02  0.13133892353E+02  0.75671543391E+03  0.10062462343E+04  0.65864270000E+03 0. -1.
    8880022    1    1    2    0    0  0.77009939382E+02 -0.13133892353E+02 -0.64041402445E+03  0.66304208435E+03  0.15294330000E+03 0.  0.
<mgrwt>
<rscale>  0 0.47313013E+03</rscale>
<asrwt>0</asrwt>
<pdfrwt beam="1">  1        2 0.13735306E+00 0.66325955E+03</pdfrwt>
<pdfrwt beam="2">  1       -2 0.11946053E+00 0.66325955E+03</pdfrwt>
<totfact> 0.16330358E+01</totfact>
</mgrwt>
</event>
<event>
 4    5  0.6615028E-008  0.6606119E+03  0.7818608E-02  0.1023538E+00
         -2   -1    0    0    0  501 -0.00000000000E+00  0.00000000000E+00  0.32454207213E+03  0.32454207214E+03  0.25500000000E-02 0.  1.
          2   -1    0    0  501    0  0.00000000000E+00 -0.00000000000E+00 -0.27121363133E+04  0.27121363133E+04  0.25500000000E-02 0. -1.
    8880023    1    1    2    0    0  0.24306890236E+02  0.44800101904E+02 -0.26486863987E+04  0.27298255840E+04  0.65864270000E+03 0. -1.
    8880022    1    1    2    0    0 -0.24306890236E+02 -0.44800101904E+02  0.26109215751E+03  0.30685280148E+03  0.15294330000E+03 0.  0.
<mgrwt>
<rscale>  0 0.46431166E+03</rscale>
<asrwt>0</asrwt>
<pdfrwt beam="1">  1        2 0.41725173E+00 0.66061190E+03</pdfrwt>
<pdfrwt beam="2">  1       -2 0.49929551E-01 0.66061190E+03</pdfrwt>
<totfact> 0.10623807E+01</totfact>
</mgrwt>
</event>
<event>
 4    5  0.6615028E-008  0.9310136E+03  0.7818608E-02  0.9477974E-01
         -2   -1    0    0    0  501 -0.00000000000E+00  0.00000000000E+00  0.48933964885E+03  0.48933964885E+03  0.25500000000E-02 0.  1.
          2   -1    0    0  501    0  0.00000000000E+00 -0.00000000000E+00 -0.26357684281E+04  0.26357684281E+04  0.25500000000E-02 0. -1.
    8880023    1    1    2    0    0  0.54957522840E+03  0.36186075689E+03 -0.22561585770E+04  0.24407043799E+04  0.65864270000E+03 0. -1.
    8880022    1    1    2    0    0 -0.54957522840E+03 -0.36186075689E+03  0.10972979776E+03  0.68440369708E+03  0.15294330000E+03 0.  0.
<mgrwt>
<rscale>  0 0.85927346E+03</rscale>
<asrwt>0</asrwt>
<pdfrwt beam="1">  1        2 0.40550283E+00 0.93101361E+03</pdfrwt>
<pdfrwt beam="2">  1       -2 0.75283024E-01 0.93101361E+03</pdfrwt>
<totfact> 0.46976458E+00</totfact>
</mgrwt>
</event>
<event>
 4    5  0.6615028E-008  0.6766235E+03  0.7818608E-02  0.1011302E+00
         -2   -1    0    0    0  501 -0.00000000000E+00  0.00000000000E+00  0.29442845759E+03  0.29442845760E+03  0.25500000000E-02 0.  1.
          2   -1    0    0  501    0  0.00000000000E+00 -0.00000000000E+00 -0.11539176527E+04  0.11539176527E+04  0.25500000000E-02 0. -1.
    8880023    1    1    2    0    0  0.15460812073E+03 -0.10270006068E+02 -0.98653364060E+03  0.11962725335E+04  0.65864270000E+03 0. -1.
    8880022    1    1    2    0    0 -0.15460812073E+03  0.10270006068E+02  0.12704444546E+03  0.25207357687E+03  0.15294330000E+03 0.  0.
<mgrwt>
<rscale>  0 0.50960480E+03</rscale>
<asrwt>0</asrwt>
<pdfrwt beam="1">  1        2 0.17752579E+00 0.67662349E+03</pdfrwt>
<pdfrwt beam="2">  1       -2 0.45296686E-01 0.67662349E+03</pdfrwt>
<totfact> 0.95307366E+01</totfact>
</mgrwt>
</event>
<event>
 4    5  0.6615028E-008  0.1105383E+04  0.7818608E-02  0.9255086E-01
          2   -1    0    0  501    0  0.00000000000E+00  0.00000000000E+00  0.28667061240E+04  0.28667061240E+04  0.25500000000E-02 0. -1.
         -2   -1    0    0    0  501 -0.00000000000E+00 -0.00000000000E+00 -0.11996507777E+04  0.11996507777E+04  0.25500000000E-02 0.  1.
    8880023    1    1    2    0    0  0.76613399578E+03  0.44844223570E+03  0.25658626249E+04  0.27938366012E+04  0.65864270000E+03 0. -1.
    8880022    1    1    2    0    0 -0.76613399578E+03 -0.44844223570E+03 -0.89880727859E+03  0.12725203005E+04  0.15294330000E+03 0.  0.
<mgrwt>
<rscale>  0 0.10502497E+04</rscale>
<asrwt>0</asrwt>
<pdfrwt beam="1">  1        2 0.44103170E+00 0.11053832E+04</pdfrwt>
<pdfrwt beam="2">  1       -2 0.18456166E+00 0.11053832E+04</pdfrwt>
<totfact> 0.35370582E-01</totfact>
</mgrwt>
</event>
<event>
 4    5  0.6615028E-008  0.7227789E+03  0.7818608E-02  0.9913293E-01
          2   -1    0    0  501    0  0.00000000000E+00  0.00000000000E+00  0.22922172008E+04  0.22922172008E+04  0.25500000000E-02 0. -1.
         -2   -1    0    0    0  501 -0.00000000000E+00 -0.00000000000E+00 -0.33125149126E+03  0.33125149127E+03  0.25500000000E-02 0.  1.
    8880023    1    1    2    0    0  0.29737037202E+03  0.13038636038E+02  0.21294703833E+04  0.22487893329E+04  0.65864270000E+03 0. -1.
    8880022    1    1    2    0    0 -0.29737037202E+03 -0.13038636038E+02 -0.16850467367E+03  0.37467935925E+03  0.15294330000E+03 0.  0.
<mgrwt>
<rscale>  0 0.59621362E+03</rscale>
<asrwt>0</asrwt>
<pdfrwt beam="1">  1        2 0.35264879E+00 0.72277891E+03</pdfrwt>
<pdfrwt beam="2">  1       -2 0.50961769E-01 0.72277891E+03</pdfrwt>
<totfact> 0.17428273E+01</totfact>
</mgrwt>
</event>
<event>
 4    5  0.6615028E-008  0.1416949E+04  0.7818608E-02  0.8970624E-01
         -2   -1    0    0    0  501 -0.00000000000E+00  0.00000000000E+00  0.15850231660E+04  0.15850231660E+04  0.25500000000E-02 0.  1.
          2   -1    0    0  501    0  0.00000000000E+00 -0.00000000000E+00 -0.20375462327E+04  0.20375462327E+04  0.25500000000E-02 0. -1.
    8880023    1    1    2    0    0 -0.11217416034E+04  0.56180896232E+03 -0.14388361640E+04  0.20194041814E+04  0.65864270000E+03 0.  0.
    8880022    1    1    2    0    0  0.11217416034E+04 -0.56180896232E+03  0.98631309726E+03  0.16031652172E+04  0.15294330000E+03 0.  0.
<mgrwt>
<rscale>  0 0.13770185E+04</rscale>
<asrwt>0</asrwt>
<pdfrwt beam="1">  1        2 0.31346865E+00 0.14169487E+04</pdfrwt>
<pdfrwt beam="2">  1       -2 0.24384972E+00 0.14169487E+04</pdfrwt>
<totfact> 0.42257120E-01</totfact>
</mgrwt>
</event>
<event>
 4    5  0.6615028E-008  0.9056200E+03  0.7818608E-02  0.9517069E-01
          2   -1    0    0  501    0  0.00000000000E+00  0.00000000000E+00  0.34320162187E+04  0.34320162187E+04  0.25500000000E-02 0. -1.
         -2   -1    0    0    0  501 -0.00000000000E+00 -0.00000000000E+00 -0.50613549863E+03  0.50613549863E+03  0.25500000000E-02 0.  1.
    8880023    1    1    2    0    0  0.49845467436E+03  0.37132250265E+03  0.31362364540E+04  0.32643723386E+04  0.65864270000E+03 0. -1.
    8880022    1    1    2    0    0 -0.49845467436E+03 -0.37132250265E+03 -0.21035573395E+03  0.67377937872E+03  0.15294330000E+03 0.  0.
<mgrwt>
<rscale>  0 0.83036995E+03</rscale>
<asrwt>0</asrwt>
<pdfrwt beam="1">  1        2 0.52800250E+00 0.90562005E+03</pdfrwt>
<pdfrwt beam="2">  1       -2 0.77866999E-01 0.90562005E+03</pdfrwt>
<totfact> 0.13987657E+00</totfact>
</mgrwt>
</event>
<event>
 4    5  0.6615028E-008  0.7716699E+03  0.7818608E-02  0.9775781E-01
          2   -1    0    0  501    0  0.00000000000E+00  0.00000000000E+00  0.14498434840E+04  0.14498434840E+04  0.25500000000E-02 0. -1.
         -2   -1    0    0    0  501 -0.00000000000E+00 -0.00000000000E+00 -0.19325191686E+04  0.19325191686E+04  0.25500000000E-02 0.  1.
    8880023    1    1    2    0    0  0.38638007478E+03 -0.11124169441E+03  0.13200318840E+04  0.15290384749E+04  0.65864270000E+03 0. -1.
    8880022    1    1    2    0    0 -0.38638007478E+03  0.11124169441E+03 -0.18027075686E+04  0.18533241777E+04  0.15294330000E+03 0.  0.
<mgrwt>
<rscale>  0 0.66678613E+03</rscale>
<asrwt>0</asrwt>
<pdfrwt beam="1">  1        2 0.22305284E+00 0.77166993E+03</pdfrwt>
<pdfrwt beam="2">  1       -2 0.29731064E+00 0.77166993E+03</pdfrwt>
<totfact> 0.46895646E-01</totfact>
</mgrwt>
</event>
<event>
 4    5  0.6615028E-008  0.8251554E+03  0.7818608E-02  0.9658833E-01
          2   -1    0    0  501    0  0.00000000000E+00  0.00000000000E+00  0.35958360442E+04  0.35958360442E+04  0.25500000000E-02 0. -1.
         -2   -1    0    0    0  501 -0.00000000000E+00 -0.00000000000E+00 -0.16310204519E+03  0.16310204521E+03  0.25500000000E-02 0.  1.
    8880023    1    1    2    0    0  0.44878429662E+03 -0.21369102451E+03  0.28972984979E+04  0.30125105794E+04  0.65864270000E+03 0.  0.
    8880022    1    1    2    0    0 -0.44878429662E+03  0.21369102451E+03  0.53543550114E+03  0.74642751004E+03  0.15294330000E+03 0.  1.
<mgrwt>
<rscale>  0 0.73521652E+03</rscale>
<asrwt>0</asrwt>
<pdfrwt beam="1">  1        2 0.55320552E+00 0.82515538E+03</pdfrwt>
<pdfrwt beam="2">  1       -2 0.25092624E-01 0.82515538E+03</pdfrwt>
<totfact> 0.10575085E+01</totfact>
</mgrwt>
</event>
<event>
 4    5  0.6615028E-008  0.1396450E+04  0.7818608E-02  0.8986446E-01
          2   -1    0    0  501    0  0.00000000000E+00  0.00000000000E+00  0.17561891759E+04  0.17561891759E+04  0.25500000000E-02 0. -1.
         -2   -1    0    0    0  501 -0.00000000000E+00 -0.00000000000E+00 -0.10720273066E+04  0.10720273066E+04  0.25500000000E-02 0.  1.
    8880023    1    1    2    0    0  0.40384698045E+03  0.11632587525E+04 -0.29563200511E+02  0.13967632219E+04  0.65864270000E+03 0.  1.
    8880022    1    1    2    0    0 -0.40384698045E+03 -0.11632587525E+04  0.71372506990E+03  0.14314532606E+04  0.15294330000E+03 0.  0.
<mgrwt>
<rscale>  0 0.13558044E+04</rscale>
<asrwt>0</asrwt>
<pdfrwt beam="1">  1        2 0.27018295E+00 0.13964503E+04</pdfrwt>
<pdfrwt beam="2">  1       -2 0.16492728E+00 0.13964503E+04</pdfrwt>
<totfact> 0.20147823E+00</totfact>
</mgrwt>
</event>
<event>
 4    5  0.6615028E-008  0.8028727E+03  0.7818608E-02  0.9704619E-01
         -2   -1    0    0    0  501 -0.00000000000E+00  0.00000000000E+00  0.20502097541E+03  0.20502097543E+03  0.25500000000E-02 0.  1.
          2   -1    0    0  501    0  0.00000000000E+00 -0.00000000000E+00 -0.33526914724E+04  0.33526914724E+04  0.25500000000E-02 0. -1.
    8880023    1    1    2    0    0  0.38039388506E+03 -0.25708911664E+03 -0.29097047306E+04  0.30184410127E+04  0.65864270000E+03 0. -1.
    8880022    1    1    2    0    0 -0.38039388506E+03  0.25708911664E+03 -0.23796576630E+03  0.53927143503E+03  0.15294330000E+03 0.  0.
<mgrwt>
<rscale>  0 0.70742453E+03</rscale>
<asrwt>0</asrwt>
<pdfrwt beam="1">  1        2 0.51579865E+00 0.80287267E+03</pdfrwt>
<pdfrwt beam="2">  1       -2 0.31541691E-01 0.80287267E+03</pdfrwt>
<totfact> 0.10196817E+01</totfact>
</mgrwt>
</event>
<event>
 4    5  0.6615028E-008  0.1258063E+04  0.7818608E-02  0.9102649E-01
         -2   -1    0    0    0  501 -0.00000000000E+00  0.00000000000E+00  0.13023860115E+04  0.13023860115E+04  0.25500000000E-02 0.  1.
          2   -1    0    0  501    0  0.00000000000E+00 -0.00000000000E+00 -0.11362166469E+04  0.11362166469E+04  0.25500000000E-02 0. -1.
    8880023    1    1    2    0    0  0.10611605148E+04  0.15116361969E+03 -0.24267261294E+03  0.12812541830E+04  0.65864270000E+03 0.  0.
    8880022    1    1    2    0    0 -0.10611605148E+04 -0.15116361969E+03  0.40884197747E+03  0.11573484754E+04  0.15294330000E+03 0.  0.
<mgrwt>
<rscale>  0 0.12117326E+04</rscale>
<asrwt>0</asrwt>
<pdfrwt beam="1">  1        2 0.17480256E+00 0.12580629E+04</pdfrwt>
<pdfrwt beam="2">  1       -2 0.20036708E+00 0.12580629E+04</pdfrwt>
<totfact> 0.26450896E+00</totfact>
</mgrwt>
</event>
<event>
 4    5  0.6615028E-008  0.1126797E+04  0.7818608E-02  0.9231791E-01
         -2   -1    0    0    0  501 -0.00000000000E+00  0.00000000000E+00  0.16573042866E+04  0.16573042866E+04  0.25500000000E-02 0.  1.
          2   -1    0    0  501    0  0.00000000000E+00 -0.00000000000E+00 -0.80246723187E+03  0.80246723188E+03  0.25500000000E-02 0. -1.
    8880023    1    1    2    0    0  0.20808976525E+03 -0.89025855466E+03 -0.97225523955E+02  0.11309839315E+04  0.65864270000E+03 0.  1.
    8880022    1    1    2    0    0 -0.20808976525E+03  0.89025855466E+03  0.95206257863E+03  0.13287875869E+04  0.15294330000E+03 0.  0.
<mgrwt>
<rscale>  0 0.10731229E+04</rscale>
<asrwt>0</asrwt>
<pdfrwt beam="1">  1        2 0.12345650E+00 0.11267972E+04</pdfrwt>
<pdfrwt beam="2">  1       -2 0.25496989E+00 0.11267972E+04</pdfrwt>
<totfact> 0.20222668E+00</totfact>
</mgrwt>
</event>
<event>
 4    5  0.6615028E-008  0.8438804E+03  0.7818608E-02  0.9622906E-01
          2   -1    0    0  501    0  0.00000000000E+00  0.00000000000E+00  0.43044979564E+03  0.43044979565E+03  0.25500000000E-02 0. -1.
         -2   -1    0    0    0  501 -0.00000000000E+00 -0.00000000000E+00 -0.21561468076E+04  0.21561468076E+04  0.25500000000E-02 0.  1.
    8880023    1    1    2    0    0 -0.50056405918E+03  0.16661220652E+03 -0.75347243909E+02  0.84723752168E+03  0.65864270000E+03 0. -1.
    8880022    1    1    2    0    0  0.50056405918E+03 -0.16661220652E+03 -0.16503497680E+04  0.17393590815E+04  0.15294330000E+03 0.  0.
<mgrwt>
<rscale>  0 0.75798467E+03</rscale>
<asrwt>0</asrwt>
<pdfrwt beam="1">  1        2 0.66223047E-01 0.84388045E+03</pdfrwt>
<pdfrwt beam="2">  1       -2 0.33171489E+00 0.84388045E+03</pdfrwt>
<totfact> 0.15323339E+00</totfact>
</mgrwt>
</event>
<event>
 4    5  0.6615028E-008  0.1527730E+04  0.7818608E-02  0.8890299E-01
         -2   -1    0    0    0  501 -0.00000000000E+00  0.00000000000E+00  0.16195418461E+04  0.16195418461E+04  0.25500000000E-02 0.  1.
          2   -1    0    0  501    0  0.00000000000E+00 -0.00000000000E+00 -0.14632098883E+04  0.14632098883E+04  0.25500000000E-02 0. -1.
    8880023    1    1    2    0    0 -0.78287182885E+03 -0.11345753800E+04 -0.41448837209E+03  0.15829593836E+04  0.65864270000E+03 0.  0.
    8880022    1    1    2    0    0  0.78287182885E+03  0.11345753800E+04  0.57082032987E+03  0.14997923508E+04  0.15294330000E+03 0.  0.
<mgrwt>
<rscale>  0 0.14912405E+04</rscale>
<asrwt>0</asrwt>
<pdfrwt beam="1">  1        2 0.22510921E+00 0.15277303E+04</pdfrwt>
<pdfrwt beam="2">  1       -2 0.24916028E+00 0.15277303E+04</pdfrwt>
<totfact> 0.81267722E-01</totfact>
</mgrwt>
</event>
<event>
 4    5  0.6615028E-008  0.1427094E+04  0.7818608E-02  0.8962911E-01
         -2   -1    0    0    0  501 -0.00000000000E+00  0.00000000000E+00  0.15997317562E+04  0.15997317562E+04  0.25500000000E-02 0.  1.
          2   -1    0    0  501    0  0.00000000000E+00 -0.00000000000E+00 -0.15415495694E+04  0.15415495694E+04  0.25500000000E-02 0. -1.
    8880023    1    1    2    0    0  0.12568292606E+04  0.15220713403E+03 -0.76917733631E+03  0.16211819092E+04  0.65864270000E+03 0. -1.
    8880022    1    1    2    0    0 -0.12568292606E+04 -0.15220713403E+03  0.82735952310E+03  0.15200994163E+04  0.15294330000E+03 0. -1.
<mgrwt>
<rscale>  0 0.13875078E+04</rscale>
<asrwt>0</asrwt>
<pdfrwt beam="1">  1        2 0.23716147E+00 0.14270939E+04</pdfrwt>
<pdfrwt beam="2">  1       -2 0.24611258E+00 0.14270939E+04</pdfrwt>
<totfact> 0.77344340E-01</totfact>
</mgrwt>
</event>
<event>
 4    5  0.6615028E-008  0.8176550E+03  0.7818608E-02  0.9673847E-01
          2   -1    0    0  501    0  0.00000000000E+00  0.00000000000E+00  0.33597430878E+04  0.33597430878E+04  0.25500000000E-02 0. -1.
         -2   -1    0    0    0  501 -0.00000000000E+00 -0.00000000000E+00 -0.59126990283E+03  0.59126990283E+03  0.25500000000E-02 0.  1.
    8880023    1    1    2    0    0  0.30502899635E+03 -0.37643965628E+03  0.31885799953E+04  0.32917475748E+04  0.65864270000E+03 0. -1.
    8880022    1    1    2    0    0 -0.30502899635E+03  0.37643965628E+03 -0.42010681033E+03  0.65926541585E+03  0.15294330000E+03 0.  0.
<mgrwt>
<rscale>  0 0.72595505E+03</rscale>
<asrwt>0</asrwt>
<pdfrwt beam="1">  1        2 0.51688354E+00 0.81765501E+03</pdfrwt>
<pdfrwt beam="2">  1       -2 0.90964602E-01 0.81765501E+03</pdfrwt>
<totfact> 0.11163573E+00</totfact>
</mgrwt>
</event>
<event>
 4    5  0.6615028E-008  0.7288344E+03  0.7818608E-02  0.9893754E-01
         -2   -1    0    0    0  501 -0.00000000000E+00  0.00000000000E+00  0.27439946347E+03  0.27439946349E+03  0.25500000000E-02 0.  1.
          2   -1    0    0  501    0  0.00000000000E+00 -0.00000000000E+00 -0.45906470820E+04  0.45906470820E+04  0.25500000000E-02 0. -1.
    8880023    1    1    2    0    0  0.30313787077E+03  0.74140647943E+02 -0.44375083166E+04  0.44969633833E+04  0.65864270000E+03 0. -1.
    8880022    1    1    2    0    0 -0.30313787077E+03 -0.74140647943E+02  0.12126069809E+03  0.36808316219E+03  0.15294330000E+03 0.  0.
<mgrwt>
<rscale>  0 0.60564970E+03</rscale>
<asrwt>0</asrwt>
<pdfrwt beam="1">  1        2 0.70625334E+00 0.72883442E+03</pdfrwt>
<pdfrwt beam="2">  1       -2 0.42215306E-01 0.72883442E+03</pdfrwt>
<totfact> 0.61291152E-01</totfact>
</mgrwt>
</event>
<event>
 4    5  0.6615028E-008  0.1201339E+04  0.7818608E-02  0.9155822E-01
          2   -1    0    0  501    0  0.00000000000E+00  0.00000000000E+00  0.13833619216E+04  0.13833619216E+04  0.25500000000E-02 0. -1.
         -2   -1    0    0    0  501 -0.00000000000E+00 -0.00000000000E+00 -0.96153726378E+03  0.96153726378E+03  0.25500000000E-02 0.  1.
    8880023    1    1    2    0    0  0.11281908807E+03 -0.99833754219E+03 -0.94389753303E+02  0.12050417530E+04  0.65864270000E+03 0.  1.
    8880022    1    1    2    0    0 -0.11281908807E+03  0.99833754219E+03  0.51621441112E+03  0.11398574323E+04  0.15294330000E+03 0.  0.
<mgrwt>
<rscale>  0 0.11521292E+04</rscale>
<asrwt>0</asrwt>
<pdfrwt beam="1">  1        2 0.21282491E+00 0.12013393E+04</pdfrwt>
<pdfrwt beam="2">  1       -2 0.14792881E+00 0.12013393E+04</pdfrwt>
<totfact> 0.44709104E+00</totfact>
</mgrwt>
</event>
<event>
 4    5  0.6615028E-008  0.9146451E+03  0.7818608E-02  0.9502919E-01
         -2   -1    0    0    0  501 -0.00000000000E+00  0.00000000000E+00  0.90621389442E+03  0.90621389442E+03  0.25500000000E-02 0.  1.
          2   -1    0    0  501    0  0.00000000000E+00 -0.00000000000E+00 -0.25748957209E+04  0.25748957209E+04  0.25500000000E-02 0. -1.
    8880023    1    1    2    0    0  0.41182578840E+03 -0.48287158009E+03 -0.23595402419E+04  0.25306137205E+04  0.65864270000E+03 0.  0.
    8880022    1    1    2    0    0 -0.41182578840E+03  0.48287158009E+03  0.69085841545E+03  0.95049589481E+03  0.15294330000E+03 0.  0.
<mgrwt>
<rscale>  0 0.84068960E+03</rscale>
<asrwt>0</asrwt>
<pdfrwt beam="1">  1        2 0.39613780E+00 0.91464509E+03</pdfrwt>
<pdfrwt beam="2">  1       -2 0.13941752E+00 0.91464509E+03</pdfrwt>
<totfact> 0.11678415E+00</totfact>
</mgrwt>
</event>
<event>
 4    5  0.6615028E-008  0.7293304E+03  0.7818608E-02  0.9892194E-01
          2   -1    0    0  501    0  0.00000000000E+00  0.00000000000E+00  0.10807214152E+04  0.10807214152E+04  0.25500000000E-02 0. -1.
         -2   -1    0    0    0  501 -0.00000000000E+00 -0.00000000000E+00 -0.37803553201E+03  0.37803553202E+03  0.25500000000E-02 0.  1.
    8880023    1    1    2    0    0 -0.24244260273E+03  0.19832846651E+03  0.81390440892E+03  0.10928692462E+04  0.65864270000E+03 0. -1.
    8880022    1    1    2    0    0  0.24244260273E+03 -0.19832846651E+03 -0.11121852574E+03  0.36588770098E+03  0.15294330000E+03 0.  0.
<mgrwt>
<rscale>  0 0.60641113E+03</rscale>
<asrwt>0</asrwt>
<pdfrwt beam="1">  1        2 0.16626483E+00 0.72933038E+03</pdfrwt>
<pdfrwt beam="2">  1       -2 0.58159313E-01 0.72933038E+03</pdfrwt>
<totfact> 0.63031601E+01</totfact>
</mgrwt>
</event>
<event>
 4    5  0.6615028E-008  0.6686278E+03  0.7818608E-02  0.1016666E+00
         -2   -1    0    0    0  501 -0.00000000000E+00  0.00000000000E+00  0.16884204869E+04  0.16884204869E+04  0.25500000000E-02 0.  1.
          2   -1    0    0  501    0  0.00000000000E+00 -0.00000000000E+00 -0.41607935129E+03  0.41607935130E+03  0.25500000000E-02 0. -1.
    8880023    1    1    2    0    0 -0.11501191716E+03  0.50244413725E+01 -0.13674693470E+03  0.68246825312E+03  0.65864270000E+03 0. -1.
    8880022    1    1    2    0    0  0.11501191716E+03 -0.50244413725E+01  0.14090880703E+04  0.14220315851E+04  0.15294330000E+03 0.  0.
<mgrwt>
<rscale>  0 0.48909098E+03</rscale>
<asrwt>0</asrwt>
<pdfrwt beam="1">  1        2 0.64012208E-01 0.66862784E+03</pdfrwt>
<pdfrwt beam="2">  1       -2 0.25975700E+00 0.66862784E+03</pdfrwt>
<totfact> 0.44382906E+00</totfact>
</mgrwt>
</event>
<event>
 4    5  0.6615028E-008  0.6607929E+03  0.7818608E-02  0.1023358E+00
         -2   -1    0    0    0  501 -0.00000000000E+00  0.00000000000E+00  0.90515291114E+03  0.90515291114E+03  0.25500000000E-02 0.  1.
          2   -1    0    0  501    0  0.00000000000E+00 -0.00000000000E+00 -0.30673066031E+04  0.30673066031E+04  0.25500000000E-02 0. -1.
    8880023    1    1    2    0    0 -0.28555401913E+01 -0.53187612268E+02 -0.30240885363E+04  0.30954416095E+04  0.65864270000E+03 0.  0.
    8880022    1    1    2    0    0  0.28555401913E+01  0.53187612268E+02  0.86193484438E+03  0.87701790470E+03  0.15294330000E+03 0.  1.
<mgrwt>
<rscale>  0 0.46493923E+03</rscale>
<asrwt>0</asrwt>
<pdfrwt beam="1">  1        2 0.47189332E+00 0.66079292E+03</pdfrwt>
<pdfrwt beam="2">  1       -2 0.13925430E+00 0.66079292E+03</pdfrwt>
<totfact> 0.63039612E-01</totfact>
</mgrwt>
</event>
<event>
 4    5  0.6615028E-008  0.1371692E+04  0.7818608E-02  0.9005997E-01
         -2   -1    0    0    0  501 -0.00000000000E+00  0.00000000000E+00  0.15369897211E+04  0.15369897211E+04  0.25500000000E-02 0.  1.
          2   -1    0    0  501    0  0.00000000000E+00 -0.00000000000E+00 -0.13601662347E+04  0.13601662347E+04  0.25500000000E-02 0. -1.
    8880023    1    1    2    0    0  0.11617277792E+04 -0.31323602251E+03 -0.55596762127E+03  0.14800805522E+04  0.65864270000E+03 0. -1.
    8880022    1    1    2    0    0 -0.11617277792E+04  0.31323602251E+03  0.73279110765E+03  0.14170754035E+04  0.15294330000E+03 0.  0.
<mgrwt>
<rscale>  0 0.13301433E+04</rscale>
<asrwt>0</asrwt>
<pdfrwt beam="1">  1        2 0.20925634E+00 0.13716918E+04</pdfrwt>
<pdfrwt beam="2">  1       -2 0.23645996E+00 0.13716918E+04</pdfrwt>
<totfact> 0.11335837E+00</totfact>
</mgrwt>
</event>
<event>
 4    5  0.6615028E-008  0.1001214E+04  0.7818608E-02  0.9379971E-01
          2   -1    0    0  501    0  0.00000000000E+00  0.00000000000E+00  0.38030759977E+04  0.38030759977E+04  0.25500000000E-02 0. -1.
         -2   -1    0    0    0  501 -0.00000000000E+00 -0.00000000000E+00 -0.47329806436E+03  0.47329806437E+03  0.25500000000E-02 0.  1.
    8880023    1    1    2    0    0  0.15632091855E+03  0.73768809782E+03  0.33603594452E+04  0.35063436464E+04  0.65864270000E+03 0. -1.
    8880022    1    1    2    0    0 -0.15632091855E+03 -0.73768809782E+03 -0.30581511854E+02  0.77003041571E+03  0.15294330000E+03 0.  0.
<mgrwt>
<rscale>  0 0.93742510E+03</rscale>
<asrwt>0</asrwt>
<pdfrwt beam="1">  1        2 0.58508859E+00 0.10012143E+04</pdfrwt>
<pdfrwt beam="2">  1       -2 0.72815090E-01 0.10012143E+04</pdfrwt>
<totfact> 0.87087661E-01</totfact>
</mgrwt>
</event>
<event>
 4    5  0.6615028E-008  0.8669002E+03  0.7818608E-02  0.9581405E-01
          2   -1    0    0  501    0  0.00000000000E+00  0.00000000000E+00  0.96253274210E+03  0.96253274210E+03  0.25500000000E-02 0. -1.
         -2   -1    0    0    0  501 -0.00000000000E+00 -0.00000000000E+00 -0.15675334275E+04  0.15675334275E+04  0.25500000000E-02 0.  1.
    8880023    1    1    2    0    0 -0.23247403635E+03 -0.51347991437E+03  0.69096492547E+03  0.11085795120E+04  0.65864270000E+03 0.  0.
    8880022    1    1    2    0    0  0.23247403635E+03  0.51347991437E+03 -0.12959656109E+04  0.14214866576E+04  0.15294330000E+03 0.  0.
<mgrwt>
<rscale>  0 0.78539232E+03</rscale>
<asrwt>0</asrwt>
<pdfrwt beam="1">  1        2 0.14808196E+00 0.86690023E+03</pdfrwt>
<pdfrwt beam="2">  1       -2 0.24115899E+00 0.86690023E+03</pdfrwt>
<totfact> 0.19668742E+00</totfact>
</mgrwt>
</event>
<event>
 4    5  0.6615028E-008  0.7809537E+03  0.7818608E-02  0.9753602E-01
         -2   -1    0    0    0  501 -0.00000000000E+00  0.00000000000E+00  0.39437216441E+03  0.39437216442E+03  0.25500000000E-02 0.  1.
          2   -1    0    0  501    0  0.00000000000E+00 -0.00000000000E+00 -0.43953407008E+04  0.43953407008E+04  0.25500000000E-02 0. -1.
    8880023    1    1    2    0    0  0.48511501671E+02 -0.41680340228E+03 -0.42204362290E+04  0.42920823165E+04  0.65864270000E+03 0. -1.
    8880022    1    1    2    0    0 -0.48511501671E+02  0.41680340228E+03  0.21946769261E+03  0.49763054876E+03  0.15294330000E+03 0.  0.
<mgrwt>
<rscale>  0 0.67913120E+03</rscale>
<asrwt>0</asrwt>
<pdfrwt beam="1">  1        2 0.67620623E+00 0.78095368E+03</pdfrwt>
<pdfrwt beam="2">  1       -2 0.60672644E-01 0.78095368E+03</pdfrwt>
<totfact> 0.44193100E-01</totfact>
</mgrwt>
</event>
<event>
 4    5  0.6615028E-008  0.1391419E+04  0.7818608E-02  0.8990379E-01
          2   -1    0    0  501    0  0.00000000000E+00  0.00000000000E+00  0.25582784155E+04  0.25582784155E+04  0.25500000000E-02 0. -1.
         -2   -1    0    0    0  501 -0.00000000000E+00 -0.00000000000E+00 -0.84141025921E+03  0.84141025922E+03  0.25500000000E-02 0.  1.
    8880023    1    1    2    0    0 -0.19756252472E+03 -0.12096301591E+04  0.14260728281E+03  0.13987076594E+04  0.65864270000E+03 0.  0.
    8880022    1    1    2    0    0  0.19756252472E+03  0.12096301591E+04  0.15742608735E+04  0.20009810154E+04  0.15294330000E+03 0.  0.
<mgrwt>
<rscale>  0 0.13505929E+04</rscale>
<asrwt>0</asrwt>
<pdfrwt beam="1">  1        2 0.39358129E+00 0.13914188E+04</pdfrwt>
<pdfrwt beam="2">  1       -2 0.12944773E+00 0.13914188E+04</pdfrwt>
<totfact> 0.13553906E+00</totfact>
</mgrwt>
</event>
<event>
 4    5  0.6615028E-008  0.7827184E+03  0.7818608E-02  0.9749490E-01
         -2   -1    0    0    0  501 -0.00000000000E+00  0.00000000000E+00  0.51373073302E+03  0.51373073303E+03  0.25500000000E-02 0.  1.
          2   -1    0    0  501    0  0.00000000000E+00 -0.00000000000E+00 -0.76039135721E+03  0.76039135721E+03  0.25500000000E-02 0. -1.
    8880023    1    1    2    0    0  0.40523836821E+03 -0.12091233937E+03 -0.53045987299E+02  0.78451386980E+03  0.65864270000E+03 0.  0.
    8880022    1    1    2    0    0 -0.40523836821E+03  0.12091233937E+03 -0.19361463689E+03  0.48960822043E+03  0.15294330000E+03 0.  0.
<mgrwt>
<rscale>  0 0.68145119E+03</rscale>
<asrwt>0</asrwt>
<pdfrwt beam="1">  1        2 0.11698329E+00 0.78271843E+03</pdfrwt>
<pdfrwt beam="2">  1       -2 0.79035498E-01 0.78271843E+03</pdfrwt>
<totfact> 0.52888057E+01</totfact>
</mgrwt>
</event>
<event>
 4    5  0.6615028E-008  0.1094142E+04  0.7818608E-02  0.9267606E-01
         -2   -1    0    0    0  501 -0.00000000000E+00  0.00000000000E+00  0.40644835541E+03  0.40644835541E+03  0.25500000000E-02 0.  1.
          2   -1    0    0  501    0  0.00000000000E+00 -0.00000000000E+00 -0.25184162567E+04  0.25184162567E+04  0.25500000000E-02 0. -1.
    8880023    1    1    2    0    0 -0.37462577927E+03 -0.78929866584E+03 -0.86576552145E+03  0.13952408404E+04  0.65864270000E+03 0.  0.
    8880022    1    1    2    0    0  0.37462577927E+03  0.78929866584E+03 -0.12462023799E+04  0.15296237717E+04  0.15294330000E+03 0.  0.
<mgrwt>
<rscale>  0 0.10382057E+04</rscale>
<asrwt>0</asrwt>
<pdfrwt beam="1">  1        2 0.38744865E+00 0.10941422E+04</pdfrwt>
<pdfrwt beam="2">  1       -2 0.62530518E-01 0.10941422E+04</pdfrwt>
<totfact> 0.80618638E+00</totfact>
</mgrwt>
</event>
<event>
 4    5  0.6615028E-008  0.1068037E+04  0.7818608E-02  0.9297506E-01
          2   -1    0    0  501    0  0.00000000000E+00  0.00000000000E+00  0.27582684717E+04  0.27582684717E+04  0.25500000000E-02 0. -1.
         -2   -1    0    0    0  501 -0.00000000000E+00 -0.00000000000E+00 -0.50004363235E+03  0.50004363235E+03  0.25500000000E-02 0.  1.
    8880023    1    1    2    0    0  0.82136591051E+03 -0.17958688711E+03  0.21451130088E+04  0.23962916007E+04  0.65864270000E+03 0.  0.
    8880022    1    1    2    0    0 -0.82136591051E+03  0.17958688711E+03  0.11311183058E+03  0.86202050335E+03  0.15294330000E+03 0.  0.
<mgrwt>
<rscale>  0 0.10101279E+04</rscale>
<asrwt>0</asrwt>
<pdfrwt beam="1">  1        2 0.42434899E+00 0.10680373E+04</pdfrwt>
<pdfrwt beam="2">  1       -2 0.76929790E-01 0.10680373E+04</pdfrwt>
<totfact> 0.37215924E+00</totfact>
</mgrwt>
</event>
<event>
 4    5  0.6615028E-008  0.1013656E+04  0.7818608E-02  0.9363905E-01
          2   -1    0    0  501    0  0.00000000000E+00  0.00000000000E+00  0.11218329054E+04  0.11218329055E+04  0.25500000000E-02 0. -1.
         -2   -1    0    0    0  501 -0.00000000000E+00 -0.00000000000E+00 -0.19879892352E+04  0.19879892352E+04  0.25500000000E-02 0.  1.
    8880023    1    1    2    0    0 -0.71925951261E+03 -0.27632357850E+03  0.78450368862E+03  0.12817742431E+04  0.65864270000E+03 0. -1.
    8880022    1    1    2    0    0  0.71925951261E+03  0.27632357850E+03 -0.16506600184E+04  0.18280478975E+04  0.15294330000E+03 0.  0.
<mgrwt>
<rscale>  0 0.95106630E+03</rscale>
<asrwt>0</asrwt>
<pdfrwt beam="1">  1        2 0.17258968E+00 0.10136563E+04</pdfrwt>
<pdfrwt beam="2">  1       -2 0.30584450E+00 0.10136563E+04</pdfrwt>
<totfact> 0.61982239E-01</totfact>
</mgrwt>
</event>
<event>
 4    5  0.6615028E-008  0.8183276E+03  0.7818608E-02  0.9672485E-01
         -2   -1    0    0    0  501 -0.00000000000E+00  0.00000000000E+00  0.95660200129E+03  0.95660200129E+03  0.25500000000E-02 0.  1.
          2   -1    0    0  501    0  0.00000000000E+00 -0.00000000000E+00 -0.92145015269E+03  0.92145015269E+03  0.25500000000E-02 0. -1.
    8880023    1    1    2    0    0 -0.37293267221E+03  0.31108041763E+03 -0.63543859229E+03  0.10360705647E+04  0.65864270000E+03 0. -1.
    8880022    1    1    2    0    0  0.37293267221E+03 -0.31108041763E+03  0.67059044089E+03  0.84198158927E+03  0.15294330000E+03 0.  0.
<mgrwt>
<rscale>  0 0.72678916E+03</rscale>
<asrwt>0</asrwt>
<pdfrwt beam="1">  1        2 0.14176156E+00 0.81832757E+03</pdfrwt>
<pdfrwt beam="2">  1       -2 0.14716954E+00 0.81832757E+03</pdfrwt>
<totfact> 0.90211870E+00</totfact>
</mgrwt>
</event>
<event>
 4    5  0.6615028E-008  0.1377879E+04  0.7818608E-02  0.9001065E-01
         -2   -1    0    0    0  501 -0.00000000000E+00  0.00000000000E+00  0.90967326375E+03  0.90967326375E+03  0.25500000000E-02 0.  1.
          2   -1    0    0  501    0  0.00000000000E+00 -0.00000000000E+00 -0.23240978124E+04  0.23240978124E+04  0.25500000000E-02 0. -1.
    8880023    1    1    2    0    0  0.67320683103E+02 -0.12083910744E+04 -0.14671657130E+04  0.20127410411E+04  0.65864270000E+03 0. -1.
    8880022    1    1    2    0    0 -0.67320683103E+02  0.12083910744E+04  0.52741164343E+02  0.12210300350E+04  0.15294330000E+03 0.  0.
<mgrwt>
<rscale>  0 0.13365604E+04</rscale>
<asrwt>0</asrwt>
<pdfrwt beam="1">  1        2 0.35755351E+00 0.13778793E+04</pdfrwt>
<pdfrwt beam="2">  1       -2 0.13994973E+00 0.13778793E+04</pdfrwt>
<totfact> 0.15121424E+00</totfact>
</mgrwt>
</event>
<event>
 4    5  0.6615028E-008  0.6875269E+03  0.7818608E-02  0.1005351E+00
          2   -1    0    0  501    0  0.00000000000E+00  0.00000000000E+00  0.35592492561E+03  0.35592492562E+03  0.25500000000E-02 0. -1.
         -2   -1    0    0    0  501 -0.00000000000E+00 -0.00000000000E+00 -0.83388374927E+03  0.83388374927E+03  0.25500000000E-02 0.  1.
    8880023    1    1    2    0    0  0.17105964246E+03  0.98090090752E+02 -0.43650696818E+02  0.68891121110E+03  0.65864270000E+03 0. -1.
    8880022    1    1    2    0    0 -0.17105964246E+03 -0.98090090752E+02 -0.43430812684E+03  0.50089746379E+03  0.15294330000E+03 0.  0.
<mgrwt>
<rscale>  0 0.53364968E+03</rscale>
<asrwt>0</asrwt>
<pdfrwt beam="1">  1        2 0.54757681E-01 0.68752693E+03</pdfrwt>
<pdfrwt beam="2">  1       -2 0.12828981E+00 0.68752693E+03</pdfrwt>
<totfact> 0.41360065E+01</totfact>
</mgrwt>
</event>
<event>
 4    5  0.6615028E-008  0.1387079E+04  0.7818608E-02  0.8993789E-01
         -2   -1    0    0    0  501 -0.00000000000E+00  0.00000000000E+00  0.25608737574E+04  0.25608737574E+04  0.25500000000E-02 0.  1.
          2   -1    0    0  501    0  0.00000000000E+00 -0.00000000000E+00 -0.87263694271E+03  0.87263694271E+03  0.25500000000E-02 0. -1.
    8880023    1    1    2    0    0  0.10143994708E+04 -0.67909547916E+03  0.54229612240E+02  0.13881383265E+04  0.65864270000E+03 0. -1.
    8880022    1    1    2    0    0 -0.10143994708E+04  0.67909547916E+03  0.16340072024E+04  0.20453723737E+04  0.15294330000E+03 0.  0.
<mgrwt>
<rscale>  0 0.13460961E+04</rscale>
<asrwt>0</asrwt>
<pdfrwt beam="1">  1        2 0.13425184E+00 0.13870786E+04</pdfrwt>
<pdfrwt beam="2">  1       -2 0.39398057E+00 0.13870786E+04</pdfrwt>
<totfact> 0.23990785E-01</totfact>
</mgrwt>
</event>
<event>
 4    5  0.6615028E-008  0.7751746E+03  0.7818608E-02  0.9767296E-01
         -2   -1    0    0    0  501 -0.00000000000E+00  0.00000000000E+00  0.13530846957E+03  0.13530846960E+03  0.25500000000E-02 0.  1.
          2   -1    0    0  501    0  0.00000000000E+00 -0.00000000000E+00 -0.35503495139E+04  0.35503495139E+04  0.25500000000E-02 0. -1.
    8880023    1    1    2    0    0 -0.40511198678E+03 -0.54495209913E+02 -0.29403977844E+04  0.30408608627E+04  0.65864270000E+03 0.  0.
    8880022    1    1    2    0    0  0.40511198678E+03  0.54495209913E+02 -0.47464325992E+03  0.64479712076E+03  0.15294330000E+03 0.  0.
<mgrwt>
<rscale>  0 0.67147523E+03</rscale>
<asrwt>0</asrwt>
<pdfrwt beam="1">  1        2 0.54620755E+00 0.77517460E+03</pdfrwt>
<pdfrwt beam="2">  1       -2 0.20816690E-01 0.77517460E+03</pdfrwt>
<totfact> 0.16013560E+01</totfact>
</mgrwt>
</event>
<event>
 4    5  0.6615028E-008  0.1086585E+04  0.7818608E-02  0.9276141E-01
          2   -1    0    0  501    0  0.00000000000E+00  0.00000000000E+00  0.35031396737E+04  0.35031396737E+04  0.25500000000E-02 0. -1.
         -2   -1    0    0    0  501 -0.00000000000E+00 -0.00000000000E+00 -0.50376757163E+03  0.50376757164E+03  0.25500000000E-02 0.  1.
    8880023    1    1    2    0    0  0.30121362334E+03  0.81001709481E+03  0.29317917948E+04  0.31266708613E+04  0.65864270000E+03 0. -1.
    8880022    1    1    2    0    0 -0.30121362334E+03 -0.81001709481E+03  0.67580307260E+02  0.88023638400E+03  0.15294330000E+03 0.  0.
<mgrwt>
<rscale>  0 0.10300938E+04</rscale>
<asrwt>0</asrwt>
<pdfrwt beam="1">  1        2 0.53894456E+00 0.10865853E+04</pdfrwt>
<pdfrwt beam="2">  1       -2 0.77502705E-01 0.10865853E+04</pdfrwt>
<totfact> 0.12256825E+00</totfact>
</mgrwt>
</event>
<event>
 4    5  0.6615028E-008  0.1446402E+04  0.7818608E-02  0.8948441E-01
          2   -1    0    0  501    0  0.00000000000E+00  0.00000000000E+00  0.25703277226E+04  0.25703277226E+04  0.25500000000E-02 0. -1.
         -2   -1    0    0    0  501 -0.00000000000E+00 -0.00000000000E+00 -0.95450909771E+03  0.95450909771E+03  0.25500000000E-02 0.  1.
    8880023    1    1    2    0    0  0.59865050036E+03 -0.11401258621E+04  0.16918070719E+04  0.22258236178E+04  0.65864270000E+03 0.  0.
    8880022    1    1    2    0    0 -0.59865050036E+03  0.11401258621E+04 -0.75988447010E+02  0.12990132024E+04  0.15294330000E+03 0.  0.
<mgrwt>
<rscale>  0 0.14074538E+04</rscale>
<asrwt>0</asrwt>
<pdfrwt beam="1">  1        2 0.39543503E+00 0.14464023E+04</pdfrwt>
<pdfrwt beam="2">  1       -2 0.14684755E+00 0.14464023E+04</pdfrwt>
<totfact> 0.95468699E-01</totfact>
</mgrwt>
</event>
<event>
 4    5  0.6615028E-008  0.1023747E+04  0.7818608E-02  0.9351128E-01
         -2   -1    0    0    0  501 -0.00000000000E+00  0.00000000000E+00  0.53128972633E+03  0.53128972634E+03  0.25500000000E-02 0.  1.
          2   -1    0    0  501    0  0.00000000000E+00 -0.00000000000E+00 -0.16429121112E+04  0.16429121112E+04  0.25500000000E-02 0. -1.
    8880023    1    1    2    0    0  0.76530040259E+03 -0.16900455956E+03 -0.38246961438E+03  0.10928588470E+04  0.65864270000E+03 0.  1.
    8880022    1    1    2    0    0 -0.76530040259E+03  0.16900455956E+03 -0.72915277044E+03  0.10813429905E+04  0.15294330000E+03 0. -1.
<mgrwt>
<rscale>  0 0.96209124E+03</rscale>
<asrwt>0</asrwt>
<pdfrwt beam="1">  1        2 0.25275571E+00 0.10237468E+04</pdfrwt>
<pdfrwt beam="2">  1       -2 0.81736882E-01 0.10237468E+04</pdfrwt>
<totfact> 0.13837553E+01</totfact>
</mgrwt>
</event>
<event>
 4    5  0.6615028E-008  0.7533737E+03  0.7818608E-02  0.9822574E-01
          2   -1    0    0  501    0  0.00000000000E+00  0.00000000000E+00  0.21899333009E+04  0.21899333009E+04  0.25500000000E-02 0. -1.
         -2   -1    0    0    0  501 -0.00000000000E+00 -0.00000000000E+00 -0.15959139300E+03  0.15959139302E+03  0.25500000000E-02 0.  1.
    8880023    1    1    2    0    0  0.31292518428E+03  0.18931329836E+03  0.10521801356E+04  0.12940845954E+04  0.65864270000E+03 0.  1.
    8880022    1    1    2    0    0 -0.31292518428E+03 -0.18931329836E+03  0.97816177224E+03  0.10554400985E+04  0.15294330000E+03 0.  0.
<mgrwt>
<rscale>  0 0.64165013E+03</rscale>
<asrwt>0</asrwt>
<pdfrwt beam="1">  1        2 0.33691278E+00 0.75337368E+03</pdfrwt>
<pdfrwt beam="2">  1       -2 0.24552525E-01 0.75337368E+03</pdfrwt>
<totfact> 0.79872164E+01</totfact>
</mgrwt>
</event>
<event>
 4    5  0.6615028E-008  0.6945925E+03  0.7818608E-02  0.1002042E+00
         -2   -1    0    0    0  501 -0.00000000000E+00  0.00000000000E+00  0.24151177401E+03  0.24151177403E+03  0.25500000000E-02 0.  1.
          2   -1    0    0  501    0  0.00000000000E+00 -0.00000000000E+00 -0.18722893618E+04  0.18722893618E+04  0.25500000000E-02 0. -1.
    8880023    1    1    2    0    0 -0.22006977846E+03  0.14759527635E+02 -0.17001614632E+04  0.18365750075E+04  0.65864270000E+03 0. -1.
    8880022    1    1    2    0    0  0.22006977846E+03 -0.14759527635E+02  0.69383875396E+02  0.27722612833E+03  0.15294330000E+03 0.  0.
<mgrwt>
<rscale>  0 0.54763909E+03</rscale>
<asrwt>0</asrwt>
<pdfrwt beam="1">  1        2 0.28804451E+00 0.69459251E+03</pdfrwt>
<pdfrwt beam="2">  1       -2 0.37155659E-01 0.69459251E+03</pdfrwt>
<totfact> 0.55535312E+01</totfact>
</mgrwt>
</event>
<event>
 4    5  0.6615028E-008  0.7899432E+03  0.7818608E-02  0.9732978E-01
         -2   -1    0    0    0  501 -0.00000000000E+00  0.00000000000E+00  0.41807569873E+03  0.41807569874E+03  0.25500000000E-02 0.  1.
          2   -1    0    0  501    0  0.00000000000E+00 -0.00000000000E+00 -0.16007706957E+04  0.16007706957E+04  0.25500000000E-02 0. -1.
    8880023    1    1    2    0    0 -0.38420569224E+03 -0.20636374762E+03 -0.13186048185E+04  0.15371170691E+04  0.65864270000E+03 0. -1.
    8880022    1    1    2    0    0  0.38420569224E+03  0.20636374762E+03  0.13590982160E+03  0.48172932535E+03  0.15294330000E+03 0.  0.
<mgrwt>
<rscale>  0 0.69086776E+03</rscale>
<asrwt>0</asrwt>
<pdfrwt beam="1">  1        2 0.24627241E+00 0.78994317E+03</pdfrwt>
<pdfrwt beam="2">  1       -2 0.64319339E-01 0.78994317E+03</pdfrwt>
<totfact> 0.25390809E+01</totfact>
</mgrwt>
</event>
<event>
 4    5  0.6615028E-008  0.7738626E+03  0.7818608E-02  0.9770457E-01
         -2   -1    0    0    0  501 -0.00000000000E+00  0.00000000000E+00  0.16856047955E+04  0.16856047955E+04  0.25500000000E-02 0.  1.
          2   -1    0    0  501    0  0.00000000000E+00 -0.00000000000E+00 -0.61425033886E+03  0.61425033886E+03  0.25500000000E-02 0. -1.
    8880023    1    1    2    0    0 -0.34704879266E+03 -0.21121126747E+03 -0.32368896804E+03  0.83883122157E+03  0.65864270000E+03 0. -1.
    8880022    1    1    2    0    0  0.34704879266E+03  0.21121126747E+03  0.13950434247E+04  0.14610239128E+04  0.15294330000E+03 0.  0.
<mgrwt>
<rscale>  0 0.66972402E+03</rscale>
<asrwt>0</asrwt>
<pdfrwt beam="1">  1        2 0.94500053E-01 0.77386257E+03</pdfrwt>
<pdfrwt beam="2">  1       -2 0.25932381E+00 0.77386257E+03</pdfrwt>
<totfact> 0.27928807E+00</totfact>
</mgrwt>
</event>
<event>
 4    5  0.6615028E-008  0.8260141E+03  0.7818608E-02  0.9657138E-01
          2   -1    0    0  501    0  0.00000000000E+00  0.00000000000E+00  0.43525764444E+03  0.43525764445E+03  0.25500000000E-02 0. -1.
         -2   -1    0    0    0  501 -0.00000000000E+00 -0.00000000000E+00 -0.19936168608E+04  0.19936168608E+04  0.25500000000E-02 0.  1.
    8880023    1    1    2    0    0  0.45997195031E+03 -0.19213252528E+03 -0.43914597573E+02  0.82718063353E+03  0.65864270000E+03 0. -1.
    8880022    1    1    2    0    0 -0.45997195031E+03  0.19213252528E+03 -0.15144446188E+04  0.16016938717E+04  0.15294330000E+03 0.  0.
<mgrwt>
<rscale>  0 0.73627136E+03</rscale>
<asrwt>0</asrwt>
<pdfrwt beam="1">  1        2 0.66962716E-01 0.82601411E+03</pdfrwt>
<pdfrwt beam="2">  1       -2 0.30671028E+00 0.82601411E+03</pdfrwt>
<totfact> 0.21538695E+00</totfact>
</mgrwt>
</event>
<event>
 4    5  0.6615028E-008  0.8210002E+03  0.7818608E-02  0.9667104E-01
         -2   -1    0    0    0  501 -0.00000000000E+00  0.00000000000E+00  0.54805569913E+03  0.54805569914E+03  0.25500000000E-02 0.  1.
          2   -1    0    0  501    0  0.00000000000E+00 -0.00000000000E+00 -0.19740960748E+04  0.19740960748E+04  0.25500000000E-02 0. -1.
    8880023    1    1    2    0    0  0.41639618621E+03 -0.25854467521E+03 -0.17374457077E+04  0.19216552570E+04  0.65864270000E+03 0. -1.
    8880022    1    1    2    0    0 -0.41639618621E+03  0.25854467521E+03  0.31140533212E+03  0.60049651694E+03  0.15294330000E+03 0.  0.
<mgrwt>
<rscale>  0 0.73009659E+03</rscale>
<asrwt>0</asrwt>
<pdfrwt beam="1">  1        2 0.30370709E+00 0.82100021E+03</pdfrwt>
<pdfrwt beam="2">  1       -2 0.84316262E-01 0.82100021E+03</pdfrwt>
<totfact> 0.86818114E+00</totfact>
</mgrwt>
</event>
<event>
 4    5  0.6615028E-008  0.7427070E+03  0.7818608E-02  0.9852131E-01
         -2   -1    0    0    0  501 -0.00000000000E+00  0.00000000000E+00  0.11268420970E+03  0.11268420973E+03  0.25500000000E-02 0.  1.
          2   -1    0    0  501    0  0.00000000000E+00 -0.00000000000E+00 -0.32762820797E+04  0.32762820797E+04  0.25500000000E-02 0. -1.
    8880023    1    1    2    0    0  0.33946934764E+03 -0.50636345966E+02 -0.26530424116E+04  0.27550404210E+04  0.65864270000E+03 0.  0.
    8880022    1    1    2    0    0 -0.33946934764E+03  0.50636345966E+02 -0.51055545846E+03  0.63392586846E+03  0.15294330000E+03 0.  0.
<mgrwt>
<rscale>  0 0.62638392E+03</rscale>
<asrwt>0</asrwt>
<pdfrwt beam="1">  1        2 0.50404332E+00 0.74270700E+03</pdfrwt>
<pdfrwt beam="2">  1       -2 0.17336035E-01 0.74270700E+03</pdfrwt>
<totfact> 0.33749032E+01</totfact>
</mgrwt>
</event>
<event>
 4    5  0.6615028E-008  0.1318637E+04  0.7818608E-02  0.9049630E-01
          2   -1    0    0  501    0  0.00000000000E+00  0.00000000000E+00  0.79157944189E+03  0.79157944189E+03  0.25500000000E-02 0. -1.
         -2   -1    0    0    0  501 -0.00000000000E+00 -0.00000000000E+00 -0.24339466413E+04  0.24339466413E+04  0.25500000000E-02 0.  1.
    8880023    1    1    2    0    0 -0.16537034856E+03  0.11303302478E+04 -0.15984142226E+04  0.20721322483E+04  0.65864270000E+03 0.  0.
    8880022    1    1    2    0    0  0.16537034856E+03 -0.11303302478E+04 -0.43952976870E+02  0.11533938349E+04  0.15294330000E+03 0. -1.
<mgrwt>
<rscale>  0 0.12749980E+04</rscale>
<asrwt>0</asrwt>
<pdfrwt beam="1">  1        2 0.12178145E+00 0.13186372E+04</pdfrwt>
<pdfrwt beam="2">  1       -2 0.37445333E+00 0.13186372E+04</pdfrwt>
<totfact> 0.36955905E-01</totfact>
</mgrwt>
</event>
<event>
 4    5  0.6615028E-008  0.1565241E+04  0.7818608E-02  0.8864890E-01
         -2   -1    0    0    0  501 -0.00000000000E+00  0.00000000000E+00  0.32460500886E+04  0.32460500886E+04  0.25500000000E-02 0.  1.
          2   -1    0    0  501    0  0.00000000000E+00 -0.00000000000E+00 -0.78505018661E+03  0.78505018661E+03  0.25500000000E-02 0. -1.
    8880023    1    1    2    0    0  0.13581378188E+04  0.41428528232E+03  0.19803881915E+04  0.25242658785E+04  0.65864270000E+03 0.  0.
    8880022    1    1    2    0    0 -0.13581378188E+04 -0.41428528232E+03  0.48061171049E+03  0.15068343967E+04  0.15294330000E+03 0.  0.
<mgrwt>
<rscale>  0 0.15297770E+04</rscale>
<asrwt>0</asrwt>
<pdfrwt beam="1">  1        2 0.12077695E+00 0.15652415E+04</pdfrwt>
<pdfrwt beam="2">  1       -2 0.49939232E+00 0.15652415E+04</pdfrwt>
<totfact> 0.55186078E-02</totfact>
</mgrwt>
</event>
<event>
 4    5  0.6615028E-008  0.8375509E+03  0.7818608E-02  0.9634816E-01
          2   -1    0    0  501    0  0.00000000000E+00  0.00000000000E+00  0.12902973387E+04  0.12902973387E+04  0.25500000000E-02 0. -1.
         -2   -1    0    0    0  501 -0.00000000000E+00 -0.00000000000E+00 -0.17892630212E+04  0.17892630212E+04  0.25500000000E-02 0.  1.
    8880023    1    1    2    0    0  0.64198855611E+02 -0.51338075122E+03  0.11054250409E+04  0.13868871678E+04  0.65864270000E+03 0.  0.
    8880022    1    1    2    0    0 -0.64198855611E+02  0.51338075122E+03 -0.16043907234E+04  0.16926731921E+04  0.15294330000E+03 0.  0.
<mgrwt>
<rscale>  0 0.75034092E+03</rscale>
<asrwt>0</asrwt>
<pdfrwt beam="1">  1        2 0.19850728E+00 0.83755089E+03</pdfrwt>
<pdfrwt beam="2">  1       -2 0.27527123E+00 0.83755089E+03</pdfrwt>
<totfact> 0.77437555E-01</totfact>
</mgrwt>
</event>
<event>
 4    5  0.6615028E-008  0.1003099E+04  0.7818608E-02  0.9377514E-01
          2   -1    0    0  501    0  0.00000000000E+00  0.00000000000E+00  0.16784467600E+04  0.16784467600E+04  0.25500000000E-02 0. -1.
         -2   -1    0    0    0  501 -0.00000000000E+00 -0.00000000000E+00 -0.84507270527E+03  0.84507270528E+03  0.25500000000E-02 0.  1.
    8880023    1    1    2    0    0  0.11007023848E+03  0.74851996888E+03  0.12842773361E+04  0.16295938401E+04  0.65864270000E+03 0. -1.
    8880022    1    1    2    0    0 -0.11007023848E+03 -0.74851996888E+03 -0.45090328140E+03  0.89392562521E+03  0.15294330000E+03 0.  0.
<mgrwt>
<rscale>  0 0.93949498E+03</rscale>
<asrwt>0</asrwt>
<pdfrwt beam="1">  1        2 0.25822257E+00 0.10030991E+04</pdfrwt>
<pdfrwt beam="2">  1       -2 0.13001119E+00 0.10030991E+04</pdfrwt>
<totfact> 0.43535239E+00</totfact>
</mgrwt>
</event>
<event>
 4    5  0.6615028E-008  0.1267245E+04  0.7818608E-02  0.9094375E-01
          2   -1    0    0  501    0  0.00000000000E+00  0.00000000000E+00  0.17978371793E+04  0.17978371793E+04  0.25500000000E-02 0. -1.
         -2   -1    0    0    0  501 -0.00000000000E+00 -0.00000000000E+00 -0.13959253778E+04  0.13959253778E+04  0.25500000000E-02 0.  1.
    8880023    1    1    2    0    0  0.93313097617E+03  0.54896796271E+03  0.12726815903E+04  0.17960033071E+04  0.65864270000E+03 0. -1.
    8880022    1    1    2    0    0 -0.93313097617E+03 -0.54896796271E+03 -0.87076978875E+03  0.13977592499E+04  0.15294330000E+03 0.  0.
<mgrwt>
<rscale>  0 0.12213459E+04</rscale>
<asrwt>0</asrwt>
<pdfrwt beam="1">  1        2 0.27659033E+00 0.12672448E+04</pdfrwt>
<pdfrwt beam="2">  1       -2 0.21475775E+00 0.12672448E+04</pdfrwt>
<totfact> 0.88911628E-01</totfact>
</mgrwt>
</event>
<event>
 4    5  0.6615028E-008  0.9551341E+03  0.7818608E-02  0.9442765E-01
          2   -1    0    0  501    0  0.00000000000E+00  0.00000000000E+00  0.16907119789E+04  0.16907119789E+04  0.25500000000E-02 0. -1.
         -2   -1    0    0    0  501 -0.00000000000E+00 -0.00000000000E+00 -0.63930309459E+03  0.63930309459E+03  0.25500000000E-02 0.  1.
    8880023    1    1    2    0    0  0.15709472247E+03 -0.67364103007E+03  0.12695912431E+04  0.15887552109E+04  0.65864270000E+03 0. -1.
    8880022    1    1    2    0    0 -0.15709472247E+03  0.67364103007E+03 -0.21818235881E+03  0.74125986262E+03  0.15294330000E+03 0.  0.
<mgrwt>
<rscale>  0 0.88638292E+03</rscale>
<asrwt>0</asrwt>
<pdfrwt beam="1">  1        2 0.26010954E+00 0.95513412E+03</pdfrwt>
<pdfrwt beam="2">  1       -2 0.98354322E-01 0.95513412E+03</pdfrwt>
<totfact> 0.85432782E+00</totfact>
</mgrwt>
</event>
<event>
 4    5  0.6615028E-008  0.6809472E+03  0.7818608E-02  0.1008793E+00
         -2   -1    0    0    0  501 -0.00000000000E+00  0.00000000000E+00  0.17992798169E+04  0.17992798169E+04  0.25500000000E-02 0.  1.
          2   -1    0    0  501    0  0.00000000000E+00 -0.00000000000E+00 -0.14741892668E+04  0.14741892668E+04  0.25500000000E-02 0. -1.
    8880023    1    1    2    0    0  0.85309923312E+02 -0.15033674925E+03 -0.13873977536E+04  0.15454972191E+04  0.65864270000E+03 0. -1.
    8880022    1    1    2    0    0 -0.85309923312E+02  0.15033674925E+03  0.17124883038E+04  0.17279718646E+04  0.15294330000E+03 0.  0.
<mgrwt>
<rscale>  0 0.51957233E+03</rscale>
<asrwt>0</asrwt>
<pdfrwt beam="1">  1        2 0.22679835E+00 0.68094723E+03</pdfrwt>
<pdfrwt beam="2">  1       -2 0.27681228E+00 0.68094723E+03</pdfrwt>
<totfact> 0.61557062E-01</totfact>
</mgrwt>
</event>
<event>
 4    5  0.6615028E-008  0.1383556E+04  0.7818608E-02  0.8996566E-01
          2   -1    0    0  501    0  0.00000000000E+00  0.00000000000E+00  0.23507515122E+04  0.23507515122E+04  0.25500000000E-02 0. -1.
         -2   -1    0    0    0  501 -0.00000000000E+00 -0.00000000000E+00 -0.96496556803E+03  0.96496556803E+03  0.25500000000E-02 0.  1.
    8880023    1    1    2    0    0  0.10947791417E+04  0.53092009536E+03  0.15509080343E+04  0.20783511382E+04  0.65864270000E+03 0.  0.
    8880022    1    1    2    0    0 -0.10947791417E+04 -0.53092009536E+03 -0.16512209014E+03  0.12373659420E+04  0.15294330000E+03 0.  0.
<mgrwt>
<rscale>  0 0.13424456E+04</rscale>
<asrwt>0</asrwt>
<pdfrwt beam="1">  1        2 0.36165407E+00 0.13835562E+04</pdfrwt>
<pdfrwt beam="2">  1       -2 0.14845624E+00 0.13835562E+04</pdfrwt>
<totfact> 0.12488099E+00</totfact>
</mgrwt>
</event>
<event>
 4    5  0.6615028E-008  0.1067959E+04  0.7818608E-02  0.9297598E-01
          2   -1    0    0  501    0  0.00000000000E+00  0.00000000000E+00  0.26738806808E+04  0.26738806808E+04  0.25500000000E-02 0. -1.
         -2   -1    0    0    0  501 -0.00000000000E+00 -0.00000000000E+00 -0.72235779581E+03  0.72235779581E+03  0.25500000000E-02 0.  1.
    8880023    1    1    2    0    0 -0.25356856878E+03 -0.80151619150E+03  0.22504454348E+04  0.24909917875E+04  0.65864270000E+03 0.  0.
    8880022    1    1    2    0    0  0.25356856878E+03  0.80151619150E+03 -0.29892254979E+03  0.90524668909E+03  0.15294330000E+03 0.  1.
<mgrwt>
<rscale>  0 0.10100429E+04</rscale>
<asrwt>0</asrwt>
<pdfrwt beam="1">  1        2 0.41136626E+00 0.10679585E+04</pdfrwt>
<pdfrwt beam="2">  1       -2 0.11113197E+00 0.10679585E+04</pdfrwt>
<totfact> 0.17661876E+00</totfact>
</mgrwt>
</event>
<event>
 4    5  0.6615028E-008  0.1065672E+04  0.7818608E-02  0.9300275E-01
          2   -1    0    0  501    0  0.00000000000E+00  0.00000000000E+00  0.21913874374E+04  0.21913874374E+04  0.25500000000E-02 0. -1.
         -2   -1    0    0    0  501 -0.00000000000E+00 -0.00000000000E+00 -0.47169453937E+03  0.47169453937E+03  0.25500000000E-02 0.  1.
    8880023    1    1    2    0    0  0.69155323010E+03 -0.47286383454E+03  0.13862367259E+04  0.17485160973E+04  0.65864270000E+03 0.  0.
    8880022    1    1    2    0    0 -0.69155323010E+03  0.47286383454E+03  0.33345617209E+03  0.91456587942E+03  0.15294330000E+03 0.  0.
<mgrwt>
<rscale>  0 0.10075756E+04</rscale>
<asrwt>0</asrwt>
<pdfrwt beam="1">  1        2 0.33713653E+00 0.10656718E+04</pdfrwt>
<pdfrwt beam="2">  1       -2 0.72568391E-01 0.10656718E+04</pdfrwt>
<totfact> 0.89508897E+00</totfact>
</mgrwt>
</event>
<event>
 4    5  0.6615028E-008  0.7149506E+03  0.7818608E-02  0.9940057E-01
         -2   -1    0    0    0  501 -0.00000000000E+00  0.00000000000E+00  0.57691199498E+03  0.57691199498E+03  0.25500000000E-02 0.  1.
          2   -1    0    0  501    0  0.00000000000E+00 -0.00000000000E+00 -0.14375805139E+04  0.14375805139E+04  0.25500000000E-02 0. -1.
    8880023    1    1    2    0    0  0.23251835715E+03 -0.15257556043E+03 -0.12933966266E+04  0.14778461111E+04  0.65864270000E+03 0. -1.
    8880022    1    1    2    0    0 -0.23251835715E+03  0.15257556043E+03  0.43272810770E+03  0.53664639779E+03  0.15294330000E+03 0.  0.
<mgrwt>
<rscale>  0 0.58358612E+03</rscale>
<asrwt>0</asrwt>
<pdfrwt beam="1">  1        2 0.22116623E+00 0.71495055E+03</pdfrwt>
<pdfrwt beam="2">  1       -2 0.88755692E-01 0.71495055E+03</pdfrwt>
<totfact> 0.15446750E+01</totfact>
</mgrwt>
</event>
<event>
 4    5  0.6773566E-008  0.1167785E+04  0.7818608E-02  0.9189092E-01
         -2   -1    0    0    0  501 -0.00000000000E+00  0.00000000000E+00  0.19979359017E+04  0.19979359017E+04  0.25500000000E-02 0.  1.
          2   -1    0    0  501    0  0.00000000000E+00 -0.00000000000E+00 -0.18915121010E+04  0.18915121010E+04  0.25500000000E-02 0. -1.
    8880023    1    1    2    0    0  0.31108841912E+03 -0.91276292852E+03 -0.15656390801E+04  0.19531892135E+04  0.65864270000E+03 0. -1.
    8880022    1    1    2    0    0 -0.31108841912E+03  0.91276292852E+03  0.16720628808E+04  0.19362587892E+04  0.15294330000E+03 0.  0.
<mgrwt>
<rscale>  0 0.11166734E+04</rscale>
<asrwt>0</asrwt>
<pdfrwt beam="1">  1        2 0.29100186E+00 0.11677852E+04</pdfrwt>
<pdfrwt beam="2">  1       -2 0.30737475E+00 0.11677852E+04</pdfrwt>
<totfact> 0.21587198E-01</totfact>
</mgrwt>
</event>
<event>
 4    5  0.6615028E-008  0.1020354E+04  0.7818608E-02  0.9355400E-01
         -2   -1    0    0    0  501 -0.00000000000E+00  0.00000000000E+00  0.12557400273E+04  0.12557400273E+04  0.25500000000E-02 0.  1.
          2   -1    0    0  501    0  0.00000000000E+00 -0.00000000000E+00 -0.13837479279E+04  0.13837479279E+04  0.25500000000E-02 0. -1.
    8880023    1    1    2    0    0 -0.12065937360E+02 -0.77920828164E+03 -0.10216776183E+04  0.14439343804E+04  0.65864270000E+03 0.  0.
    8880022    1    1    2    0    0  0.12065937360E+02  0.77920828164E+03  0.89366971762E+03  0.11955535748E+04  0.15294330000E+03 0.  0.
<mgrwt>
<rscale>  0 0.95838741E+03</rscale>
<asrwt>0</asrwt>
<pdfrwt beam="1">  1        2 0.21288430E+00 0.10203535E+04</pdfrwt>
<pdfrwt beam="2">  1       -2 0.19319077E+00 0.10203535E+04</pdfrwt>
<totfact> 0.21599427E+00</totfact>
</mgrwt>
</event>
<event>
 4    5  0.6615028E-008  0.8089728E+03  0.7818608E-02  0.9691721E-01
          2   -1    0    0  501    0  0.00000000000E+00  0.00000000000E+00  0.13794703288E+04  0.13794703288E+04  0.25500000000E-02 0. -1.
         -2   -1    0    0    0  501 -0.00000000000E+00 -0.00000000000E+00 -0.62240616501E+03  0.62240616502E+03  0.25500000000E-02 0.  1.
    8880023    1    1    2    0    0 -0.98918340854E+02  0.45917524568E+03  0.11251865145E+04  0.13858144331E+04  0.65864270000E+03 0.  0.
    8880022    1    1    2    0    0  0.98918340854E+02 -0.45917524568E+03 -0.36812235077E+03  0.61606206063E+03  0.15294330000E+03 0.  0.
<mgrwt>
<rscale>  0 0.71511889E+03</rscale>
<asrwt>0</asrwt>
<pdfrwt beam="1">  1        2 0.21222620E+00 0.80897277E+03</pdfrwt>
<pdfrwt beam="2">  1       -2 0.95754797E-01 0.80897277E+03</pdfrwt>
<totfact> 0.13807616E+01</totfact>
</mgrwt>
</event>
<event>
 4    5  0.6615028E-008  0.9222806E+03  0.7818608E-02  0.9491171E-01
         -2   -1    0    0    0  501 -0.00000000000E+00  0.00000000000E+00  0.50743493157E+03  0.50743493158E+03  0.25500000000E-02 0.  1.
          2   -1    0    0  501    0  0.00000000000E+00 -0.00000000000E+00 -0.27776895277E+04  0.27776895277E+04  0.25500000000E-02 0. -1.
    8880023    1    1    2    0    0 -0.52152705732E+03 -0.38052698038E+03 -0.24330451447E+04  0.26019819631E+04  0.65864270000E+03 0.  0.
    8880022    1    1    2    0    0  0.52152705732E+03  0.38052698038E+03  0.16279054853E+03  0.68314249613E+03  0.15294330000E+03 0.  0.
<mgrwt>
<rscale>  0 0.84937885E+03</rscale>
<asrwt>0</asrwt>
<pdfrwt beam="1">  1        2 0.42733684E+00 0.92228058E+03</pdfrwt>
<pdfrwt beam="2">  1       -2 0.78066914E-01 0.92228058E+03</pdfrwt>
<totfact> 0.35809139E+00</totfact>
</mgrwt>
</event>
<event>
 4    5  0.6615028E-008  0.1182695E+04  0.7818608E-02  0.9174130E-01
         -2   -1    0    0    0  501 -0.00000000000E+00  0.00000000000E+00  0.10332473911E+04  0.10332473911E+04  0.25500000000E-02 0.  1.
          2   -1    0    0  501    0  0.00000000000E+00 -0.00000000000E+00 -0.34691173050E+04  0.34691173050E+04  0.25500000000E-02 0. -1.
    8880023    1    1    2    0    0  0.69967922832E+03 -0.68949670208E+03 -0.30924947836E+04  0.33109350518E+04  0.65864270000E+03 0. -1.
    8880022    1    1    2    0    0 -0.69967922832E+03  0.68949670208E+03  0.65662486963E+03  0.11914296442E+04  0.15294330000E+03 0.  0.
<mgrwt>
<rscale>  0 0.11324480E+04</rscale>
<asrwt>0</asrwt>
<pdfrwt beam="1">  1        2 0.53371035E+00 0.11826948E+04</pdfrwt>
<pdfrwt beam="2">  1       -2 0.15896114E+00 0.11826948E+04</pdfrwt>
<totfact> 0.21823741E-01</totfact>
</mgrwt>
</event>
<event>
 4    5  0.6615028E-008  0.9140969E+03  0.7818608E-02  0.9503770E-01
         -2   -1    0    0    0  501 -0.00000000000E+00  0.00000000000E+00  0.12908736288E+04  0.12908736288E+04  0.25500000000E-02 0.  1.
          2   -1    0    0  501    0  0.00000000000E+00 -0.00000000000E+00 -0.69533121788E+03  0.69533121789E+03  0.25500000000E-02 0. -1.
    8880023    1    1    2    0    0  0.42210483322E+03  0.47285342834E+03 -0.22181972515E+03  0.94062588294E+03  0.65864270000E+03 0. -1.
    8880022    1    1    2    0    0 -0.42210483322E+03 -0.47285342834E+03  0.81736213605E+03  0.10455789637E+04  0.15294330000E+03 0.  0.
<mgrwt>
<rscale>  0 0.84006426E+03</rscale>
<asrwt>0</asrwt>
<pdfrwt beam="1">  1        2 0.10697403E+00 0.91409686E+03</pdfrwt>
<pdfrwt beam="2">  1       -2 0.19859594E+00 0.91409686E+03</pdfrwt>
<totfact> 0.56245287E+00</totfact>
</mgrwt>
</event>
<event>
 4    5  0.6615028E-008  0.1048260E+04  0.7818608E-02  0.9320976E-01
         -2   -1    0    0    0  501 -0.00000000000E+00  0.00000000000E+00  0.25559144286E+03  0.25559144288E+03  0.25500000000E-02 0.  1.
          2   -1    0    0  501    0  0.00000000000E+00 -0.00000000000E+00 -0.36106544014E+04  0.36106544014E+04  0.25500000000E-02 0. -1.
    8880023    1    1    2    0    0  0.33240507665E+03  0.74467793215E+03 -0.22696149415E+04  0.25000001093E+04  0.65864270000E+03 0. -1.
    8880022    1    1    2    0    0 -0.33240507665E+03 -0.74467793215E+03 -0.10854480170E+04  0.13662457349E+04  0.15294330000E+03 0.  0.
<mgrwt>
<rscale>  0 0.98874469E+03</rscale>
<asrwt>0</asrwt>
<pdfrwt beam="1">  1        2 0.55548526E+00 0.10482598E+04</pdfrwt>
<pdfrwt beam="2">  1       -2 0.39321763E-01 0.10482598E+04</pdfrwt>
<totfact> 0.42846835E+00</totfact>
</mgrwt>
</event>
<event>
 4    5  0.6615028E-008  0.7698770E+03  0.7818608E-02  0.9780177E-01
          2   -1    0    0  501    0  0.00000000000E+00  0.00000000000E+00  0.40706377265E+03  0.40706377266E+03  0.25500000000E-02 0. -1.
         -2   -1    0    0    0  501 -0.00000000000E+00 -0.00000000000E+00 -0.15661151303E+04  0.15661151303E+04  0.25500000000E-02 0.  1.
    8880023    1    1    2    0    0  0.37980319055E+03  0.12103709086E+03 -0.34888362652E+02  0.77066714282E+03  0.65864270000E+03 0.  0.
    8880022    1    1    2    0    0 -0.37980319055E+03 -0.12103709086E+03 -0.11241629950E+04  0.12025117601E+04  0.15294330000E+03 0.  0.
<mgrwt>
<rscale>  0 0.66437304E+03</rscale>
<asrwt>0</asrwt>
<pdfrwt beam="1">  1        2 0.62625197E-01 0.76987703E+03</pdfrwt>
<pdfrwt beam="2">  1       -2 0.24094079E+00 0.76987703E+03</pdfrwt>
<totfact> 0.58346248E+00</totfact>
</mgrwt>
</event>
<event>
 4    5  0.6615028E-008  0.7939223E+03  0.7818608E-02  0.9724095E-01
          2   -1    0    0  501    0  0.00000000000E+00  0.00000000000E+00  0.12474467820E+04  0.12474467821E+04  0.25500000000E-02 0. -1.
         -2   -1    0    0    0  501 -0.00000000000E+00 -0.00000000000E+00 -0.71496596736E+03  0.71496596737E+03  0.25500000000E-02 0.  1.
    8880023    1    1    2    0    0 -0.97554360459E+02  0.43241824452E+03  0.10156314735E+04  0.12891159326E+04  0.65864270000E+03 0. -1.
    8880022    1    1    2    0    0  0.97554360459E+02 -0.43241824452E+03 -0.48315065880E+03  0.67329681683E+03  0.15294330000E+03 0.  0.
<mgrwt>
<rscale>  0 0.69600150E+03</rscale>
<asrwt>0</asrwt>
<pdfrwt beam="1">  1        2 0.19191489E+00 0.79392229E+03</pdfrwt>
<pdfrwt beam="2">  1       -2 0.10999477E+00 0.79392229E+03</pdfrwt>
<totfact> 0.11837252E+01</totfact>
</mgrwt>
</event>
<event>
 4    5  0.6615028E-008  0.8773842E+03  0.7818608E-02  0.9563359E-01
         -2   -1    0    0    0  501 -0.00000000000E+00  0.00000000000E+00  0.37829963674E+03  0.37829963675E+03  0.25500000000E-02 0.  1.
          2   -1    0    0  501    0  0.00000000000E+00 -0.00000000000E+00 -0.18022220084E+04  0.18022220084E+04  0.25500000000E-02 0. -1.
    8880023    1    1    2    0    0  0.57694604006E+03  0.55910800143E+02 -0.12999755626E+04  0.15683556422E+04  0.65864270000E+03 0.  0.
    8880022    1    1    2    0    0 -0.57694604006E+03 -0.55910800143E+02 -0.12394680906E+03  0.61216600298E+03  0.15294330000E+03 0.  0.
<mgrwt>
<rscale>  0 0.79769569E+03</rscale>
<asrwt>0</asrwt>
<pdfrwt beam="1">  1        2 0.27726492E+00 0.87738416E+03</pdfrwt>
<pdfrwt beam="2">  1       -2 0.58199945E-01 0.87738416E+03</pdfrwt>
<totfact> 0.24094912E+01</totfact>
</mgrwt>
</event>
<event>
 4    5  0.6615028E-008  0.7916997E+03  0.7818608E-02  0.9729039E-01
          2   -1    0    0  501    0  0.00000000000E+00  0.00000000000E+00  0.98235566336E+03  0.98235566337E+03  0.25500000000E-02 0. -1.
         -2   -1    0    0    0  501 -0.00000000000E+00 -0.00000000000E+00 -0.51934141584E+03  0.51934141585E+03  0.25500000000E-02 0.  1.
    8880023    1    1    2    0    0 -0.43387086766E+03  0.68806366254E+02  0.62549951711E+03  0.10089787401E+04  0.65864270000E+03 0.  0.
    8880022    1    1    2    0    0  0.43387086766E+03 -0.68806366254E+02 -0.16248526958E+03  0.49271833910E+03  0.15294330000E+03 0.  0.
<mgrwt>
<rscale>  0 0.69313843E+03</rscale>
<asrwt>0</asrwt>
<pdfrwt beam="1">  1        2 0.15113164E+00 0.79169972E+03</pdfrwt>
<pdfrwt beam="2">  1       -2 0.79898679E-01 0.79169972E+03</pdfrwt>
<totfact> 0.36274502E+01</totfact>
</mgrwt>
</event>
<event>
 4    5  0.6615028E-008  0.1032597E+04  0.7818608E-02  0.9340101E-01
          2   -1    0    0  501    0  0.00000000000E+00  0.00000000000E+00  0.22400464765E+04  0.22400464765E+04  0.25500000000E-02 0. -1.
         -2   -1    0    0    0  501 -0.00000000000E+00 -0.00000000000E+00 -0.45760222786E+03  0.45760222786E+03  0.25500000000E-02 0.  1.
    8880023    1    1    2    0    0 -0.41373533407E+03 -0.67916839272E+03  0.15365887479E+04  0.18513135388E+04  0.65864270000E+03 0.  0.
    8880022    1    1    2    0    0  0.41373533407E+03  0.67916839272E+03  0.24585550076E+03  0.84633516564E+03  0.15294330000E+03 0.  0.
<mgrwt>
<rscale>  0 0.97173486E+03</rscale>
<asrwt>0</asrwt>
<pdfrwt beam="1">  1        2 0.34462254E+00 0.10325971E+04</pdfrwt>
<pdfrwt beam="2">  1       -2 0.70400342E-01 0.10325971E+04</pdfrwt>
<totfact> 0.90233342E+00</totfact>
</mgrwt>
</event>
<event>
 4    5  0.6615028E-008  0.9956995E+03  0.7818608E-02  0.9387206E-01
         -2   -1    0    0    0  501 -0.00000000000E+00  0.00000000000E+00  0.48122807229E+03  0.48122807230E+03  0.25500000000E-02 0.  1.
          2   -1    0    0  501    0  0.00000000000E+00 -0.00000000000E+00 -0.17441512151E+04  0.17441512151E+04  0.25500000000E-02 0. -1.
    8880023    1    1    2    0    0  0.56905060470E+03  0.48351694492E+03 -0.10198892017E+04  0.14253390533E+04  0.65864270000E+03 0. -1.
    8880022    1    1    2    0    0 -0.56905060470E+03 -0.48351694492E+03 -0.24303394112E+03  0.80004023417E+03  0.15294330000E+03 0.  0.
<mgrwt>
<rscale>  0 0.93136115E+03</rscale>
<asrwt>0</asrwt>
<pdfrwt beam="1">  1        2 0.26833095E+00 0.99569947E+03</pdfrwt>
<pdfrwt beam="2">  1       -2 0.74035089E-01 0.99569947E+03</pdfrwt>
<totfact> 0.15231079E+01</totfact>
</mgrwt>
</event>
<event>
 4    5  0.6615028E-008  0.9772822E+03  0.7818608E-02  0.9411902E-01
          2   -1    0    0  501    0  0.00000000000E+00  0.00000000000E+00  0.25062189746E+04  0.25062189746E+04  0.25500000000E-02 0. -1.
         -2   -1    0    0    0  501 -0.00000000000E+00 -0.00000000000E+00 -0.46148161833E+03  0.46148161834E+03  0.25500000000E-02 0.  1.
    8880023    1    1    2    0    0 -0.58449011873E+03 -0.42384147664E+03  0.20027771727E+04  0.22284965573E+04  0.65864270000E+03 0.  0.
    8880022    1    1    2    0    0  0.58449011873E+03  0.42384147664E+03  0.41960183536E+02  0.73920403559E+03  0.15294330000E+03 0.  0.
<mgrwt>
<rscale>  0 0.91102621E+03</rscale>
<asrwt>0</asrwt>
<pdfrwt beam="1">  1        2 0.38557216E+00 0.97728220E+03</pdfrwt>
<pdfrwt beam="2">  1       -2 0.70997171E-01 0.97728220E+03</pdfrwt>
<totfact> 0.63098358E+00</totfact>
</mgrwt>
</event>
<event>
 4    5  0.6615028E-008  0.1011867E+04  0.7818608E-02  0.9366194E-01
         -2   -1    0    0    0  501 -0.00000000000E+00  0.00000000000E+00  0.66016376460E+03  0.66016376461E+03  0.25500000000E-02 0.  1.
          2   -1    0    0  501    0  0.00000000000E+00 -0.00000000000E+00 -0.15545014602E+04  0.15545014602E+04  0.25500000000E-02 0. -1.
    8880023    1    1    2    0    0 -0.36613039022E+03 -0.67528723704E+03 -0.10020357201E+04  0.14240611313E+04  0.65864270000E+03 0. -1.
    8880022    1    1    2    0    0  0.36613039022E+03  0.67528723704E+03  0.10769802449E+03  0.79060409349E+03  0.15294330000E+03 0.  0.
<mgrwt>
<rscale>  0 0.94910760E+03</rscale>
<asrwt>0</asrwt>
<pdfrwt beam="1">  1        2 0.23915407E+00 0.10118668E+04</pdfrwt>
<pdfrwt beam="2">  1       -2 0.10156366E+00 0.10118668E+04</pdfrwt>
<totfact> 0.93633959E+00</totfact>
</mgrwt>
</event>
<event>
 4    5  0.6615028E-008  0.9103223E+03  0.7818608E-02  0.9509660E-01
         -2   -1    0    0    0  501 -0.00000000000E+00  0.00000000000E+00  0.78787096934E+03  0.78787096934E+03  0.25500000000E-02 0.  1.
          2   -1    0    0  501    0  0.00000000000E+00 -0.00000000000E+00 -0.24757273985E+04  0.24757273985E+04  0.25500000000E-02 0. -1.
    8880023    1    1    2    0    0  0.33426797299E+03 -0.53211035719E+03 -0.22370265025E+04  0.24151551273E+04  0.65864270000E+03 0.  0.
    8880022    1    1    2    0    0 -0.33426797299E+03  0.53211035719E+03  0.54917007329E+03  0.84844324053E+03  0.15294330000E+03 0.  0.
<mgrwt>
<rscale>  0 0.83575357E+03</rscale>
<asrwt>0</asrwt>
<pdfrwt beam="1">  1        2 0.38088114E+00 0.91032231E+03</pdfrwt>
<pdfrwt beam="2">  1       -2 0.12121092E+00 0.91032231E+03</pdfrwt>
<totfact> 0.19003611E+00</totfact>
</mgrwt>
</event>
<event>
 4    5  0.6615028E-008  0.1223924E+04  0.7818608E-02  0.9134210E-01
         -2   -1    0    0    0  501 -0.00000000000E+00  0.00000000000E+00  0.12232712254E+04  0.12232712254E+04  0.25500000000E-02 0.  1.
          2   -1    0    0  501    0  0.00000000000E+00 -0.00000000000E+00 -0.10865319112E+04  0.10865319112E+04  0.25500000000E-02 0. -1.
    8880023    1    1    2    0    0 -0.10228276796E+04  0.13417781599E+03  0.28440483006E+03  0.12565335102E+04  0.65864270000E+03 0.  0.
    8880022    1    1    2    0    0  0.10228276796E+04 -0.13417781599E+03 -0.14766551586E+03  0.10532696265E+04  0.15294330000E+03 0.  0.
<mgrwt>
<rscale>  0 0.11759074E+04</rscale>
<asrwt>0</asrwt>
<pdfrwt beam="1">  1        2 0.16715876E+00 0.12239242E+04</pdfrwt>
<pdfrwt beam="2">  1       -2 0.18819557E+00 0.12239242E+04</pdfrwt>
<totfact> 0.34334045E+00</totfact>
</mgrwt>
</event>
<event>
 4    5  0.6615028E-008  0.7245683E+03  0.7818608E-02  0.9907421E-01
          2   -1    0    0  501    0  0.00000000000E+00  0.00000000000E+00  0.17068942626E+04  0.17068942626E+04  0.25500000000E-02 0. -1.
         -2   -1    0    0    0  501 -0.00000000000E+00 -0.00000000000E+00 -0.85611029673E+03  0.85611029674E+03  0.25500000000E-02 0.  1.
    8880023    1    1    2    0    0  0.26738957357E+03  0.14032748548E+03  0.15914623443E+04  0.17486427843E+04  0.65864270000E+03 0.  0.
    8880022    1    1    2    0    0 -0.26738957357E+03 -0.14032748548E+03 -0.74067837851E+03  0.81436177504E+03  0.15294330000E+03 0.  0.
<mgrwt>
<rscale>  0 0.59902975E+03</rscale>
<asrwt>0</asrwt>
<pdfrwt beam="1">  1        2 0.26259911E+00 0.72456828E+03</pdfrwt>
<pdfrwt beam="2">  1       -2 0.13170928E+00 0.72456828E+03</pdfrwt>
<totfact> 0.42233567E+00</totfact>
</mgrwt>
</event>
<event>
 4    5  0.6615028E-008  0.9502602E+03  0.7818608E-02  0.9449740E-01
         -2   -1    0    0    0  501 -0.00000000000E+00  0.00000000000E+00  0.89537275112E+03  0.89537275112E+03  0.25500000000E-02 0.  1.
          2   -1    0    0  501    0  0.00000000000E+00 -0.00000000000E+00 -0.13719183245E+04  0.13719183245E+04  0.25500000000E-02 0. -1.
    8880023    1    1    2    0    0  0.56339374824E+03  0.38957885401E+03 -0.10092299252E+04  0.13861960349E+04  0.65864270000E+03 0.  0.
    8880022    1    1    2    0    0 -0.56339374824E+03 -0.38957885401E+03  0.53268435183E+03  0.88109504070E+03  0.15294330000E+03 0.  0.
<mgrwt>
<rscale>  0 0.88092926E+03</rscale>
<asrwt>0</asrwt>
<pdfrwt beam="1">  1        2 0.21106436E+00 0.95026018E+03</pdfrwt>
<pdfrwt beam="2">  1       -2 0.13774965E+00 0.95026018E+03</pdfrwt>
<totfact> 0.56130757E+00</totfact>
</mgrwt>
</event>
<event>
 4    5  0.6615028E-008  0.1115040E+04  0.7818608E-02  0.9244493E-01
          2   -1    0    0  501    0  0.00000000000E+00  0.00000000000E+00  0.11023033248E+04  0.11023033248E+04  0.25500000000E-02 0. -1.
         -2   -1    0    0    0  501 -0.00000000000E+00 -0.00000000000E+00 -0.15259323093E+04  0.15259323093E+04  0.25500000000E-02 0.  1.
    8880023    1    1    2    0    0  0.22074795701E+03 -0.87222344298E+03  0.59229454165E+03  0.12625871951E+04  0.65864270000E+03 0.  1.
    8880022    1    1    2    0    0 -0.22074795701E+03  0.87222344298E+03 -0.10159235261E+04  0.13656484390E+04  0.15294330000E+03 0.  0.
<mgrwt>
<rscale>  0 0.10605754E+04</rscale>
<asrwt>0</asrwt>
<pdfrwt beam="1">  1        2 0.16958513E+00 0.11150397E+04</pdfrwt>
<pdfrwt beam="2">  1       -2 0.23475882E+00 0.11150397E+04</pdfrwt>
<totfact> 0.17017304E+00</totfact>
</mgrwt>
</event>
<event>
 4    5  0.6615028E-008  0.1151051E+04  0.7818608E-02  0.9206238E-01
         -2   -1    0    0    0  501 -0.00000000000E+00  0.00000000000E+00  0.10455426739E+04  0.10455426739E+04  0.25500000000E-02 0.  1.
          2   -1    0    0  501    0  0.00000000000E+00 -0.00000000000E+00 -0.21552303460E+04  0.21552303460E+04  0.25500000000E-02 0. -1.
    8880023    1    1    2    0    0 -0.41338740414E+03  0.84865705794E+03 -0.17175904146E+04  0.20676157734E+04  0.65864270000E+03 0.  0.
    8880022    1    1    2    0    0  0.41338740414E+03 -0.84865705794E+03  0.60790274246E+03  0.11331572465E+04  0.15294330000E+03 0.  0.
<mgrwt>
<rscale>  0 0.10989270E+04</rscale>
<asrwt>0</asrwt>
<pdfrwt beam="1">  1        2 0.33157390E+00 0.11510509E+04</pdfrwt>
<pdfrwt beam="2">  1       -2 0.16085272E+00 0.11510509E+04</pdfrwt>
<totfact> 0.13306893E+00</totfact>
</mgrwt>
</event>
<event>
 4    5  0.6615028E-008  0.8396566E+03  0.7818608E-02  0.9630828E-01
         -2   -1    0    0    0  501 -0.00000000000E+00  0.00000000000E+00  0.18158969166E+03  0.18158969168E+03  0.25500000000E-02 0.  1.
          2   -1    0    0  501    0  0.00000000000E+00 -0.00000000000E+00 -0.38082568985E+04  0.38082568985E+04  0.25500000000E-02 0. -1.
    8880023    1    1    2    0    0 -0.51018926388E+03  0.10449823242E+03 -0.31736949192E+04  0.32828893694E+04  0.65864270000E+03 0.  0.
    8880022    1    1    2    0    0  0.51018926388E+03 -0.10449823242E+03 -0.45297228759E+03  0.70695722070E+03  0.15294330000E+03 0.  0.
<mgrwt>
<rscale>  0 0.75288946E+03</rscale>
<asrwt>0</asrwt>
<pdfrwt beam="1">  1        2 0.58588562E+00 0.83965658E+03</pdfrwt>
<pdfrwt beam="2">  1       -2 0.27936879E-01 0.83965658E+03</pdfrwt>
<totfact> 0.60913505E+00</totfact>
</mgrwt>
</event>
<event>
 4    5  0.6615028E-008  0.9907052E+03  0.7818608E-02  0.9393820E-01
          2   -1    0    0  501    0  0.00000000000E+00  0.00000000000E+00  0.20824173711E+04  0.20824173711E+04  0.25500000000E-02 0. -1.
         -2   -1    0    0    0  501 -0.00000000000E+00 -0.00000000000E+00 -0.98226480218E+03  0.98226480218E+03  0.25500000000E-02 0.  1.
    8880023    1    1    2    0    0 -0.68102136929E+03 -0.28964895231E+03  0.17871545317E+04  0.20433839941E+04  0.65864270000E+03 0.  0.
    8880022    1    1    2    0    0  0.68102136929E+03  0.28964895231E+03 -0.68700196273E+03  0.10212981792E+04  0.15294330000E+03 0.  0.
<mgrwt>
<rscale>  0 0.92585994E+03</rscale>
<asrwt>0</asrwt>
<pdfrwt beam="1">  1        2 0.32037190E+00 0.99070522E+03</pdfrwt>
<pdfrwt beam="2">  1       -2 0.15111766E+00 0.99070522E+03</pdfrwt>
<totfact> 0.17658945E+00</totfact>
</mgrwt>
</event>
<event>
 4    5  0.6615028E-008  0.6938237E+03  0.7818608E-02  0.1002386E+00
         -2   -1    0    0    0  501 -0.00000000000E+00  0.00000000000E+00  0.24329750979E+04  0.24329750979E+04  0.25500000000E-02 0.  1.
          2   -1    0    0  501    0  0.00000000000E+00 -0.00000000000E+00 -0.10663142865E+04  0.10663142865E+04  0.25500000000E-02 0. -1.
    8880023    1    1    2    0    0  0.18001568455E+03 -0.12318850847E+03 -0.94498509589E+03  0.11723429929E+04  0.65864270000E+03 0. -1.
    8880022    1    1    2    0    0 -0.18001568455E+03  0.12318850847E+03  0.23116459073E+04  0.23269463915E+04  0.15294330000E+03 0.  0.
<mgrwt>
<rscale>  0 0.54616422E+03</rscale>
<asrwt>0</asrwt>
<pdfrwt beam="1">  1        2 0.16404835E+00 0.69382365E+03</pdfrwt>
<pdfrwt beam="2">  1       -2 0.37430386E+00 0.69382365E+03</pdfrwt>
<totfact> 0.26892707E-01</totfact>
</mgrwt>
</event>
<event>
 4    5  0.6615028E-008  0.6661535E+03  0.7818608E-02  0.1018585E+00
          2   -1    0    0  501    0  0.00000000000E+00  0.00000000000E+00  0.10775544208E+04  0.10775544208E+04  0.25500000000E-02 0. -1.
         -2   -1    0    0    0  501 -0.00000000000E+00 -0.00000000000E+00 -0.40894537937E+03  0.40894537938E+03  0.25500000000E-02 0.  1.
    8880023    1    1    2    0    0  0.93626078075E+02 -0.34415830292E+02  0.94442126732E+03  0.11557214320E+04  0.65864270000E+03 0. -1.
    8880022    1    1    2    0    0 -0.93626078075E+02  0.34415830292E+02 -0.27581222593E+03  0.33077836818E+03  0.15294330000E+03 0.  0.
<mgrwt>
<rscale>  0 0.48200840E+03</rscale>
<asrwt>0</asrwt>
<pdfrwt beam="1">  1        2 0.16577760E+00 0.66615351E+03</pdfrwt>
<pdfrwt beam="2">  1       -2 0.62914674E-01 0.66615351E+03</pdfrwt>
<totfact> 0.53944280E+01</totfact>
</mgrwt>
</event>
<event>
 4    5  0.6615028E-008  0.1742193E+04  0.7818608E-02  0.8755205E-01
         -2   -1    0    0    0  501 -0.00000000000E+00  0.00000000000E+00  0.10151101975E+04  0.10151101975E+04  0.25500000000E-02 0.  1.
          2   -1    0    0  501    0  0.00000000000E+00 -0.00000000000E+00 -0.42094702685E+04  0.42094702685E+04  0.25500000000E-02 0. -1.
    8880023    1    1    2    0    0  0.14939729429E+04  0.60784185988E+03 -0.11616684273E+03  0.17460618037E+04  0.65864270000E+03 0.  0.
    8880022    1    1    2    0    0 -0.14939729429E+04 -0.60784185988E+03 -0.30781932283E+04  0.34785186623E+04  0.15294330000E+03 0.  0.
<mgrwt>
<rscale>  0 0.17108410E+04</rscale>
<asrwt>0</asrwt>
<pdfrwt beam="1">  1        2 0.64761080E+00 0.17421932E+04</pdfrwt>
<pdfrwt beam="2">  1       -2 0.15617080E+00 0.17421932E+04</pdfrwt>
<totfact> 0.57266621E-02</totfact>
</mgrwt>
</event>
<event>
 4    5  0.6615028E-008  0.1638474E+04  0.7818608E-02  0.8817578E-01
          2   -1    0    0  501    0  0.00000000000E+00  0.00000000000E+00  0.43940746890E+04  0.43940746890E+04  0.25500000000E-02 0. -1.
         -2   -1    0    0    0  501 -0.00000000000E+00 -0.00000000000E+00 -0.72475982128E+03  0.72475982129E+03  0.25500000000E-02 0.  1.
    8880023    1    1    2    0    0 -0.14171058588E+04  0.49254169869E+03  0.31010275256E+04  0.35072736222E+04  0.65864270000E+03 0.  0.
    8880022    1    1    2    0    0  0.14171058588E+04 -0.49254169869E+03  0.56828734210E+03  0.16115608881E+04  0.15294330000E+03 0.  0.
<mgrwt>
<rscale>  0 0.16048435E+04</rscale>
<asrwt>0</asrwt>
<pdfrwt beam="1">  1        2 0.67601149E+00 0.16384738E+04</pdfrwt>
<pdfrwt beam="2">  1       -2 0.11150151E+00 0.16384738E+04</pdfrwt>
<totfact> 0.94608214E-02</totfact>
</mgrwt>
</event>
<event>
 4    5  0.6615028E-008  0.6740235E+03  0.7818608E-02  0.1012929E+00
          2   -1    0    0  501    0  0.00000000000E+00  0.00000000000E+00  0.16824004838E+03  0.16824004840E+03  0.25500000000E-02 0. -1.
         -2   -1    0    0    0  501 -0.00000000000E+00 -0.00000000000E+00 -0.18453407545E+04  0.18453407545E+04  0.25500000000E-02 0.  1.
    8880023    1    1    2    0    0  0.13853175167E+03  0.36143984820E+02 -0.55796173864E+03  0.87500225252E+03  0.65864270000E+03 0. -1.
    8880022    1    1    2    0    0 -0.13853175167E+03 -0.36143984820E+02 -0.11191389675E+04  0.11385785504E+04  0.15294330000E+03 0.  0.
<mgrwt>
<rscale>  0 0.50326976E+03</rscale>
<asrwt>0</asrwt>
<pdfrwt beam="1">  1        2 0.25883086E-01 0.67402347E+03</pdfrwt>
<pdfrwt beam="2">  1       -2 0.28389856E+00 0.67402347E+03</pdfrwt>
<totfact> 0.87607631E+00</totfact>
</mgrwt>
</event>
<event>
 4    5  0.6615028E-008  0.1048396E+04  0.7818608E-02  0.9320813E-01
         -2   -1    0    0    0  501 -0.00000000000E+00  0.00000000000E+00  0.13325023180E+04  0.13325023180E+04  0.25500000000E-02 0.  1.
          2   -1    0    0  501    0  0.00000000000E+00 -0.00000000000E+00 -0.70892025927E+03  0.70892025928E+03  0.25500000000E-02 0. -1.
    8880023    1    1    2    0    0  0.61334977926E+03 -0.53770370727E+03  0.84459217849E+02  0.10517921821E+04  0.65864270000E+03 0.  0.
    8880022    1    1    2    0    0 -0.61334977926E+03  0.53770370727E+03  0.53912284089E+03  0.98963039521E+03  0.15294330000E+03 0.  0.
<mgrwt>
<rscale>  0 0.98889195E+03</rscale>
<asrwt>0</asrwt>
<pdfrwt beam="1">  1        2 0.10906466E+00 0.10483956E+04</pdfrwt>
<pdfrwt beam="2">  1       -2 0.20500036E+00 0.10483956E+04</pdfrwt>
<totfact> 0.49199852E+00</totfact>
</mgrwt>
</event>
<event>
 4    5  0.6615028E-008  0.8839435E+03  0.7818608E-02  0.9552315E-01
          2   -1    0    0  501    0  0.00000000000E+00  0.00000000000E+00  0.18587451730E+04  0.18587451730E+04  0.25500000000E-02 0. -1.
         -2   -1    0    0    0  501 -0.00000000000E+00 -0.00000000000E+00 -0.37321594204E+03  0.37321594205E+03  0.25500000000E-02 0.  1.
    8880023    1    1    2    0    0  0.55220882731E+03 -0.20642506070E+03  0.36445387504E+03  0.95612903310E+03  0.65864270000E+03 0.  0.
    8880022    1    1    2    0    0 -0.55220882731E+03  0.20642506070E+03  0.11210753559E+04  0.12758320819E+04  0.15294330000E+03 0.  0.
<mgrwt>
<rscale>  0 0.80534317E+03</rscale>
<asrwt>0</asrwt>
<pdfrwt beam="1">  1        2 0.28596080E+00 0.88394349E+03</pdfrwt>
<pdfrwt beam="2">  1       -2 0.57417837E-01 0.88394349E+03</pdfrwt>
<totfact> 0.23066477E+01</totfact>
</mgrwt>
</event>
<event>
 4    5  0.6615028E-008  0.7907322E+03  0.7818608E-02  0.9731205E-01
         -2   -1    0    0    0  501 -0.00000000000E+00  0.00000000000E+00  0.30744417595E+03  0.30744417596E+03  0.25500000000E-02 0.  1.
          2   -1    0    0  501    0  0.00000000000E+00 -0.00000000000E+00 -0.19913717915E+04  0.19913717915E+04  0.25500000000E-02 0. -1.
    8880023    1    1    2    0    0  0.15101966826E+03  0.41065825544E+03 -0.16552488185E+04  0.18344225250E+04  0.65864270000E+03 0.  0.
    8880022    1    1    2    0    0 -0.15101966826E+03 -0.41065825544E+03 -0.28678797072E+02  0.46439344244E+03  0.15294330000E+03 0.  0.
<mgrwt>
<rscale>  0 0.69188855E+03</rscale>
<asrwt>0</asrwt>
<pdfrwt beam="1">  1        2 0.30636488E+00 0.79073216E+03</pdfrwt>
<pdfrwt beam="2">  1       -2 0.47299105E-01 0.79073216E+03</pdfrwt>
<totfact> 0.29395172E+01</totfact>
</mgrwt>
</event>
<event>
 4    5  0.6615028E-008  0.7127346E+03  0.7818608E-02  0.9947983E-01
         -2   -1    0    0    0  501 -0.00000000000E+00  0.00000000000E+00  0.12925152738E+04  0.12925152738E+04  0.25500000000E-02 0.  1.
          2   -1    0    0  501    0  0.00000000000E+00 -0.00000000000E+00 -0.10003024945E+04  0.10003024945E+04  0.25500000000E-02 0. -1.
    8880023    1    1    2    0    0 -0.20799687720E+03 -0.17583427438E+03 -0.84964661778E+03  0.11090040461E+04  0.65864270000E+03 0. -1.
    8880022    1    1    2    0    0  0.20799687720E+03  0.17583427438E+03  0.11418593971E+04  0.11838137222E+04  0.15294330000E+03 0.  0.
<mgrwt>
<rscale>  0 0.57991128E+03</rscale>
<asrwt>0</asrwt>
<pdfrwt beam="1">  1        2 0.15389269E+00 0.71273459E+03</pdfrwt>
<pdfrwt beam="2">  1       -2 0.19884850E+00 0.71273459E+03</pdfrwt>
<totfact> 0.35089808E+00</totfact>
</mgrwt>
</event>
<event>
 4    5  0.6615028E-008  0.9313217E+03  0.7818608E-02  0.9477513E-01
         -2   -1    0    0    0  501 -0.00000000000E+00  0.00000000000E+00  0.83294250152E+03  0.83294250152E+03  0.25500000000E-02 0.  1.
          2   -1    0    0  501    0  0.00000000000E+00 -0.00000000000E+00 -0.21316994372E+04  0.21316994372E+04  0.25500000000E-02 0. -1.
    8880023    1    1    2    0    0  0.48647727561E+03 -0.44372261805E+03 -0.18638507711E+04  0.20835786054E+04  0.65864270000E+03 0. -1.
    8880022    1    1    2    0    0 -0.48647727561E+03  0.44372261805E+03  0.56509383546E+03  0.88106333334E+03  0.15294330000E+03 0.  0.
<mgrwt>
<rscale>  0 0.85962171E+03</rscale>
<asrwt>0</asrwt>
<pdfrwt beam="1">  1        2 0.32795376E+00 0.93132170E+03</pdfrwt>
<pdfrwt beam="2">  1       -2 0.12814500E+00 0.93132170E+03</pdfrwt>
<totfact> 0.25660656E+00</totfact>
</mgrwt>
</event>
<event>
 4    5  0.6615028E-008  0.8752671E+03  0.7818608E-02  0.9566963E-01
          2   -1    0    0  501    0  0.00000000000E+00  0.00000000000E+00  0.25960546975E+04  0.25960546975E+04  0.25500000000E-02 0. -1.
         -2   -1    0    0    0  501 -0.00000000000E+00 -0.00000000000E+00 -0.49031307919E+03  0.49031307919E+03  0.25500000000E-02 0.  1.
    8880023    1    1    2    0    0 -0.56975772476E+03 -0.87512116651E+02  0.22985768392E+04  0.24595828767E+04  0.65864270000E+03 0. -1.
    8880022    1    1    2    0    0  0.56975772476E+03  0.87512116651E+02 -0.19283522084E+03  0.62678490002E+03  0.15294330000E+03 0.  0.
<mgrwt>
<rscale>  0 0.79521935E+03</rscale>
<asrwt>0</asrwt>
<pdfrwt beam="1">  1        2 0.39939303E+00 0.87526707E+03</pdfrwt>
<pdfrwt beam="2">  1       -2 0.75432782E-01 0.87526707E+03</pdfrwt>
<totfact> 0.49721839E+00</totfact>
</mgrwt>
</event>
<event>
 4    5  0.6615028E-008  0.1057314E+04  0.7818608E-02  0.9310140E-01
         -2   -1    0    0    0  501 -0.00000000000E+00  0.00000000000E+00  0.85944719694E+03  0.85944719695E+03  0.25500000000E-02 0.  1.
          2   -1    0    0  501    0  0.00000000000E+00 -0.00000000000E+00 -0.17578326650E+04  0.17578326650E+04  0.25500000000E-02 0. -1.
    8880023    1    1    2    0    0 -0.15622090087E+03  0.81221840265E+03 -0.13078511268E+04  0.16817813412E+04  0.65864270000E+03 0.  0.
    8880022    1    1    2    0    0  0.15622090087E+03 -0.81221840265E+03  0.40946565880E+03  0.93549852070E+03  0.15294330000E+03 0.  0.
<mgrwt>
<rscale>  0 0.99854717E+03</rscale>
<asrwt>0</asrwt>
<pdfrwt beam="1">  1        2 0.27043579E+00 0.10573145E+04</pdfrwt>
<pdfrwt beam="2">  1       -2 0.13222265E+00 0.10573145E+04</pdfrwt>
<totfact> 0.37460625E+00</totfact>
</mgrwt>
</event>
<event>
 4    5  0.6615028E-008  0.9074711E+03  0.7818608E-02  0.9514143E-01
          2   -1    0    0  501    0  0.00000000000E+00  0.00000000000E+00  0.25732785681E+04  0.25732785681E+04  0.25500000000E-02 0. -1.
         -2   -1    0    0    0  501 -0.00000000000E+00 -0.00000000000E+00 -0.84679590736E+03  0.84679590737E+03  0.25500000000E-02 0.  1.
    8880023    1    1    2    0    0  0.50400011195E+03  0.36834432215E+03  0.23533621115E+04  0.25222642777E+04  0.65864270000E+03 0. -1.
    8880022    1    1    2    0    0 -0.50400011195E+03 -0.36834432215E+03 -0.62687945073E+03  0.89781019779E+03  0.15294330000E+03 0.  0.
<mgrwt>
<rscale>  0 0.83249107E+03</rscale>
<asrwt>0</asrwt>
<pdfrwt beam="1">  1        2 0.39588901E+00 0.90747113E+03</pdfrwt>
<pdfrwt beam="2">  1       -2 0.13027630E+00 0.90747113E+03</pdfrwt>
<totfact> 0.13943204E+00</totfact>
</mgrwt>
</event>
<event>
 4    5  0.6615028E-008  0.1182459E+04  0.7818608E-02  0.9174365E-01
         -2   -1    0    0    0  501 -0.00000000000E+00  0.00000000000E+00  0.19912517637E+04  0.19912517637E+04  0.25500000000E-02 0.  1.
          2   -1    0    0  501    0  0.00000000000E+00 -0.00000000000E+00 -0.11143047557E+04  0.11143047557E+04  0.25500000000E-02 0. -1.
    8880023    1    1    2    0    0 -0.90414672256E+03 -0.38329791367E+03 -0.59950671461E+03  0.13257515203E+04  0.65864270000E+03 0. -1.
    8880022    1    1    2    0    0  0.90414672256E+03  0.38329791367E+03  0.14764537226E+04  0.17798049990E+04  0.15294330000E+03 0.  0.
<mgrwt>
<rscale>  0 0.11321986E+04</rscale>
<asrwt>0</asrwt>
<pdfrwt beam="1">  1        2 0.17143150E+00 0.11824588E+04</pdfrwt>
<pdfrwt beam="2">  1       -2 0.30634642E+00 0.11824588E+04</pdfrwt>
<totfact> 0.60792170E-01</totfact>
</mgrwt>
</event>
<event>
 4    5  0.6615028E-008  0.1344205E+04  0.7818608E-02  0.9028296E-01
          2   -1    0    0  501    0  0.00000000000E+00  0.00000000000E+00  0.42657881010E+04  0.42657881010E+04  0.25500000000E-02 0. -1.
         -2   -1    0    0    0  501 -0.00000000000E+00 -0.00000000000E+00 -0.40343560721E+03  0.40343560722E+03  0.25500000000E-02 0.  1.
    8880023    1    1    2    0    0  0.11715819932E+04  0.21718272239E+02  0.14160878404E+04  0.19524832978E+04  0.65864270000E+03 0.  0.
    8880022    1    1    2    0    0 -0.11715819932E+04 -0.21718272239E+02  0.24462646534E+04  0.27167404105E+04  0.15294330000E+03 0.  0.
<mgrwt>
<rscale>  0 0.13016011E+04</rscale>
<asrwt>0</asrwt>
<pdfrwt beam="1">  1        2 0.65627515E+00 0.13442047E+04</pdfrwt>
<pdfrwt beam="2">  1       -2 0.62067011E-01 0.13442047E+04</pdfrwt>
<totfact> 0.49311338E-01</totfact>
</mgrwt>
</event>
<event>
 4    5  0.6615028E-008  0.1011771E+04  0.7818608E-02  0.9366317E-01
         -2   -1    0    0    0  501 -0.00000000000E+00  0.00000000000E+00  0.85095464732E+03  0.85095464733E+03  0.25500000000E-02 0.  1.
          2   -1    0    0  501    0  0.00000000000E+00 -0.00000000000E+00 -0.13208710111E+04  0.13208710111E+04  0.25500000000E-02 0. -1.
    8880023    1    1    2    0    0  0.36176302985E+03 -0.67749344410E+03 -0.83117849081E+03  0.13094035842E+04  0.65864270000E+03 0. -1.
    8880022    1    1    2    0    0 -0.36176302985E+03  0.67749344410E+03  0.36126212706E+03  0.86242207417E+03  0.15294330000E+03 0.  0.
<mgrwt>
<rscale>  0 0.94900239E+03</rscale>
<asrwt>0</asrwt>
<pdfrwt beam="1">  1        2 0.20321092E+00 0.10117708E+04</pdfrwt>
<pdfrwt beam="2">  1       -2 0.13091610E+00 0.10117708E+04</pdfrwt>
<totfact> 0.67981513E+00</totfact>
</mgrwt>
</event>
<event>
 4    5  0.6615028E-008  0.8578295E+03  0.7818608E-02  0.9597436E-01
          2   -1    0    0  501    0  0.00000000000E+00  0.00000000000E+00  0.18078095093E+04  0.18078095093E+04  0.25500000000E-02 0. -1.
         -2   -1    0    0    0  501 -0.00000000000E+00 -0.00000000000E+00 -0.17721760515E+04  0.17721760515E+04  0.25500000000E-02 0.  1.
    8880023    1    1    2    0    0 -0.21479755682E+03 -0.50588861651E+03  0.16544330971E+04  0.18636041323E+04  0.65864270000E+03 0. -1.
    8880022    1    1    2    0    0  0.21479755682E+03  0.50588861651E+03 -0.16187996394E+04  0.17163814285E+04  0.15294330000E+03 0.  0.
<mgrwt>
<rscale>  0 0.77466113E+03</rscale>
<asrwt>0</asrwt>
<pdfrwt beam="1">  1        2 0.27812454E+00 0.85782952E+03</pdfrwt>
<pdfrwt beam="2">  1       -2 0.27264247E+00 0.85782952E+03</pdfrwt>
<totfact> 0.41110460E-01</totfact>
</mgrwt>
</event>
<event>
 4    5  0.6615028E-008  0.7155781E+03  0.7818608E-02  0.9937842E-01
          2   -1    0    0  501    0  0.00000000000E+00  0.00000000000E+00  0.22244791128E+04  0.22244791128E+04  0.25500000000E-02 0. -1.
         -2   -1    0    0    0  501 -0.00000000000E+00 -0.00000000000E+00 -0.68403228962E+03  0.68403228962E+03  0.25500000000E-02 0.  1.
    8880023    1    1    2    0    0 -0.95128267484E+02  0.26304442123E+03  0.21252347215E+04  0.22424706425E+04  0.65864270000E+03 0. -1.
    8880022    1    1    2    0    0  0.95128267484E+02 -0.26304442123E+03 -0.58478789832E+03  0.66604075990E+03  0.15294330000E+03 0.  0.
<mgrwt>
<rscale>  0 0.58461819E+03</rscale>
<asrwt>0</asrwt>
<pdfrwt beam="1">  1        2 0.34222756E+00 0.71557806E+03</pdfrwt>
<pdfrwt beam="2">  1       -2 0.10523573E+00 0.71557806E+03</pdfrwt>
<totfact> 0.38353874E+00</totfact>
</mgrwt>
</event>
<event>
 4    5  0.6615028E-008  0.7561310E+03  0.7818608E-02  0.9815229E-01
          2   -1    0    0  501    0  0.00000000000E+00  0.00000000000E+00  0.10499412376E+04  0.10499412376E+04  0.25500000000E-02 0. -1.
         -2   -1    0    0    0  501 -0.00000000000E+00 -0.00000000000E+00 -0.19561788811E+04  0.19561788811E+04  0.25500000000E-02 0.  1.
    8880023    1    1    2    0    0 -0.15806565089E+03  0.33606425546E+03  0.88867258583E+03  0.11668217965E+04  0.65864270000E+03 0. -1.
    8880022    1    1    2    0    0  0.15806565089E+03 -0.33606425546E+03 -0.17949102293E+04  0.18392983222E+04  0.15294330000E+03 0.  0.
<mgrwt>
<rscale>  0 0.64551649E+03</rscale>
<asrwt>0</asrwt>
<pdfrwt beam="1">  1        2 0.16152942E+00 0.75613103E+03</pdfrwt>
<pdfrwt beam="2">  1       -2 0.30095060E+00 0.75613103E+03</pdfrwt>
<totfact> 0.76799702E-01</totfact>
</mgrwt>
</event>
<event>
 4    5  0.6615028E-008  0.1182161E+04  0.7818608E-02  0.9174661E-01
         -2   -1    0    0    0  501 -0.00000000000E+00  0.00000000000E+00  0.81769179872E+03  0.81769179872E+03  0.25500000000E-02 0.  1.
          2   -1    0    0  501    0  0.00000000000E+00 -0.00000000000E+00 -0.30363655199E+04  0.30363655199E+04  0.25500000000E-02 0. -1.
    8880023    1    1    2    0    0 -0.72215941776E+03  0.66496679816E+03 -0.25467677761E+04  0.28077626999E+04  0.65864270000E+03 0.  0.
    8880022    1    1    2    0    0  0.72215941776E+03 -0.66496679816E+03  0.32809405490E+03  0.10462946187E+04  0.15294330000E+03 0.  0.
<mgrwt>
<rscale>  0 0.11318841E+04</rscale>
<asrwt>0</asrwt>
<pdfrwt beam="1">  1        2 0.46713315E+00 0.11821613E+04</pdfrwt>
<pdfrwt beam="2">  1       -2 0.12579874E+00 0.11821613E+04</pdfrwt>
<totfact> 0.77188831E-01</totfact>
</mgrwt>
</event>
<event>
 4    5  0.6615028E-008  0.7983176E+03  0.7818608E-02  0.9714446E-01
          2   -1    0    0  501    0  0.00000000000E+00  0.00000000000E+00  0.30789889277E+04  0.30789889277E+04  0.25500000000E-02 0. -1.
         -2   -1    0    0    0  501 -0.00000000000E+00 -0.00000000000E+00 -0.42703015875E+03  0.42703015876E+03  0.25500000000E-02 0.  1.
    8880023    1    1    2    0    0 -0.35429494989E+03  0.27924166728E+03  0.28723111088E+04  0.29811880404E+04  0.65864270000E+03 0. -1.
    8880022    1    1    2    0    0  0.35429494989E+03 -0.27924166728E+03 -0.22035233982E+03  0.52483104608E+03  0.15294330000E+03 0.  0.
<mgrwt>
<rscale>  0 0.70163186E+03</rscale>
<asrwt>0</asrwt>
<pdfrwt beam="1">  1        2 0.47369060E+00 0.79831762E+03</pdfrwt>
<pdfrwt beam="2">  1       -2 0.65696948E-01 0.79831762E+03</pdfrwt>
<totfact> 0.35087766E+00</totfact>
</mgrwt>
</event>
<event>
 4    5  0.6615028E-008  0.1554231E+04  0.7818608E-02  0.8872262E-01
         -2   -1    0    0    0  501 -0.00000000000E+00  0.00000000000E+00  0.13270637200E+04  0.13270637200E+04  0.25500000000E-02 0.  1.
          2   -1    0    0  501    0  0.00000000000E+00 -0.00000000000E+00 -0.22353322433E+04  0.22353322433E+04  0.25500000000E-02 0. -1.
    8880023    1    1    2    0    0  0.78511916436E+03  0.11685078708E+04 -0.13711527332E+04  0.20726053099E+04  0.65864270000E+03 0. -1.
    8880022    1    1    2    0    0 -0.78511916436E+03 -0.11685078708E+04  0.46288420989E+03  0.14897906535E+04  0.15294330000E+03 0.  0.
<mgrwt>
<rscale>  0 0.15184717E+04</rscale>
<asrwt>0</asrwt>
<pdfrwt beam="1">  1        2 0.34389727E+00 0.15542307E+04</pdfrwt>
<pdfrwt beam="2">  1       -2 0.20416365E+00 0.15542307E+04</pdfrwt>
<totfact> 0.57521851E-01</totfact>
</mgrwt>
</event>
<event>
 4    5  0.6615028E-008  0.1017706E+04  0.7818608E-02  0.9358750E-01
         -2   -1    0    0    0  501 -0.00000000000E+00  0.00000000000E+00  0.52592223286E+03  0.52592223287E+03  0.25500000000E-02 0.  1.
          2   -1    0    0  501    0  0.00000000000E+00 -0.00000000000E+00 -0.19063116967E+04  0.19063116967E+04  0.25500000000E-02 0. -1.
    8880023    1    1    2    0    0  0.20410989965E+03  0.74850193202E+03 -0.24189273893E+03  0.10460584576E+04  0.65864270000E+03 0.  0.
    8880022    1    1    2    0    0 -0.20410989965E+03 -0.74850193202E+03 -0.11384967249E+04  0.13861754719E+04  0.15294330000E+03 0.  0.
<mgrwt>
<rscale>  0 0.95549535E+03</rscale>
<asrwt>0</asrwt>
<pdfrwt beam="1">  1        2 0.29327872E+00 0.10177063E+04</pdfrwt>
<pdfrwt beam="2">  1       -2 0.80911114E-01 0.10177063E+04</pdfrwt>
<totfact> 0.10139089E+01</totfact>
</mgrwt>
</event>
<event>
 4    5  0.6615028E-008  0.1259566E+04  0.7818608E-02  0.9101288E-01
         -2   -1    0    0    0  501 -0.00000000000E+00  0.00000000000E+00  0.10209060602E+04  0.10209060602E+04  0.25500000000E-02 0.  1.
          2   -1    0    0  501    0  0.00000000000E+00 -0.00000000000E+00 -0.18339158072E+04  0.18339158072E+04  0.25500000000E-02 0. -1.
    8880023    1    1    2    0    0  0.94548122890E+03 -0.50868699714E+03 -0.11639076420E+04  0.17149893354E+04  0.65864270000E+03 0. -1.
    8880022    1    1    2    0    0 -0.94548122890E+03  0.50868699714E+03  0.35089789498E+03  0.11398325320E+04  0.15294330000E+03 0.  0.
<mgrwt>
<rscale>  0 0.12133073E+04</rscale>
<asrwt>0</asrwt>
<pdfrwt beam="1">  1        2 0.28214089E+00 0.12595664E+04</pdfrwt>
<pdfrwt beam="2">  1       -2 0.15706247E+00 0.12595664E+04</pdfrwt>
<totfact> 0.21140344E+00</totfact>
</mgrwt>
</event>
<event>
 4    5  0.6615028E-008  0.1190235E+04  0.7818608E-02  0.9166674E-01
         -2   -1    0    0    0  501 -0.00000000000E+00  0.00000000000E+00  0.12557420450E+04  0.12557420450E+04  0.25500000000E-02 0.  1.
          2   -1    0    0  501    0  0.00000000000E+00 -0.00000000000E+00 -0.12452710010E+04  0.12452710010E+04  0.25500000000E-02 0. -1.
    8880023    1    1    2    0    0  0.60089829697E+03  0.78852374447E+03 -0.59361078141E+03  0.13300497829E+04  0.65864270000E+03 0. -1.
    8880022    1    1    2    0    0 -0.60089829697E+03 -0.78852374447E+03  0.60408182542E+03  0.11709632632E+04  0.15294330000E+03 0.  0.
<mgrwt>
<rscale>  0 0.11404130E+04</rscale>
<asrwt>0</asrwt>
<pdfrwt beam="1">  1        2 0.19158015E+00 0.11902347E+04</pdfrwt>
<pdfrwt beam="2">  1       -2 0.19319108E+00 0.11902347E+04</pdfrwt>
<totfact> 0.25527768E+00</totfact>
</mgrwt>
</event>
<event>
 4    5  0.6615028E-008  0.7064080E+03  0.7818608E-02  0.9971590E-01
         -2   -1    0    0    0  501 -0.00000000000E+00  0.00000000000E+00  0.26782072469E+03  0.26782072470E+03  0.25500000000E-02 0.  1.
          2   -1    0    0  501    0  0.00000000000E+00 -0.00000000000E+00 -0.21257703699E+04  0.21257703699E+04  0.25500000000E-02 0. -1.
    8880023    1    1    2    0    0  0.79756997339E+02  0.24257127263E+03 -0.19564459956E+04  0.20800704654E+04  0.65864270000E+03 0. -1.
    8880022    1    1    2    0    0 -0.79756997339E+02 -0.24257127263E+03  0.98496350353E+02  0.31352062927E+03  0.15294330000E+03 0.  0.
<mgrwt>
<rscale>  0 0.56913726E+03</rscale>
<asrwt>0</asrwt>
<pdfrwt beam="1">  1        2 0.32704158E+00 0.70640796E+03</pdfrwt>
<pdfrwt beam="2">  1       -2 0.41203190E-01 0.70640796E+03</pdfrwt>
<totfact> 0.33008005E+01</totfact>
</mgrwt>
</event>
<event>
 4    5  0.7322887E-008  0.9398740E+03  0.7818608E-02  0.9464835E-01
          2   -1    0    0  501    0  0.00000000000E+00  0.00000000000E+00  0.20038072976E+04  0.20038072976E+04  0.25500000000E-02 0. -1.
         -2   -1    0    0    0  501 -0.00000000000E+00 -0.00000000000E+00 -0.15908226463E+04  0.15908226463E+04  0.25500000000E-02 0.  1.
    8880023    1    1    2    0    0  0.47403851679E+03  0.47417348116E+03  0.18089028723E+04  0.20385025910E+04  0.65864270000E+03 0. -1.
    8880022    1    1    2    0    0 -0.47403851679E+03 -0.47417348116E+03 -0.13959182211E+04  0.15561273529E+04  0.15294330000E+03 0.  0.
<mgrwt>
<rscale>  0 0.86926768E+03</rscale>
<asrwt>0</asrwt>
<pdfrwt beam="1">  1        2 0.30827805E+00 0.93987404E+03</pdfrwt>
<pdfrwt beam="2">  1       -2 0.24474195E+00 0.93987404E+03</pdfrwt>
<totfact> 0.46645258E-01</totfact>
</mgrwt>
</event>
<event>
 4    5  0.6615028E-008  0.8172981E+03  0.7818608E-02  0.9674571E-01
         -2   -1    0    0    0  501 -0.00000000000E+00  0.00000000000E+00  0.31853715657E+03  0.31853715658E+03  0.25500000000E-02 0.  1.
          2   -1    0    0  501    0  0.00000000000E+00 -0.00000000000E+00 -0.18953985209E+04  0.18953985209E+04  0.25500000000E-02 0. -1.
    8880023    1    1    2    0    0  0.36998302881E+03  0.31189502539E+03 -0.14894636974E+04  0.16989638786E+04  0.65864270000E+03 0. -1.
    8880022    1    1    2    0    0 -0.36998302881E+03 -0.31189502539E+03 -0.87397666892E+02  0.51497179890E+03  0.15294330000E+03 0.  0.
<mgrwt>
<rscale>  0 0.72551209E+03</rscale>
<asrwt>0</asrwt>
<pdfrwt beam="1">  1        2 0.29159977E+00 0.81729808E+03</pdfrwt>
<pdfrwt beam="2">  1       -2 0.49005718E-01 0.81729808E+03</pdfrwt>
<totfact> 0.30775590E+01</totfact>
</mgrwt>
</event>
<event>
 4    5  0.6615028E-008  0.9420847E+03  0.7818608E-02  0.9461595E-01
          2   -1    0    0  501    0  0.00000000000E+00  0.00000000000E+00  0.81891845033E+03  0.81891845033E+03  0.25500000000E-02 0. -1.
         -2   -1    0    0    0  501 -0.00000000000E+00 -0.00000000000E+00 -0.20465497386E+04  0.20465497386E+04  0.25500000000E-02 0.  1.
    8880023    1    1    2    0    0  0.48558975700E+03 -0.46681463365E+03  0.45527468899E+03  0.10463262221E+04  0.65864270000E+03 0.  0.
    8880022    1    1    2    0    0 -0.48558975700E+03  0.46681463365E+03 -0.16829059773E+04  0.18191419669E+04  0.15294330000E+03 0.  0.
<mgrwt>
<rscale>  0 0.87175449E+03</rscale>
<asrwt>0</asrwt>
<pdfrwt beam="1">  1        2 0.12598745E+00 0.94208467E+03</pdfrwt>
<pdfrwt beam="2">  1       -2 0.31485380E+00 0.94208467E+03</pdfrwt>
<totfact> 0.87302214E-01</totfact>
</mgrwt>
</event>
<event>
 4    5  0.6615028E-008  0.7572367E+03  0.7818608E-02  0.9812314E-01
         -2   -1    0    0    0  501 -0.00000000000E+00  0.00000000000E+00  0.18620590518E+03  0.18620590520E+03  0.25500000000E-02 0.  1.
          2   -1    0    0  501    0  0.00000000000E+00 -0.00000000000E+00 -0.19343017505E+04  0.19343017505E+04  0.25500000000E-02 0. -1.
    8880023    1    1    2    0    0  0.38048542104E+02  0.37168479236E+03 -0.13803246456E+04  0.15743899168E+04  0.65864270000E+03 0.  0.
    8880022    1    1    2    0    0 -0.38048542104E+02 -0.37168479236E+03 -0.36777119964E+03  0.54611773889E+03  0.15294330000E+03 0.  0.
<mgrwt>
<rscale>  0 0.64705846E+03</rscale>
<asrwt>0</asrwt>
<pdfrwt beam="1">  1        2 0.29758487E+00 0.75723674E+03</pdfrwt>
<pdfrwt beam="2">  1       -2 0.28647064E-01 0.75723674E+03</pdfrwt>
<totfact> 0.83214331E+01</totfact>
</mgrwt>
</event>
<event>
 4    5  0.6615028E-008  0.7532254E+03  0.7818608E-02  0.9822973E-01
          2   -1    0    0  501    0  0.00000000000E+00  0.00000000000E+00  0.20344529513E+04  0.20344529513E+04  0.25500000000E-02 0. -1.
         -2   -1    0    0    0  501 -0.00000000000E+00 -0.00000000000E+00 -0.94498498471E+03  0.94498498471E+03  0.25500000000E-02 0.  1.
    8880023    1    1    2    0    0 -0.36537503813E+03  0.62697028032E+01  0.19182577220E+04  0.20608399069E+04  0.65864270000E+03 0. -1.
    8880022    1    1    2    0    0  0.36537503813E+03 -0.62697028032E+01 -0.82878975532E+03  0.91859802918E+03  0.15294330000E+03 0.  0.
<mgrwt>
<rscale>  0 0.64144128E+03</rscale>
<asrwt>0</asrwt>
<pdfrwt beam="1">  1        2 0.31299276E+00 0.75322535E+03</pdfrwt>
<pdfrwt beam="2">  1       -2 0.14538230E+00 0.75322535E+03</pdfrwt>
<totfact> 0.21591370E+00</totfact>
</mgrwt>
</event>
<event>
 4    5  0.6615028E-008  0.6900475E+03  0.7818608E-02  0.1004130E+00
         -2   -1    0    0    0  501 -0.00000000000E+00  0.00000000000E+00  0.17401431151E+03  0.17401431153E+03  0.25500000000E-02 0.  1.
          2   -1    0    0  501    0  0.00000000000E+00 -0.00000000000E+00 -0.34607309112E+04  0.34607309112E+04  0.25500000000E-02 0. -1.
    8880023    1    1    2    0    0  0.12251389250E+03 -0.16536515953E+03 -0.33063431323E+04  0.33775835156E+04  0.65864270000E+03 0. -1.
    8880022    1    1    2    0    0 -0.12251389250E+03  0.16536515953E+03  0.19626532598E+02  0.25716170717E+03  0.15294330000E+03 0.  0.
<mgrwt>
<rscale>  0 0.53875792E+03</rscale>
<asrwt>0</asrwt>
<pdfrwt beam="1">  1        2 0.53242009E+00 0.69004746E+03</pdfrwt>
<pdfrwt beam="2">  1       -2 0.26771435E-01 0.69004746E+03</pdfrwt>
<totfact> 0.11944563E+01</totfact>
</mgrwt>
</event>
<event>
 4    5  0.6615028E-008  0.1779339E+04  0.7818608E-02  0.8734052E-01
         -2   -1    0    0    0  501 -0.00000000000E+00  0.00000000000E+00  0.14983735059E+04  0.14983735059E+04  0.25500000000E-02 0.  1.
          2   -1    0    0  501    0  0.00000000000E+00 -0.00000000000E+00 -0.24680491072E+04  0.24680491072E+04  0.25500000000E-02 0. -1.
    8880023    1    1    2    0    0  0.73087772488E+03 -0.14825834831E+04  0.38890336501E+03  0.18213434785E+04  0.65864270000E+03 0.  0.
    8880022    1    1    2    0    0 -0.73087772488E+03  0.14825834831E+04 -0.13585789663E+04  0.21450791346E+04  0.15294330000E+03 0.  0.
<mgrwt>
<rscale>  0 0.17487251E+04</rscale>
<asrwt>0</asrwt>
<pdfrwt beam="1">  1        2 0.37969986E+00 0.17793387E+04</pdfrwt>
<pdfrwt beam="2">  1       -2 0.23051900E+00 0.17793387E+04</pdfrwt>
<totfact> 0.28067223E-01</totfact>
</mgrwt>
</event>
<event>
 4    5  0.6615028E-008  0.1230057E+04  0.7818608E-02  0.9128444E-01
          2   -1    0    0  501    0  0.00000000000E+00  0.00000000000E+00  0.25635475846E+04  0.25635475846E+04  0.25500000000E-02 0. -1.
         -2   -1    0    0    0  501 -0.00000000000E+00 -0.00000000000E+00 -0.67490089457E+03  0.67490089457E+03  0.25500000000E-02 0.  1.
    8880023    1    1    2    0    0 -0.87200959091E+03  0.56465069120E+03  0.18060522693E+04  0.21851467080E+04  0.65864270000E+03 0.  0.
    8880022    1    1    2    0    0  0.87200959091E+03 -0.56465069120E+03  0.82594420667E+02  0.10533017711E+04  0.15294330000E+03 0.  0.
<mgrwt>
<rscale>  0 0.11823537E+04</rscale>
<asrwt>0</asrwt>
<pdfrwt beam="1">  1        2 0.39439193E+00 0.12300575E+04</pdfrwt>
<pdfrwt beam="2">  1       -2 0.10383091E+00 0.12300575E+04</pdfrwt>
<totfact> 0.23659221E+00</totfact>
</mgrwt>
</event>
<event>
 4    5  0.6615028E-008  0.1107754E+04  0.7818608E-02  0.9252472E-01
          2   -1    0    0  501    0  0.00000000000E+00  0.00000000000E+00  0.30796848335E+04  0.30796848335E+04  0.25500000000E-02 0. -1.
         -2   -1    0    0    0  501 -0.00000000000E+00 -0.00000000000E+00 -0.74273421876E+03  0.74273421877E+03  0.25500000000E-02 0.  1.
    8880023    1    1    2    0    0  0.63153439110E+02  0.88843642759E+03  0.26450342144E+04  0.28676338407E+04  0.65864270000E+03 0.  0.
    8880022    1    1    2    0    0 -0.63153439110E+02 -0.88843642759E+03 -0.30808359970E+03  0.95478521153E+03  0.15294330000E+03 0.  0.
<mgrwt>
<rscale>  0 0.10527861E+04</rscale>
<asrwt>0</asrwt>
<pdfrwt beam="1">  1        2 0.47379767E+00 0.11077535E+04</pdfrwt>
<pdfrwt beam="2">  1       -2 0.11426680E+00 0.11077535E+04</pdfrwt>
<totfact> 0.93162620E-01</totfact>
</mgrwt>
</event>
<event>
 4    5  0.6615028E-008  0.7964813E+03  0.7818608E-02  0.9718457E-01
          2   -1    0    0  501    0  0.00000000000E+00  0.00000000000E+00  0.16880995656E+04  0.16880995656E+04  0.25500000000E-02 0. -1.
         -2   -1    0    0    0  501 -0.00000000000E+00 -0.00000000000E+00 -0.55314536285E+03  0.55314536285E+03  0.25500000000E-02 0.  1.
    8880023    1    1    2    0    0  0.44763562558E+03  0.13948026282E+02  0.14627640649E+04  0.16655512951E+04  0.65864270000E+03 0. -1.
    8880022    1    1    2    0    0 -0.44763562558E+03 -0.13948026282E+02 -0.32780986217E+03  0.57569363335E+03  0.15294330000E+03 0.  0.
<mgrwt>
<rscale>  0 0.69928452E+03</rscale>
<asrwt>0</asrwt>
<pdfrwt beam="1">  1        2 0.25970762E+00 0.79648127E+03</pdfrwt>
<pdfrwt beam="2">  1       -2 0.85099289E-01 0.79648127E+03</pdfrwt>
<totfact> 0.12227207E+01</totfact>
</mgrwt>
</event>
<event>
 4    5  0.6615028E-008  0.1268822E+04  0.7818608E-02  0.9092963E-01
         -2   -1    0    0    0  501 -0.00000000000E+00  0.00000000000E+00  0.16820251234E+04  0.16820251234E+04  0.25500000000E-02 0.  1.
          2   -1    0    0  501    0  0.00000000000E+00 -0.00000000000E+00 -0.15377764828E+04  0.15377764828E+04  0.25500000000E-02 0. -1.
    8880023    1    1    2    0    0  0.14554829836E+03  0.10746692747E+04 -0.10151222584E+04  0.16249251560E+04  0.65864270000E+03 0. -1.
    8880022    1    1    2    0    0 -0.14554829836E+03 -0.10746692747E+04  0.11593708989E+04  0.15948764502E+04  0.15294330000E+03 0.  0.
<mgrwt>
<rscale>  0 0.12229960E+04</rscale>
<asrwt>0</asrwt>
<pdfrwt beam="1">  1        2 0.23658100E+00 0.12688217E+04</pdfrwt>
<pdfrwt beam="2">  1       -2 0.25877309E+00 0.12688217E+04</pdfrwt>
<totfact> 0.66137361E-01</totfact>
</mgrwt>
</event>
<event>
 4    5  0.6615028E-008  0.2152931E+04  0.7818608E-02  0.8548955E-01
         -2   -1    0    0    0  501 -0.00000000000E+00  0.00000000000E+00  0.14217201372E+04  0.14217201372E+04  0.25500000000E-02 0.  1.
          2   -1    0    0  501    0  0.00000000000E+00 -0.00000000000E+00 -0.32848025409E+04  0.32848025409E+04  0.25500000000E-02 0. -1.
    8880023    1    1    2    0    0  0.16435114688E+04  0.12248143460E+04 -0.41584643469E+03  0.21927240122E+04  0.65864270000E+03 0.  0.
    8880022    1    1    2    0    0 -0.16435114688E+04 -0.12248143460E+04 -0.14472359689E+04  0.25137986659E+04  0.15294330000E+03 0.  0.
<mgrwt>
<rscale>  0 0.21281239E+04</rscale>
<asrwt>0</asrwt>
<pdfrwt beam="1">  1        2 0.50535423E+00 0.21529306E+04</pdfrwt>
<pdfrwt beam="2">  1       -2 0.21872618E+00 0.21529306E+04</pdfrwt>
<totfact> 0.10083017E-01</totfact>
</mgrwt>
</event>
<event>
 4    5  0.6615028E-008  0.6860791E+03  0.7818608E-02  0.1006075E+00
         -2   -1    0    0    0  501 -0.00000000000E+00  0.00000000000E+00  0.21531591751E+04  0.21531591751E+04  0.25500000000E-02 0.  1.
          2   -1    0    0  501    0  0.00000000000E+00 -0.00000000000E+00 -0.36506625584E+03  0.36506625584E+03  0.25500000000E-02 0. -1.
    8880023    1    1    2    0    0 -0.98420538740E+02 -0.16494773747E+03 -0.26991002681E+02  0.68660984484E+03  0.65864270000E+03 0.  0.
    8880022    1    1    2    0    0  0.98420538740E+02  0.16494773747E+03  0.18150839219E+04  0.18316155861E+04  0.15294330000E+03 0.  0.
<mgrwt>
<rscale>  0 0.53064946E+03</rscale>
<asrwt>0</asrwt>
<pdfrwt beam="1">  1        2 0.56164039E-01 0.68607912E+03</pdfrwt>
<pdfrwt beam="2">  1       -2 0.33125526E+00 0.68607912E+03</pdfrwt>
<totfact> 0.19038846E+00</totfact>
</mgrwt>
</event>
<event>
 4    5  0.8785923E-008  0.1427899E+04  0.7818608E-02  0.8962302E-01
          2   -1    0    0  501    0  0.00000000000E+00  0.00000000000E+00  0.26009115141E+04  0.26009115141E+04  0.25500000000E-02 0. -1.
         -2   -1    0    0    0  501 -0.00000000000E+00 -0.00000000000E+00 -0.22153143029E+04  0.22153143029E+04  0.25500000000E-02 0.  1.
    8880023    1    1    2    0    0  0.42088232099E+03 -0.11949655374E+04  0.21850334337E+04  0.26102233384E+04  0.65864270000E+03 0.  0.
    8880022    1    1    2    0    0 -0.42088232099E+03  0.11949655374E+04 -0.17994362224E+04  0.22060024786E+04  0.15294330000E+03 0.  0.
<mgrwt>
<rscale>  0 0.13883397E+04</rscale>
<asrwt>0</asrwt>
<pdfrwt beam="1">  1        2 0.40014023E+00 0.14278987E+04</pdfrwt>
<pdfrwt beam="2">  1       -2 0.34081759E+00 0.14278987E+04</pdfrwt>
<totfact> 0.51301874E-02</totfact>
</mgrwt>
</event>
<event>
 4    5  0.6615028E-008  0.7961316E+03  0.7818608E-02  0.9719224E-01
         -2   -1    0    0    0  501 -0.00000000000E+00  0.00000000000E+00  0.67437069974E+03  0.67437069974E+03  0.25500000000E-02 0.  1.
          2   -1    0    0  501    0  0.00000000000E+00 -0.00000000000E+00 -0.11295561626E+04  0.11295561626E+04  0.25500000000E-02 0. -1.
    8880023    1    1    2    0    0 -0.91163808344E+02  0.43784065265E+03 -0.86696586211E+03  0.11770536476E+04  0.65864270000E+03 0.  0.
    8880022    1    1    2    0    0  0.91163808344E+02 -0.43784065265E+03  0.41178039927E+03  0.62687321470E+03  0.15294330000E+03 0.  0.
<mgrwt>
<rscale>  0 0.69883672E+03</rscale>
<asrwt>0</asrwt>
<pdfrwt beam="1">  1        2 0.17377787E+00 0.79613157E+03</pdfrwt>
<pdfrwt beam="2">  1       -2 0.10374934E+00 0.79613157E+03</pdfrwt>
<totfact> 0.16014831E+01</totfact>
</mgrwt>
</event>
<event>
 4    5  0.6615028E-008  0.9643649E+03  0.7818608E-02  0.9429741E-01
         -2   -1    0    0    0  501 -0.00000000000E+00  0.00000000000E+00  0.58265125930E+03  0.58265125931E+03  0.25500000000E-02 0.  1.
          2   -1    0    0  501    0  0.00000000000E+00 -0.00000000000E+00 -0.16056946394E+04  0.16056946394E+04  0.25500000000E-02 0. -1.
    8880023    1    1    2    0    0 -0.42210674054E+03  0.56392849853E+03 -0.11006475118E+04  0.14633607222E+04  0.65864270000E+03 0.  0.
    8880022    1    1    2    0    0  0.42210674054E+03 -0.56392849853E+03  0.77604131691E+02  0.72498517649E+03  0.15294330000E+03 0.  0.
<mgrwt>
<rscale>  0 0.89668048E+03</rscale>
<asrwt>0</asrwt>
<pdfrwt beam="1">  1        2 0.24702994E+00 0.96436490E+03</pdfrwt>
<pdfrwt beam="2">  1       -2 0.89638656E-01 0.96436490E+03</pdfrwt>
<totfact> 0.11817411E+01</totfact>
</mgrwt>
</event>
<event>
 4    5  0.6615028E-008  0.1202134E+04  0.7818608E-02  0.9155051E-01
         -2   -1    0    0    0  501 -0.00000000000E+00  0.00000000000E+00  0.85039988869E+03  0.85039988869E+03  0.25500000000E-02 0.  1.
          2   -1    0    0  501    0  0.00000000000E+00 -0.00000000000E+00 -0.21594293013E+04  0.21594293013E+04  0.25500000000E-02 0. -1.
    8880023    1    1    2    0    0 -0.41660382053E+03  0.91529031377E+03 -0.15528706398E+04  0.19638056248E+04  0.65864270000E+03 0. -1.
    8880022    1    1    2    0    0  0.41660382053E+03 -0.91529031377E+03  0.24384122723E+03  0.10460235652E+04  0.15294330000E+03 0.  0.
<mgrwt>
<rscale>  0 0.11529666E+04</rscale>
<asrwt>0</asrwt>
<pdfrwt beam="1">  1        2 0.33221989E+00 0.12021336E+04</pdfrwt>
<pdfrwt beam="2">  1       -2 0.13083075E+00 0.12021336E+04</pdfrwt>
<totfact> 0.22697804E+00</totfact>
</mgrwt>
</event>
<event>
 4    5  0.6615028E-008  0.7439216E+03  0.7818608E-02  0.9848668E-01
         -2   -1    0    0    0  501 -0.00000000000E+00  0.00000000000E+00  0.59903683850E+03  0.59903683851E+03  0.25500000000E-02 0.  1.
          2   -1    0    0  501    0  0.00000000000E+00 -0.00000000000E+00 -0.56055974551E+03  0.56055974552E+03  0.25500000000E-02 0. -1.
    8880023    1    1    2    0    0  0.14367555941E+03  0.31458927545E+03 -0.11257220196E+03  0.75239071334E+03  0.65864270000E+03 0. -1.
    8880022    1    1    2    0    0 -0.14367555941E+03 -0.31458927545E+03  0.15104929495E+03  0.40720587069E+03  0.15294330000E+03 0.  1.
<mgrwt>
<rscale>  0 0.62814895E+03</rscale>
<asrwt>0</asrwt>
<pdfrwt beam="1">  1        2 0.86239961E-01 0.74392156E+03</pdfrwt>
<pdfrwt beam="2">  1       -2 0.92159513E-01 0.74392156E+03</pdfrwt>
<totfact> 0.54505491E+01</totfact>
</mgrwt>
</event>
<event>
 4    5  0.6615028E-008  0.9257571E+03  0.7818608E-02  0.9485888E-01
         -2   -1    0    0    0  501 -0.00000000000E+00  0.00000000000E+00  0.56918761685E+03  0.56918761686E+03  0.25500000000E-02 0.  1.
          2   -1    0    0  501    0  0.00000000000E+00 -0.00000000000E+00 -0.27764038524E+04  0.27764038524E+04  0.25500000000E-02 0. -1.
    8880023    1    1    2    0    0 -0.59013307512E+03 -0.27378622846E+03 -0.24620658217E+04  0.26303601012E+04  0.65864270000E+03 0. -1.
    8880022    1    1    2    0    0  0.59013307512E+03  0.27378622846E+03  0.25484958618E+03  0.71523136805E+03  0.15294330000E+03 0.  0.
<mgrwt>
<rscale>  0 0.85332318E+03</rscale>
<asrwt>0</asrwt>
<pdfrwt beam="1">  1        2 0.42713904E+00 0.92575707E+03</pdfrwt>
<pdfrwt beam="2">  1       -2 0.87567328E-01 0.92575707E+03</pdfrwt>
<totfact> 0.27621509E+00</totfact>
</mgrwt>
</event>
<event>
 4    5  0.6615028E-008  0.7023298E+03  0.7818608E-02  0.9987670E-01
          2   -1    0    0  501    0  0.00000000000E+00  0.00000000000E+00  0.61644233466E+03  0.61644233467E+03  0.25500000000E-02 0. -1.
         -2   -1    0    0    0  501 -0.00000000000E+00 -0.00000000000E+00 -0.84161422260E+03  0.84161422260E+03  0.25500000000E-02 0.  1.
    8880023    1    1    2    0    0 -0.13131286473E+03 -0.20546027034E+03  0.37227150252E+03  0.79489198573E+03  0.65864270000E+03 0. -1.
    8880022    1    1    2    0    0  0.13131286473E+03  0.20546027034E+03 -0.59744339045E+03  0.66316457154E+03  0.15294330000E+03 0.  0.
<mgrwt>
<rscale>  0 0.56194203E+03</rscale>
<asrwt>0</asrwt>
<pdfrwt beam="1">  1        2 0.94837282E-01 0.70232984E+03</pdfrwt>
<pdfrwt beam="2">  1       -2 0.12947911E+00 0.70232984E+03</pdfrwt>
<totfact> 0.21432376E+01</totfact>
</mgrwt>
</event>
<event>
 4    5  0.6615028E-008  0.1043556E+04  0.7818608E-02  0.9326668E-01
         -2   -1    0    0    0  501 -0.00000000000E+00  0.00000000000E+00  0.76751446576E+03  0.76751446576E+03  0.25500000000E-02 0.  1.
          2   -1    0    0  501    0  0.00000000000E+00 -0.00000000000E+00 -0.11970540494E+04  0.11970540494E+04  0.25500000000E-02 0. -1.
    8880023    1    1    2    0    0 -0.80943801808E+03  0.30422247669E+01 -0.45953776537E+03  0.11402562538E+04  0.65864270000E+03 0. -1.
    8880022    1    1    2    0    0  0.80943801808E+03 -0.30422247669E+01  0.29998181778E+02  0.82431226133E+03  0.15294330000E+03 0.  0.
<mgrwt>
<rscale>  0 0.98364379E+03</rscale>
<asrwt>0</asrwt>
<pdfrwt beam="1">  1        2 0.18416216E+00 0.10435561E+04</pdfrwt>
<pdfrwt beam="2">  1       -2 0.11807915E+00 0.10435561E+04</pdfrwt>
<totfact> 0.10393909E+01</totfact>
</mgrwt>
</event>
<event>
 4    5  0.6615028E-008  0.1486069E+04  0.7818608E-02  0.8919536E-01
          2   -1    0    0  501    0  0.00000000000E+00  0.00000000000E+00  0.12656939011E+04  0.12656939011E+04  0.25500000000E-02 0. -1.
         -2   -1    0    0    0  501 -0.00000000000E+00 -0.00000000000E+00 -0.20761934852E+04  0.20761934852E+04  0.25500000000E-02 0.  1.
    8880023    1    1    2    0    0 -0.52202519988E+03 -0.12255942078E+04  0.39619470820E+03  0.15379765683E+04  0.65864270000E+03 0.  0.
    8880022    1    1    2    0    0  0.52202519988E+03  0.12255942078E+04 -0.12066942923E+04  0.18039108181E+04  0.15294330000E+03 0.  0.
<mgrwt>
<rscale>  0 0.14483632E+04</rscale>
<asrwt>0</asrwt>
<pdfrwt beam="1">  1        2 0.19472214E+00 0.14860692E+04</pdfrwt>
<pdfrwt beam="2">  1       -2 0.31941438E+00 0.14860692E+04</pdfrwt>
<totfact> 0.39527201E-01</totfact>
</mgrwt>
</event>
<event>
 4    5  0.6615028E-008  0.1791786E+04  0.7818608E-02  0.8727094E-01
          2   -1    0    0  501    0  0.00000000000E+00  0.00000000000E+00  0.18224694584E+04  0.18224694584E+04  0.25500000000E-02 0. -1.
         -2   -1    0    0    0  501 -0.00000000000E+00 -0.00000000000E+00 -0.18538425628E+04  0.18538425628E+04  0.25500000000E-02 0.  1.
    8880023    1    1    2    0    0  0.92190159850E+03  0.13880864449E+04  0.59737387517E+03  0.18887435741E+04  0.65864270000E+03 0.  0.
    8880022    1    1    2    0    0 -0.92190159850E+03 -0.13880864449E+04 -0.62874697959E+03  0.17875684471E+04  0.15294330000E+03 0.  0.
<mgrwt>
<rscale>  0 0.17614116E+04</rscale>
<asrwt>0</asrwt>
<pdfrwt beam="1">  1        2 0.28037992E+00 0.17917859E+04</pdfrwt>
<pdfrwt beam="2">  1       -2 0.28520655E+00 0.17917859E+04</pdfrwt>
<totfact> 0.29888590E-01</totfact>
</mgrwt>
</event>
<event>
 4    5  0.6615028E-008  0.1212999E+04  0.7818608E-02  0.9144589E-01
         -2   -1    0    0    0  501 -0.00000000000E+00  0.00000000000E+00  0.14983626866E+04  0.14983626866E+04  0.25500000000E-02 0.  1.
          2   -1    0    0  501    0  0.00000000000E+00 -0.00000000000E+00 -0.10773343992E+04  0.10773343992E+04  0.25500000000E-02 0. -1.
    8880023    1    1    2    0    0  0.99145220211E+03  0.23361964690E+03 -0.37970922442E+03  0.12710408765E+04  0.65864270000E+03 0.  0.
    8880022    1    1    2    0    0 -0.99145220211E+03 -0.23361964690E+03  0.80073751180E+03  0.13046562092E+04  0.15294330000E+03 0.  0.
<mgrwt>
<rscale>  0 0.11644128E+04</rscale>
<asrwt>0</asrwt>
<pdfrwt beam="1">  1        2 0.16574375E+00 0.12129987E+04</pdfrwt>
<pdfrwt beam="2">  1       -2 0.23051734E+00 0.12129987E+04</pdfrwt>
<totfact> 0.18548253E+00</totfact>
</mgrwt>
</event>
<event>
 4    5  0.6615028E-008  0.7582950E+03  0.7818608E-02  0.9809542E-01
         -2   -1    0    0    0  501 -0.00000000000E+00  0.00000000000E+00  0.32717544624E+03  0.32717544625E+03  0.25500000000E-02 0.  1.
          2   -1    0    0  501    0  0.00000000000E+00 -0.00000000000E+00 -0.16883354663E+04  0.16883354663E+04  0.25500000000E-02 0. -1.
    8880023    1    1    2    0    0 -0.30405654994E+03  0.22079550954E+03 -0.14158642846E+04  0.16061391351E+04  0.65864270000E+03 0.  0.
    8880022    1    1    2    0    0  0.30405654994E+03 -0.22079550954E+03  0.54704264557E+02  0.40937177745E+03  0.15294330000E+03 0.  0.
<mgrwt>
<rscale>  0 0.64852982E+03</rscale>
<asrwt>0</asrwt>
<pdfrwt beam="1">  1        2 0.25974391E+00 0.75829496E+03</pdfrwt>
<pdfrwt beam="2">  1       -2 0.50334685E-01 0.75829496E+03</pdfrwt>
<totfact> 0.38080972E+01</totfact>
</mgrwt>
</event>
<event>
 4    5  0.6615028E-008  0.1278716E+04  0.7818608E-02  0.9084161E-01
          2   -1    0    0  501    0  0.00000000000E+00  0.00000000000E+00  0.13988865917E+04  0.13988865917E+04  0.25500000000E-02 0. -1.
         -2   -1    0    0    0  501 -0.00000000000E+00 -0.00000000000E+00 -0.18530396602E+04  0.18530396602E+04  0.25500000000E-02 0.  1.
    8880023    1    1    2    0    0  0.66163700550E+03  0.87380828704E+03  0.85459985247E+03  0.15380037593E+04  0.65864270000E+03 0.  0.
    8880022    1    1    2    0    0 -0.66163700550E+03 -0.87380828704E+03 -0.13087529210E+04  0.17139224926E+04  0.15294330000E+03 0.  0.
<mgrwt>
<rscale>  0 0.12333437E+04</rscale>
<asrwt>0</asrwt>
<pdfrwt beam="1">  1        2 0.21521332E+00 0.12787160E+04</pdfrwt>
<pdfrwt beam="2">  1       -2 0.28508303E+00 0.12787160E+04</pdfrwt>
<totfact> 0.54829518E-01</totfact>
</mgrwt>
</event>
<event>
 4    5  0.6615028E-008  0.1745229E+04  0.7818608E-02  0.8753455E-01
         -2   -1    0    0    0  501 -0.00000000000E+00  0.00000000000E+00  0.12865225378E+04  0.12865225378E+04  0.25500000000E-02 0.  1.
          2   -1    0    0  501    0  0.00000000000E+00 -0.00000000000E+00 -0.28176369896E+04  0.28176369896E+04  0.25500000000E-02 0. -1.
    8880023    1    1    2    0    0 -0.15649229960E+04 -0.40376859061E+03 -0.17435340324E+04  0.24669280870E+04  0.65864270000E+03 0.  0.
    8880022    1    1    2    0    0  0.15649229960E+04  0.40376859061E+03  0.21241958056E+03  0.16372314404E+04  0.15294330000E+03 0.  0.
<mgrwt>
<rscale>  0 0.17139383E+04</rscale>
<asrwt>0</asrwt>
<pdfrwt beam="1">  1        2 0.43348261E+00 0.17452287E+04</pdfrwt>
<pdfrwt beam="2">  1       -2 0.19792655E+00 0.17452287E+04</pdfrwt>
<totfact> 0.28376968E-01</totfact>
</mgrwt>
</event>
<event>
 4    5  0.6615028E-008  0.9854578E+03  0.7818608E-02  0.9400835E-01
         -2   -1    0    0    0  501 -0.00000000000E+00  0.00000000000E+00  0.33837740855E+03  0.33837740856E+03  0.25500000000E-02 0.  1.
          2   -1    0    0  501    0  0.00000000000E+00 -0.00000000000E+00 -0.29366024514E+04  0.29366024514E+04  0.25500000000E-02 0. -1.
    8880023    1    1    2    0    0 -0.35979778836E+03 -0.63864109025E+03 -0.22352456151E+04  0.24428364777E+04  0.65864270000E+03 0. -1.
    8880022    1    1    2    0    0  0.35979778836E+03  0.63864109025E+03 -0.36297942776E+03  0.83214338227E+03  0.15294330000E+03 0.  0.
<mgrwt>
<rscale>  0 0.92006958E+03</rscale>
<asrwt>0</asrwt>
<pdfrwt beam="1">  1        2 0.45178498E+00 0.98545781E+03</pdfrwt>
<pdfrwt beam="2">  1       -2 0.52058065E-01 0.98545781E+03</pdfrwt>
<totfact> 0.68006712E+00</totfact>
</mgrwt>
</event>
<event>
 4    5  0.6615028E-008  0.8987405E+03  0.7818608E-02  0.9528057E-01
         -2   -1    0    0    0  501 -0.00000000000E+00  0.00000000000E+00  0.76221683901E+03  0.76221683901E+03  0.25500000000E-02 0.  1.
          2   -1    0    0  501    0  0.00000000000E+00 -0.00000000000E+00 -0.11523889265E+04  0.11523889265E+04  0.25500000000E-02 0. -1.
    8880023    1    1    2    0    0 -0.17705739548E+03  0.58529896006E+03 -0.76587264591E+03  0.11808028243E+04  0.65864270000E+03 0.  0.
    8880022    1    1    2    0    0  0.17705739548E+03 -0.58529896006E+03  0.37570055838E+03  0.73380294121E+03  0.15294330000E+03 0.  0.
<mgrwt>
<rscale>  0 0.82246553E+03</rscale>
<asrwt>0</asrwt>
<pdfrwt beam="1">  1        2 0.17729060E+00 0.89874045E+03</pdfrwt>
<pdfrwt beam="2">  1       -2 0.11726413E+00 0.89874045E+03</pdfrwt>
<totfact> 0.11402377E+01</totfact>
</mgrwt>
</event>
<event>
 4    5  0.6615028E-008  0.7289974E+03  0.7818608E-02  0.9893240E-01
          2   -1    0    0  501    0  0.00000000000E+00  0.00000000000E+00  0.10156251069E+04  0.10156251069E+04  0.25500000000E-02 0. -1.
         -2   -1    0    0    0  501 -0.00000000000E+00 -0.00000000000E+00 -0.30627983725E+03  0.30627983726E+03  0.25500000000E-02 0.  1.
    8880023    1    1    2    0    0  0.25705789102E+03  0.17761819251E+03  0.63363737339E+03  0.96588483209E+03  0.65864270000E+03 0. -1.
    8880022    1    1    2    0    0 -0.25705789102E+03 -0.17761819251E+03  0.75707896297E+02  0.35602011211E+03  0.15294330000E+03 0.  0.
<mgrwt>
<rscale>  0 0.60590008E+03</rscale>
<asrwt>0</asrwt>
<pdfrwt beam="1">  1        2 0.15625002E+00 0.72899739E+03</pdfrwt>
<pdfrwt beam="2">  1       -2 0.47119975E-01 0.72899739E+03</pdfrwt>
<totfact> 0.10664769E+02</totfact>
</mgrwt>
</event>
<event>
 4    5  0.6615028E-008  0.1247441E+04  0.7818608E-02  0.9112332E-01
          2   -1    0    0  501    0  0.00000000000E+00  0.00000000000E+00  0.12674487534E+04  0.12674487534E+04  0.25500000000E-02 0. -1.
         -2   -1    0    0    0  501 -0.00000000000E+00 -0.00000000000E+00 -0.12503282551E+04  0.12503282551E+04  0.25500000000E-02 0.  1.
    8880023    1    1    2    0    0  0.75326879960E+03 -0.74490525906E+03  0.49950482734E+03  0.13437310029E+04  0.65864270000E+03 0.  0.
    8880022    1    1    2    0    0 -0.75326879960E+03  0.74490525906E+03 -0.48238432899E+03  0.11740460056E+04  0.15294330000E+03 0.  0.
<mgrwt>
<rscale>  0 0.12005998E+04</rscale>
<asrwt>0</asrwt>
<pdfrwt beam="1">  1        2 0.19499212E+00 0.12474406E+04</pdfrwt>
<pdfrwt beam="2">  1       -2 0.19235819E+00 0.12474406E+04</pdfrwt>
<totfact> 0.24947879E+00</totfact>
</mgrwt>
</event>
<event>
 4    5  0.6615028E-008  0.1106936E+04  0.7818608E-02  0.9253373E-01
         -2   -1    0    0    0  501 -0.00000000000E+00  0.00000000000E+00  0.52894398865E+03  0.52894398866E+03  0.25500000000E-02 0.  1.
          2   -1    0    0  501    0  0.00000000000E+00 -0.00000000000E+00 -0.36292957469E+04  0.36292957469E+04  0.25500000000E-02 0. -1.
    8880023    1    1    2    0    0  0.75278846834E+03  0.47413695852E+03 -0.30606325848E+04  0.32546548755E+04  0.65864270000E+03 0.  0.
    8880022    1    1    2    0    0 -0.75278846834E+03 -0.47413695852E+03 -0.39719173455E+02  0.90358486002E+03  0.15294330000E+03 0.  0.
<mgrwt>
<rscale>  0 0.10519111E+04</rscale>
<asrwt>0</asrwt>
<pdfrwt beam="1">  1        2 0.55835318E+00 0.11069357E+04</pdfrwt>
<pdfrwt beam="2">  1       -2 0.81376000E-01 0.11069357E+04</pdfrwt>
<totfact> 0.89280728E-01</totfact>
</mgrwt>
</event>
<event>
 4    5  0.6615028E-008  0.7148991E+03  0.7818608E-02  0.9940239E-01
         -2   -1    0    0    0  501 -0.00000000000E+00  0.00000000000E+00  0.11724799476E+04  0.11724799476E+04  0.25500000000E-02 0.  1.
          2   -1    0    0  501    0  0.00000000000E+00 -0.00000000000E+00 -0.37032405246E+03  0.37032405247E+03  0.25500000000E-02 0. -1.
    8880023    1    1    2    0    0  0.16974983960E+03 -0.22012609295E+03  0.38583565054E+02  0.71593952440E+03  0.65864270000E+03 0. -1.
    8880022    1    1    2    0    0 -0.16974983960E+03  0.22012609295E+03  0.76357233011E+03  0.82686447570E+03  0.15294330000E+03 0.  0.
<mgrwt>
<rscale>  0 0.58350131E+03</rscale>
<asrwt>0</asrwt>
<pdfrwt beam="1">  1        2 0.56972932E-01 0.71489909E+03</pdfrwt>
<pdfrwt beam="2">  1       -2 0.18038153E+00 0.71489909E+03</pdfrwt>
<totfact> 0.15925951E+01</totfact>
</mgrwt>
</event>
<event>
 4    5  0.6615028E-008  0.1420763E+04  0.7818608E-02  0.8967715E-01
          2   -1    0    0  501    0  0.00000000000E+00  0.00000000000E+00  0.13469662697E+04  0.13469662697E+04  0.25500000000E-02 0. -1.
         -2   -1    0    0    0  501 -0.00000000000E+00 -0.00000000000E+00 -0.16615397461E+04  0.16615397461E+04  0.25500000000E-02 0.  1.
    8880023    1    1    2    0    0 -0.11464566889E+04  0.51999464599E+03  0.49438779523E+03  0.15043227279E+04  0.65864270000E+03 0.  0.
    8880022    1    1    2    0    0  0.11464566889E+04 -0.51999464599E+03 -0.80896127160E+03  0.15041832878E+04  0.15294330000E+03 0.  0.
<mgrwt>
<rscale>  0 0.13809629E+04</rscale>
<asrwt>0</asrwt>
<pdfrwt beam="1">  1        2 0.20722558E+00 0.14207630E+04</pdfrwt>
<pdfrwt beam="2">  1       -2 0.25562150E+00 0.14207630E+04</pdfrwt>
<totfact> 0.87469514E-01</totfact>
</mgrwt>
</event>
<event>
 4    5  0.6615028E-008  0.7894818E+03  0.7818608E-02  0.9734018E-01
          2   -1    0    0  501    0  0.00000000000E+00  0.00000000000E+00  0.66636060086E+03  0.66636060087E+03  0.25500000000E-02 0. -1.
         -2   -1    0    0    0  501 -0.00000000000E+00 -0.00000000000E+00 -0.69219017813E+03  0.69219017814E+03  0.25500000000E-02 0.  1.
    8880023    1    1    2    0    0  0.29676915587E+03 -0.31843268849E+03  0.24116422792E+03  0.82549482134E+03  0.65864270000E+03 0.  0.
    8880022    1    1    2    0    0 -0.29676915587E+03  0.31843268849E+03 -0.26699380519E+03  0.53305595766E+03  0.15294330000E+03 0.  0.
<mgrwt>
<rscale>  0 0.69027017E+03</rscale>
<asrwt>0</asrwt>
<pdfrwt beam="1">  1        2 0.10251702E+00 0.78948180E+03</pdfrwt>
<pdfrwt beam="2">  1       -2 0.10649080E+00 0.78948180E+03</pdfrwt>
<totfact> 0.31283120E+01</totfact>
</mgrwt>
</event>
<event>
 4    5  0.6615028E-008  0.1963782E+04  0.7818608E-02  0.8636969E-01
         -2   -1    0    0    0  501 -0.00000000000E+00  0.00000000000E+00  0.14871421537E+04  0.14871421537E+04  0.25500000000E-02 0.  1.
          2   -1    0    0  501    0  0.00000000000E+00 -0.00000000000E+00 -0.27733036581E+04  0.27733036581E+04  0.25500000000E-02 0. -1.
    8880023    1    1    2    0    0  0.16086212571E+04  0.91376560228E+03 -0.13824809973E+04  0.24016023482E+04  0.65864270000E+03 0.  0.
    8880022    1    1    2    0    0 -0.16086212571E+04 -0.91376560228E+03  0.96319492886E+02  0.18588434636E+04  0.15294330000E+03 0.  0.
<mgrwt>
<rscale>  0 0.19363538E+04</rscale>
<asrwt>0</asrwt>
<pdfrwt beam="1">  1        2 0.42666210E+00 0.19637821E+04</pdfrwt>
<pdfrwt beam="2">  1       -2 0.22879110E+00 0.19637821E+04</pdfrwt>
<totfact> 0.18663953E-01</totfact>
</mgrwt>
</event>
<event>
 4    5  0.6615028E-008  0.8885145E+03  0.7818608E-02  0.9544727E-01
          2   -1    0    0  501    0  0.00000000000E+00  0.00000000000E+00  0.90275118635E+03  0.90275118635E+03  0.25500000000E-02 0. -1.
         -2   -1    0    0    0  501 -0.00000000000E+00 -0.00000000000E+00 -0.25460028481E+04  0.25460028481E+04  0.25500000000E-02 0.  1.
    8880023    1    1    2    0    0 -0.11061874695E+03  0.58601307139E+03  0.63285353454E+03  0.10908536242E+04  0.65864270000E+03 0. -1.
    8880022    1    1    2    0    0  0.11061874695E+03 -0.58601307139E+03 -0.22761051963E+04  0.23579004102E+04  0.15294330000E+03 0.  0.
<mgrwt>
<rscale>  0 0.81065105E+03</rscale>
<asrwt>0</asrwt>
<pdfrwt beam="1">  1        2 0.13888480E+00 0.88851451E+03</pdfrwt>
<pdfrwt beam="2">  1       -2 0.39169274E+00 0.88851451E+03</pdfrwt>
<totfact> 0.25447503E-01</totfact>
</mgrwt>
</event>
<event>
 4    5  0.6615028E-008  0.9491809E+03  0.7818608E-02  0.9451294E-01
         -2   -1    0    0    0  501 -0.00000000000E+00  0.00000000000E+00  0.37535885092E+03  0.37535885093E+03  0.25500000000E-02 0.  1.
          2   -1    0    0  501    0  0.00000000000E+00 -0.00000000000E+00 -0.24897666636E+04  0.24897666636E+04  0.25500000000E-02 0. -1.
    8880023    1    1    2    0    0 -0.12612193276E+03  0.67173468060E+03 -0.19143375971E+04  0.21367341587E+04  0.65864270000E+03 0. -1.
    8880022    1    1    2    0    0  0.12612193276E+03 -0.67173468060E+03 -0.20007021556E+03  0.72839135580E+03  0.15294330000E+03 0.  0.
<mgrwt>
<rscale>  0 0.87972005E+03</rscale>
<asrwt>0</asrwt>
<pdfrwt beam="1">  1        2 0.38304101E+00 0.94918093E+03</pdfrwt>
<pdfrwt beam="2">  1       -2 0.57747517E-01 0.94918093E+03</pdfrwt>
<totfact> 0.10088221E+01</totfact>
</mgrwt>
</event>
<event>
 4    5  0.6615028E-008  0.6624205E+03  0.7818608E-02  0.1021803E+00
         -2   -1    0    0    0  501 -0.00000000000E+00  0.00000000000E+00  0.22743767708E+03  0.22743767709E+03  0.25500000000E-02 0.  1.
          2   -1    0    0  501    0  0.00000000000E+00 -0.00000000000E+00 -0.19704298770E+04  0.19704298770E+04  0.25500000000E-02 0. -1.
    8880023    1    1    2    0    0  0.21936745587E+02  0.67152565333E+02 -0.18719550792E+04  0.19857030776E+04  0.65864270000E+03 0. -1.
    8880022    1    1    2    0    0 -0.21936745587E+02 -0.67152565333E+02  0.12896287924E+03  0.21216447647E+03  0.15294330000E+03 0.  0.
<mgrwt>
<rscale>  0 0.47041519E+03</rscale>
<asrwt>0</asrwt>
<pdfrwt beam="1">  1        2 0.30314305E+00 0.66242048E+03</pdfrwt>
<pdfrwt beam="2">  1       -2 0.34990413E-01 0.66242048E+03</pdfrwt>
<totfact> 0.55320772E+01</totfact>
</mgrwt>
</event>
<event>
 4    5  0.6615028E-008  0.7991971E+03  0.7818608E-02  0.9712535E-01
         -2   -1    0    0    0  501 -0.00000000000E+00  0.00000000000E+00  0.16748314191E+03  0.16748314193E+03  0.25500000000E-02 0.  1.
          2   -1    0    0  501    0  0.00000000000E+00 -0.00000000000E+00 -0.45381499505E+04  0.45381499505E+04  0.25500000000E-02 0. -1.
    8880023    1    1    2    0    0 -0.17789013250E+03  0.41624624064E+03 -0.40549155587E+04  0.41329234479E+04  0.65864270000E+03 0.  0.
    8880022    1    1    2    0    0  0.17789013250E+03 -0.41624624064E+03 -0.31575124994E+03  0.57270964454E+03  0.15294330000E+03 0.  0.
<mgrwt>
<rscale>  0 0.70275359E+03</rscale>
<asrwt>0</asrwt>
<pdfrwt beam="1">  1        2 0.69817682E+00 0.79919712E+03</pdfrwt>
<pdfrwt beam="2">  1       -2 0.25766641E-01 0.79919712E+03</pdfrwt>
<totfact> 0.17210472E+00</totfact>
</mgrwt>
</event>
<event>
 4    5  0.6615028E-008  0.7064676E+03  0.7818608E-02  0.9971360E-01
          2   -1    0    0  501    0  0.00000000000E+00  0.00000000000E+00  0.26693745269E+04  0.26693745269E+04  0.25500000000E-02 0. -1.
         -2   -1    0    0    0  501 -0.00000000000E+00 -0.00000000000E+00 -0.32663897066E+03  0.32663897067E+03  0.25500000000E-02 0.  1.
    8880023    1    1    2    0    0 -0.10198220100E+03  0.23427723884E+03  0.25415799644E+04  0.26379395588E+04  0.65864270000E+03 0. -1.
    8880022    1    1    2    0    0  0.10198220100E+03 -0.23427723884E+03 -0.19884440819E+03  0.35807393879E+03  0.15294330000E+03 0.  0.
<mgrwt>
<rscale>  0 0.56924085E+03</rscale>
<asrwt>0</asrwt>
<pdfrwt beam="1">  1        2 0.41067301E+00 0.70646755E+03</pdfrwt>
<pdfrwt beam="2">  1       -2 0.50252149E-01 0.70646755E+03</pdfrwt>
<totfact> 0.11005610E+01</totfact>
</mgrwt>
</event>
<event>
 4    5  0.6615028E-008  0.9711974E+03  0.7818608E-02  0.9420250E-01
          2   -1    0    0  501    0  0.00000000000E+00  0.00000000000E+00  0.16847238287E+04  0.16847238287E+04  0.25500000000E-02 0. -1.
         -2   -1    0    0    0  501 -0.00000000000E+00 -0.00000000000E+00 -0.85498151955E+03  0.85498151955E+03  0.25500000000E-02 0.  1.
    8880023    1    1    2    0    0  0.66819507049E+03 -0.25085745433E+03  0.13357741416E+04  0.16515195664E+04  0.65864270000E+03 0. -1.
    8880022    1    1    2    0    0 -0.66819507049E+03  0.25085745433E+03 -0.50603183244E+03  0.88818578184E+03  0.15294330000E+03 0.  0.
<mgrwt>
<rscale>  0 0.90427752E+03</rscale>
<asrwt>0</asrwt>
<pdfrwt beam="1">  1        2 0.25918828E+00 0.97119736E+03</pdfrwt>
<pdfrwt beam="2">  1       -2 0.13153562E+00 0.97119736E+03</pdfrwt>
<totfact> 0.42086671E+00</totfact>
</mgrwt>
</event>
<event>
 4    5  0.6615028E-008  0.9062881E+03  0.7818608E-02  0.9516012E-01
          2   -1    0    0  501    0  0.00000000000E+00  0.00000000000E+00  0.18175122411E+04  0.18175122411E+04  0.25500000000E-02 0. -1.
         -2   -1    0    0    0  501 -0.00000000000E+00 -0.00000000000E+00 -0.81343745500E+03  0.81343745500E+03  0.25500000000E-02 0.  1.
    8880023    1    1    2    0    0 -0.36659680488E+03 -0.50314487401E+03  0.15456506005E+04  0.17917572288E+04  0.65864270000E+03 0. -1.
    8880022    1    1    2    0    0  0.36659680488E+03  0.50314487401E+03 -0.54157581438E+03  0.83919246739E+03  0.15294330000E+03 0.  0.
<mgrwt>
<rscale>  0 0.83113577E+03</rscale>
<asrwt>0</asrwt>
<pdfrwt beam="1">  1        2 0.27961727E+00 0.90628814E+03</pdfrwt>
<pdfrwt beam="2">  1       -2 0.12514422E+00 0.90628814E+03</pdfrwt>
<totfact> 0.40683692E+00</totfact>
</mgrwt>
</event>
<event>
 4    5  0.6615028E-008  0.7450098E+03  0.7818608E-02  0.9845587E-01
         -2   -1    0    0    0  501 -0.00000000000E+00  0.00000000000E+00  0.11633323633E+04  0.11633323633E+04  0.25500000000E-02 0.  1.
          2   -1    0    0  501    0  0.00000000000E+00 -0.00000000000E+00 -0.10531599249E+04  0.10531599249E+04  0.25500000000E-02 0. -1.
    8880023    1    1    2    0    0 -0.18831223937E+03 -0.29286151851E+03 -0.88164359949E+03  0.11542681713E+04  0.65864270000E+03 0. -1.
    8880022    1    1    2    0    0  0.18831223937E+03  0.29286151851E+03  0.99181603790E+03  0.10622241169E+04  0.15294330000E+03 0.  0.
<mgrwt>
<rscale>  0 0.62972424E+03</rscale>
<asrwt>0</asrwt>
<pdfrwt beam="1">  1        2 0.16202460E+00 0.74500978E+03</pdfrwt>
<pdfrwt beam="2">  1       -2 0.17897421E+00 0.74500978E+03</pdfrwt>
<totfact> 0.43922698E+00</totfact>
</mgrwt>
</event>
<event>
 4    5  0.6615028E-008  0.6764315E+03  0.7818608E-02  0.1011419E+00
         -2   -1    0    0    0  501 -0.00000000000E+00  0.00000000000E+00  0.27674335946E+03  0.27674335948E+03  0.25500000000E-02 0.  1.
          2   -1    0    0  501    0  0.00000000000E+00 -0.00000000000E+00 -0.11930682103E+04  0.11930682103E+04  0.25500000000E-02 0. -1.
    8880023    1    1    2    0    0  0.77402619963E+02 -0.13325982918E+03 -0.10241653702E+04  0.12273851309E+04  0.65864270000E+03 0. -1.
    8880022    1    1    2    0    0 -0.77402619963E+02  0.13325982918E+03  0.10784051938E+03  0.24242643891E+03  0.15294330000E+03 0.  0.
<mgrwt>
<rscale>  0 0.50914644E+03</rscale>
<asrwt>0</asrwt>
<pdfrwt beam="1">  1        2 0.18354895E+00 0.67643149E+03</pdfrwt>
<pdfrwt beam="2">  1       -2 0.42575902E-01 0.67643149E+03</pdfrwt>
<totfact> 0.10213272E+02</totfact>
</mgrwt>
</event>
<event>
 4    5  0.6615028E-008  0.8353137E+03  0.7818608E-02  0.9639081E-01
          2   -1    0    0  501    0  0.00000000000E+00  0.00000000000E+00  0.27807086931E+04  0.27807086931E+04  0.25500000000E-02 0. -1.
         -2   -1    0    0    0  501 -0.00000000000E+00 -0.00000000000E+00 -0.41389914985E+03  0.41389914986E+03  0.25500000000E-02 0.  1.
    8880023    1    1    2    0    0 -0.38455200324E+03 -0.34067359988E+03  0.25053740125E+04  0.26409558674E+04  0.65864270000E+03 0. -1.
    8880022    1    1    2    0    0  0.38455200324E+03  0.34067359988E+03 -0.13856446927E+03  0.55365197553E+03  0.15294330000E+03 0.  0.
<mgrwt>
<rscale>  0 0.74762686E+03</rscale>
<asrwt>0</asrwt>
<pdfrwt beam="1">  1        2 0.42780134E+00 0.83531368E+03</pdfrwt>
<pdfrwt beam="2">  1       -2 0.63676791E-01 0.83531368E+03</pdfrwt>
<totfact> 0.56516856E+00</totfact>
</mgrwt>
</event>
<event>
 4    5  0.6615028E-008  0.1019576E+04  0.7818608E-02  0.9356383E-01
         -2   -1    0    0    0  501 -0.00000000000E+00  0.00000000000E+00  0.60432552533E+03  0.60432552533E+03  0.25500000000E-02 0.  1.
          2   -1    0    0  501    0  0.00000000000E+00 -0.00000000000E+00 -0.21423592302E+04  0.21423592302E+04  0.25500000000E-02 0. -1.
    8880023    1    1    2    0    0  0.66489768803E+03 -0.40451870261E+03 -0.16560889024E+04  0.19447789014E+04  0.65864270000E+03 0.  0.
    8880022    1    1    2    0    0 -0.66489768803E+03  0.40451870261E+03  0.11805519750E+03  0.80190585419E+03  0.15294330000E+03 0.  1.
<mgrwt>
<rscale>  0 0.95753781E+03</rscale>
<asrwt>0</asrwt>
<pdfrwt beam="1">  1        2 0.32959372E+00 0.10195757E+04</pdfrwt>
<pdfrwt beam="2">  1       -2 0.92973159E-01 0.10195757E+04</pdfrwt>
<totfact> 0.54565335E+00</totfact>
</mgrwt>
</event>
<event>
 4    5  0.6615028E-008  0.1548092E+04  0.7818608E-02  0.8876402E-01
         -2   -1    0    0    0  501 -0.00000000000E+00  0.00000000000E+00  0.11730939761E+04  0.11730939761E+04  0.25500000000E-02 0.  1.
          2   -1    0    0  501    0  0.00000000000E+00 -0.00000000000E+00 -0.24385563308E+04  0.24385563308E+04  0.25500000000E-02 0. -1.
    8880023    1    1    2    0    0  0.10198260380E+04 -0.96059093394E+03 -0.15312880689E+04  0.21774832827E+04  0.65864270000E+03 0. -1.
    8880022    1    1    2    0    0 -0.10198260380E+04  0.96059093394E+03  0.26582571422E+03  0.14341670243E+04  0.15294330000E+03 0.  0.
<mgrwt>
<rscale>  0 0.15121671E+04</rscale>
<asrwt>0</asrwt>
<pdfrwt beam="1">  1        2 0.37516251E+00 0.15480925E+04</pdfrwt>
<pdfrwt beam="2">  1       -2 0.18047600E+00 0.15480925E+04</pdfrwt>
<totfact> 0.63658016E-01</totfact>
</mgrwt>
</event>
<event>
 4    5  0.6615028E-008  0.6628947E+03  0.7818608E-02  0.1021369E+00
          2   -1    0    0  501    0  0.00000000000E+00  0.00000000000E+00  0.50110661331E+03  0.50110661332E+03  0.25500000000E-02 0. -1.
         -2   -1    0    0    0  501 -0.00000000000E+00 -0.00000000000E+00 -0.12952814630E+04  0.12952814630E+04  0.25500000000E-02 0.  1.
    8880023    1    1    2    0    0 -0.45186430202E+02 -0.59811074556E+02  0.27212078817E+03  0.71657456537E+03  0.65864270000E+03 0. -1.
    8880022    1    1    2    0    0  0.45186430202E+02  0.59811074556E+02 -0.10662956378E+04  0.10798135109E+04  0.15294330000E+03 0.  0.
<mgrwt>
<rscale>  0 0.47195809E+03</rscale>
<asrwt>0</asrwt>
<pdfrwt beam="1">  1        2 0.77093326E-01 0.66289470E+03</pdfrwt>
<pdfrwt beam="2">  1       -2 0.19927407E+00 0.66289470E+03</pdfrwt>
<totfact> 0.85051936E+00</totfact>
</mgrwt>
</event>
<event>
 4    5  0.6615028E-008  0.1501124E+04  0.7818608E-02  0.8908842E-01
         -2   -1    0    0    0  501 -0.00000000000E+00  0.00000000000E+00  0.14151624581E+04  0.14151624581E+04  0.25500000000E-02 0.  1.
          2   -1    0    0  501    0  0.00000000000E+00 -0.00000000000E+00 -0.23261171921E+04  0.23261171921E+04  0.25500000000E-02 0. -1.
    8880023    1    1    2    0    0 -0.12074218995E+04 -0.60141165126E+03 -0.16209553776E+04  0.22092691461E+04  0.65864270000E+03 0.  0.
    8880022    1    1    2    0    0  0.12074218995E+04  0.60141165126E+03  0.71000064365E+03  0.15320105041E+04  0.15294330000E+03 0.  0.
<mgrwt>
<rscale>  0 0.14638677E+04</rscale>
<asrwt>0</asrwt>
<pdfrwt beam="1">  1        2 0.35786418E+00 0.15011242E+04</pdfrwt>
<pdfrwt beam="2">  1       -2 0.21771730E+00 0.15011242E+04</pdfrwt>
<totfact> 0.42002172E-01</totfact>
</mgrwt>
</event>
<event>
 4    5  0.6615028E-008  0.8304882E+03  0.7818608E-02  0.9648383E-01
         -2   -1    0    0    0  501 -0.00000000000E+00  0.00000000000E+00  0.10504561429E+04  0.10504561429E+04  0.25500000000E-02 0.  1.
          2   -1    0    0  501    0  0.00000000000E+00 -0.00000000000E+00 -0.23377513065E+04  0.23377513065E+04  0.25500000000E-02 0. -1.
    8880023    1    1    2    0    0 -0.28288490547E+03 -0.41937640818E+03 -0.21900009963E+04  0.23421816778E+04  0.65864270000E+03 0. -1.
    8880022    1    1    2    0    0  0.28288490547E+03  0.41937640818E+03  0.90270583277E+03  0.10460257717E+04  0.15294330000E+03 0.  0.
<mgrwt>
<rscale>  0 0.74174979E+03</rscale>
<asrwt>0</asrwt>
<pdfrwt beam="1">  1        2 0.35965405E+00 0.83048820E+03</pdfrwt>
<pdfrwt beam="2">  1       -2 0.16160864E+00 0.83048820E+03</pdfrwt>
<totfact> 0.10913015E+00</totfact>
</mgrwt>
</event>
<event>
 4    5  0.6615028E-008  0.2437732E+04  0.7818608E-02  0.8433529E-01
          2   -1    0    0  501    0  0.00000000000E+00  0.00000000000E+00  0.35885992544E+04  0.35885992544E+04  0.25500000000E-02 0. -1.
         -2   -1    0    0    0  501 -0.00000000000E+00 -0.00000000000E+00 -0.20286757925E+04  0.20286757925E+04  0.25500000000E-02 0.  1.
    8880023    1    1    2    0    0 -0.22002666935E+04  0.81703878903E+03  0.20845007385E+04  0.32074412607E+04  0.65864270000E+03 0.  0.
    8880022    1    1    2    0    0  0.22002666935E+04 -0.81703878903E+03 -0.52457727659E+03  0.24098337863E+04  0.15294330000E+03 0.  0.
<mgrwt>
<rscale>  0 0.24160219E+04</rscale>
<asrwt>0</asrwt>
<pdfrwt beam="1">  1        2 0.55209218E+00 0.24377318E+04</pdfrwt>
<pdfrwt beam="2">  1       -2 0.31210397E+00 0.24377318E+04</pdfrwt>
<totfact> 0.15901865E-02</totfact>
</mgrwt>
</event>
<event>
 4    5  0.6615028E-008  0.7525598E+03  0.7818608E-02  0.9824765E-01
         -2   -1    0    0    0  501 -0.00000000000E+00  0.00000000000E+00  0.51766976610E+03  0.51766976610E+03  0.25500000000E-02 0.  1.
          2   -1    0    0  501    0  0.00000000000E+00 -0.00000000000E+00 -0.24238677058E+04  0.24238677058E+04  0.25500000000E-02 0. -1.
    8880023    1    1    2    0    0 -0.17480568092E+03 -0.31934149678E+03 -0.22780481500E+04  0.23991351770E+04  0.65864270000E+03 0. -1.
    8880022    1    1    2    0    0  0.17480568092E+03  0.31934149678E+03  0.37185021026E+03  0.54240229492E+03  0.15294330000E+03 0.  0.
<mgrwt>
<rscale>  0 0.64050298E+03</rscale>
<asrwt>0</asrwt>
<pdfrwt beam="1">  1        2 0.37290272E+00 0.75255978E+03</pdfrwt>
<pdfrwt beam="2">  1       -2 0.79641504E-01 0.75255978E+03</pdfrwt>
<totfact> 0.56312963E+00</totfact>
</mgrwt>
</event>
<event>
 4    5  0.6615028E-008  0.2274644E+04  0.7818608E-02  0.8497388E-01
          2   -1    0    0  501    0  0.00000000000E+00  0.00000000000E+00  0.23499433430E+04  0.23499433430E+04  0.25500000000E-02 0. -1.
         -2   -1    0    0    0  501 -0.00000000000E+00 -0.00000000000E+00 -0.22421419443E+04  0.22421419443E+04  0.25500000000E-02 0.  1.
    8880023    1    1    2    0    0 -0.14741721834E+04 -0.16021901511E+04 -0.49484358907E+03  0.23278482103E+04  0.65864270000E+03 0.  0.
    8880022    1    1    2    0    0  0.14741721834E+04  0.16021901511E+04  0.60264498782E+03  0.22642370770E+04  0.15294330000E+03 0.  0.
<mgrwt>
<rscale>  0 0.22512665E+04</rscale>
<asrwt>0</asrwt>
<pdfrwt beam="1">  1        2 0.36152975E+00 0.22746444E+04</pdfrwt>
<pdfrwt beam="2">  1       -2 0.34494491E+00 0.22746444E+04</pdfrwt>
<totfact> 0.61330820E-02</totfact>
</mgrwt>
</event>
<event>
 4    5  0.6615028E-008  0.7380923E+03  0.7818608E-02  0.9865539E-01
          2   -1    0    0  501    0  0.00000000000E+00  0.00000000000E+00  0.32386366583E+04  0.32386366583E+04  0.25500000000E-02 0. -1.
         -2   -1    0    0    0  501 -0.00000000000E+00 -0.00000000000E+00 -0.40790266888E+03  0.40790266889E+03  0.25500000000E-02 0.  1.
    8880023    1    1    2    0    0 -0.15719082914E+02  0.33275052867E+03  0.31032273072E+04  0.31897962208E+04  0.65864270000E+03 0. -1.
    8880022    1    1    2    0    0  0.15719082914E+02 -0.33275052867E+03 -0.27249331783E+03  0.45674310633E+03  0.15294330000E+03 0.  0.
<mgrwt>
<rscale>  0 0.61960857E+03</rscale>
<asrwt>0</asrwt>
<pdfrwt beam="1">  1        2 0.49825180E+00 0.73809228E+03</pdfrwt>
<pdfrwt beam="2">  1       -2 0.62754256E-01 0.73809228E+03</pdfrwt>
<totfact> 0.31059209E+00</totfact>
</mgrwt>
</event>
<event>
 4    5  0.6615028E-008  0.7832074E+03  0.7818608E-02  0.9748356E-01
          2   -1    0    0  501    0  0.00000000000E+00  0.00000000000E+00  0.12875485130E+04  0.12875485130E+04  0.25500000000E-02 0. -1.
         -2   -1    0    0    0  501 -0.00000000000E+00 -0.00000000000E+00 -0.81261579393E+03  0.81261579393E+03  0.25500000000E-02 0.  1.
    8880023    1    1    2    0    0  0.41578231351E+03  0.82028886317E+02  0.10872352452E+04  0.13399605797E+04  0.65864270000E+03 0. -1.
    8880022    1    1    2    0    0 -0.41578231351E+03 -0.82028886317E+02 -0.61230252613E+03  0.76020372726E+03  0.15294330000E+03 0.  0.
<mgrwt>
<rscale>  0 0.68209262E+03</rscale>
<asrwt>0</asrwt>
<pdfrwt beam="1">  1        2 0.19808439E+00 0.78320743E+03</pdfrwt>
<pdfrwt beam="2">  1       -2 0.12501782E+00 0.78320743E+03</pdfrwt>
<totfact> 0.81946349E+00</totfact>
</mgrwt>
</event>
<event>
 4    5  0.6615028E-008  0.9383685E+03  0.7818608E-02  0.9467050E-01
          2   -1    0    0  501    0  0.00000000000E+00  0.00000000000E+00  0.17826119847E+04  0.17826119847E+04  0.25500000000E-02 0. -1.
         -2   -1    0    0    0  501 -0.00000000000E+00 -0.00000000000E+00 -0.13951137802E+04  0.13951137802E+04  0.25500000000E-02 0.  1.
    8880023    1    1    2    0    0  0.46080505492E+03 -0.48413219293E+03  0.15594107218E+04  0.18199717812E+04  0.65864270000E+03 0. -1.
    8880022    1    1    2    0    0 -0.46080505492E+03  0.48413219293E+03 -0.11719125173E+04  0.13577539836E+04  0.15294330000E+03 0.  0.
<mgrwt>
<rscale>  0 0.86757257E+03</rscale>
<asrwt>0</asrwt>
<pdfrwt beam="1">  1        2 0.27424800E+00 0.93836852E+03</pdfrwt>
<pdfrwt beam="2">  1       -2 0.21463289E+00 0.93836852E+03</pdfrwt>
<totfact> 0.94959505E-01</totfact>
</mgrwt>
</event>
<event>
 4    5  0.6615028E-008  0.8015170E+03  0.7818608E-02  0.9707525E-01
          2   -1    0    0  501    0  0.00000000000E+00  0.00000000000E+00  0.40299912049E+04  0.40299912049E+04  0.25500000000E-02 0. -1.
         -2   -1    0    0    0  501 -0.00000000000E+00 -0.00000000000E+00 -0.51555565460E+03  0.51555565461E+03  0.25500000000E-02 0.  1.
    8880023    1    1    2    0    0  0.23583849985E+03  0.39115159064E+03  0.38666402776E+04  0.39488399065E+04  0.65864270000E+03 0.  0.
    8880022    1    1    2    0    0 -0.23583849985E+03 -0.39115159064E+03 -0.35220472725E+03  0.59670695302E+03  0.15294330000E+03 0.  0.
<mgrwt>
<rscale>  0 0.70570492E+03</rscale>
<asrwt>0</asrwt>
<pdfrwt beam="1">  1        2 0.61999864E+00 0.80151704E+03</pdfrwt>
<pdfrwt beam="2">  1       -2 0.79316255E-01 0.80151704E+03</pdfrwt>
<totfact> 0.50175611E-01</totfact>
</mgrwt>
</event>
<event>
 4    5  0.6615028E-008  0.1966421E+04  0.7818608E-02  0.8635668E-01
         -2   -1    0    0    0  501 -0.00000000000E+00  0.00000000000E+00  0.14259243520E+04  0.14259243520E+04  0.25500000000E-02 0.  1.
          2   -1    0    0  501    0  0.00000000000E+00 -0.00000000000E+00 -0.26928717801E+04  0.26928717801E+04  0.25500000000E-02 0. -1.
    8880023    1    1    2    0    0  0.10040164572E+04 -0.15572252393E+04 -0.20331512821E+03  0.19769033209E+04  0.65864270000E+03 0.  1.
    8880022    1    1    2    0    0 -0.10040164572E+04  0.15572252393E+04 -0.10636322998E+04  0.21418928112E+04  0.15294330000E+03 0. -1.
<mgrwt>
<rscale>  0 0.19390328E+04</rscale>
<asrwt>0</asrwt>
<pdfrwt beam="1">  1        2 0.41428797E+00 0.19664205E+04</pdfrwt>
<pdfrwt beam="2">  1       -2 0.21937298E+00 0.19664205E+04</pdfrwt>
<totfact> 0.23938319E-01</totfact>
</mgrwt>
</event>
<event>
 4    5  0.6615028E-008  0.1018140E+04  0.7818608E-02  0.9358200E-01
          2   -1    0    0  501    0  0.00000000000E+00  0.00000000000E+00  0.76124402711E+03  0.76124402711E+03  0.25500000000E-02 0. -1.
         -2   -1    0    0    0  501 -0.00000000000E+00 -0.00000000000E+00 -0.22860608790E+04  0.22860608790E+04  0.25500000000E-02 0.  1.
    8880023    1    1    2    0    0 -0.70331676591E+03  0.32885443502E+03  0.29739695709E+03  0.10606860370E+04  0.65864270000E+03 0. -1.
    8880022    1    1    2    0    0  0.70331676591E+03 -0.32885443502E+03 -0.18222138090E+04  0.19866188692E+04  0.15294330000E+03 0.  0.
<mgrwt>
<rscale>  0 0.95596974E+03</rscale>
<asrwt>0</asrwt>
<pdfrwt beam="1">  1        2 0.11711447E+00 0.10181404E+04</pdfrwt>
<pdfrwt beam="2">  1       -2 0.35170167E+00 0.10181404E+04</pdfrwt>
<totfact> 0.56374202E-01</totfact>
</mgrwt>
</event>
<event>
 4    5  0.6615028E-008  0.1404594E+04  0.7818608E-02  0.8980121E-01
          2   -1    0    0  501    0  0.00000000000E+00  0.00000000000E+00  0.37471970562E+04  0.37471970562E+04  0.25500000000E-02 0. -1.
         -2   -1    0    0    0  501 -0.00000000000E+00 -0.00000000000E+00 -0.69356918199E+03  0.69356918199E+03  0.25500000000E-02 0.  1.
    8880023    1    1    2    0    0 -0.34401153076E+03  0.11919443285E+04  0.28458863456E+04  0.31736342753E+04  0.65864270000E+03 0.  0.
    8880022    1    1    2    0    0  0.34401153076E+03 -0.11919443285E+04  0.20774152862E+03  0.12671319628E+04  0.15294330000E+03 0.  0.
<mgrwt>
<rscale>  0 0.13642361E+04</rscale>
<asrwt>0</asrwt>
<pdfrwt beam="1">  1        2 0.57649185E+00 0.14045944E+04</pdfrwt>
<pdfrwt beam="2">  1       -2 0.10670295E+00 0.14045944E+04</pdfrwt>
<totfact> 0.37165973E-01</totfact>
</mgrwt>
</event>
<event>
 4    5  0.6615028E-008  0.8683243E+03  0.7818608E-02  0.9578924E-01
          2   -1    0    0  501    0  0.00000000000E+00  0.00000000000E+00  0.96035214463E+03  0.96035214464E+03  0.25500000000E-02 0. -1.
         -2   -1    0    0    0  501 -0.00000000000E+00 -0.00000000000E+00 -0.79228318469E+03  0.79228318470E+03  0.25500000000E-02 0.  1.
    8880023    1    1    2    0    0  0.11267036955E+03  0.55451084040E+03 -0.38215436896E+03  0.94869860982E+03  0.65864270000E+03 0.  0.
    8880022    1    1    2    0    0 -0.11267036955E+03 -0.55451084040E+03  0.55022332890E+03  0.80393671951E+03  0.15294330000E+03 0.  0.
<mgrwt>
<rscale>  0 0.78706960E+03</rscale>
<asrwt>0</asrwt>
<pdfrwt beam="1">  1        2 0.14774648E+00 0.86832430E+03</pdfrwt>
<pdfrwt beam="2">  1       -2 0.12188972E+00 0.86832430E+03</pdfrwt>
<totfact> 0.13707662E+01</totfact>
</mgrwt>
</event>
<event>
 4    5  0.6615028E-008  0.7924408E+03  0.7818608E-02  0.9727385E-01
          2   -1    0    0  501    0  0.00000000000E+00  0.00000000000E+00  0.99506123105E+03  0.99506123105E+03  0.25500000000E-02 0. -1.
         -2   -1    0    0    0  501 -0.00000000000E+00 -0.00000000000E+00 -0.53410214764E+03  0.53410214765E+03  0.25500000000E-02 0.  1.
    8880023    1    1    2    0    0 -0.61659327851E+01  0.44058393830E+03  0.65096251469E+03  0.10255313877E+04  0.65864270000E+03 0.  1.
    8880022    1    1    2    0    0  0.61659327851E+01 -0.44058393830E+03 -0.19000343128E+03  0.50363199097E+03  0.15294330000E+03 0.  0.
<mgrwt>
<rscale>  0 0.69409431E+03</rscale>
<asrwt>0</asrwt>
<pdfrwt beam="1">  1        2 0.15308634E+00 0.79244081E+03</pdfrwt>
<pdfrwt beam="2">  1       -2 0.82169562E-01 0.79244081E+03</pdfrwt>
<totfact> 0.33414694E+01</totfact>
</mgrwt>
</event>
<event>
 4    5  0.6615028E-008  0.8216371E+03  0.7818608E-02  0.9665828E-01
          2   -1    0    0  501    0  0.00000000000E+00  0.00000000000E+00  0.18007671976E+04  0.18007671976E+04  0.25500000000E-02 0. -1.
         -2   -1    0    0    0  501 -0.00000000000E+00 -0.00000000000E+00 -0.64674596836E+03  0.64674596837E+03  0.25500000000E-02 0.  1.
    8880023    1    1    2    0    0  0.48814743788E+03  0.54676088038E+02  0.15791595603E+04  0.17801214899E+04  0.65864270000E+03 0.  0.
    8880022    1    1    2    0    0 -0.48814743788E+03 -0.54676088038E+02 -0.42513833107E+03  0.66739167606E+03  0.15294330000E+03 0.  0.
<mgrwt>
<rscale>  0 0.73088314E+03</rscale>
<asrwt>0</asrwt>
<pdfrwt beam="1">  1        2 0.27704110E+00 0.82163715E+03</pdfrwt>
<pdfrwt beam="2">  1       -2 0.99499381E-01 0.82163715E+03</pdfrwt>
<totfact> 0.73531002E+00</totfact>
</mgrwt>
</event>
<event>
 4    5  0.6615028E-008  0.6629333E+03  0.7818608E-02  0.1021334E+00
         -2   -1    0    0    0  501 -0.00000000000E+00  0.00000000000E+00  0.25250908650E+03  0.25250908651E+03  0.25500000000E-02 0.  1.
          2   -1    0    0  501    0  0.00000000000E+00 -0.00000000000E+00 -0.14726084697E+04  0.14726084697E+04  0.25500000000E-02 0. -1.
    8880023    1    1    2    0    0  0.75233724006E+02 -0.32094686935E+01 -0.13545029359E+04  0.15080314399E+04  0.65864270000E+03 0. -1.
    8880022    1    1    2    0    0 -0.75233724006E+02  0.32094686935E+01  0.13440355272E+03  0.21708611636E+03  0.15294330000E+03 0.  0.
<mgrwt>
<rscale>  0 0.47208284E+03</rscale>
<asrwt>0</asrwt>
<pdfrwt beam="1">  1        2 0.22655514E+00 0.66293335E+03</pdfrwt>
<pdfrwt beam="2">  1       -2 0.38847553E-01 0.66293335E+03</pdfrwt>
<totfact> 0.84665044E+01</totfact>
</mgrwt>
</event>
<event>
 4    5  0.6615028E-008  0.7860347E+03  0.7818608E-02  0.9741848E-01
          2   -1    0    0  501    0  0.00000000000E+00  0.00000000000E+00  0.62950681489E+03  0.62950681489E+03  0.25500000000E-02 0. -1.
         -2   -1    0    0    0  501 -0.00000000000E+00 -0.00000000000E+00 -0.71501525655E+03  0.71501525655E+03  0.25500000000E-02 0.  1.
    8880023    1    1    2    0    0  0.20314744637E+03 -0.37785109032E+03  0.19468830171E+03  0.80978643636E+03  0.65864270000E+03 0. -1.
    8880022    1    1    2    0    0 -0.20314744637E+03  0.37785109032E+03 -0.28019674337E+03  0.53473563509E+03  0.15294330000E+03 0.  1.
<mgrwt>
<rscale>  0 0.68578937E+03</rscale>
<asrwt>0</asrwt>
<pdfrwt beam="1">  1        2 0.96847202E-01 0.78603469E+03</pdfrwt>
<pdfrwt beam="2">  1       -2 0.11000235E+00 0.78603469E+03</pdfrwt>
<totfact> 0.31038377E+01</totfact>
</mgrwt>
</event>
<event>
 4    5  0.6615028E-008  0.7134513E+03  0.7818608E-02  0.9945402E-01
          2   -1    0    0  501    0  0.00000000000E+00  0.00000000000E+00  0.17111565934E+04  0.17111565934E+04  0.25500000000E-02 0. -1.
         -2   -1    0    0    0  501 -0.00000000000E+00 -0.00000000000E+00 -0.39547461573E+03  0.39547461574E+03  0.25500000000E-02 0.  1.
    8880023    1    1    2    0    0  0.10100050239E+03 -0.25495372196E+03  0.15556414227E+04  0.17114417735E+04  0.65864270000E+03 0. -1.
    8880022    1    1    2    0    0 -0.10100050239E+03  0.25495372196E+03 -0.23995944498E+03  0.39518943568E+03  0.15294330000E+03 0.  0.
<mgrwt>
<rscale>  0 0.58110502E+03</rscale>
<asrwt>0</asrwt>
<pdfrwt beam="1">  1        2 0.26325486E+00 0.71345127E+03</pdfrwt>
<pdfrwt beam="2">  1       -2 0.60842250E-01 0.71345127E+03</pdfrwt>
<totfact> 0.25094452E+01</totfact>
</mgrwt>
</event>
<event>
 4    5  0.7487350E-008  0.1133791E+04  0.7818608E-02  0.9224335E-01
         -2   -1    0    0    0  501 -0.00000000000E+00  0.00000000000E+00  0.21780960536E+04  0.21780960536E+04  0.25500000000E-02 0.  1.
          2   -1    0    0  501    0  0.00000000000E+00 -0.00000000000E+00 -0.21241697657E+04  0.21241697657E+04  0.25500000000E-02 0. -1.
    8880023    1    1    2    0    0  0.51908608480E+03 -0.76303414036E+03 -0.18563726708E+04  0.21752243935E+04  0.65864270000E+03 0.  1.
    8880022    1    1    2    0    0 -0.51908608480E+03  0.76303414036E+03  0.19102989587E+04  0.21270414259E+04  0.15294330000E+03 0.  0.
<mgrwt>
<rscale>  0 0.10805743E+04</rscale>
<asrwt>0</asrwt>
<pdfrwt beam="1">  1        2 0.32679535E+00 0.11337908E+04</pdfrwt>
<pdfrwt beam="2">  1       -2 0.33509170E+00 0.11337908E+04</pdfrwt>
<totfact> 0.10905376E-01</totfact>
</mgrwt>
</event>
<event>
 4    5  0.6615028E-008  0.1221140E+04  0.7818608E-02  0.9136842E-01
          2   -1    0    0  501    0  0.00000000000E+00  0.00000000000E+00  0.24879172120E+04  0.24879172120E+04  0.25500000000E-02 0. -1.
         -2   -1    0    0    0  501 -0.00000000000E+00 -0.00000000000E+00 -0.70872682065E+03  0.70872682065E+03  0.25500000000E-02 0.  1.
    8880023    1    1    2    0    0  0.94591784280E+03 -0.40325087832E+03  0.17781069068E+04  0.21570457145E+04  0.65864270000E+03 0. -1.
    8880022    1    1    2    0    0 -0.94591784280E+03  0.40325087832E+03  0.10834845697E+01  0.10395983182E+04  0.15294330000E+03 0.  0.
<mgrwt>
<rscale>  0 0.11729793E+04</rscale>
<asrwt>0</asrwt>
<pdfrwt beam="1">  1        2 0.38275649E+00 0.12211396E+04</pdfrwt>
<pdfrwt beam="2">  1       -2 0.10903490E+00 0.12211396E+04</pdfrwt>
<totfact> 0.23260096E+00</totfact>
</mgrwt>
</event>
<event>
 4    5  0.6615028E-008  0.7541179E+03  0.7818608E-02  0.9820581E-01
         -2   -1    0    0    0  501 -0.00000000000E+00  0.00000000000E+00  0.12505977780E+04  0.12505977780E+04  0.25500000000E-02 0.  1.
          2   -1    0    0  501    0  0.00000000000E+00 -0.00000000000E+00 -0.65630280445E+03  0.65630280445E+03  0.25500000000E-02 0. -1.
    8880023    1    1    2    0    0 -0.36699103893E+03 -0.14183896877E+02 -0.38729222637E+03  0.84775531874E+03  0.65864270000E+03 0. -1.
    8880022    1    1    2    0    0  0.36699103893E+03  0.14183896877E+02  0.98158719991E+03  0.10591452637E+04  0.15294330000E+03 0.  0.
<mgrwt>
<rscale>  0 0.64269670E+03</rscale>
<asrwt>0</asrwt>
<pdfrwt beam="1">  1        2 0.10096966E+00 0.75411790E+03</pdfrwt>
<pdfrwt beam="2">  1       -2 0.19239966E+00 0.75411790E+03</pdfrwt>
<totfact> 0.67616913E+00</totfact>
</mgrwt>
</event>
<event>
 4    5  0.6615028E-008  0.1151669E+04  0.7818608E-02  0.9205598E-01
          2   -1    0    0  501    0  0.00000000000E+00  0.00000000000E+00  0.11778429144E+04  0.11778429144E+04  0.25500000000E-02 0. -1.
         -2   -1    0    0    0  501 -0.00000000000E+00 -0.00000000000E+00 -0.10059259278E+04  0.10059259278E+04  0.25500000000E-02 0.  1.
    8880023    1    1    2    0    0  0.48987402664E+03  0.80780886773E+03  0.36363962199E+03  0.12077150780E+04  0.65864270000E+03 0.  0.
    8880022    1    1    2    0    0 -0.48987402664E+03 -0.80780886773E+03 -0.19172263540E+03  0.97605376424E+03  0.15294330000E+03 0.  0.
<mgrwt>
<rscale>  0 0.10995835E+04</rscale>
<asrwt>0</asrwt>
<pdfrwt beam="1">  1        2 0.18120660E+00 0.11516692E+04</pdfrwt>
<pdfrwt beam="2">  1       -2 0.15475783E+00 0.11516692E+04</pdfrwt>
<totfact> 0.52598412E+00</totfact>
</mgrwt>
</event>
<event>
 4    5  0.6615028E-008  0.9073289E+03  0.7818608E-02  0.9514367E-01
         -2   -1    0    0    0  501 -0.00000000000E+00  0.00000000000E+00  0.66891392531E+03  0.66891392532E+03  0.25500000000E-02 0.  1.
          2   -1    0    0  501    0  0.00000000000E+00 -0.00000000000E+00 -0.26040476382E+04  0.26040476382E+04  0.25500000000E-02 0. -1.
    8880023    1    1    2    0    0 -0.40232041674E+03  0.47704699319E+03 -0.23425736042E+04  0.25121498460E+04  0.65864270000E+03 0. -1.
    8880022    1    1    2    0    0  0.40232041674E+03 -0.47704699319E+03  0.40743989132E+03  0.76081171750E+03  0.15294330000E+03 0.  0.
<mgrwt>
<rscale>  0 0.83232819E+03</rscale>
<asrwt>0</asrwt>
<pdfrwt beam="1">  1        2 0.40062271E+00 0.90732891E+03</pdfrwt>
<pdfrwt beam="2">  1       -2 0.10290984E+00 0.90732891E+03</pdfrwt>
<totfact> 0.23925977E+00</totfact>
</mgrwt>
</event>
<event>
 4    5  0.6615028E-008  0.7935735E+03  0.7818608E-02  0.9724868E-01
          2   -1    0    0  501    0  0.00000000000E+00  0.00000000000E+00  0.22493622371E+04  0.22493622371E+04  0.25500000000E-02 0. -1.
         -2   -1    0    0    0  501 -0.00000000000E+00 -0.00000000000E+00 -0.30399342898E+03  0.30399342899E+03  0.25500000000E-02 0.  1.
    8880023    1    1    2    0    0 -0.40408907785E+03 -0.18072292031E+03  0.19277333935E+04  0.20846858275E+04  0.65864270000E+03 0. -1.
    8880022    1    1    2    0    0  0.40408907785E+03  0.18072292031E+03  0.17635414664E+02  0.46866983862E+03  0.15294330000E+03 0.  0.
<mgrwt>
<rscale>  0 0.69555298E+03</rscale>
<asrwt>0</asrwt>
<pdfrwt beam="1">  1        2 0.34605573E+00 0.79357354E+03</pdfrwt>
<pdfrwt beam="2">  1       -2 0.46768220E-01 0.79357354E+03</pdfrwt>
<totfact> 0.21683880E+01</totfact>
</mgrwt>
</event>
<event>
 4    5  0.6615028E-008  0.8083887E+03  0.7818608E-02  0.9692943E-01
         -2   -1    0    0    0  501 -0.00000000000E+00  0.00000000000E+00  0.26686624768E+03  0.26686624769E+03  0.25500000000E-02 0.  1.
          2   -1    0    0  501    0  0.00000000000E+00 -0.00000000000E+00 -0.19270461427E+04  0.19270461427E+04  0.25500000000E-02 0. -1.
    8880023    1    1    2    0    0 -0.15115356490E+03  0.44366049627E+03 -0.14454708198E+04  0.16561636795E+04  0.65864270000E+03 0. -1.
    8880022    1    1    2    0    0  0.15115356490E+03 -0.44366049627E+03 -0.21470907531E+03  0.53774871098E+03  0.15294330000E+03 0.  0.
<mgrwt>
<rscale>  0 0.71438513E+03</rscale>
<asrwt>0</asrwt>
<pdfrwt beam="1">  1        2 0.29646863E+00 0.80838867E+03</pdfrwt>
<pdfrwt beam="2">  1       -2 0.41056347E-01 0.80838867E+03</pdfrwt>
<totfact> 0.42144183E+01</totfact>
</mgrwt>
</event>
<event>
 4    5  0.6615028E-008  0.9186972E+03  0.7818608E-02  0.9496660E-01
          2   -1    0    0  501    0  0.00000000000E+00  0.00000000000E+00  0.14838644296E+04  0.14838644296E+04  0.25500000000E-02 0. -1.
         -2   -1    0    0    0  501 -0.00000000000E+00 -0.00000000000E+00 -0.12628571880E+04  0.12628571880E+04  0.25500000000E-02 0.  1.
    8880023    1    1    2    0    0  0.46885671698E+03  0.43631139394E+03  0.12340588811E+04  0.15384751483E+04  0.65864270000E+03 0. -1.
    8880022    1    1    2    0    0 -0.46885671698E+03 -0.43631139394E+03 -0.10130516395E+04  0.12082464694E+04  0.15294330000E+03 0.  0.
<mgrwt>
<rscale>  0 0.84530546E+03</rscale>
<asrwt>0</asrwt>
<pdfrwt beam="1">  1        2 0.22828684E+00 0.91869715E+03</pdfrwt>
<pdfrwt beam="2">  1       -2 0.19428572E+00 0.91869715E+03</pdfrwt>
<totfact> 0.18888638E+00</totfact>
</mgrwt>
</event>
<event>
 4    5  0.6615028E-008  0.6754540E+03  0.7818608E-02  0.1012022E+00
          2   -1    0    0  501    0  0.00000000000E+00  0.00000000000E+00  0.81325241933E+03  0.81325241934E+03  0.25500000000E-02 0. -1.
         -2   -1    0    0    0  501 -0.00000000000E+00 -0.00000000000E+00 -0.17224872376E+04  0.17224872376E+04  0.25500000000E-02 0.  1.
    8880023    1    1    2    0    0  0.14857475964E+03  0.18800393707E+02  0.66449511827E+03  0.94751880323E+03  0.65864270000E+03 0. -1.
    8880022    1    1    2    0    0 -0.14857475964E+03 -0.18800393707E+02 -0.15737299366E+04  0.15882208537E+04  0.15294330000E+03 0.  0.
<mgrwt>
<rscale>  0 0.50679020E+03</rscale>
<asrwt>0</asrwt>
<pdfrwt beam="1">  1        2 0.12511576E+00 0.67545401E+03</pdfrwt>
<pdfrwt beam="2">  1       -2 0.26499804E+00 0.67545401E+03</pdfrwt>
<totfact> 0.18381285E+00</totfact>
</mgrwt>
</event>
<event>
 4    5  0.6615028E-008  0.9525522E+03  0.7818608E-02  0.9446451E-01
         -2   -1    0    0    0  501 -0.00000000000E+00  0.00000000000E+00  0.69927047467E+03  0.69927047468E+03  0.25500000000E-02 0.  1.
          2   -1    0    0  501    0  0.00000000000E+00 -0.00000000000E+00 -0.24287039320E+04  0.24287039320E+04  0.25500000000E-02 0. -1.
    8880023    1    1    2    0    0  0.35082911301E+03  0.59200035680E+03  0.28458070306E+03  0.99415384715E+03  0.65864270000E+03 0.  0.
    8880022    1    1    2    0    0 -0.35082911301E+03 -0.59200035680E+03 -0.20140141604E+04  0.21338205595E+04  0.15294330000E+03 0.  0.
<mgrwt>
<rscale>  0 0.88349536E+03</rscale>
<asrwt>0</asrwt>
<pdfrwt beam="1">  1        2 0.37364675E+00 0.95255220E+03</pdfrwt>
<pdfrwt beam="2">  1       -2 0.10758007E+00 0.95255220E+03</pdfrwt>
<totfact> 0.26897404E+00</totfact>
</mgrwt>
</event>
<event>
 4    5  0.6615028E-008  0.7704209E+03  0.7818608E-02  0.9778839E-01
         -2   -1    0    0    0  501 -0.00000000000E+00  0.00000000000E+00  0.18172695962E+03  0.18172695964E+03  0.25500000000E-02 0.  1.
          2   -1    0    0  501    0  0.00000000000E+00 -0.00000000000E+00 -0.23890852796E+04  0.23890852796E+04  0.25500000000E-02 0. -1.
    8880023    1    1    2    0    0  0.26382990044E+03  0.30021992825E+03 -0.18809052514E+04  0.20325729981E+04  0.65864270000E+03 0. -1.
    8880022    1    1    2    0    0 -0.26382990044E+03 -0.30021992825E+03 -0.32645306858E+03  0.53823924112E+03  0.15294330000E+03 0.  0.
<mgrwt>
<rscale>  0 0.66510614E+03</rscale>
<asrwt>0</asrwt>
<pdfrwt beam="1">  1        2 0.36755156E+00 0.77042094E+03</pdfrwt>
<pdfrwt beam="2">  1       -2 0.27957995E-01 0.77042094E+03</pdfrwt>
<totfact> 0.48793186E+01</totfact>
</mgrwt>
</event>
<event>
 4    5  0.6615028E-008  0.6718821E+03  0.7818608E-02  0.1014348E+00
          2   -1    0    0  501    0  0.00000000000E+00  0.00000000000E+00  0.21169506306E+04  0.21169506306E+04  0.25500000000E-02 0. -1.
         -2   -1    0    0    0  501 -0.00000000000E+00 -0.00000000000E+00 -0.15836233195E+03  0.15836233198E+03  0.25500000000E-02 0.  1.
    8880023    1    1    2    0    0 -0.21385929143E+02  0.13098868724E+03  0.19608839526E+04  0.20727979824E+04  0.65864270000E+03 0. -1.
    8880022    1    1    2    0    0  0.21385929143E+02 -0.13098868724E+03 -0.22956539331E+01  0.20251498017E+03  0.15294330000E+03 0.  0.
<mgrwt>
<rscale>  0 0.49782549E+03</rscale>
<asrwt>0</asrwt>
<pdfrwt beam="1">  1        2 0.32568469E+00 0.67188213E+03</pdfrwt>
<pdfrwt beam="2">  1       -2 0.24363437E-01 0.67188213E+03</pdfrwt>
<totfact> 0.89677624E+01</totfact>
</mgrwt>
</event>
<event>
 4    5  0.6615028E-008  0.8641595E+03  0.7818608E-02  0.9586207E-01
         -2   -1    0    0    0  501 -0.00000000000E+00  0.00000000000E+00  0.59533516198E+03  0.59533516198E+03  0.25500000000E-02 0.  1.
          2   -1    0    0  501    0  0.00000000000E+00 -0.00000000000E+00 -0.18392264778E+04  0.18392264778E+04  0.25500000000E-02 0. -1.
    8880023    1    1    2    0    0 -0.53161153871E+03  0.17421428618E+03 -0.15530967538E+04  0.17773241625E+04  0.65864270000E+03 0. -1.
    8880022    1    1    2    0    0  0.53161153871E+03 -0.17421428618E+03  0.30920543802E+03  0.65723747726E+03  0.15294330000E+03 0.  0.
<mgrwt>
<rscale>  0 0.78215867E+03</rscale>
<asrwt>0</asrwt>
<pdfrwt beam="1">  1        2 0.28295792E+00 0.86415951E+03</pdfrwt>
<pdfrwt beam="2">  1       -2 0.91590026E-01 0.86415951E+03</pdfrwt>
<totfact> 0.84578799E+00</totfact>
</mgrwt>
</event>
<event>
 4    5  0.6615028E-008  0.1522513E+04  0.7818608E-02  0.8893900E-01
         -2   -1    0    0    0  501 -0.00000000000E+00  0.00000000000E+00  0.18460365619E+04  0.18460365619E+04  0.25500000000E-02 0.  1.
          2   -1    0    0  501    0  0.00000000000E+00 -0.00000000000E+00 -0.20163617143E+04  0.20163617143E+04  0.25500000000E-02 0. -1.
    8880023    1    1    2    0    0 -0.12976242676E+04 -0.44766933114E+03 -0.13584977577E+04  0.20404810545E+04  0.65864270000E+03 0.  0.
    8880022    1    1    2    0    0  0.12976242676E+04  0.44766933114E+03  0.11881726052E+04  0.18219172217E+04  0.15294330000E+03 0.  0.
<mgrwt>
<rscale>  0 0.14858759E+04</rscale>
<asrwt>0</asrwt>
<pdfrwt beam="1">  1        2 0.31020949E+00 0.15225133E+04</pdfrwt>
<pdfrwt beam="2">  1       -2 0.28400563E+00 0.15225133E+04</pdfrwt>
<totfact> 0.24355989E-01</totfact>
</mgrwt>
</event>
<event>
 4    5  0.6615028E-008  0.7466089E+03  0.7818608E-02  0.9841098E-01
         -2   -1    0    0    0  501 -0.00000000000E+00  0.00000000000E+00  0.52457337992E+03  0.52457337992E+03  0.25500000000E-02 0.  1.
          2   -1    0    0  501    0  0.00000000000E+00 -0.00000000000E+00 -0.84920866537E+03  0.84920866537E+03  0.25500000000E-02 0. -1.
    8880023    1    1    2    0    0  0.69328778410E+02 -0.34468557573E+03  0.15215218986E+03  0.76195480232E+03  0.65864270000E+03 0.  1.
    8880022    1    1    2    0    0 -0.69328778410E+02  0.34468557573E+03 -0.47678747531E+03  0.61182724298E+03  0.15294330000E+03 0.  0.
<mgrwt>
<rscale>  0 0.63202878E+03</rscale>
<asrwt>0</asrwt>
<pdfrwt beam="1">  1        2 0.13064749E+00 0.74660889E+03</pdfrwt>
<pdfrwt beam="2">  1       -2 0.80703597E-01 0.74660889E+03</pdfrwt>
<totfact> 0.43695054E+01</totfact>
</mgrwt>
</event>
<event>
 4    5  0.6615028E-008  0.1701281E+04  0.7818608E-02  0.8779204E-01
          2   -1    0    0  501    0  0.00000000000E+00  0.00000000000E+00  0.18224625269E+04  0.18224625269E+04  0.25500000000E-02 0. -1.
         -2   -1    0    0    0  501 -0.00000000000E+00 -0.00000000000E+00 -0.31850147747E+04  0.31850147747E+04  0.25500000000E-02 0.  1.
    8880023    1    1    2    0    0  0.81274884179E+03 -0.13416352013E+04  0.11414819324E+04  0.20487403207E+04  0.65864270000E+03 0. -1.
    8880022    1    1    2    0    0 -0.81274884179E+03  0.13416352013E+04 -0.25040341803E+04  0.29587369809E+04  0.15294330000E+03 0.  0.
<mgrwt>
<rscale>  0 0.16690700E+04</rscale>
<asrwt>0</asrwt>
<pdfrwt beam="1">  1        2 0.28037885E+00 0.17012807E+04</pdfrwt>
<pdfrwt beam="2">  1       -2 0.49000227E+00 0.17012807E+04</pdfrwt>
<totfact> 0.14533859E-02</totfact>
</mgrwt>
</event>
<event>
 4    5  0.6841498E-008  0.8284902E+03  0.7818608E-02  0.9652277E-01
         -2   -1    0    0    0  501 -0.00000000000E+00  0.00000000000E+00  0.13574922256E+04  0.13574922256E+04  0.25500000000E-02 0.  1.
          2   -1    0    0  501    0  0.00000000000E+00 -0.00000000000E+00 -0.20561944321E+04  0.20561944321E+04  0.25500000000E-02 0. -1.
    8880023    1    1    2    0    0  0.44077903676E+03  0.24145328632E+03 -0.19162278290E+04  0.20876602088E+04  0.65864270000E+03 0. -1.
    8880022    1    1    2    0    0 -0.44077903676E+03 -0.24145328632E+03  0.12175256225E+04  0.13260264489E+04  0.15294330000E+03 0.  0.
<mgrwt>
<rscale>  0 0.73930689E+03</rscale>
<asrwt>0</asrwt>
<pdfrwt beam="1">  1        2 0.31633761E+00 0.82849023E+03</pdfrwt>
<pdfrwt beam="2">  1       -2 0.20884496E+00 0.82849023E+03</pdfrwt>
<totfact> 0.74605310E-01</totfact>
</mgrwt>
</event>
<event>
 4    5  0.6615028E-008  0.9086621E+03  0.7818608E-02  0.9512267E-01
          2   -1    0    0  501    0  0.00000000000E+00  0.00000000000E+00  0.13367414543E+04  0.13367414543E+04  0.25500000000E-02 0. -1.
         -2   -1    0    0    0  501 -0.00000000000E+00 -0.00000000000E+00 -0.17558622023E+04  0.17558622023E+04  0.25500000000E-02 0.  1.
    8880023    1    1    2    0    0 -0.12270727107E+02 -0.62586416755E+03  0.11092667569E+04  0.14339244998E+04  0.65864270000E+03 0. -1.
    8880022    1    1    2    0    0  0.12270727107E+02  0.62586416755E+03 -0.15283875049E+04  0.16586791568E+04  0.15294330000E+03 0.  0.
<mgrwt>
<rscale>  0 0.83385447E+03</rscale>
<asrwt>0</asrwt>
<pdfrwt beam="1">  1        2 0.20565253E+00 0.90866206E+03</pdfrwt>
<pdfrwt beam="2">  1       -2 0.27013265E+00 0.90866206E+03</pdfrwt>
<totfact> 0.77227593E-01</totfact>
</mgrwt>
</event>
<event>
 4    5  0.6615028E-008  0.9577392E+03  0.7818608E-02  0.9439065E-01
         -2   -1    0    0    0  501 -0.00000000000E+00  0.00000000000E+00  0.14042410851E+04  0.14042410851E+04  0.25500000000E-02 0.  1.
          2   -1    0    0  501    0  0.00000000000E+00 -0.00000000000E+00 -0.14098866221E+04  0.14098866221E+04  0.25500000000E-02 0. -1.
    8880023    1    1    2    0    0  0.54797333106E+03 -0.42799452367E+03 -0.11312812225E+04  0.14822487964E+04  0.65864270000E+03 0.  0.
    8880022    1    1    2    0    0 -0.54797333106E+03  0.42799452367E+03  0.11256356855E+04  0.13318789109E+04  0.15294330000E+03 0.  0.
<mgrwt>
<rscale>  0 0.88929307E+03</rscale>
<asrwt>0</asrwt>
<pdfrwt beam="1">  1        2 0.21690563E+00 0.95773916E+03</pdfrwt>
<pdfrwt beam="2">  1       -2 0.21603709E+00 0.95773916E+03</pdfrwt>
<totfact> 0.14959865E+00</totfact>
</mgrwt>
</event>
<event>
 4    5  0.6615028E-008  0.7022654E+03  0.7818608E-02  0.9987930E-01
         -2   -1    0    0    0  501 -0.00000000000E+00  0.00000000000E+00  0.20191615575E+03  0.20191615577E+03  0.25500000000E-02 0.  1.
          2   -1    0    0  501    0  0.00000000000E+00 -0.00000000000E+00 -0.12665663252E+04  0.12665663252E+04  0.25500000000E-02 0. -1.
    8880023    1    1    2    0    0  0.18753726540E+03 -0.15555152964E+03 -0.88316548967E+03  0.11283430297E+04  0.65864270000E+03 0.  0.
    8880022    1    1    2    0    0 -0.18753726540E+03  0.15555152964E+03 -0.18148467977E+03  0.34013945124E+03  0.15294330000E+03 0. -1.
<mgrwt>
<rscale>  0 0.56182662E+03</rscale>
<asrwt>0</asrwt>
<pdfrwt beam="1">  1        2 0.19485635E+00 0.70226541E+03</pdfrwt>
<pdfrwt beam="2">  1       -2 0.31064025E-01 0.70226541E+03</pdfrwt>
<totfact> 0.16883566E+02</totfact>
</mgrwt>
</event>
<event>
 4    5  0.6615028E-008  0.9242581E+03  0.7818608E-02  0.9488161E-01
          2   -1    0    0  501    0  0.00000000000E+00  0.00000000000E+00  0.80367494386E+03  0.80367494387E+03  0.25500000000E-02 0. -1.
         -2   -1    0    0    0  501 -0.00000000000E+00 -0.00000000000E+00 -0.11040207918E+04  0.11040207918E+04  0.25500000000E-02 0.  1.
    8880023    1    1    2    0    0  0.49577484274E+03  0.41791162446E+03  0.33887195378E+03  0.98442228128E+03  0.65864270000E+03 0.  0.
    8880022    1    1    2    0    0 -0.49577484274E+03 -0.41791162446E+03 -0.63921780174E+03  0.92327345442E+03  0.15294330000E+03 0.  0.
<mgrwt>
<rscale>  0 0.85162338E+03</rscale>
<asrwt>0</asrwt>
<pdfrwt beam="1">  1        2 0.12364230E+00 0.92425810E+03</pdfrwt>
<pdfrwt beam="2">  1       -2 0.16984935E+00 0.92425810E+03</pdfrwt>
<totfact> 0.73068814E+00</totfact>
</mgrwt>
</event>
<event>
 4    5  0.6615028E-008  0.9463831E+03  0.7818608E-02  0.9455337E-01
          2   -1    0    0  501    0  0.00000000000E+00  0.00000000000E+00  0.11617430258E+04  0.11617430258E+04  0.25500000000E-02 0. -1.
         -2   -1    0    0    0  501 -0.00000000000E+00 -0.00000000000E+00 -0.22502016985E+04  0.22502016985E+04  0.25500000000E-02 0.  1.
    8880023    1    1    2    0    0  0.64968154686E+03 -0.19936076896E+03  0.89939009236E+03  0.13055816991E+04  0.65864270000E+03 0.  0.
    8880022    1    1    2    0    0 -0.64968154686E+03  0.19936076896E+03 -0.19878487650E+04  0.21063630252E+04  0.15294330000E+03 0.  0.
<mgrwt>
<rscale>  0 0.87658262E+03</rscale>
<asrwt>0</asrwt>
<pdfrwt beam="1">  1        2 0.17872970E+00 0.94638313E+03</pdfrwt>
<pdfrwt beam="2">  1       -2 0.34618488E+00 0.94638313E+03</pdfrwt>
<totfact> 0.33502291E-01</totfact>
</mgrwt>
</event>
<event>
 4    5  0.6615028E-008  0.7011581E+03  0.7818608E-02  0.9992431E-01
         -2   -1    0    0    0  501 -0.00000000000E+00  0.00000000000E+00  0.33325875452E+03  0.33325875453E+03  0.25500000000E-02 0.  1.
          2   -1    0    0  501    0  0.00000000000E+00 -0.00000000000E+00 -0.96120107730E+03  0.96120107730E+03  0.25500000000E-02 0. -1.
    8880023    1    1    2    0    0  0.19523860083E+03  0.14033642613E+03 -0.71005885161E+03  0.99790089827E+03  0.65864270000E+03 0. -1.
    8880022    1    1    2    0    0 -0.19523860083E+03 -0.14033642613E+03  0.82116528832E+02  0.29655893356E+03  0.15294330000E+03 0.  0.
<mgrwt>
<rscale>  0 0.55983388E+03</rscale>
<asrwt>0</asrwt>
<pdfrwt beam="1">  1        2 0.14787709E+00 0.70115806E+03</pdfrwt>
<pdfrwt beam="2">  1       -2 0.51270578E-01 0.70115806E+03</pdfrwt>
<totfact> 0.97593290E+01</totfact>
</mgrwt>
</event>
<event>
 4    5  0.6615028E-008  0.9388171E+03  0.7818608E-02  0.9466390E-01
          2   -1    0    0  501    0  0.00000000000E+00  0.00000000000E+00  0.25761398187E+04  0.25761398187E+04  0.25500000000E-02 0. -1.
         -2   -1    0    0    0  501 -0.00000000000E+00 -0.00000000000E+00 -0.32268874107E+03  0.32268874108E+03  0.25500000000E-02 0.  1.
    8880023    1    1    2    0    0  0.44594464480E+03 -0.49869908098E+03  0.19169665932E+04  0.21345113083E+04  0.65864270000E+03 0.  0.
    8880022    1    1    2    0    0 -0.44594464480E+03  0.49869908098E+03  0.33648448441E+03  0.76431725145E+03  0.15294330000E+03 0.  0.
<mgrwt>
<rscale>  0 0.86807780E+03</rscale>
<asrwt>0</asrwt>
<pdfrwt beam="1">  1        2 0.39632920E+00 0.93881713E+03</pdfrwt>
<pdfrwt beam="2">  1       -2 0.49644422E-01 0.93881713E+03</pdfrwt>
<totfact> 0.12327265E+01</totfact>
</mgrwt>
</event>
<event>
 4    5  0.6615028E-008  0.1369416E+04  0.7818608E-02  0.9007819E-01
          2   -1    0    0  501    0  0.00000000000E+00  0.00000000000E+00  0.19693128015E+04  0.19693128015E+04  0.25500000000E-02 0. -1.
         -2   -1    0    0    0  501 -0.00000000000E+00 -0.00000000000E+00 -0.19762116231E+04  0.19762116231E+04  0.25500000000E-02 0.  1.
    8880023    1    1    2    0    0 -0.75648258188E+03  0.93232158245E+03  0.14879020380E+04  0.20221652036E+04  0.65864270000E+03 0.  0.
    8880022    1    1    2    0    0  0.75648258188E+03 -0.93232158245E+03 -0.14948008597E+04  0.19233592210E+04  0.15294330000E+03 0.  0.
<mgrwt>
<rscale>  0 0.13277821E+04</rscale>
<asrwt>0</asrwt>
<pdfrwt beam="1">  1        2 0.30297120E+00 0.13694158E+04</pdfrwt>
<pdfrwt beam="2">  1       -2 0.30403256E+00 0.13694158E+04</pdfrwt>
<totfact> 0.19902210E-01</totfact>
</mgrwt>
</event>
<event>
 4    5  0.6615028E-008  0.1079480E+04  0.7818608E-02  0.9284253E-01
          2   -1    0    0  501    0  0.00000000000E+00  0.00000000000E+00  0.33212811189E+04  0.33212811189E+04  0.25500000000E-02 0. -1.
         -2   -1    0    0    0  501 -0.00000000000E+00 -0.00000000000E+00 -0.73336171436E+03  0.73336171436E+03  0.25500000000E-02 0.  1.
    8880023    1    1    2    0    0  0.74868163510E+03 -0.41345319167E+03  0.29287508456E+04  0.31213553873E+04  0.65864270000E+03 0. -1.
    8880022    1    1    2    0    0 -0.74868163510E+03  0.41345319167E+03 -0.34083144105E+03  0.93328744590E+03  0.15294330000E+03 0.  0.
<mgrwt>
<rscale>  0 0.10224553E+04</rscale>
<asrwt>0</asrwt>
<pdfrwt beam="1">  1        2 0.51096633E+00 0.10794804E+04</pdfrwt>
<pdfrwt beam="2">  1       -2 0.11282488E+00 0.10794804E+04</pdfrwt>
<totfact> 0.67482049E-01</totfact>
</mgrwt>
</event>
<event>
 4    5  0.6615028E-008  0.8160855E+03  0.7818608E-02  0.9677038E-01
          2   -1    0    0  501    0  0.00000000000E+00  0.00000000000E+00  0.29269173630E+04  0.29269173630E+04  0.25500000000E-02 0. -1.
         -2   -1    0    0    0  501 -0.00000000000E+00 -0.00000000000E+00 -0.26560531162E+03  0.26560531163E+03  0.25500000000E-02 0.  1.
    8880023    1    1    2    0    0  0.19211904923E+03 -0.44190001766E+03  0.25465434371E+04  0.26741127571E+04  0.65864270000E+03 0. -1.
    8880022    1    1    2    0    0 -0.19211904923E+03  0.44190001766E+03  0.11476861427E+03  0.51840991746E+03  0.15294330000E+03 0.  0.
<mgrwt>
<rscale>  0 0.72400568E+03</rscale>
<asrwt>0</asrwt>
<pdfrwt beam="1">  1        2 0.45029496E+00 0.81608551E+03</pdfrwt>
<pdfrwt beam="2">  1       -2 0.40862357E-01 0.81608551E+03</pdfrwt>
<totfact> 0.11499617E+01</totfact>
</mgrwt>
</event>
<event>
 4    5  0.6615028E-008  0.1053543E+04  0.7818608E-02  0.9314634E-01
          2   -1    0    0  501    0  0.00000000000E+00  0.00000000000E+00  0.15508595145E+04  0.15508595145E+04  0.25500000000E-02 0. -1.
         -2   -1    0    0    0  501 -0.00000000000E+00 -0.00000000000E+00 -0.16751236816E+04  0.16751236816E+04  0.25500000000E-02 0.  1.
    8880023    1    1    2    0    0 -0.80146395559E+03 -0.18384460945E+03  0.12391438841E+04  0.16264781229E+04  0.65864270000E+03 0.  0.
    8880022    1    1    2    0    0  0.80146395559E+03  0.18384460945E+03 -0.13634080511E+04  0.15995050733E+04  0.15294330000E+03 0.  0.
<mgrwt>
<rscale>  0 0.99446723E+03</rscale>
<asrwt>0</asrwt>
<pdfrwt beam="1">  1        2 0.23859377E+00 0.10535433E+04</pdfrwt>
<pdfrwt beam="2">  1       -2 0.25771134E+00 0.10535433E+04</pdfrwt>
<totfact> 0.67895582E-01</totfact>
</mgrwt>
</event>
<event>
 4    5  0.6615028E-008  0.9085025E+03  0.7818608E-02  0.9512518E-01
          2   -1    0    0  501    0  0.00000000000E+00  0.00000000000E+00  0.23176216309E+04  0.23176216309E+04  0.25500000000E-02 0. -1.
         -2   -1    0    0    0  501 -0.00000000000E+00 -0.00000000000E+00 -0.39160421021E+03  0.39160421022E+03  0.25500000000E-02 0.  1.
    8880023    1    1    2    0    0 -0.57455826566E+02  0.62310942597E+03  0.18494176005E+04  0.20605150317E+04  0.65864270000E+03 0.  0.
    8880022    1    1    2    0    0  0.57455826566E+02 -0.62310942597E+03  0.76599820200E+02  0.64871080938E+03  0.15294330000E+03 0.  0.
<mgrwt>
<rscale>  0 0.83367183E+03</rscale>
<asrwt>0</asrwt>
<pdfrwt beam="1">  1        2 0.35655717E+00 0.90850247E+03</pdfrwt>
<pdfrwt beam="2">  1       -2 0.60246802E-01 0.90850247E+03</pdfrwt>
<totfact> 0.11600315E+01</totfact>
</mgrwt>
</event>
<event>
 4    5  0.6615028E-008  0.9022872E+03  0.7818608E-02  0.9522370E-01
         -2   -1    0    0    0  501 -0.00000000000E+00  0.00000000000E+00  0.17173606747E+04  0.17173606747E+04  0.25500000000E-02 0.  1.
          2   -1    0    0  501    0  0.00000000000E+00 -0.00000000000E+00 -0.46405641598E+03  0.46405641599E+03  0.25500000000E-02 0. -1.
    8880023    1    1    2    0    0  0.40872857630E+03 -0.46179315533E+03  0.12554312164E+04  0.15460367760E+04  0.65864270000E+03 0.  0.
    8880022    1    1    2    0    0 -0.40872857630E+03  0.46179315533E+03 -0.21269576206E+01  0.63538031474E+03  0.15294330000E+03 0.  0.
<mgrwt>
<rscale>  0 0.82654485E+03</rscale>
<asrwt>0</asrwt>
<pdfrwt beam="1">  1        2 0.71393295E-01 0.90228719E+03</pdfrwt>
<pdfrwt beam="2">  1       -2 0.26420933E+00 0.90228719E+03</pdfrwt>
<totfact> 0.35754636E+00</totfact>
</mgrwt>
</event>
<event>
 4    5  0.6615028E-008  0.1822842E+04  0.7818608E-02  0.8710005E-01
          2   -1    0    0  501    0  0.00000000000E+00  0.00000000000E+00  0.28008564049E+04  0.28008564049E+04  0.25500000000E-02 0. -1.
         -2   -1    0    0    0  501 -0.00000000000E+00 -0.00000000000E+00 -0.19076031366E+04  0.19076031366E+04  0.25500000000E-02 0.  1.
    8880023    1    1    2    0    0 -0.16912936922E+04  0.16872956423E+03  0.19752380689E+04  0.26878094527E+04  0.65864270000E+03 0.  0.
    8880022    1    1    2    0    0  0.16912936922E+04 -0.16872956423E+03 -0.10819848006E+04  0.20206500887E+04  0.15294330000E+03 0.  0.
<mgrwt>
<rscale>  0 0.17930484E+04</rscale>
<asrwt>0</asrwt>
<pdfrwt beam="1">  1        2 0.43090098E+00 0.18228423E+04</pdfrwt>
<pdfrwt beam="2">  1       -2 0.29347741E+00 0.18228423E+04</pdfrwt>
<totfact> 0.72617975E-02</totfact>
</mgrwt>
</event>
<event>
 4    5  0.6615028E-008  0.1137640E+04  0.7818608E-02  0.9220262E-01
         -2   -1    0    0    0  501 -0.00000000000E+00  0.00000000000E+00  0.13092422860E+04  0.13092422860E+04  0.25500000000E-02 0.  1.
          2   -1    0    0  501    0  0.00000000000E+00 -0.00000000000E+00 -0.17436473739E+04  0.17436473739E+04  0.25500000000E-02 0. -1.
    8880023    1    1    2    0    0 -0.17715599633E+03  0.91051110483E+03 -0.13329575393E+04  0.17524270961E+04  0.65864270000E+03 0.  0.
    8880022    1    1    2    0    0  0.17715599633E+03 -0.91051110483E+03  0.89855245137E+03  0.13004625638E+04  0.15294330000E+03 0.  0.
<mgrwt>
<rscale>  0 0.10846717E+04</rscale>
<asrwt>0</asrwt>
<pdfrwt beam="1">  1        2 0.26825344E+00 0.11376401E+04</pdfrwt>
<pdfrwt beam="2">  1       -2 0.20142189E+00 0.11376401E+04</pdfrwt>
<totfact> 0.11802214E+00</totfact>
</mgrwt>
</event>
<event>
 4    5  0.6615028E-008  0.8161221E+03  0.7818608E-02  0.9676963E-01
         -2   -1    0    0    0  501 -0.00000000000E+00  0.00000000000E+00  0.79241537010E+03  0.79241537011E+03  0.25500000000E-02 0.  1.
          2   -1    0    0  501    0  0.00000000000E+00 -0.00000000000E+00 -0.22155517408E+04  0.22155517408E+04  0.25500000000E-02 0. -1.
    8880023    1    1    2    0    0  0.43284161150E+03 -0.21188031149E+03 -0.20477343782E+04  0.22043755163E+04  0.65864270000E+03 0. -1.
    8880022    1    1    2    0    0 -0.43284161150E+03  0.21188031149E+03  0.62459800745E+03  0.80359159464E+03  0.15294330000E+03 0.  0.
<mgrwt>
<rscale>  0 0.72405121E+03</rscale>
<asrwt>0</asrwt>
<pdfrwt beam="1">  1        2 0.34085411E+00 0.81612213E+03</pdfrwt>
<pdfrwt beam="2">  1       -2 0.12191006E+00 0.81612213E+03</pdfrwt>
<totfact> 0.26617607E+00</totfact>
</mgrwt>
</event>
<event>
 4    5  0.6615028E-008  0.1080661E+04  0.7818608E-02  0.9282900E-01
          2   -1    0    0  501    0  0.00000000000E+00  0.00000000000E+00  0.36599744672E+04  0.36599744672E+04  0.25500000000E-02 0. -1.
         -2   -1    0    0    0  501 -0.00000000000E+00 -0.00000000000E+00 -0.99286126228E+03  0.99286126228E+03  0.25500000000E-02 0.  1.
    8880023    1    1    2    0    0 -0.10091533489E+03  0.85078379693E+03  0.33669111072E+04  0.35360878926E+04  0.65864270000E+03 0. -1.
    8880022    1    1    2    0    0  0.10091533489E+03 -0.85078379693E+03 -0.69979790235E+03  0.11167478368E+04  0.15294330000E+03 0.  0.
<mgrwt>
<rscale>  0 0.10237249E+04</rscale>
<asrwt>0</asrwt>
<pdfrwt beam="1">  1        2 0.56307300E+00 0.10806605E+04</pdfrwt>
<pdfrwt beam="2">  1       -2 0.15274789E+00 0.10806605E+04</pdfrwt>
<totfact> 0.18181192E-01</totfact>
</mgrwt>
</event>
<event>
 4    5  0.6615028E-008  0.1050802E+04  0.7818608E-02  0.9317918E-01
          2   -1    0    0  501    0  0.00000000000E+00  0.00000000000E+00  0.27206607479E+04  0.27206607479E+04  0.25500000000E-02 0. -1.
         -2   -1    0    0    0  501 -0.00000000000E+00 -0.00000000000E+00 -0.48152630273E+03  0.48152630274E+03  0.25500000000E-02 0.  1.
    8880023    1    1    2    0    0  0.68239931328E+02  0.81591537904E+03  0.30163596149E+03  0.10932378760E+04  0.65864270000E+03 0.  1.
    8880022    1    1    2    0    0 -0.68239931328E+02 -0.81591537904E+03  0.19374984837E+04  0.21089491746E+04  0.15294330000E+03 0.  0.
<mgrwt>
<rscale>  0 0.99149906E+03</rscale>
<asrwt>0</asrwt>
<pdfrwt beam="1">  1        2 0.41856319E+00 0.10508020E+04</pdfrwt>
<pdfrwt beam="2">  1       -2 0.74080970E-01 0.10508020E+04</pdfrwt>
<totfact> 0.42707019E+00</totfact>
</mgrwt>
</event>
<event>
 4    5  0.6615028E-008  0.9105397E+03  0.7818608E-02  0.9509320E-01
          2   -1    0    0  501    0  0.00000000000E+00  0.00000000000E+00  0.15756462683E+04  0.15756462683E+04  0.25500000000E-02 0. -1.
         -2   -1    0    0    0  501 -0.00000000000E+00 -0.00000000000E+00 -0.85236602840E+03  0.85236602840E+03  0.25500000000E-02 0.  1.
    8880023    1    1    2    0    0 -0.46110760719E+03 -0.42737809651E+03  0.12824581052E+04  0.15728258838E+04  0.65864270000E+03 0. -1.
    8880022    1    1    2    0    0  0.46110760719E+03  0.42737809651E+03 -0.55917786531E+03  0.85518641292E+03  0.15294330000E+03 0.  0.
<mgrwt>
<rscale>  0 0.83600205E+03</rscale>
<asrwt>0</asrwt>
<pdfrwt beam="1">  1        2 0.24240712E+00 0.91053966E+03</pdfrwt>
<pdfrwt beam="2">  1       -2 0.13113324E+00 0.91053966E+03</pdfrwt>
<totfact> 0.49113609E+00</totfact>
</mgrwt>
</event>
<event>
 4    5  0.6615028E-008  0.8180544E+03  0.7818608E-02  0.9673038E-01
          2   -1    0    0  501    0  0.00000000000E+00  0.00000000000E+00  0.13556428187E+04  0.13556428187E+04  0.25500000000E-02 0. -1.
         -2   -1    0    0    0  501 -0.00000000000E+00 -0.00000000000E+00 -0.37956530969E+03  0.37956530970E+03  0.25500000000E-02 0.  1.
    8880023    1    1    2    0    0  0.48345466242E+03  0.40919767394E+02  0.26304972581E+03  0.85930681511E+03  0.65864270000E+03 0.  1.
    8880022    1    1    2    0    0 -0.48345466242E+03 -0.40919767394E+02  0.71302778317E+03  0.87590131326E+03  0.15294330000E+03 0.  0.
<mgrwt>
<rscale>  0 0.72645050E+03</rscale>
<asrwt>0</asrwt>
<pdfrwt beam="1">  1        2 0.20856043E+00 0.81805443E+03</pdfrwt>
<pdfrwt beam="2">  1       -2 0.58394664E-01 0.81805443E+03</pdfrwt>
<totfact> 0.42650584E+01</totfact>
</mgrwt>
</event>
<event>
 4    5  0.6615028E-008  0.1145586E+04  0.7818608E-02  0.9211922E-01
         -2   -1    0    0    0  501 -0.00000000000E+00  0.00000000000E+00  0.87526163321E+03  0.87526163321E+03  0.25500000000E-02 0.  1.
          2   -1    0    0  501    0  0.00000000000E+00 -0.00000000000E+00 -0.39919244357E+04  0.39919244357E+04  0.25500000000E-02 0. -1.
    8880023    1    1    2    0    0 -0.61024431479E+03  0.71144843008E+03 -0.36167593970E+04  0.37938523607E+04  0.65864270000E+03 0. -1.
    8880022    1    1    2    0    0  0.61024431479E+03 -0.71144843008E+03  0.50009659452E+03  0.10733337082E+04  0.15294330000E+03 0.  0.
<mgrwt>
<rscale>  0 0.10931216E+04</rscale>
<asrwt>0</asrwt>
<pdfrwt beam="1">  1        2 0.61414221E+00 0.11455860E+04</pdfrwt>
<pdfrwt beam="2">  1       -2 0.13465564E+00 0.11455860E+04</pdfrwt>
<totfact> 0.14051931E-01</totfact>
</mgrwt>
</event>
<event>
 4    5  0.6615028E-008  0.1083728E+04  0.7818608E-02  0.9279392E-01
          2   -1    0    0  501    0  0.00000000000E+00  0.00000000000E+00  0.25669672610E+04  0.25669672610E+04  0.25500000000E-02 0. -1.
         -2   -1    0    0    0  501 -0.00000000000E+00 -0.00000000000E+00 -0.95238843976E+03  0.95238843977E+03  0.25500000000E-02 0.  1.
    8880023    1    1    2    0    0  0.70273107524E+03 -0.49681608101E+03  0.22102141191E+04  0.24616079788E+04  0.65864270000E+03 0.  0.
    8880022    1    1    2    0    0 -0.70273107524E+03  0.49681608101E+03 -0.59563529784E+03  0.10577477221E+04  0.15294330000E+03 0.  0.
<mgrwt>
<rscale>  0 0.10270238E+04</rscale>
<asrwt>0</asrwt>
<pdfrwt beam="1">  1        2 0.39491804E+00 0.10837285E+04</pdfrwt>
<pdfrwt beam="2">  1       -2 0.14652130E+00 0.10837285E+04</pdfrwt>
<totfact> 0.10088876E+00</totfact>
</mgrwt>
</event>
<event>
 4    5  0.6615028E-008  0.9070373E+03  0.7818608E-02  0.9514828E-01
          2   -1    0    0  501    0  0.00000000000E+00  0.00000000000E+00  0.45938140168E+03  0.45938140168E+03  0.25500000000E-02 0. -1.
         -2   -1    0    0    0  501 -0.00000000000E+00 -0.00000000000E+00 -0.32214439188E+04  0.32214439188E+04  0.25500000000E-02 0.  1.
    8880023    1    1    2    0    0  0.46283317713E+03  0.41796157486E+03 -0.66089937228E+02  0.90944186949E+03  0.65864270000E+03 0.  0.
    8880022    1    1    2    0    0 -0.46283317713E+03 -0.41796157486E+03 -0.26959725799E+04  0.27713834510E+04  0.15294330000E+03 0.  0.
<mgrwt>
<rscale>  0 0.83199414E+03</rscale>
<asrwt>0</asrwt>
<pdfrwt beam="1">  1        2 0.70674064E-01 0.90703728E+03</pdfrwt>
<pdfrwt beam="2">  1       -2 0.49560674E+00 0.90703728E+03</pdfrwt>
<totfact> 0.12281756E-01</totfact>
</mgrwt>
</event>
<event>
 4    5  0.6615028E-008  0.9710474E+03  0.7818608E-02  0.9420457E-01
          2   -1    0    0  501    0  0.00000000000E+00  0.00000000000E+00  0.12988637361E+04  0.12988637361E+04  0.25500000000E-02 0. -1.
         -2   -1    0    0    0  501 -0.00000000000E+00 -0.00000000000E+00 -0.90618011303E+03  0.90618011303E+03  0.25500000000E-02 0.  1.
    8880023    1    1    2    0    0  0.67950566942E+03 -0.21770377890E+03  0.89382956811E+03  0.13197971030E+04  0.65864270000E+03 0. -1.
    8880022    1    1    2    0    0 -0.67950566942E+03  0.21770377890E+03 -0.50114594507E+03  0.88524674605E+03  0.15294330000E+03 0.  0.
<mgrwt>
<rscale>  0 0.90411102E+03</rscale>
<asrwt>0</asrwt>
<pdfrwt beam="1">  1        2 0.19982519E+00 0.97104742E+03</pdfrwt>
<pdfrwt beam="2">  1       -2 0.13941233E+00 0.97104742E+03</pdfrwt>
<totfact> 0.59819677E+00</totfact>
</mgrwt>
</event>
<event>
 4    5  0.6615028E-008  0.6648093E+03  0.7818608E-02  0.1019694E+00
          2   -1    0    0  501    0  0.00000000000E+00  0.00000000000E+00  0.11876425546E+04  0.11876425547E+04  0.25500000000E-02 0. -1.
         -2   -1    0    0    0  501 -0.00000000000E+00 -0.00000000000E+00 -0.10701168681E+04  0.10701168681E+04  0.25500000000E-02 0.  1.
    8880023    1    1    2    0    0 -0.50042039794E+02 -0.75212927260E+02  0.10858914335E+04  0.12732366637E+04  0.65864270000E+03 0. -1.
    8880022    1    1    2    0    0  0.50042039794E+02  0.75212927260E+02 -0.96836574693E+03  0.98452275901E+03  0.15294330000E+03 0.  0.
<mgrwt>
<rscale>  0 0.47797218E+03</rscale>
<asrwt>0</asrwt>
<pdfrwt beam="1">  1        2 0.18271424E+00 0.66480929E+03</pdfrwt>
<pdfrwt beam="2">  1       -2 0.16463337E+00 0.66480929E+03</pdfrwt>
<totfact> 0.46487881E+00</totfact>
</mgrwt>
</event>
<event>
 4    5  0.6615028E-008  0.8138936E+03  0.7818608E-02  0.9681523E-01
         -2   -1    0    0    0  501 -0.00000000000E+00  0.00000000000E+00  0.13538500684E+04  0.13538500684E+04  0.25500000000E-02 0.  1.
          2   -1    0    0  501    0  0.00000000000E+00 -0.00000000000E+00 -0.16472078787E+04  0.16472078787E+04  0.25500000000E-02 0. -1.
    8880023    1    1    2    0    0 -0.15934310901E+03 -0.45080186751E+03 -0.14931025247E+04  0.17005228330E+04  0.65864270000E+03 0. -1.
    8880022    1    1    2    0    0  0.15934310901E+03  0.45080186751E+03  0.11997447144E+04  0.13005351141E+04  0.15294330000E+03 0.  0.
<mgrwt>
<rscale>  0 0.72127635E+03</rscale>
<asrwt>0</asrwt>
<pdfrwt beam="1">  1        2 0.25341660E+00 0.81389358E+03</pdfrwt>
<pdfrwt beam="2">  1       -2 0.20828463E+00 0.81389358E+03</pdfrwt>
<totfact> 0.12632488E+00</totfact>
</mgrwt>
</event>
<event>
 4    5  0.6615028E-008  0.7444898E+03  0.7818608E-02  0.9847056E-01
          2   -1    0    0  501    0  0.00000000000E+00  0.00000000000E+00  0.22461500781E+04  0.22461500781E+04  0.25500000000E-02 0. -1.
         -2   -1    0    0    0  501 -0.00000000000E+00 -0.00000000000E+00 -0.20729071095E+03  0.20729071097E+03  0.25500000000E-02 0.  1.
    8880023    1    1    2    0    0  0.32844758854E+03 -0.11214762664E+03  0.19147278815E+04  0.20543728909E+04  0.65864270000E+03 0.  0.
    8880022    1    1    2    0    0 -0.32844758854E+03  0.11214762664E+03  0.12413148565E+03  0.39906789813E+03  0.15294330000E+03 0. -1.
<mgrwt>
<rscale>  0 0.62897229E+03</rscale>
<asrwt>0</asrwt>
<pdfrwt beam="1">  1        2 0.34556156E+00 0.74448984E+03</pdfrwt>
<pdfrwt beam="2">  1       -2 0.31890878E-01 0.74448984E+03</pdfrwt>
<totfact> 0.46058252E+01</totfact>
</mgrwt>
</event>
<event>
 4    5  0.6615028E-008  0.1447655E+04  0.7818608E-02  0.8947512E-01
          2   -1    0    0  501    0  0.00000000000E+00  0.00000000000E+00  0.20840995801E+04  0.20840995801E+04  0.25500000000E-02 0. -1.
         -2   -1    0    0    0  501 -0.00000000000E+00 -0.00000000000E+00 -0.12272760269E+04  0.12272760269E+04  0.25500000000E-02 0.  1.
    8880023    1    1    2    0    0 -0.44597104706E+03  0.12095467011E+04 -0.40267344539E+03  0.15026142243E+04  0.65864270000E+03 0.  1.
    8880022    1    1    2    0    0  0.44597104706E+03 -0.12095467011E+04  0.12594969987E+04  0.18087613827E+04  0.15294330000E+03 0.  0.
<mgrwt>
<rscale>  0 0.14087466E+04</rscale>
<asrwt>0</asrwt>
<pdfrwt beam="1">  1        2 0.32063070E+00 0.14476545E+04</pdfrwt>
<pdfrwt beam="2">  1       -2 0.18881170E+00 0.14476545E+04</pdfrwt>
<totfact> 0.89488905E-01</totfact>
</mgrwt>
</event>
<event>
 4    5  0.6615028E-008  0.1156252E+04  0.7818608E-02  0.9200868E-01
          2   -1    0    0  501    0  0.00000000000E+00  0.00000000000E+00  0.92616458705E+03  0.92616458706E+03  0.25500000000E-02 0. -1.
         -2   -1    0    0    0  501 -0.00000000000E+00 -0.00000000000E+00 -0.17837823156E+04  0.17837823156E+04  0.25500000000E-02 0.  1.
    8880023    1    1    2    0    0 -0.52063560647E+03  0.79501388524E+03  0.30965104675E+03  0.11969972805E+04  0.65864270000E+03 0.  0.
    8880022    1    1    2    0    0  0.52063560647E+03 -0.79501388524E+03 -0.11672687753E+04  0.15129496222E+04  0.15294330000E+03 0.  0.
<mgrwt>
<rscale>  0 0.11044475E+04</rscale>
<asrwt>0</asrwt>
<pdfrwt beam="1">  1        2 0.14248686E+00 0.11562520E+04</pdfrwt>
<pdfrwt beam="2">  1       -2 0.27442805E+00 0.11562520E+04</pdfrwt>
<totfact> 0.12585759E+00</totfact>
</mgrwt>
</event>
<event>
 4    5  0.7337236E-008  0.9752782E+03  0.7818608E-02  0.9414641E-01
         -2   -1    0    0    0  501 -0.00000000000E+00  0.00000000000E+00  0.20947877973E+04  0.20947877973E+04  0.25500000000E-02 0.  1.
          2   -1    0    0  501    0  0.00000000000E+00 -0.00000000000E+00 -0.17018159012E+04  0.17018159012E+04  0.25500000000E-02 0. -1.
    8880023    1    1    2    0    0 -0.56944696898E+03  0.43941728705E+03 -0.14867929481E+04  0.17781228527E+04  0.65864270000E+03 0. -1.
    8880022    1    1    2    0    0  0.56944696898E+03 -0.43941728705E+03  0.18797648442E+04  0.20184808459E+04  0.15294330000E+03 0.  0.
<mgrwt>
<rscale>  0 0.90880533E+03</rscale>
<asrwt>0</asrwt>
<pdfrwt beam="1">  1        2 0.26181783E+00 0.97527822E+03</pdfrwt>
<pdfrwt beam="2">  1       -2 0.32227505E+00 0.97527822E+03</pdfrwt>
<totfact> 0.23020608E-01</totfact>
</mgrwt>
</event>
<event>
 4    5  0.6615028E-008  0.7488404E+03  0.7818608E-02  0.9834906E-01
          2   -1    0    0  501    0  0.00000000000E+00  0.00000000000E+00  0.15919228534E+04  0.15919228534E+04  0.25500000000E-02 0. -1.
         -2   -1    0    0    0  501 -0.00000000000E+00 -0.00000000000E+00 -0.10043054760E+04  0.10043054760E+04  0.25500000000E-02 0.  1.
    8880023    1    1    2    0    0  0.27616242604E+03 -0.22513567192E+03  0.14603972287E+04  0.16411953047E+04  0.65864270000E+03 0. -1.
    8880022    1    1    2    0    0 -0.27616242604E+03  0.22513567192E+03 -0.87277985131E+03  0.95503302466E+03  0.15294330000E+03 0.  0.
<mgrwt>
<rscale>  0 0.63522489E+03</rscale>
<asrwt>0</asrwt>
<pdfrwt beam="1">  1        2 0.24491121E+00 0.74884041E+03</pdfrwt>
<pdfrwt beam="2">  1       -2 0.15450853E+00 0.74884041E+03</pdfrwt>
<totfact> 0.32104360E+00</totfact>
</mgrwt>
</event>
<event>
 4    5  0.6615028E-008  0.2262630E+04  0.7818608E-02  0.8502320E-01
         -2   -1    0    0    0  501 -0.00000000000E+00  0.00000000000E+00  0.16044912399E+04  0.16044912399E+04  0.25500000000E-02 0.  1.
          2   -1    0    0  501    0  0.00000000000E+00 -0.00000000000E+00 -0.39999601437E+04  0.39999601437E+04  0.25500000000E-02 0. -1.
    8880023    1    1    2    0    0  0.44954630330E+03 -0.21174499300E+04 -0.25739820047E+04  0.34270803392E+04  0.65864270000E+03 0.  0.
    8880022    1    1    2    0    0 -0.44954630330E+03  0.21174499300E+04  0.17851310094E+03  0.21773710444E+04  0.15294330000E+03 0.  0.
<mgrwt>
<rscale>  0 0.22391191E+04</rscale>
<asrwt>0</asrwt>
<pdfrwt beam="1">  1        2 0.61537848E+00 0.22626304E+04</pdfrwt>
<pdfrwt beam="2">  1       -2 0.24684481E+00 0.22626304E+04</pdfrwt>
<totfact> 0.19896230E-02</totfact>
</mgrwt>
</event>
<event>
 4    5  0.6615028E-008  0.9302631E+03  0.7818608E-02  0.9479099E-01
         -2   -1    0    0    0  501 -0.00000000000E+00  0.00000000000E+00  0.42257414313E+03  0.42257414314E+03  0.25500000000E-02 0.  1.
          2   -1    0    0  501    0  0.00000000000E+00 -0.00000000000E+00 -0.20641356629E+04  0.20641356629E+04  0.25500000000E-02 0. -1.
    8880023    1    1    2    0    0  0.10111615171E+03  0.64911846026E+03 -0.15476116090E+04  0.18056830149E+04  0.65864270000E+03 0. -1.
    8880022    1    1    2    0    0 -0.10111615171E+03 -0.64911846026E+03 -0.93949910798E+02  0.68102679121E+03  0.15294330000E+03 0.  0.
<mgrwt>
<rscale>  0 0.85842489E+03</rscale>
<asrwt>0</asrwt>
<pdfrwt beam="1">  1        2 0.31755933E+00 0.93026311E+03</pdfrwt>
<pdfrwt beam="2">  1       -2 0.65011408E-01 0.93026311E+03</pdfrwt>
<totfact> 0.13591899E+01</totfact>
</mgrwt>
</event>
<event>
 4    5  0.6615028E-008  0.8843110E+03  0.7818608E-02  0.9551702E-01
          2   -1    0    0  501    0  0.00000000000E+00  0.00000000000E+00  0.25396747601E+04  0.25396747601E+04  0.25500000000E-02 0. -1.
         -2   -1    0    0    0  501 -0.00000000000E+00 -0.00000000000E+00 -0.28732013510E+03  0.28732013511E+03  0.25500000000E-02 0.  1.
    8880023    1    1    2    0    0  0.58837815461E+03 -0.44799199863E+02  0.19614094800E+04  0.21515420459E+04  0.65864270000E+03 0.  0.
    8880022    1    1    2    0    0 -0.58837815461E+03  0.44799199863E+02  0.29094514501E+03  0.67545284924E+03  0.15294330000E+03 0.  0.
<mgrwt>
<rscale>  0 0.80577061E+03</rscale>
<asrwt>0</asrwt>
<pdfrwt beam="1">  1        2 0.39071920E+00 0.88431105E+03</pdfrwt>
<pdfrwt beam="2">  1       -2 0.44203097E-01 0.88431105E+03</pdfrwt>
<totfact> 0.16462672E+01</totfact>
</mgrwt>
</event>
<event>
 4    5  0.6615028E-008  0.1084987E+04  0.7818608E-02  0.9277959E-01
          2   -1    0    0  501    0  0.00000000000E+00  0.00000000000E+00  0.20975207340E+04  0.20975207340E+04  0.25500000000E-02 0. -1.
         -2   -1    0    0    0  501 -0.00000000000E+00 -0.00000000000E+00 -0.62155270939E+03  0.62155270939E+03  0.25500000000E-02 0.  1.
    8880023    1    1    2    0    0 -0.10423105316E+03 -0.85587472526E+03  0.14901544227E+04  0.18433003194E+04  0.65864270000E+03 0.  0.
    8880022    1    1    2    0    0  0.10423105316E+03  0.85587472526E+03 -0.14186398076E+02  0.87577312398E+03  0.15294330000E+03 0.  0.
<mgrwt>
<rscale>  0 0.10283760E+04</rscale>
<asrwt>0</asrwt>
<pdfrwt beam="1">  1        2 0.32269550E+00 0.10849866E+04</pdfrwt>
<pdfrwt beam="2">  1       -2 0.95623492E-01 0.10849866E+04</pdfrwt>
<totfact> 0.53684512E+00</totfact>
</mgrwt>
</event>
<event>
 4    5  0.6615028E-008  0.6838206E+03  0.7818608E-02  0.1007240E+00
          2   -1    0    0  501    0  0.00000000000E+00  0.00000000000E+00  0.40796255789E+03  0.40796255790E+03  0.25500000000E-02 0. -1.
         -2   -1    0    0    0  501 -0.00000000000E+00 -0.00000000000E+00 -0.14540890169E+04  0.14540890169E+04  0.25500000000E-02 0.  1.
    8880023    1    1    2    0    0  0.10543794739E+03  0.15060967612E+03  0.10013078630E+03  0.69111273749E+03  0.65864270000E+03 0.  0.
    8880022    1    1    2    0    0 -0.10543794739E+03 -0.15060967612E+03 -0.11462572453E+04  0.11709388373E+04  0.15294330000E+03 0.  1.
<mgrwt>
<rscale>  0 0.52586424E+03</rscale>
<asrwt>0</asrwt>
<pdfrwt beam="1">  1        2 0.62763471E-01 0.68382062E+03</pdfrwt>
<pdfrwt beam="2">  1       -2 0.22370600E+00 0.68382062E+03</pdfrwt>
<totfact> 0.75072548E+00</totfact>
</mgrwt>
</event>
<event>
 4    5  0.6615028E-008  0.1177629E+04  0.7818608E-02  0.9179181E-01
          2   -1    0    0  501    0  0.00000000000E+00  0.00000000000E+00  0.48048118178E+04  0.48048118178E+04  0.25500000000E-02 0. -1.
         -2   -1    0    0    0  501 -0.00000000000E+00 -0.00000000000E+00 -0.68501221942E+03  0.68501221942E+03  0.25500000000E-02 0.  1.
    8880023    1    1    2    0    0 -0.63341674779E+03 -0.74282054417E+03  0.43234229631E+04  0.44809368955E+04  0.65864270000E+03 0.  0.
    8880022    1    1    2    0    0  0.63341674779E+03  0.74282054417E+03 -0.20362336467E+03  0.10088871418E+04  0.15294330000E+03 0.  0.
<mgrwt>
<rscale>  0 0.11270917E+04</rscale>
<asrwt>0</asrwt>
<pdfrwt beam="1">  1        2 0.73920181E+00 0.11776287E+04</pdfrwt>
<pdfrwt beam="2">  1       -2 0.10538650E+00 0.11776287E+04</pdfrwt>
<totfact> 0.44815708E-02</totfact>
</mgrwt>
</event>
<event>
 4    5  0.6615028E-008  0.8548056E+03  0.7818608E-02  0.9602871E-01
         -2   -1    0    0    0  501 -0.00000000000E+00  0.00000000000E+00  0.12679139056E+04  0.12679139056E+04  0.25500000000E-02 0.  1.
          2   -1    0    0  501    0  0.00000000000E+00 -0.00000000000E+00 -0.72451490515E+03  0.72451490516E+03  0.25500000000E-02 0. -1.
    8880023    1    1    2    0    0  0.31307085268E+01  0.54486021845E+03 -0.35909860128E+03  0.92717014118E+03  0.65864270000E+03 0.  0.
    8880022    1    1    2    0    0 -0.31307085268E+01 -0.54486021845E+03  0.90249760172E+03  0.10652586696E+04  0.15294330000E+03 0.  0.
<mgrwt>
<rscale>  0 0.77106459E+03</rscale>
<asrwt>0</asrwt>
<pdfrwt beam="1">  1        2 0.11146383E+00 0.85480563E+03</pdfrwt>
<pdfrwt beam="2">  1       -2 0.19506368E+00 0.85480563E+03</pdfrwt>
<totfact> 0.56663284E+00</totfact>
</mgrwt>
</event>
<event>
 4    5  0.6615028E-008  0.1237609E+04  0.7818608E-02  0.9121403E-01
         -2   -1    0    0    0  501 -0.00000000000E+00  0.00000000000E+00  0.50046418988E+03  0.50046418989E+03  0.25500000000E-02 0.  1.
          2   -1    0    0  501    0  0.00000000000E+00 -0.00000000000E+00 -0.29003330084E+04  0.29003330084E+04  0.25500000000E-02 0. -1.
    8880023    1    1    2    0    0  0.25800995787E+03  0.10155276676E+04 -0.17981118156E+04  0.21828609415E+04  0.65864270000E+03 0.  0.
    8880022    1    1    2    0    0 -0.25800995787E+03 -0.10155276676E+04 -0.60175700288E+03  0.12179362568E+04  0.15294330000E+03 0.  0.
<mgrwt>
<rscale>  0 0.11902844E+04</rscale>
<asrwt>0</asrwt>
<pdfrwt beam="1">  1        2 0.44620507E+00 0.12376089E+04</pdfrwt>
<pdfrwt beam="2">  1       -2 0.76994492E-01 0.12376089E+04</pdfrwt>
<totfact> 0.29878574E+00</totfact>
</mgrwt>
</event>
<event>
 4    5  0.6615028E-008  0.7316815E+03  0.7818608E-02  0.9884876E-01
          2   -1    0    0  501    0  0.00000000000E+00  0.00000000000E+00  0.14384150630E+04  0.14384150630E+04  0.25500000000E-02 0. -1.
         -2   -1    0    0    0  501 -0.00000000000E+00 -0.00000000000E+00 -0.25080025218E+03  0.25080025219E+03  0.25500000000E-02 0.  1.
    8880023    1    1    2    0    0  0.31212083698E+03 -0.64251129798E+02  0.11065378499E+04  0.13265684468E+04  0.65864270000E+03 0. -1.
    8880022    1    1    2    0    0 -0.31212083698E+03  0.64251129798E+02  0.81076960962E+02  0.36264686841E+03  0.15294330000E+03 0.  0.
<mgrwt>
<rscale>  0 0.60999873E+03</rscale>
<asrwt>0</asrwt>
<pdfrwt beam="1">  1        2 0.22129463E+00 0.73168151E+03</pdfrwt>
<pdfrwt beam="2">  1       -2 0.38584654E-01 0.73168151E+03</pdfrwt>
<totfact> 0.89035716E+01</totfact>
</mgrwt>
</event>
<event>
 4    5  0.6615028E-008  0.7467252E+03  0.7818608E-02  0.9840773E-01
          2   -1    0    0  501    0  0.00000000000E+00  0.00000000000E+00  0.33632792299E+03  0.33632792300E+03  0.25500000000E-02 0. -1.
         -2   -1    0    0    0  501 -0.00000000000E+00 -0.00000000000E+00 -0.17737364591E+04  0.17737364591E+04  0.25500000000E-02 0.  1.
    8880023    1    1    2    0    0  0.34269695667E+03  0.79669102007E+02 -0.14338195178E+03  0.76036633295E+03  0.65864270000E+03 0. -1.
    8880022    1    1    2    0    0 -0.34269695667E+03 -0.79669102007E+02 -0.12940265843E+04  0.13496980491E+04  0.15294330000E+03 0.  0.
<mgrwt>
<rscale>  0 0.63219598E+03</rscale>
<asrwt>0</asrwt>
<pdfrwt beam="1">  1        2 0.51742758E-01 0.74672523E+03</pdfrwt>
<pdfrwt beam="2">  1       -2 0.27288253E+00 0.74672523E+03</pdfrwt>
<totfact> 0.46482841E+00</totfact>
</mgrwt>
</event>
<event>
 4    5  0.6615028E-008  0.1149213E+04  0.7818608E-02  0.9208145E-01
          2   -1    0    0  501    0  0.00000000000E+00  0.00000000000E+00  0.19127898493E+04  0.19127898493E+04  0.25500000000E-02 0. -1.
         -2   -1    0    0    0  501 -0.00000000000E+00 -0.00000000000E+00 -0.12414742727E+04  0.12414742727E+04  0.25500000000E-02 0.  1.
    8880023    1    1    2    0    0  0.18778341545E+02  0.94155635555E+03  0.15006317953E+04  0.18901288284E+04  0.65864270000E+03 0.  0.
    8880022    1    1    2    0    0 -0.18778341545E+02 -0.94155635555E+03 -0.82931621874E+03  0.12641352936E+04  0.15294330000E+03 0.  0.
<mgrwt>
<rscale>  0 0.10969755E+04</rscale>
<asrwt>0</asrwt>
<pdfrwt beam="1">  1        2 0.29427536E+00 0.11492133E+04</pdfrwt>
<pdfrwt beam="2">  1       -2 0.19099604E+00 0.11492133E+04</pdfrwt>
<totfact> 0.11141169E+00</totfact>
</mgrwt>
</event>
<event>
 4    5  0.6615028E-008  0.6773206E+03  0.7818608E-02  0.1010882E+00
         -2   -1    0    0    0  501 -0.00000000000E+00  0.00000000000E+00  0.33881519692E+03  0.33881519693E+03  0.25500000000E-02 0.  1.
          2   -1    0    0  501    0  0.00000000000E+00 -0.00000000000E+00 -0.25570694045E+04  0.25570694045E+04  0.25500000000E-02 0. -1.
    8880023    1    1    2    0    0 -0.93170138375E+02  0.12756302769E+03 -0.24702644989E+04  0.25614390294E+04  0.65864270000E+03 0. -1.
    8880022    1    1    2    0    0  0.93170138375E+02 -0.12756302769E+03  0.25201029129E+03  0.33444557203E+03  0.15294330000E+03 0.  0.
<mgrwt>
<rscale>  0 0.51125701E+03</rscale>
<asrwt>0</asrwt>
<pdfrwt beam="1">  1        2 0.39339528E+00 0.67732061E+03</pdfrwt>
<pdfrwt beam="2">  1       -2 0.52125417E-01 0.67732061E+03</pdfrwt>
<totfact> 0.11909788E+01</totfact>
</mgrwt>
</event>
<event>
 4    5  0.6615028E-008  0.1153721E+04  0.7818608E-02  0.9203476E-01
         -2   -1    0    0    0  501 -0.00000000000E+00  0.00000000000E+00  0.84515630600E+03  0.84515630600E+03  0.25500000000E-02 0.  1.
          2   -1    0    0  501    0  0.00000000000E+00 -0.00000000000E+00 -0.17450829683E+04  0.17450829683E+04  0.25500000000E-02 0. -1.
    8880023    1    1    2    0    0 -0.43400358668E+03 -0.84196382785E+03 -0.11176890468E+04  0.16063316009E+04  0.65864270000E+03 0.  0.
    8880022    1    1    2    0    0  0.43400358668E+03  0.84196382785E+03  0.21776238444E+03  0.98390767339E+03  0.15294330000E+03 0.  0.
<mgrwt>
<rscale>  0 0.11017617E+04</rscale>
<asrwt>0</asrwt>
<pdfrwt beam="1">  1        2 0.26847430E+00 0.11537211E+04</pdfrwt>
<pdfrwt beam="2">  1       -2 0.13002405E+00 0.11537211E+04</pdfrwt>
<totfact> 0.39326176E+00</totfact>
</mgrwt>
</event>
<event>
 4    5  0.6615028E-008  0.7127756E+03  0.7818608E-02  0.9947835E-01
         -2   -1    0    0    0  501 -0.00000000000E+00  0.00000000000E+00  0.68432974258E+03  0.68432974259E+03  0.25500000000E-02 0.  1.
          2   -1    0    0  501    0  0.00000000000E+00 -0.00000000000E+00 -0.14641209178E+04  0.14641209178E+04  0.25500000000E-02 0. -1.
    8880023    1    1    2    0    0  0.24867660902E+03  0.11134956889E+03 -0.13338551435E+04  0.15123552931E+04  0.65864270000E+03 0. -1.
    8880022    1    1    2    0    0 -0.24867660902E+03 -0.11134956889E+03  0.55406396828E+03  0.63609536732E+03  0.15294330000E+03 0.  0.
<mgrwt>
<rscale>  0 0.57997964E+03</rscale>
<asrwt>0</asrwt>
<pdfrwt beam="1">  1        2 0.22524937E+00 0.71277555E+03</pdfrwt>
<pdfrwt beam="2">  1       -2 0.10528150E+00 0.71277555E+03</pdfrwt>
<totfact> 0.10000119E+01</totfact>
</mgrwt>
</event>
<event>
 4    5  0.6616240E-008  0.1442880E+04  0.7818608E-02  0.8951061E-01
          2   -1    0    0  501    0  0.00000000000E+00  0.00000000000E+00  0.30161246677E+04  0.30161246677E+04  0.25500000000E-02 0. -1.
         -2   -1    0    0    0  501 -0.00000000000E+00 -0.00000000000E+00 -0.13233744785E+04  0.13233744785E+04  0.25500000000E-02 0.  1.
    8880023    1    1    2    0    0 -0.38318762154E+03  0.12252588212E+04  0.24484547148E+04  0.28419768875E+04  0.65864270000E+03 0.  0.
    8880022    1    1    2    0    0  0.38318762154E+03 -0.12252588212E+04 -0.75570452558E+03  0.14975222587E+04  0.15294330000E+03 0.  0.
<mgrwt>
<rscale>  0 0.14038166E+04</rscale>
<asrwt>0</asrwt>
<pdfrwt beam="1">  1        2 0.46401917E+00 0.14428798E+04</pdfrwt>
<pdfrwt beam="2">  1       -2 0.20359608E+00 0.14428798E+04</pdfrwt>
<totfact> 0.20345939E-01</totfact>
</mgrwt>
</event>
<event>
 4    5  0.6615028E-008  0.7156180E+03  0.7818608E-02  0.9937702E-01
          2   -1    0    0  501    0  0.00000000000E+00  0.00000000000E+00  0.70347574369E+03  0.70347574369E+03  0.25500000000E-02 0. -1.
         -2   -1    0    0    0  501 -0.00000000000E+00 -0.00000000000E+00 -0.89377917212E+03  0.89377917213E+03  0.25500000000E-02 0.  1.
    8880023    1    1    2    0    0 -0.22178379163E+03 -0.17061910998E+03  0.47538520319E+03  0.85912759739E+03  0.65864270000E+03 0. -1.
    8880022    1    1    2    0    0  0.22178379163E+03  0.17061910998E+03 -0.66568863162E+03  0.73812731843E+03  0.15294330000E+03 0.  0.
<mgrwt>
<rscale>  0 0.58468377E+03</rscale>
<asrwt>0</asrwt>
<pdfrwt beam="1">  1        2 0.10822704E+00 0.71561801E+03</pdfrwt>
<pdfrwt beam="2">  1       -2 0.13750449E+00 0.71561801E+03</pdfrwt>
<totfact> 0.15598640E+01</totfact>
</mgrwt>
</event>
<event>
 4    5  0.6615028E-008  0.1074715E+04  0.7818608E-02  0.9289744E-01
          2   -1    0    0  501    0  0.00000000000E+00  0.00000000000E+00  0.24775986927E+04  0.24775986927E+04  0.25500000000E-02 0. -1.
         -2   -1    0    0    0  501 -0.00000000000E+00 -0.00000000000E+00 -0.44181063226E+03  0.44181063227E+03  0.25500000000E-02 0.  1.
    8880023    1    1    2    0    0 -0.24807368924E+02 -0.84887432260E+03  0.16616026713E+04  0.19788725742E+04  0.65864270000E+03 0. -1.
    8880022    1    1    2    0    0  0.24807368924E+02  0.84887432260E+03  0.37418538905E+03  0.94053675075E+03  0.15294330000E+03 0.  0.
<mgrwt>
<rscale>  0 0.10173259E+04</rscale>
<asrwt>0</asrwt>
<pdfrwt beam="1">  1        2 0.38116902E+00 0.10747154E+04</pdfrwt>
<pdfrwt beam="2">  1       -2 0.67970867E-01 0.10747154E+04</pdfrwt>
<totfact> 0.71205073E+00</totfact>
</mgrwt>
</event>
<event>
 4    5  0.6615028E-008  0.1038486E+04  0.7818608E-02  0.9332852E-01
          2   -1    0    0  501    0  0.00000000000E+00  0.00000000000E+00  0.94584273623E+03  0.94584273624E+03  0.25500000000E-02 0. -1.
         -2   -1    0    0    0  501 -0.00000000000E+00 -0.00000000000E+00 -0.12794618907E+04  0.12794618907E+04  0.25500000000E-02 0.  1.
    8880023    1    1    2    0    0 -0.16791095442E+03  0.78514273762E+03  0.41366655863E+03  0.11178432068E+04  0.65864270000E+03 0. -1.
    8880022    1    1    2    0    0  0.16791095442E+03 -0.78514273762E+03 -0.74728571313E+03  0.11074614201E+04  0.15294330000E+03 0.  0.
<mgrwt>
<rscale>  0 0.97813863E+03</rscale>
<asrwt>0</asrwt>
<pdfrwt beam="1">  1        2 0.14551427E+00 0.10384861E+04</pdfrwt>
<pdfrwt beam="2">  1       -2 0.19684029E+00 0.10384861E+04</pdfrwt>
<totfact> 0.37672421E+00</totfact>
</mgrwt>
</event>
<event>
 4    5  0.6615028E-008  0.9278063E+03  0.7818608E-02  0.9482792E-01
          2   -1    0    0  501    0  0.00000000000E+00  0.00000000000E+00  0.36100986548E+04  0.36100986548E+04  0.25500000000E-02 0. -1.
         -2   -1    0    0    0  501 -0.00000000000E+00 -0.00000000000E+00 -0.30578581206E+03  0.30578581207E+03  0.25500000000E-02 0.  1.
    8880023    1    1    2    0    0 -0.53334289619E+03 -0.37757083079E+03  0.30666383366E+04  0.32039187366E+04  0.65864270000E+03 0.  0.
    8880022    1    1    2    0    0  0.53334289619E+03  0.37757083079E+03  0.23767450616E+03  0.71196573027E+03  0.15294330000E+03 0.  0.
<mgrwt>
<rscale>  0 0.85564481E+03</rscale>
<asrwt>0</asrwt>
<pdfrwt beam="1">  1        2 0.55539983E+00 0.92780633E+03</pdfrwt>
<pdfrwt beam="2">  1       -2 0.47043968E-01 0.92780633E+03</pdfrwt>
<totfact> 0.30630609E+00</totfact>
</mgrwt>
</event>
<event>
 4    5  0.6615028E-008  0.7451671E+03  0.7818608E-02  0.9845143E-01
          2   -1    0    0  501    0  0.00000000000E+00  0.00000000000E+00  0.11633697610E+04  0.11633697610E+04  0.25500000000E-02 0. -1.
         -2   -1    0    0    0  501 -0.00000000000E+00 -0.00000000000E+00 -0.75103590728E+03  0.75103590729E+03  0.25500000000E-02 0.  1.
    8880023    1    1    2    0    0 -0.12183483564E+03  0.32652740132E+03  0.97989615567E+03  0.12310444968E+04  0.65864270000E+03 0. -1.
    8880022    1    1    2    0    0  0.12183483564E+03 -0.32652740132E+03 -0.56756230198E+03  0.68336117144E+03  0.15294330000E+03 0.  0.
<mgrwt>
<rscale>  0 0.62995156E+03</rscale>
<asrwt>0</asrwt>
<pdfrwt beam="1">  1        2 0.17897996E+00 0.74516715E+03</pdfrwt>
<pdfrwt beam="2">  1       -2 0.11554399E+00 0.74516715E+03</pdfrwt>
<totfact> 0.11844041E+01</totfact>
</mgrwt>
</event>
<event>
 4    5  0.6615028E-008  0.6613235E+03  0.7818608E-02  0.1022840E+00
         -2   -1    0    0    0  501 -0.00000000000E+00  0.00000000000E+00  0.36628908857E+03  0.36628908858E+03  0.25500000000E-02 0.  1.
          2   -1    0    0  501    0  0.00000000000E+00 -0.00000000000E+00 -0.19967359140E+04  0.19967359140E+04  0.25500000000E-02 0. -1.
    8880023    1    1    2    0    0 -0.17960912370E+02 -0.56709003729E+02 -0.19197247919E+04  0.20304413284E+04  0.65864270000E+03 0. -1.
    8880022    1    1    2    0    0  0.17960912370E+02  0.56709003729E+02  0.28927796640E+03  0.33258367418E+03  0.15294330000E+03 0.  0.
<mgrwt>
<rscale>  0 0.46675643E+03</rscale>
<asrwt>0</asrwt>
<pdfrwt beam="1">  1        2 0.30719013E+00 0.66132345E+03</pdfrwt>
<pdfrwt beam="2">  1       -2 0.56352169E-01 0.66132345E+03</pdfrwt>
<totfact> 0.20769054E+01</totfact>
</mgrwt>
</event>
<event>
 4    5  0.6615028E-008  0.9672101E+03  0.7818608E-02  0.9425773E-01
          2   -1    0    0  501    0  0.00000000000E+00  0.00000000000E+00  0.24072700213E+04  0.24072700213E+04  0.25500000000E-02 0. -1.
         -2   -1    0    0    0  501 -0.00000000000E+00 -0.00000000000E+00 -0.79313801040E+03  0.79313801040E+03  0.25500000000E-02 0.  1.
    8880023    1    1    2    0    0 -0.56161285539E+03 -0.43159717742E+03  0.21108440779E+04  0.23218867437E+04  0.65864270000E+03 0.  0.
    8880022    1    1    2    0    0  0.56161285539E+03  0.43159717742E+03 -0.49671206705E+03  0.87852128800E+03  0.15294330000E+03 0.  0.
<mgrwt>
<rscale>  0 0.89984656E+03</rscale>
<asrwt>0</asrwt>
<pdfrwt beam="1">  1        2 0.37034923E+00 0.96721007E+03</pdfrwt>
<pdfrwt beam="2">  1       -2 0.12202123E+00 0.96721007E+03</pdfrwt>
<totfact> 0.20258580E+00</totfact>
</mgrwt>
</event>
<event>
 4    5  0.6615028E-008  0.1171292E+04  0.7818608E-02  0.9185547E-01
          2   -1    0    0  501    0  0.00000000000E+00  0.00000000000E+00  0.12440993722E+04  0.12440993722E+04  0.25500000000E-02 0. -1.
         -2   -1    0    0    0  501 -0.00000000000E+00 -0.00000000000E+00 -0.22070037822E+04  0.22070037822E+04  0.25500000000E-02 0.  1.
    8880023    1    1    2    0    0 -0.73225378598E+03  0.63397009072E+03  0.81070033741E+03  0.14244854953E+04  0.65864270000E+03 0. -1.
    8880022    1    1    2    0    0  0.73225378598E+03 -0.63397009072E+03 -0.17736047474E+04  0.20266176591E+04  0.15294330000E+03 0.  0.
<mgrwt>
<rscale>  0 0.11203861E+04</rscale>
<asrwt>0</asrwt>
<pdfrwt beam="1">  1        2 0.19139990E+00 0.11712915E+04</pdfrwt>
<pdfrwt beam="2">  1       -2 0.33953904E+00 0.11712915E+04</pdfrwt>
<totfact> 0.31757352E-01</totfact>
</mgrwt>
</event>
<event>
 4    5  0.8008753E-008  0.8825550E+03  0.7818608E-02  0.9554638E-01
         -2   -1    0    0    0  501 -0.00000000000E+00  0.00000000000E+00  0.13436048378E+04  0.13436048378E+04  0.25500000000E-02 0.  1.
          2   -1    0    0  501    0  0.00000000000E+00 -0.00000000000E+00 -0.27188287317E+04  0.27188287317E+04  0.25500000000E-02 0. -1.
    8880023    1    1    2    0    0 -0.73359330551E+02  0.58284771331E+03 -0.25727091840E+04  0.27198779017E+04  0.65864270000E+03 0.  0.
    8880022    1    1    2    0    0  0.73359330551E+02 -0.58284771331E+03  0.11974852900E+04  0.13425556678E+04  0.15294330000E+03 0.  0.
<mgrwt>
<rscale>  0 0.80372736E+03</rscale>
<asrwt>0</asrwt>
<pdfrwt beam="1">  1        2 0.41828134E+00 0.88255496E+03</pdfrwt>
<pdfrwt beam="2">  1       -2 0.20670844E+00 0.88255496E+03</pdfrwt>
<totfact> 0.32205839E-01</totfact>
</mgrwt>
</event>
<event>
 4    5  0.6615028E-008  0.1021351E+04  0.7818608E-02  0.9354143E-01
          2   -1    0    0  501    0  0.00000000000E+00  0.00000000000E+00  0.10570445579E+04  0.10570445579E+04  0.25500000000E-02 0. -1.
         -2   -1    0    0    0  501 -0.00000000000E+00 -0.00000000000E+00 -0.20304187515E+04  0.20304187515E+04  0.25500000000E-02 0.  1.
    8880023    1    1    2    0    0  0.28117801067E+03  0.72820708893E+03  0.69757597708E+03  0.12368383436E+04  0.65864270000E+03 0. -1.
    8880022    1    1    2    0    0 -0.28117801067E+03 -0.72820708893E+03 -0.16709501707E+04  0.18506249658E+04  0.15294330000E+03 0.  0.
<mgrwt>
<rscale>  0 0.95947601E+03</rscale>
<asrwt>0</asrwt>
<pdfrwt beam="1">  1        2 0.16262224E+00 0.10213505E+04</pdfrwt>
<pdfrwt beam="2">  1       -2 0.31237211E+00 0.10213505E+04</pdfrwt>
<totfact> 0.61983239E-01</totfact>
</mgrwt>
</event>
<event>
 4    5  0.6615028E-008  0.1076154E+04  0.7818608E-02  0.9288082E-01
         -2   -1    0    0    0  501 -0.00000000000E+00  0.00000000000E+00  0.28624318004E+04  0.28624318004E+04  0.25500000000E-02 0.  1.
          2   -1    0    0  501    0  0.00000000000E+00 -0.00000000000E+00 -0.96037791045E+03  0.96037791045E+03  0.25500000000E-02 0. -1.
    8880023    1    1    2    0    0 -0.63173309105E+03 -0.57027239946E+03 -0.56013364864E+03  0.12132012275E+04  0.65864270000E+03 0. -1.
    8880022    1    1    2    0    0  0.63173309105E+03  0.57027239946E+03  0.24621875386E+04  0.26096084833E+04  0.15294330000E+03 0.  0.
<mgrwt>
<rscale>  0 0.10188751E+04</rscale>
<asrwt>0</asrwt>
<pdfrwt beam="1">  1        2 0.14775045E+00 0.10761540E+04</pdfrwt>
<pdfrwt beam="2">  1       -2 0.44037412E+00 0.10761540E+04</pdfrwt>
<totfact> 0.10796135E-01</totfact>
</mgrwt>
</event>
<event>
 4    5  0.6615028E-008  0.9500504E+03  0.7818608E-02  0.9450042E-01
          2   -1    0    0  501    0  0.00000000000E+00  0.00000000000E+00  0.17460883274E+04  0.17460883274E+04  0.25500000000E-02 0. -1.
         -2   -1    0    0    0  501 -0.00000000000E+00 -0.00000000000E+00 -0.94194353046E+03  0.94194353046E+03  0.25500000000E-02 0.  1.
    8880023    1    1    2    0    0 -0.66603630490E+03  0.15868609225E+03  0.14506176675E+04  0.17340379058E+04  0.65864270000E+03 0. -1.
    8880022    1    1    2    0    0  0.66603630490E+03 -0.15868609225E+03 -0.64647287050E+03  0.95399395209E+03  0.15294330000E+03 0.  0.
<mgrwt>
<rscale>  0 0.88069432E+03</rscale>
<asrwt>0</asrwt>
<pdfrwt beam="1">  1        2 0.26862897E+00 0.95005044E+03</pdfrwt>
<pdfrwt beam="2">  1       -2 0.14491439E+00 0.95005044E+03</pdfrwt>
<totfact> 0.30379573E+00</totfact>
</mgrwt>
</event>
<event>
 4    5  0.6615028E-008  0.1397428E+04  0.7818608E-02  0.8985684E-01
          2   -1    0    0  501    0  0.00000000000E+00  0.00000000000E+00  0.33078358925E+04  0.33078358925E+04  0.25500000000E-02 0. -1.
         -2   -1    0    0    0  501 -0.00000000000E+00 -0.00000000000E+00 -0.80112128299E+03  0.80112128299E+03  0.25500000000E-02 0.  1.
    8880023    1    1    2    0    0 -0.46712596381E+03 -0.11405206653E+04  0.25034027727E+04  0.28670245383E+04  0.65864270000E+03 0.  0.
    8880022    1    1    2    0    0  0.46712596381E+03  0.11405206653E+04  0.33118367589E+01  0.12419326372E+04  0.15294330000E+03 0.  0.
<mgrwt>
<rscale>  0 0.13568166E+04</rscale>
<asrwt>0</asrwt>
<pdfrwt beam="1">  1        2 0.50889784E+00 0.13974277E+04</pdfrwt>
<pdfrwt beam="2">  1       -2 0.12324943E+00 0.13974277E+04</pdfrwt>
<totfact> 0.52865234E-01</totfact>
</mgrwt>
</event>
<event>
 4    5  0.6615028E-008  0.9097000E+03  0.7818608E-02  0.9510636E-01
         -2   -1    0    0    0  501 -0.00000000000E+00  0.00000000000E+00  0.97959491267E+03  0.97959491268E+03  0.25500000000E-02 0.  1.
          2   -1    0    0  501    0  0.00000000000E+00 -0.00000000000E+00 -0.21506847074E+04  0.21506847074E+04  0.25500000000E-02 0. -1.
    8880023    1    1    2    0    0  0.46633501590E+03 -0.41985182099E+03 -0.19300584750E+04  0.21337009683E+04  0.65864270000E+03 0.  0.
    8880022    1    1    2    0    0 -0.46633501590E+03  0.41985182099E+03  0.75896868028E+03  0.99657865184E+03  0.15294330000E+03 0.  0.
<mgrwt>
<rscale>  0 0.83504196E+03</rscale>
<asrwt>0</asrwt>
<pdfrwt beam="1">  1        2 0.33087457E+00 0.90970001E+03</pdfrwt>
<pdfrwt beam="2">  1       -2 0.15070691E+00 0.90970001E+03</pdfrwt>
<totfact> 0.16505701E+00</totfact>
</mgrwt>
</event>
<event>
 4    5  0.6615028E-008  0.9123631E+03  0.7818608E-02  0.9506469E-01
         -2   -1    0    0    0  501 -0.00000000000E+00  0.00000000000E+00  0.32880875358E+03  0.32880875359E+03  0.25500000000E-02 0.  1.
          2   -1    0    0  501    0  0.00000000000E+00 -0.00000000000E+00 -0.36350056148E+04  0.36350056148E+04  0.25500000000E-02 0. -1.
    8880023    1    1    2    0    0 -0.54715625328E+03  0.31498608725E+03 -0.31718515494E+04  0.33004618856E+04  0.65864270000E+03 0. -1.
    8880022    1    1    2    0    0  0.54715625328E+03 -0.31498608725E+03 -0.13434531189E+03  0.66335248285E+03  0.15294330000E+03 0.  0.
<mgrwt>
<rscale>  0 0.83808540E+03</rscale>
<asrwt>0</asrwt>
<pdfrwt beam="1">  1        2 0.55923161E+00 0.91236309E+03</pdfrwt>
<pdfrwt beam="2">  1       -2 0.50585965E-01 0.91236309E+03</pdfrwt>
<totfact> 0.25447384E+00</totfact>
</mgrwt>
</event>
<event>
 4    5  0.6615028E-008  0.9564992E+03  0.7818608E-02  0.9440824E-01
         -2   -1    0    0    0  501 -0.00000000000E+00  0.00000000000E+00  0.49802130318E+03  0.49802130318E+03  0.25500000000E-02 0.  1.
          2   -1    0    0  501    0  0.00000000000E+00 -0.00000000000E+00 -0.17043203021E+04  0.17043203021E+04  0.25500000000E-02 0. -1.
    8880023    1    1    2    0    0  0.20299522493E+02  0.69330251196E+03 -0.11412985937E+04  0.14891115236E+04  0.65864270000E+03 0.  0.
    8880022    1    1    2    0    0 -0.20299522493E+02 -0.69330251196E+03 -0.65000405300E+02  0.71323008168E+03  0.15294330000E+03 0.  0.
<mgrwt>
<rscale>  0 0.88790825E+03</rscale>
<asrwt>0</asrwt>
<pdfrwt beam="1">  1        2 0.26220312E+00 0.95649916E+03</pdfrwt>
<pdfrwt beam="2">  1       -2 0.76618663E-01 0.95649916E+03</pdfrwt>
<totfact> 0.14902912E+01</totfact>
</mgrwt>
</event>
<event>
 4    5  0.6615028E-008  0.1054370E+04  0.7818608E-02  0.9313646E-01
          2   -1    0    0  501    0  0.00000000000E+00  0.00000000000E+00  0.23024038577E+04  0.23024038577E+04  0.25500000000E-02 0. -1.
         -2   -1    0    0    0  501 -0.00000000000E+00 -0.00000000000E+00 -0.55179874749E+03  0.55179874750E+03  0.25500000000E-02 0.  1.
    8880023    1    1    2    0    0 -0.75148621034E+03 -0.33638567327E+03  0.17184928991E+04  0.20161634100E+04  0.65864270000E+03 0.  0.
    8880022    1    1    2    0    0  0.75148621034E+03  0.33638567327E+03  0.32112211132E+02  0.83803919517E+03  0.15294330000E+03 0.  0.
<mgrwt>
<rscale>  0 0.99536241E+03</rscale>
<asrwt>0</asrwt>
<pdfrwt beam="1">  1        2 0.35421598E+00 0.10543705E+04</pdfrwt>
<pdfrwt beam="2">  1       -2 0.84892115E-01 0.10543705E+04</pdfrwt>
<totfact> 0.54586986E+00</totfact>
</mgrwt>
</event>
<event>
 4    5  0.6615028E-008  0.9240050E+03  0.7818608E-02  0.9488545E-01
         -2   -1    0    0    0  501 -0.00000000000E+00  0.00000000000E+00  0.11496777547E+04  0.11496777547E+04  0.25500000000E-02 0.  1.
          2   -1    0    0  501    0  0.00000000000E+00 -0.00000000000E+00 -0.18089092963E+04  0.18089092963E+04  0.25500000000E-02 0. -1.
    8880023    1    1    2    0    0 -0.14427313778E+03  0.63179139295E+03 -0.15751773961E+04  0.18261897869E+04  0.65864270000E+03 0. -1.
    8880022    1    1    2    0    0  0.14427313778E+03 -0.63179139295E+03  0.91594585440E+03  0.11323972641E+04  0.15294330000E+03 0.  0.
<mgrwt>
<rscale>  0 0.85133629E+03</rscale>
<asrwt>0</asrwt>
<pdfrwt beam="1">  1        2 0.27829374E+00 0.92400504E+03</pdfrwt>
<pdfrwt beam="2">  1       -2 0.17687350E+00 0.92400504E+03</pdfrwt>
<totfact> 0.16365440E+00</totfact>
</mgrwt>
</event>
<event>
 4    5  0.6615028E-008  0.7848757E+03  0.7818608E-02  0.9744506E-01
          2   -1    0    0  501    0  0.00000000000E+00  0.00000000000E+00  0.22809955563E+04  0.22809955563E+04  0.25500000000E-02 0. -1.
         -2   -1    0    0    0  501 -0.00000000000E+00 -0.00000000000E+00 -0.40384023830E+03  0.40384023831E+03  0.25500000000E-02 0.  1.
    8880023    1    1    2    0    0 -0.24552309447E+03  0.34919633662E+03  0.20534418103E+04  0.21983296263E+04  0.65864270000E+03 0.  0.
    8880022    1    1    2    0    0  0.24552309447E+03 -0.34919633662E+03 -0.17628649227E+03  0.48650616830E+03  0.15294330000E+03 0.  0.
<mgrwt>
<rscale>  0 0.68427637E+03</rscale>
<asrwt>0</asrwt>
<pdfrwt beam="1">  1        2 0.35092239E+00 0.78487571E+03</pdfrwt>
<pdfrwt beam="2">  1       -2 0.62129267E-01 0.78487571E+03</pdfrwt>
<totfact> 0.11587160E+01</totfact>
</mgrwt>
</event>
<event>
 4    5  0.6615028E-008  0.9545551E+03  0.7818608E-02  0.9443590E-01
          2   -1    0    0  501    0  0.00000000000E+00  0.00000000000E+00  0.44869372164E+03  0.44869372164E+03  0.25500000000E-02 0. -1.
         -2   -1    0    0    0  501 -0.00000000000E+00 -0.00000000000E+00 -0.21723535029E+04  0.21723535029E+04  0.25500000000E-02 0.  1.
    8880023    1    1    2    0    0 -0.58003037315E+03  0.37540631874E+03 -0.25070942535E+03  0.98692986587E+03  0.65864270000E+03 0.  0.
    8880022    1    1    2    0    0  0.58003037315E+03 -0.37540631874E+03 -0.14729503559E+04  0.16341173587E+04  0.15294330000E+03 0.  0.
<mgrwt>
<rscale>  0 0.88573558E+03</rscale>
<asrwt>0</asrwt>
<pdfrwt beam="1">  1        2 0.69029805E-01 0.95455505E+03</pdfrwt>
<pdfrwt beam="2">  1       -2 0.33420822E+00 0.95455505E+03</pdfrwt>
<totfact> 0.13893816E+00</totfact>
</mgrwt>
</event>
<event>
 4    5  0.6615028E-008  0.1004684E+04  0.7818608E-02  0.9375455E-01
          2   -1    0    0  501    0  0.00000000000E+00  0.00000000000E+00  0.64232757248E+03  0.64232757248E+03  0.25500000000E-02 0. -1.
         -2   -1    0    0    0  501 -0.00000000000E+00 -0.00000000000E+00 -0.18092395653E+04  0.18092395653E+04  0.25500000000E-02 0.  1.
    8880023    1    1    2    0    0  0.68077381732E+03  0.33485267501E+03  0.53876792663E+02  0.10061273375E+04  0.65864270000E+03 0.  0.
    8880022    1    1    2    0    0 -0.68077381732E+03 -0.33485267501E+03 -0.12207887854E+04  0.14454398002E+04  0.15294330000E+03 0.  0.
<mgrwt>
<rscale>  0 0.94123434E+03</rscale>
<asrwt>0</asrwt>
<pdfrwt beam="1">  1        2 0.98819627E-01 0.10046838E+04</pdfrwt>
<pdfrwt beam="2">  1       -2 0.27834455E+00 0.10046838E+04</pdfrwt>
<totfact> 0.19704224E+00</totfact>
</mgrwt>
</event>
<event>
 4    5  0.6615028E-008  0.6803238E+03  0.7818608E-02  0.1009141E+00
         -2   -1    0    0    0  501 -0.00000000000E+00  0.00000000000E+00  0.14036484555E+03  0.14036484557E+03  0.25500000000E-02 0.  1.
          2   -1    0    0  501    0  0.00000000000E+00 -0.00000000000E+00 -0.33016145437E+04  0.33016145437E+04  0.25500000000E-02 0. -1.
    8880023    1    1    2    0    0 -0.12498257119E+03  0.11579965044E+03 -0.31390731986E+04  0.32119497123E+04  0.65864270000E+03 0. -1.
    8880022    1    1    2    0    0  0.12498257119E+03 -0.11579965044E+03 -0.22176499603E+02  0.23002967699E+03  0.15294330000E+03 0.  0.
<mgrwt>
<rscale>  0 0.51817419E+03</rscale>
<asrwt>0</asrwt>
<pdfrwt beam="1">  1        2 0.50794064E+00 0.68032375E+03</pdfrwt>
<pdfrwt beam="2">  1       -2 0.21594594E-01 0.68032375E+03</pdfrwt>
<totfact> 0.22410757E+01</totfact>
</mgrwt>
</event>
<event>
 4    5  0.6615028E-008  0.1307319E+04  0.7818608E-02  0.9059265E-01
          2   -1    0    0  501    0  0.00000000000E+00  0.00000000000E+00  0.29439525844E+04  0.29439525844E+04  0.25500000000E-02 0. -1.
         -2   -1    0    0    0  501 -0.00000000000E+00 -0.00000000000E+00 -0.55298113478E+03  0.55298113478E+03  0.25500000000E-02 0.  1.
    8880023    1    1    2    0    0 -0.16039807378E+03 -0.11178308987E+04  0.77571042495E+03  0.15201349709E+04  0.65864270000E+03 0.  0.
    8880022    1    1    2    0    0  0.16039807378E+03  0.11178308987E+04  0.16152610247E+04  0.19767987482E+04  0.15294330000E+03 0.  0.
<mgrwt>
<rscale>  0 0.12632037E+04</rscale>
<asrwt>0</asrwt>
<pdfrwt beam="1">  1        2 0.45291577E+00 0.13073193E+04</pdfrwt>
<pdfrwt beam="2">  1       -2 0.85074023E-01 0.13073193E+04</pdfrwt>
<totfact> 0.22220607E+00</totfact>
</mgrwt>
</event>
<event>
 4    5  0.6615028E-008  0.7702073E+03  0.7818608E-02  0.9779364E-01
         -2   -1    0    0    0  501 -0.00000000000E+00  0.00000000000E+00  0.42604842070E+03  0.42604842071E+03  0.25500000000E-02 0.  1.
          2   -1    0    0  501    0  0.00000000000E+00 -0.00000000000E+00 -0.13617397964E+04  0.13617397964E+04  0.25500000000E-02 0. -1.
    8880023    1    1    2    0    0  0.11495671992E+03 -0.38235327636E+03 -0.10887718262E+04  0.13336578914E+04  0.65864270000E+03 0.  0.
    8880022    1    1    2    0    0 -0.11495671992E+03  0.38235327636E+03  0.15308045053E+03  0.45413032573E+03  0.15294330000E+03 0.  0.
<mgrwt>
<rscale>  0 0.66481830E+03</rscale>
<asrwt>0</asrwt>
<pdfrwt beam="1">  1        2 0.20949843E+00 0.77020730E+03</pdfrwt>
<pdfrwt beam="2">  1       -2 0.65545911E-01 0.77020730E+03</pdfrwt>
<totfact> 0.33248428E+01</totfact>
</mgrwt>
</event>
<event>
 4    5  0.6615028E-008  0.1266301E+04  0.7818608E-02  0.9095221E-01
         -2   -1    0    0    0  501 -0.00000000000E+00  0.00000000000E+00  0.24534606740E+04  0.24534606740E+04  0.25500000000E-02 0.  1.
          2   -1    0    0  501    0  0.00000000000E+00 -0.00000000000E+00 -0.11202318079E+04  0.11202318079E+04  0.25500000000E-02 0. -1.
    8880023    1    1    2    0    0  0.21979201320E+03 -0.10589621081E+04 -0.56264353614E+03  0.13856721223E+04  0.65864270000E+03 0. -1.
    8880022    1    1    2    0    0 -0.21979201320E+03  0.10589621081E+04  0.18958724023E+04  0.21880203596E+04  0.15294330000E+03 0.  0.
<mgrwt>
<rscale>  0 0.12203587E+04</rscale>
<asrwt>0</asrwt>
<pdfrwt beam="1">  1        2 0.17234335E+00 0.12663015E+04</pdfrwt>
<pdfrwt beam="2">  1       -2 0.37745549E+00 0.12663015E+04</pdfrwt>
<totfact> 0.21457636E-01</totfact>
</mgrwt>
</event>
<event>
 4    5  0.6615028E-008  0.8507100E+03  0.7818608E-02  0.9610307E-01
          2   -1    0    0  501    0  0.00000000000E+00  0.00000000000E+00  0.24786559139E+04  0.24786559139E+04  0.25500000000E-02 0. -1.
         -2   -1    0    0    0  501 -0.00000000000E+00 -0.00000000000E+00 -0.21913039669E+03  0.21913039671E+03  0.25500000000E-02 0.  1.
    8880023    1    1    2    0    0 -0.20045634387E+03  0.49971453711E+03  0.17272514179E+04  0.19253843853E+04  0.65864270000E+03 0.  1.
    8880022    1    1    2    0    0  0.20045634387E+03 -0.49971453711E+03  0.53227409940E+03  0.77240192536E+03  0.15294330000E+03 0.  0.
<mgrwt>
<rscale>  0 0.76617736E+03</rscale>
<asrwt>0</asrwt>
<pdfrwt beam="1">  1        2 0.38133166E+00 0.85071004E+03</pdfrwt>
<pdfrwt beam="2">  1       -2 0.33712370E-01 0.85071004E+03</pdfrwt>
<totfact> 0.30321877E+01</totfact>
</mgrwt>
</event>
<event>
 4    5  0.6615028E-008  0.6775577E+03  0.7818608E-02  0.1010740E+00
          2   -1    0    0  501    0  0.00000000000E+00  0.00000000000E+00  0.17081006335E+04  0.17081006335E+04  0.25500000000E-02 0. -1.
         -2   -1    0    0    0  501 -0.00000000000E+00 -0.00000000000E+00 -0.20635591059E+04  0.20635591059E+04  0.25500000000E-02 0.  1.
    8880023    1    1    2    0    0  0.15886485226E+03  0.60187584441E+01  0.16345727201E+04  0.17694384562E+04  0.65864270000E+03 0. -1.
    8880022    1    1    2    0    0 -0.15886485226E+03 -0.60187584441E+01 -0.19900311925E+04  0.20022212832E+04  0.15294330000E+03 0.  0.
<mgrwt>
<rscale>  0 0.51181480E+03</rscale>
<asrwt>0</asrwt>
<pdfrwt beam="1">  1        2 0.26278471E+00 0.67755773E+03</pdfrwt>
<pdfrwt beam="2">  1       -2 0.31747063E+00 0.67755773E+03</pdfrwt>
<totfact> 0.26113072E-01</totfact>
</mgrwt>
</event>
<event>
 4    5  0.6615028E-008  0.7780716E+03  0.7818608E-02  0.9760387E-01
         -2   -1    0    0    0  501 -0.00000000000E+00  0.00000000000E+00  0.37156617760E+03  0.37156617761E+03  0.25500000000E-02 0.  1.
          2   -1    0    0  501    0  0.00000000000E+00 -0.00000000000E+00 -0.22551054818E+04  0.22551054818E+04  0.25500000000E-02 0. -1.
    8880023    1    1    2    0    0 -0.39348088667E+03  0.12945255712E+03 -0.20198655361E+04  0.21645443314E+04  0.65864270000E+03 0. -1.
    8880022    1    1    2    0    0  0.39348088667E+03 -0.12945255712E+03  0.13632623189E+03  0.46212732794E+03  0.15294330000E+03 0.  0.
<mgrwt>
<rscale>  0 0.67532455E+03</rscale>
<asrwt>0</asrwt>
<pdfrwt beam="1">  1        2 0.34693930E+00 0.77807158E+03</pdfrwt>
<pdfrwt beam="2">  1       -2 0.57164029E-01 0.77807158E+03</pdfrwt>
<totfact> 0.14292537E+01</totfact>
</mgrwt>
</event>
<event>
 4    5  0.6615028E-008  0.9397837E+03  0.7818608E-02  0.9464968E-01
         -2   -1    0    0    0  501 -0.00000000000E+00  0.00000000000E+00  0.64954751690E+03  0.64954751690E+03  0.25500000000E-02 0.  1.
          2   -1    0    0  501    0  0.00000000000E+00 -0.00000000000E+00 -0.11081845207E+04  0.11081845207E+04  0.25500000000E-02 0. -1.
    8880023    1    1    2    0    0  0.61654719697E+03 -0.26315901382E+03 -0.50814570612E+03  0.10683657508E+04  0.65864270000E+03 0.  0.
    8880022    1    1    2    0    0 -0.61654719697E+03  0.26315901382E+03  0.49508702359E+02  0.68936628672E+03  0.15294330000E+03 0. -1.
<mgrwt>
<rscale>  0 0.86916594E+03</rscale>
<asrwt>0</asrwt>
<pdfrwt beam="1">  1        2 0.17048993E+00 0.93978366E+03</pdfrwt>
<pdfrwt beam="2">  1       -2 0.99930387E-01 0.93978366E+03</pdfrwt>
<totfact> 0.17801520E+01</totfact>
</mgrwt>
</event>
<event>
 4    5  0.6615028E-008  0.7285241E+03  0.7818608E-02  0.9894733E-01
         -2   -1    0    0    0  501 -0.00000000000E+00  0.00000000000E+00  0.65417124341E+03  0.65417124341E+03  0.25500000000E-02 0.  1.
          2   -1    0    0  501    0  0.00000000000E+00 -0.00000000000E+00 -0.15407157622E+04  0.15407157622E+04  0.25500000000E-02 0. -1.
    8880023    1    1    2    0    0  0.10855185334E+03 -0.29181096243E+03 -0.13982668979E+04  0.15766729739E+04  0.65864270000E+03 0. -1.
    8880022    1    1    2    0    0 -0.10855185334E+03  0.29181096243E+03  0.51172237912E+03  0.61821403168E+03  0.15294330000E+03 0.  0.
<mgrwt>
<rscale>  0 0.60517243E+03</rscale>
<asrwt>0</asrwt>
<pdfrwt beam="1">  1        2 0.23703319E+00 0.72852409E+03</pdfrwt>
<pdfrwt beam="2">  1       -2 0.10064173E+00 0.72852409E+03</pdfrwt>
<totfact> 0.10073962E+01</totfact>
</mgrwt>
</event>
<event>
 4    5  0.6615028E-008  0.6960009E+03  0.7818608E-02  0.1001421E+00
         -2   -1    0    0    0  501 -0.00000000000E+00  0.00000000000E+00  0.43474105552E+03  0.43474105553E+03  0.25500000000E-02 0.  1.
          2   -1    0    0  501    0  0.00000000000E+00 -0.00000000000E+00 -0.92553890612E+03  0.92553890612E+03  0.25500000000E-02 0. -1.
    8880023    1    1    2    0    0 -0.15187824652E+03  0.16595210591E+03 -0.72231251690E+03  0.10030716233E+04  0.65864270000E+03 0. -1.
    8880022    1    1    2    0    0  0.15187824652E+03 -0.16595210591E+03  0.23151466630E+03  0.35720833830E+03  0.15294330000E+03 0.  0.
<mgrwt>
<rscale>  0 0.55031382E+03</rscale>
<asrwt>0</asrwt>
<pdfrwt beam="1">  1        2 0.14239060E+00 0.69600094E+03</pdfrwt>
<pdfrwt beam="2">  1       -2 0.66883240E-01 0.69600094E+03</pdfrwt>
<totfact> 0.58954406E+01</totfact>
</mgrwt>
</event>
<event>
 4    5  0.6615028E-008  0.6643571E+03  0.7818608E-02  0.1020079E+00
         -2   -1    0    0    0  501 -0.00000000000E+00  0.00000000000E+00  0.31055301904E+03  0.31055301905E+03  0.25500000000E-02 0.  1.
          2   -1    0    0  501    0  0.00000000000E+00 -0.00000000000E+00 -0.66118754591E+03  0.66118754591E+03  0.25500000000E-02 0. -1.
    8880023    1    1    2    0    0 -0.27665555743E+02  0.82430599931E+02 -0.41623320875E+03  0.78397734477E+03  0.65864270000E+03 0. -1.
    8880022    1    1    2    0    0  0.27665555743E+02 -0.82430599931E+02  0.65598681885E+02  0.18776322020E+03  0.15294330000E+03 0.  0.
<mgrwt>
<rscale>  0 0.47658131E+03</rscale>
<asrwt>0</asrwt>
<pdfrwt beam="1">  1        2 0.10172116E+00 0.66435713E+03</pdfrwt>
<pdfrwt beam="2">  1       -2 0.47777388E-01 0.66435713E+03</pdfrwt>
<totfact> 0.18531730E+02</totfact>
</mgrwt>
</event>
<event>
 4    5  0.6615028E-008  0.6928115E+03  0.7818608E-02  0.1002844E+00
         -2   -1    0    0    0  501 -0.00000000000E+00  0.00000000000E+00  0.55108841101E+03  0.55108841102E+03  0.25500000000E-02 0.  1.
          2   -1    0    0  501    0  0.00000000000E+00 -0.00000000000E+00 -0.47148126006E+03  0.47148126006E+03  0.25500000000E-02 0. -1.
    8880023    1    1    2    0    0  0.89519608639E+00 -0.21488771959E+03  0.21590670963E+03  0.72567447725E+03  0.65864270000E+03 0.  1.
    8880022    1    1    2    0    0 -0.89519608639E+00  0.21488771959E+03 -0.13629955868E+03  0.29689519383E+03  0.15294330000E+03 0. -1.
<mgrwt>
<rscale>  0 0.54420612E+03</rscale>
<asrwt>0</asrwt>
<pdfrwt beam="1">  1        2 0.72535578E-01 0.69281147E+03</pdfrwt>
<pdfrwt beam="2">  1       -2 0.84782833E-01 0.69281147E+03</pdfrwt>
<totfact> 0.81047472E+01</totfact>
</mgrwt>
</event>
<event>
 4    5  0.6615028E-008  0.8605286E+03  0.7818608E-02  0.9592624E-01
         -2   -1    0    0    0  501 -0.00000000000E+00  0.00000000000E+00  0.11868663674E+04  0.11868663674E+04  0.25500000000E-02 0.  1.
          2   -1    0    0  501    0  0.00000000000E+00 -0.00000000000E+00 -0.13770919799E+04  0.13770919799E+04  0.25500000000E-02 0. -1.
    8880023    1    1    2    0    0 -0.12543507809E+03 -0.53941200731E+03 -0.11554481935E+04  0.14406838677E+04  0.65864270000E+03 0.  0.
    8880022    1    1    2    0    0  0.12543507809E+03  0.53941200731E+03  0.96522258109E+03  0.11232744796E+04  0.15294330000E+03 0.  0.
<mgrwt>
<rscale>  0 0.77786312E+03</rscale>
<asrwt>0</asrwt>
<pdfrwt beam="1">  1        2 0.21186030E+00 0.86052860E+03</pdfrwt>
<pdfrwt beam="2">  1       -2 0.18259483E+00 0.86052860E+03</pdfrwt>
<totfact> 0.26225104E+00</totfact>
</mgrwt>
</event>
<event>
 4    5  0.6615028E-008  0.1313422E+04  0.7818608E-02  0.9054055E-01
          2   -1    0    0  501    0  0.00000000000E+00  0.00000000000E+00  0.25263078182E+04  0.25263078182E+04  0.25500000000E-02 0. -1.
         -2   -1    0    0    0  501 -0.00000000000E+00 -0.00000000000E+00 -0.74713898206E+03  0.74713898207E+03  0.25500000000E-02 0.  1.
    8880023    1    1    2    0    0  0.22644059708E+03  0.11135486714E+04  0.16657392145E+04  0.21212645579E+04  0.65864270000E+03 0.  0.
    8880022    1    1    2    0    0 -0.22644059708E+03 -0.11135486714E+04  0.11342962160E+03  0.11521822424E+04  0.15294330000E+03 0.  0.
<mgrwt>
<rscale>  0 0.12695643E+04</rscale>
<asrwt>0</asrwt>
<pdfrwt beam="1">  1        2 0.38866274E+00 0.13134216E+04</pdfrwt>
<pdfrwt beam="2">  1       -2 0.11494446E+00 0.13134216E+04</pdfrwt>
<totfact> 0.19224979E+00</totfact>
</mgrwt>
</event>
<event>
 4    5  0.6615028E-008  0.1244635E+04  0.7818608E-02  0.9114909E-01
          2   -1    0    0  501    0  0.00000000000E+00  0.00000000000E+00  0.24317998705E+04  0.24317998705E+04  0.25500000000E-02 0. -1.
         -2   -1    0    0    0  501 -0.00000000000E+00 -0.00000000000E+00 -0.10645073302E+04  0.10645073302E+04  0.25500000000E-02 0.  1.
    8880023    1    1    2    0    0 -0.10545053483E+04 -0.57663639802E+02  0.19249501492E+04  0.22922805039E+04  0.65864270000E+03 0. -1.
    8880022    1    1    2    0    0  0.10545053483E+04  0.57663639802E+02 -0.55765760896E+03  0.12040266969E+04  0.15294330000E+03 0.  0.
<mgrwt>
<rscale>  0 0.11976575E+04</rscale>
<asrwt>0</asrwt>
<pdfrwt beam="1">  1        2 0.37412305E+00 0.12446352E+04</pdfrwt>
<pdfrwt beam="2">  1       -2 0.16377036E+00 0.12446352E+04</pdfrwt>
<totfact> 0.87425539E-01</totfact>
</mgrwt>
</event>
<event>
 4    5  0.6615028E-008  0.1328310E+04  0.7818608E-02  0.9041490E-01
         -2   -1    0    0    0  501 -0.00000000000E+00  0.00000000000E+00  0.14167882521E+04  0.14167882521E+04  0.25500000000E-02 0.  1.
          2   -1    0    0  501    0  0.00000000000E+00 -0.00000000000E+00 -0.20888302254E+04  0.20888302254E+04  0.25500000000E-02 0. -1.
    8880023    1    1    2    0    0  0.55171803336E+03 -0.10130176519E+04  0.85953541579E+03  0.15821532444E+04  0.65864270000E+03 0.  0.
    8880022    1    1    2    0    0 -0.55171803336E+03  0.10130176519E+04 -0.15315773890E+04  0.19234652331E+04  0.15294330000E+03 0.  0.
<mgrwt>
<rscale>  0 0.12850692E+04</rscale>
<asrwt>0</asrwt>
<pdfrwt beam="1">  1        2 0.32135849E+00 0.13283101E+04</pdfrwt>
<pdfrwt beam="2">  1       -2 0.21796743E+00 0.13283101E+04</pdfrwt>
<totfact> 0.58053650E-01</totfact>
</mgrwt>
</event>
<event>
 4    5  0.6615028E-008  0.1325373E+04  0.7818608E-02  0.9043953E-01
         -2   -1    0    0    0  501 -0.00000000000E+00  0.00000000000E+00  0.10667065008E+04  0.10667065008E+04  0.25500000000E-02 0.  1.
          2   -1    0    0  501    0  0.00000000000E+00 -0.00000000000E+00 -0.33079311677E+04  0.33079311677E+04  0.25500000000E-02 0. -1.
    8880023    1    1    2    0    0  0.74005762017E+03 -0.88040773379E+03 -0.27917591430E+04  0.30903935635E+04  0.65864270000E+03 0.  0.
    8880022    1    1    2    0    0 -0.74005762017E+03  0.88040773379E+03  0.55053447606E+03  0.12842441050E+04  0.15294330000E+03 0.  0.
<mgrwt>
<rscale>  0 0.12820119E+04</rscale>
<asrwt>0</asrwt>
<pdfrwt beam="1">  1        2 0.50891248E+00 0.13253729E+04</pdfrwt>
<pdfrwt beam="2">  1       -2 0.16410869E+00 0.13253729E+04</pdfrwt>
<totfact> 0.25114660E-01</totfact>
</mgrwt>
</event>
<event>
 4    5  0.6615028E-008  0.7357605E+03  0.7818608E-02  0.9872473E-01
          2   -1    0    0  501    0  0.00000000000E+00  0.00000000000E+00  0.17080790554E+04  0.17080790554E+04  0.25500000000E-02 0. -1.
         -2   -1    0    0    0  501 -0.00000000000E+00 -0.00000000000E+00 -0.59485058123E+03  0.59485058124E+03  0.25500000000E-02 0.  1.
    8880023    1    1    2    0    0 -0.94671252342E+02 -0.31395964784E+03  0.15619080911E+04  0.17265284237E+04  0.65864270000E+03 0. -1.
    8880022    1    1    2    0    0  0.94671252342E+02  0.31395964784E+03 -0.44867961700E+03  0.57640121289E+03  0.15294330000E+03 0.  0.
<mgrwt>
<rscale>  0 0.61614107E+03</rscale>
<asrwt>0</asrwt>
<pdfrwt beam="1">  1        2 0.26278140E+00 0.73576050E+03</pdfrwt>
<pdfrwt beam="2">  1       -2 0.91515473E-01 0.73576050E+03</pdfrwt>
<totfact> 0.10173004E+01</totfact>
</mgrwt>
</event>
<event>
 4    5  0.6615028E-008  0.8175013E+03  0.7818608E-02  0.9674159E-01
         -2   -1    0    0    0  501 -0.00000000000E+00  0.00000000000E+00  0.42722765542E+03  0.42722765543E+03  0.25500000000E-02 0.  1.
          2   -1    0    0  501    0  0.00000000000E+00 -0.00000000000E+00 -0.12969077922E+04  0.12969077922E+04  0.25500000000E-02 0. -1.
    8880023    1    1    2    0    0 -0.41187215261E+03  0.25467540270E+03 -0.89943121661E+03  0.12154361154E+04  0.65864270000E+03 0.  0.
    8880022    1    1    2    0    0  0.41187215261E+03 -0.25467540270E+03  0.29751079873E+02  0.50869933223E+03  0.15294330000E+03 0.  0.
<mgrwt>
<rscale>  0 0.72576437E+03</rscale>
<asrwt>0</asrwt>
<pdfrwt beam="1">  1        2 0.19952427E+00 0.81750134E+03</pdfrwt>
<pdfrwt beam="2">  1       -2 0.65727332E-01 0.81750134E+03</pdfrwt>
<totfact> 0.35839126E+01</totfact>
</mgrwt>
</event>
<event>
 4    5  0.6615028E-008  0.9297101E+03  0.7818608E-02  0.9479928E-01
         -2   -1    0    0    0  501 -0.00000000000E+00  0.00000000000E+00  0.86128549737E+03  0.86128549737E+03  0.25500000000E-02 0.  1.
          2   -1    0    0  501    0  0.00000000000E+00 -0.00000000000E+00 -0.15789101095E+04  0.15789101095E+04  0.25500000000E-02 0. -1.
    8880023    1    1    2    0    0  0.65423501334E+03  0.50271035641E+02 -0.12665421295E+04  0.15711428331E+04  0.65864270000E+03 0.  0.
    8880022    1    1    2    0    0 -0.65423501334E+03 -0.50271035641E+02  0.54891751742E+03  0.86905277380E+03  0.15294330000E+03 0.  0.
<mgrwt>
<rscale>  0 0.85779939E+03</rscale>
<asrwt>0</asrwt>
<pdfrwt beam="1">  1        2 0.24290925E+00 0.92971008E+03</pdfrwt>
<pdfrwt beam="2">  1       -2 0.13250546E+00 0.92971008E+03</pdfrwt>
<totfact> 0.47517163E+00</totfact>
</mgrwt>
</event>
<event>
 4    5  0.6615028E-008  0.7069900E+03  0.7818608E-02  0.9969353E-01
          2   -1    0    0  501    0  0.00000000000E+00  0.00000000000E+00  0.17404275056E+04  0.17404275056E+04  0.25500000000E-02 0. -1.
         -2   -1    0    0    0  501 -0.00000000000E+00 -0.00000000000E+00 -0.69112757714E+03  0.69112757715E+03  0.25500000000E-02 0.  1.
    8880023    1    1    2    0    0 -0.17278397946E+03 -0.19018489308E+03  0.16309224469E+04  0.17775665476E+04  0.65864270000E+03 0. -1.
    8880022    1    1    2    0    0  0.17278397946E+03  0.19018489308E+03 -0.58162251844E+03  0.65398853514E+03  0.15294330000E+03 0.  0.
<mgrwt>
<rscale>  0 0.57014719E+03</rscale>
<asrwt>0</asrwt>
<pdfrwt beam="1">  1        2 0.26775808E+00 0.70698996E+03</pdfrwt>
<pdfrwt beam="2">  1       -2 0.10632732E+00 0.70698996E+03</pdfrwt>
<totfact> 0.68853889E+00</totfact>
</mgrwt>
</event>
<event>
 4    5  0.6615028E-008  0.7379914E+03  0.7818608E-02  0.9865837E-01
         -2   -1    0    0    0  501 -0.00000000000E+00  0.00000000000E+00  0.10711804263E+04  0.10711804263E+04  0.25500000000E-02 0.  1.
          2   -1    0    0  501    0  0.00000000000E+00 -0.00000000000E+00 -0.66663811457E+03  0.66663811457E+03  0.25500000000E-02 0. -1.
    8880023    1    1    2    0    0  0.23840986644E+03  0.23234003975E+03 -0.41032072022E+03  0.84438999177E+03  0.65864270000E+03 0. -1.
    8880022    1    1    2    0    0 -0.23840986644E+03 -0.23234003975E+03  0.81486303191E+03  0.89342854906E+03  0.15294330000E+03 0.  0.
<mgrwt>
<rscale>  0 0.61945925E+03</rscale>
<asrwt>0</asrwt>
<pdfrwt beam="1">  1        2 0.10255971E+00 0.73799144E+03</pdfrwt>
<pdfrwt beam="2">  1       -2 0.16479699E+00 0.73799144E+03</pdfrwt>
<totfact> 0.10299266E+01</totfact>
</mgrwt>
</event>
<event>
 4    5  0.6615028E-008  0.9357640E+03  0.7818608E-02  0.9470899E-01
          2   -1    0    0  501    0  0.00000000000E+00  0.00000000000E+00  0.12065376988E+04  0.12065376988E+04  0.25500000000E-02 0. -1.
         -2   -1    0    0    0  501 -0.00000000000E+00 -0.00000000000E+00 -0.74279245009E+03  0.74279245009E+03  0.25500000000E-02 0.  1.
    8880023    1    1    2    0    0 -0.42290576600E+03  0.51283011513E+03  0.76017376537E+03  0.12056194979E+04  0.65864270000E+03 0.  1.
    8880022    1    1    2    0    0  0.42290576600E+03 -0.51283011513E+03 -0.29642851666E+03  0.74371065099E+03  0.15294330000E+03 0.  0.
<mgrwt>
<rscale>  0 0.86463710E+03</rscale>
<asrwt>0</asrwt>
<pdfrwt beam="1">  1        2 0.18562118E+00 0.93576398E+03</pdfrwt>
<pdfrwt beam="2">  1       -2 0.11427576E+00 0.93576398E+03</pdfrwt>
<totfact> 0.11231131E+01</totfact>
</mgrwt>
</event>
<event>
 4    5  0.6615028E-008  0.6701544E+03  0.7818608E-02  0.1015552E+00
          2   -1    0    0  501    0  0.00000000000E+00  0.00000000000E+00  0.11259693207E+04  0.11259693207E+04  0.25500000000E-02 0. -1.
         -2   -1    0    0    0  501 -0.00000000000E+00 -0.00000000000E+00 -0.16709455424E+03  0.16709455426E+03  0.25500000000E-02 0.  1.
    8880023    1    1    2    0    0  0.98374019187E+01  0.12328817413E+03  0.71974358279E+03  0.98343163443E+03  0.65864270000E+03 0.  0.
    8880022    1    1    2    0    0 -0.98374019187E+01 -0.12328817413E+03  0.23913118366E+03  0.30963224053E+03  0.15294330000E+03 0.  1.
<mgrwt>
<rscale>  0 0.49326326E+03</rscale>
<asrwt>0</asrwt>
<pdfrwt beam="1">  1        2 0.17322605E+00 0.67015443E+03</pdfrwt>
<pdfrwt beam="2">  1       -2 0.25706855E-01 0.67015443E+03</pdfrwt>
<totfact> 0.29005680E+02</totfact>
</mgrwt>
</event>
<event>
 4    5  0.6615028E-008  0.7151941E+03  0.7818608E-02  0.9939196E-01
          2   -1    0    0  501    0  0.00000000000E+00  0.00000000000E+00  0.33831447866E+04  0.33831447866E+04  0.25500000000E-02 0. -1.
         -2   -1    0    0    0  501 -0.00000000000E+00 -0.00000000000E+00 -0.23353834102E+03  0.23353834103E+03  0.25500000000E-02 0.  1.
    8880023    1    1    2    0    0  0.25567272450E+03 -0.11101272037E+03  0.32137256186E+04  0.32923448975E+04  0.65864270000E+03 0. -1.
    8880022    1    1    2    0    0 -0.25567272450E+03  0.11101272037E+03 -0.64119173054E+02  0.32433823010E+03  0.15294330000E+03 0.  0.
<mgrwt>
<rscale>  0 0.58398709E+03</rscale>
<asrwt>0</asrwt>
<pdfrwt beam="1">  1        2 0.52048380E+00 0.71519408E+03</pdfrwt>
<pdfrwt beam="2">  1       -2 0.35928976E-01 0.71519408E+03</pdfrwt>
<totfact> 0.77349239E+00</totfact>
</mgrwt>
</event>
<event>
 4    5  0.6615028E-008  0.8878171E+03  0.7818608E-02  0.9545879E-01
          2   -1    0    0  501    0  0.00000000000E+00  0.00000000000E+00  0.13212011516E+04  0.13212011516E+04  0.25500000000E-02 0. -1.
         -2   -1    0    0    0  501 -0.00000000000E+00 -0.00000000000E+00 -0.12249881680E+04  0.12249881680E+04  0.25500000000E-02 0.  1.
    8880023    1    1    2    0    0 -0.30414983770E+03  0.51176345531E+03  0.10726456678E+04  0.13924036386E+04  0.65864270000E+03 0. -1.
    8880022    1    1    2    0    0  0.30414983770E+03 -0.51176345531E+03 -0.97643268414E+03  0.11537856810E+04  0.15294330000E+03 0.  0.
<mgrwt>
<rscale>  0 0.80984229E+03</rscale>
<asrwt>0</asrwt>
<pdfrwt beam="1">  1        2 0.20326171E+00 0.88781708E+03</pdfrwt>
<pdfrwt beam="2">  1       -2 0.18845972E+00 0.88781708E+03</pdfrwt>
<totfact> 0.25671352E+00</totfact>
</mgrwt>
</event>
<event>
 4    5  0.6615028E-008  0.8108291E+03  0.7818608E-02  0.9687852E-01
         -2   -1    0    0    0  501 -0.00000000000E+00  0.00000000000E+00  0.17058962405E+03  0.17058962406E+03  0.25500000000E-02 0.  1.
          2   -1    0    0  501    0  0.00000000000E+00 -0.00000000000E+00 -0.29025355708E+04  0.29025355708E+04  0.25500000000E-02 0. -1.
    8880023    1    1    2    0    0 -0.18031644691E+03  0.43717235718E+03 -0.22021930137E+04  0.23467206836E+04  0.65864270000E+03 0. -1.
    8880022    1    1    2    0    0  0.18031644691E+03 -0.43717235718E+03 -0.52975293303E+03  0.72640451126E+03  0.15294330000E+03 0.  0.
<mgrwt>
<rscale>  0 0.71744680E+03</rscale>
<asrwt>0</asrwt>
<pdfrwt beam="1">  1        2 0.44654390E+00 0.81082914E+03</pdfrwt>
<pdfrwt beam="2">  1       -2 0.26244560E-01 0.81082914E+03</pdfrwt>
<totfact> 0.27453899E+01</totfact>
</mgrwt>
</event>
<event>
 4    5  0.6615028E-008  0.7165972E+03  0.7818608E-02  0.9934273E-01
          2   -1    0    0  501    0  0.00000000000E+00  0.00000000000E+00  0.16636418685E+04  0.16636418685E+04  0.25500000000E-02 0. -1.
         -2   -1    0    0    0  501 -0.00000000000E+00 -0.00000000000E+00 -0.85632427042E+03  0.85632427042E+03  0.25500000000E-02 0.  1.
    8880023    1    1    2    0    0  0.28139543132E+03  0.22757027731E+02  0.15517613741E+04  0.17092322369E+04  0.65864270000E+03 0. -1.
    8880022    1    1    2    0    0 -0.28139543132E+03 -0.22757027731E+02 -0.74444377609E+03  0.81073390200E+03  0.15294330000E+03 0.  0.
<mgrwt>
<rscale>  0 0.58628653E+03</rscale>
<asrwt>0</asrwt>
<pdfrwt beam="1">  1        2 0.25594490E+00 0.71659715E+03</pdfrwt>
<pdfrwt beam="2">  1       -2 0.13174220E+00 0.71659715E+03</pdfrwt>
<totfact> 0.44629279E+00</totfact>
</mgrwt>
</event>
<event>
 4    5  0.6615028E-008  0.9188907E+03  0.7818608E-02  0.9496362E-01
         -2   -1    0    0    0  501 -0.00000000000E+00  0.00000000000E+00  0.42612884641E+03  0.42612884642E+03  0.25500000000E-02 0.  1.
          2   -1    0    0  501    0  0.00000000000E+00 -0.00000000000E+00 -0.27391704023E+04  0.27391704023E+04  0.25500000000E-02 0. -1.
    8880023    1    1    2    0    0  0.60821677904E+03 -0.20154985594E+03 -0.23317660519E+04  0.25062907097E+04  0.65864270000E+03 0.  0.
    8880022    1    1    2    0    0 -0.60821677904E+03  0.20154985594E+03  0.18724495957E+02  0.65900853902E+03  0.15294330000E+03 0.  0.
<mgrwt>
<rscale>  0 0.84552572E+03</rscale>
<asrwt>0</asrwt>
<pdfrwt beam="1">  1        2 0.42141082E+00 0.91889074E+03</pdfrwt>
<pdfrwt beam="2">  1       -2 0.65558286E-01 0.91889074E+03</pdfrwt>
<totfact> 0.55440755E+00</totfact>
</mgrwt>
</event>
<event>
 4    5  0.6615028E-008  0.7884266E+03  0.7818608E-02  0.9736402E-01
          2   -1    0    0  501    0  0.00000000000E+00  0.00000000000E+00  0.12084550376E+04  0.12084550376E+04  0.25500000000E-02 0. -1.
         -2   -1    0    0    0  501 -0.00000000000E+00 -0.00000000000E+00 -0.93004179907E+03  0.93004179908E+03  0.25500000000E-02 0.  1.
    8880023    1    1    2    0    0 -0.41869538451E+03 -0.11180567970E+03  0.10058669522E+04  0.12780394621E+04  0.65864270000E+03 0. -1.
    8880022    1    1    2    0    0  0.41869538451E+03  0.11180567970E+03 -0.72745371361E+03  0.86045737459E+03  0.15294330000E+03 0.  0.
<mgrwt>
<rscale>  0 0.68890158E+03</rscale>
<asrwt>0</asrwt>
<pdfrwt beam="1">  1        2 0.18591616E+00 0.78842662E+03</pdfrwt>
<pdfrwt beam="2">  1       -2 0.14308335E+00 0.78842662E+03</pdfrwt>
<totfact> 0.64528897E+00</totfact>
</mgrwt>
</event>
<event>
 4    5  0.6615028E-008  0.8662009E+03  0.7818608E-02  0.9582627E-01
         -2   -1    0    0    0  501 -0.00000000000E+00  0.00000000000E+00  0.40031731847E+03  0.40031731848E+03  0.25500000000E-02 0.  1.
          2   -1    0    0  501    0  0.00000000000E+00 -0.00000000000E+00 -0.19592901104E+04  0.19592901104E+04  0.25500000000E-02 0. -1.
    8880023    1    1    2    0    0 -0.32367869661E+03  0.46013687115E+03 -0.15510805262E+04  0.17765570196E+04  0.65864270000E+03 0.  0.
    8880022    1    1    2    0    0  0.32367869661E+03 -0.46013687115E+03 -0.78922656667E+01  0.58305040923E+03  0.15294330000E+03 0.  0.
<mgrwt>
<rscale>  0 0.78456795E+03</rscale>
<asrwt>0</asrwt>
<pdfrwt beam="1">  1        2 0.30142924E+00 0.86620093E+03</pdfrwt>
<pdfrwt beam="2">  1       -2 0.61587281E-01 0.86620093E+03</pdfrwt>
<totfact> 0.17557711E+01</totfact>
</mgrwt>
</event>
<event>
 4    5  0.6615028E-008  0.1825732E+04  0.7818608E-02  0.8708435E-01
          2   -1    0    0  501    0  0.00000000000E+00  0.00000000000E+00  0.47504625149E+04  0.47504625149E+04  0.25500000000E-02 0. -1.
         -2   -1    0    0    0  501 -0.00000000000E+00 -0.00000000000E+00 -0.69449543905E+03  0.69449543906E+03  0.25500000000E-02 0.  1.
    8880023    1    1    2    0    0 -0.67113488379E+03 -0.15649486575E+04  0.14653289583E+04  0.23410436765E+04  0.65864270000E+03 0.  0.
    8880022    1    1    2    0    0  0.67113488379E+03  0.15649486575E+04  0.25906381175E+04  0.31039142775E+04  0.15294330000E+03 0.  0.
<mgrwt>
<rscale>  0 0.17959906E+04</rscale>
<asrwt>0</asrwt>
<pdfrwt beam="1">  1        2 0.73084043E+00 0.18257318E+04</pdfrwt>
<pdfrwt beam="2">  1       -2 0.10684545E+00 0.18257318E+04</pdfrwt>
<totfact> 0.44883706E-02</totfact>
</mgrwt>
</event>
<event>
 4    5  0.6615028E-008  0.7090938E+03  0.7818608E-02  0.9961382E-01
         -2   -1    0    0    0  501 -0.00000000000E+00  0.00000000000E+00  0.51456977273E+03  0.51456977274E+03  0.25500000000E-02 0.  1.
          2   -1    0    0  501    0  0.00000000000E+00 -0.00000000000E+00 -0.20520885028E+04  0.20520885028E+04  0.25500000000E-02 0. -1.
    8880023    1    1    2    0    0 -0.26261440140E+03 -0.61175150591E+01 -0.19381346479E+04  0.20637780568E+04  0.65864270000E+03 0. -1.
    8880022    1    1    2    0    0  0.26261440140E+03  0.61175150591E+01  0.40061591784E+03  0.50288021880E+03  0.15294330000E+03 0.  0.
<mgrwt>
<rscale>  0 0.57376498E+03</rscale>
<asrwt>0</asrwt>
<pdfrwt beam="1">  1        2 0.31570592E+00 0.70909376E+03</pdfrwt>
<pdfrwt beam="2">  1       -2 0.79164582E-01 0.70909376E+03</pdfrwt>
<totfact> 0.92298184E+00</totfact>
</mgrwt>
</event>
<event>
 4    5  0.6615028E-008  0.1108707E+04  0.7818608E-02  0.9251423E-01
          2   -1    0    0  501    0  0.00000000000E+00  0.00000000000E+00  0.18123775696E+04  0.18123775696E+04  0.25500000000E-02 0. -1.
         -2   -1    0    0    0  501 -0.00000000000E+00 -0.00000000000E+00 -0.58811610310E+03  0.58811610311E+03  0.25500000000E-02 0.  1.
    8880023    1    1    2    0    0  0.70023736271E+03  0.55234924466E+03  0.93550227502E+03  0.14506539095E+04  0.65864270000E+03 0.  0.
    8880022    1    1    2    0    0 -0.70023736271E+03 -0.55234924466E+03  0.28875919152E+03  0.94983976328E+03  0.15294330000E+03 0.  0.
<mgrwt>
<rscale>  0 0.10538065E+04</rscale>
<asrwt>0</asrwt>
<pdfrwt beam="1">  1        2 0.27882731E+00 0.11087075E+04</pdfrwt>
<pdfrwt beam="2">  1       -2 0.90479403E-01 0.11087075E+04</pdfrwt>
<totfact> 0.87585663E+00</totfact>
</mgrwt>
</event>
<event>
 4    5  0.6615028E-008  0.6728628E+03  0.7818608E-02  0.1013689E+00
         -2   -1    0    0    0  501 -0.00000000000E+00  0.00000000000E+00  0.30648943127E+03  0.30648943128E+03  0.25500000000E-02 0.  1.
          2   -1    0    0  501    0  0.00000000000E+00 -0.00000000000E+00 -0.29136784117E+04  0.29136784117E+04  0.25500000000E-02 0. -1.
    8880023    1    1    2    0    0  0.10945380668E+03  0.83390502885E+02 -0.28346816010E+04  0.29134453997E+04  0.65864270000E+03 0. -1.
    8880022    1    1    2    0    0 -0.10945380668E+03 -0.83390502885E+02  0.22749262058E+03  0.30672244326E+03  0.15294330000E+03 0.  0.
<mgrwt>
<rscale>  0 0.50034606E+03</rscale>
<asrwt>0</asrwt>
<pdfrwt beam="1">  1        2 0.44825820E+00 0.67286278E+03</pdfrwt>
<pdfrwt beam="2">  1       -2 0.47152222E-01 0.67286278E+03</pdfrwt>
<totfact> 0.90455834E+00</totfact>
</mgrwt>
</event>
<event>
 4    5  0.6615028E-008  0.6877024E+03  0.7818608E-02  0.1005264E+00
         -2   -1    0    0    0  501 -0.00000000000E+00  0.00000000000E+00  0.32233267130E+03  0.32233267131E+03  0.25500000000E-02 0.  1.
          2   -1    0    0  501    0  0.00000000000E+00 -0.00000000000E+00 -0.12792132961E+04  0.12792132961E+04  0.25500000000E-02 0. -1.
    8880023    1    1    2    0    0  0.75189625488E+02  0.18295044734E+03 -0.11118796747E+04  0.13073679525E+04  0.65864270000E+03 0. -1.
    8880022    1    1    2    0    0 -0.75189625488E+02 -0.18295044734E+03  0.15499904991E+03  0.29417801490E+03  0.15294330000E+03 0.  0.
<mgrwt>
<rscale>  0 0.53400988E+03</rscale>
<asrwt>0</asrwt>
<pdfrwt beam="1">  1        2 0.19680204E+00 0.68770237E+03</pdfrwt>
<pdfrwt beam="2">  1       -2 0.49589642E-01 0.68770237E+03</pdfrwt>
<totfact> 0.66984477E+01</totfact>
</mgrwt>
</event>
<event>
 4    5  0.6615028E-008  0.8968217E+03  0.7818608E-02  0.9531153E-01
         -2   -1    0    0    0  501 -0.00000000000E+00  0.00000000000E+00  0.10178606251E+04  0.10178606251E+04  0.25500000000E-02 0.  1.
          2   -1    0    0  501    0  0.00000000000E+00 -0.00000000000E+00 -0.12952438540E+04  0.12952438540E+04  0.25500000000E-02 0. -1.
    8880023    1    1    2    0    0  0.43151315824E+03 -0.42927301287E+03 -0.10084932927E+04  0.13495732114E+04  0.65864270000E+03 0.  0.
    8880022    1    1    2    0    0 -0.43151315824E+03  0.42927301287E+03  0.73111006378E+03  0.96353126763E+03  0.15294330000E+03 0.  0.
<mgrwt>
<rscale>  0 0.82025478E+03</rscale>
<asrwt>0</asrwt>
<pdfrwt beam="1">  1        2 0.19926828E+00 0.89682168E+03</pdfrwt>
<pdfrwt beam="2">  1       -2 0.15659394E+00 0.89682168E+03</pdfrwt>
<totfact> 0.44581926E+00</totfact>
</mgrwt>
</event>
<event>
 4    5  0.6615028E-008  0.1105428E+04  0.7818608E-02  0.9255036E-01
         -2   -1    0    0    0  501 -0.00000000000E+00  0.00000000000E+00  0.11342140117E+04  0.11342140117E+04  0.25500000000E-02 0.  1.
          2   -1    0    0  501    0  0.00000000000E+00 -0.00000000000E+00 -0.26944957212E+04  0.26944957212E+04  0.25500000000E-02 0. -1.
    8880023    1    1    2    0    0 -0.55320070224E+03 -0.69435607811E+03 -0.23714647241E+04  0.26164511316E+04  0.65864270000E+03 0.  0.
    8880022    1    1    2    0    0  0.55320070224E+03  0.69435607811E+03  0.81118301463E+03  0.12122586013E+04  0.15294330000E+03 0.  1.
<mgrwt>
<rscale>  0 0.10502980E+04</rscale>
<asrwt>0</asrwt>
<pdfrwt beam="1">  1        2 0.41453780E+00 0.11054282E+04</pdfrwt>
<pdfrwt beam="2">  1       -2 0.17449446E+00 0.11054282E+04</pdfrwt>
<totfact> 0.52606274E-01</totfact>
</mgrwt>
</event>
<event>
 4    5  0.6615028E-008  0.7705005E+03  0.7818608E-02  0.9778644E-01
         -2   -1    0    0    0  501 -0.00000000000E+00  0.00000000000E+00  0.22405319749E+04  0.22405319749E+04  0.25500000000E-02 0.  1.
          2   -1    0    0  501    0  0.00000000000E+00 -0.00000000000E+00 -0.72489543666E+03  0.72489543666E+03  0.25500000000E-02 0. -1.
    8880023    1    1    2    0    0  0.24549157510E+03 -0.31558616004E+03 -0.49099321250E+03  0.91364395627E+03  0.65864270000E+03 0.  0.
    8880022    1    1    2    0    0 -0.24549157510E+03  0.31558616004E+03  0.20066297507E+04  0.20517834553E+04  0.15294330000E+03 0.  0.
<mgrwt>
<rscale>  0 0.66521323E+03</rscale>
<asrwt>0</asrwt>
<pdfrwt beam="1">  1        2 0.11152237E+00 0.77050045E+03</pdfrwt>
<pdfrwt beam="2">  1       -2 0.34469723E+00 0.77050045E+03</pdfrwt>
<totfact> 0.69166685E-01</totfact>
</mgrwt>
</event>
<event>
 4    5  0.6615028E-008  0.8011519E+03  0.7818608E-02  0.9708311E-01
         -2   -1    0    0    0  501 -0.00000000000E+00  0.00000000000E+00  0.11892012638E+04  0.11892012638E+04  0.25500000000E-02 0.  1.
          2   -1    0    0  501    0  0.00000000000E+00 -0.00000000000E+00 -0.11188345623E+04  0.11188345623E+04  0.25500000000E-02 0. -1.
    8880023    1    1    2    0    0 -0.42411241292E+03  0.16781778260E+03 -0.91217495572E+03  0.12140459230E+04  0.65864270000E+03 0. -1.
    8880022    1    1    2    0    0  0.42411241292E+03 -0.16781778260E+03  0.98254165721E+03  0.10939899031E+04  0.15294330000E+03 0.  0.
<mgrwt>
<rscale>  0 0.70524111E+03</rscale>
<asrwt>0</asrwt>
<pdfrwt beam="1">  1        2 0.17212839E+00 0.80115189E+03</pdfrwt>
<pdfrwt beam="2">  1       -2 0.18295404E+00 0.80115189E+03</pdfrwt>
<totfact> 0.37288486E+00</totfact>
</mgrwt>
</event>
<event>
 4    5  0.6615028E-008  0.7684465E+03  0.7818608E-02  0.9783712E-01
          2   -1    0    0  501    0  0.00000000000E+00  0.00000000000E+00  0.25400342633E+04  0.25400342633E+04  0.25500000000E-02 0. -1.
         -2   -1    0    0    0  501 -0.00000000000E+00 -0.00000000000E+00 -0.57687838047E+03  0.57687838048E+03  0.25500000000E-02 0.  1.
    8880023    1    1    2    0    0  0.19194317432E+03 -0.34620460775E+03  0.23927128065E+04  0.25130826873E+04  0.65864270000E+03 0.  0.
    8880022    1    1    2    0    0 -0.19194317432E+03  0.34620460775E+03 -0.42955692370E+03  0.60382995645E+03  0.15294330000E+03 0.  0.
<mgrwt>
<rscale>  0 0.66244049E+03</rscale>
<asrwt>0</asrwt>
<pdfrwt beam="1">  1        2 0.39077450E+00 0.76844650E+03</pdfrwt>
<pdfrwt beam="2">  1       -2 0.88750520E-01 0.76844650E+03</pdfrwt>
<totfact> 0.37733198E+00</totfact>
</mgrwt>
</event>
<event>
 4    5  0.6615028E-008  0.1585495E+04  0.7818608E-02  0.8851511E-01
          2   -1    0    0  501    0  0.00000000000E+00  0.00000000000E+00  0.34748736190E+04  0.34748736190E+04  0.25500000000E-02 0. -1.
         -2   -1    0    0    0  501 -0.00000000000E+00 -0.00000000000E+00 -0.71365805333E+03  0.71365805333E+03  0.25500000000E-02 0.  1.
    8880023    1    1    2    0    0  0.11285259218E+04  0.89800494291E+03  0.88055021223E+03  0.18136048401E+04  0.65864270000E+03 0.  0.
    8880022    1    1    2    0    0 -0.11285259218E+04 -0.89800494291E+03  0.18806653534E+04  0.23749268322E+04  0.15294330000E+03 0.  0.
<mgrwt>
<rscale>  0 0.15505587E+04</rscale>
<asrwt>0</asrwt>
<pdfrwt beam="1">  1        2 0.53459594E+00 0.15854948E+04</pdfrwt>
<pdfrwt beam="2">  1       -2 0.10979355E+00 0.15854948E+04</pdfrwt>
<totfact> 0.53097117E-01</totfact>
</mgrwt>
</event>
<event>
 4    5  0.6615028E-008  0.7446715E+03  0.7818608E-02  0.9846542E-01
         -2   -1    0    0    0  501 -0.00000000000E+00  0.00000000000E+00  0.87298689202E+03  0.87298689202E+03  0.25500000000E-02 0.  1.
          2   -1    0    0  501    0  0.00000000000E+00 -0.00000000000E+00 -0.10451613678E+04  0.10451613678E+04  0.25500000000E-02 0. -1.
    8880023    1    1    2    0    0  0.21926397428E+03  0.26953429128E+03 -0.85688012927E+03  0.11352441089E+04  0.65864270000E+03 0.  0.
    8880022    1    1    2    0    0 -0.21926397428E+03 -0.26953429128E+03  0.68470565349E+03  0.78290415092E+03  0.15294330000E+03 0.  0.
<mgrwt>
<rscale>  0 0.62923515E+03</rscale>
<asrwt>0</asrwt>
<pdfrwt beam="1">  1        2 0.16079406E+00 0.74467149E+03</pdfrwt>
<pdfrwt beam="2">  1       -2 0.13430568E+00 0.74467149E+03</pdfrwt>
<totfact> 0.96002015E+00</totfact>
</mgrwt>
</event>
<event>
 4    5  0.6615028E-008  0.8060554E+03  0.7818608E-02  0.9697853E-01
         -2   -1    0    0    0  501 -0.00000000000E+00  0.00000000000E+00  0.56910219316E+03  0.56910219317E+03  0.25500000000E-02 0.  1.
          2   -1    0    0  501    0  0.00000000000E+00 -0.00000000000E+00 -0.31286654473E+04  0.31286654473E+04  0.25500000000E-02 0. -1.
    8880023    1    1    2    0    0 -0.17934590720E+03  0.42866087230E+03 -0.29586201378E+04  0.30664569822E+04  0.65864270000E+03 0.  0.
    8880022    1    1    2    0    0  0.17934590720E+03 -0.42866087230E+03  0.39905688362E+03  0.63131065827E+03  0.15294330000E+03 0.  0.
<mgrwt>
<rscale>  0 0.71144779E+03</rscale>
<asrwt>0</asrwt>
<pdfrwt beam="1">  1        2 0.48133314E+00 0.80605540E+03</pdfrwt>
<pdfrwt beam="2">  1       -2 0.87554185E-01 0.80605540E+03</pdfrwt>
<totfact> 0.17218052E+00</totfact>
</mgrwt>
</event>
<event>
 4    5  0.6615028E-008  0.1290357E+04  0.7818608E-02  0.9073932E-01
         -2   -1    0    0    0  501 -0.00000000000E+00  0.00000000000E+00  0.42205087189E+03  0.42205087190E+03  0.25500000000E-02 0.  1.
          2   -1    0    0  501    0  0.00000000000E+00 -0.00000000000E+00 -0.42186924065E+04  0.42186924065E+04  0.25500000000E-02 0. -1.
    8880023    1    1    2    0    0 -0.11929931046E+03  0.11031678467E+04 -0.30015087637E+04  0.32671205500E+04  0.65864270000E+03 0.  0.
    8880022    1    1    2    0    0  0.11929931046E+03 -0.11031678467E+04 -0.79513277095E+03  0.13736227284E+04  0.15294330000E+03 0.  0.
<mgrwt>
<rscale>  0 0.12455059E+04</rscale>
<asrwt>0</asrwt>
<pdfrwt beam="1">  1        2 0.64902957E+00 0.12903572E+04</pdfrwt>
<pdfrwt beam="2">  1       -2 0.64930906E-01 0.12903572E+04</pdfrwt>
<totfact> 0.49559718E-01</totfact>
</mgrwt>
</event>
<event>
 4    5  0.6615028E-008  0.6980468E+03  0.7818608E-02  0.1000540E+00
          2   -1    0    0  501    0  0.00000000000E+00  0.00000000000E+00  0.17272989790E+04  0.17272989790E+04  0.25500000000E-02 0. -1.
         -2   -1    0    0    0  501 -0.00000000000E+00 -0.00000000000E+00 -0.26044687560E+03  0.26044687561E+03  0.25500000000E-02 0.  1.
    8880023    1    1    2    0    0  0.15988534077E+03  0.16702016892E+03  0.15486574568E+04  0.16987080926E+04  0.65864270000E+03 0. -1.
    8880022    1    1    2    0    0 -0.15988534077E+03 -0.16702016892E+03 -0.81805353400E+02  0.28903776203E+03  0.15294330000E+03 0.  0.
<mgrwt>
<rscale>  0 0.55413983E+03</rscale>
<asrwt>0</asrwt>
<pdfrwt beam="1">  1        2 0.26573830E+00 0.69804675E+03</pdfrwt>
<pdfrwt beam="2">  1       -2 0.40068751E-01 0.69804675E+03</pdfrwt>
<totfact> 0.57523525E+01</totfact>
</mgrwt>
</event>
<event>
 4    5  0.6615028E-008  0.1509902E+04  0.7818608E-02  0.8902675E-01
          2   -1    0    0  501    0  0.00000000000E+00  0.00000000000E+00  0.16613081049E+04  0.16613081049E+04  0.25500000000E-02 0. -1.
         -2   -1    0    0    0  501 -0.00000000000E+00 -0.00000000000E+00 -0.24929473367E+04  0.24929473367E+04  0.25500000000E-02 0.  1.
    8880023    1    1    2    0    0 -0.13363742166E+04 -0.24514791156E+03  0.10421773067E+04  0.18346490918E+04  0.65864270000E+03 0.  0.
    8880022    1    1    2    0    0  0.13363742166E+04  0.24514791156E+03 -0.18738165384E+04  0.23196063498E+04  0.15294330000E+03 0.  0.
<mgrwt>
<rscale>  0 0.14729022E+04</rscale>
<asrwt>0</asrwt>
<pdfrwt beam="1">  1        2 0.25558586E+00 0.15099019E+04</pdfrwt>
<pdfrwt beam="2">  1       -2 0.38353036E+00 0.15099019E+04</pdfrwt>
<totfact> 0.92051134E-02</totfact>
</mgrwt>
</event>
<event>
 4    5  0.6615028E-008  0.8640079E+03  0.7818608E-02  0.9586474E-01
         -2   -1    0    0    0  501 -0.00000000000E+00  0.00000000000E+00  0.57256452292E+03  0.57256452292E+03  0.25500000000E-02 0.  1.
          2   -1    0    0  501    0  0.00000000000E+00 -0.00000000000E+00 -0.10834828895E+04  0.10834828895E+04  0.25500000000E-02 0. -1.
    8880023    1    1    2    0    0 -0.55111775780E+03  0.94702960524E+02 -0.62349591198E+03  0.10654842994E+04  0.65864270000E+03 0.  0.
    8880022    1    1    2    0    0  0.55111775780E+03 -0.94702960524E+02  0.11257754544E+03  0.59056311301E+03  0.15294330000E+03 0.  0.
<mgrwt>
<rscale>  0 0.78197957E+03</rscale>
<asrwt>0</asrwt>
<pdfrwt beam="1">  1        2 0.16668967E+00 0.86400789E+03</pdfrwt>
<pdfrwt beam="2">  1       -2 0.88086850E-01 0.86400789E+03</pdfrwt>
<totfact> 0.24923873E+01</totfact>
</mgrwt>
</event>
<event>
 4    5  0.6615028E-008  0.9728440E+03  0.7818608E-02  0.9417981E-01
          2   -1    0    0  501    0  0.00000000000E+00  0.00000000000E+00  0.13790368652E+04  0.13790368652E+04  0.25500000000E-02 0. -1.
         -2   -1    0    0    0  501 -0.00000000000E+00 -0.00000000000E+00 -0.12603177919E+04  0.12603177919E+04  0.25500000000E-02 0.  1.
    8880023    1    1    2    0    0  0.71314015814E+03  0.63611080914E+02  0.10653103167E+04  0.14426751304E+04  0.65864270000E+03 0.  0.
    8880022    1    1    2    0    0 -0.71314015814E+03 -0.63611080914E+02 -0.94659124337E+03  0.11966795268E+04  0.15294330000E+03 0.  0.
<mgrwt>
<rscale>  0 0.90610537E+03</rscale>
<asrwt>0</asrwt>
<pdfrwt beam="1">  1        2 0.21215952E+00 0.97284401E+03</pdfrwt>
<pdfrwt beam="2">  1       -2 0.19389504E+00 0.97284401E+03</pdfrwt>
<totfact> 0.21629828E+00</totfact>
</mgrwt>
</event>
<event>
 4    5  0.6775694E-008  0.1805860E+04  0.7818608E-02  0.8719302E-01
          2   -1    0    0  501    0  0.00000000000E+00  0.00000000000E+00  0.27901706831E+04  0.27901706831E+04  0.25500000000E-02 0. -1.
         -2   -1    0    0    0  501 -0.00000000000E+00 -0.00000000000E+00 -0.20128575599E+04  0.20128575599E+04  0.25500000000E-02 0.  1.
    8880023    1    1    2    0    0 -0.31743150637E+03 -0.16512291878E+04  0.20178178945E+04  0.27078995280E+04  0.65864270000E+03 0. -1.
    8880022    1    1    2    0    0  0.31743150637E+03  0.16512291878E+04 -0.12405047713E+04  0.20951287151E+04  0.15294330000E+03 0.  0.
<mgrwt>
<rscale>  0 0.17757518E+04</rscale>
<asrwt>0</asrwt>
<pdfrwt beam="1">  1        2 0.42925703E+00 0.18058601E+04</pdfrwt>
<pdfrwt beam="2">  1       -2 0.30967039E+00 0.18058601E+04</pdfrwt>
<totfact> 0.58733919E-02</totfact>
</mgrwt>
</event>
<event>
 4    5  0.6615028E-008  0.9259926E+03  0.7818608E-02  0.9485531E-01
          2   -1    0    0  501    0  0.00000000000E+00  0.00000000000E+00  0.99536125742E+03  0.99536125743E+03  0.25500000000E-02 0. -1.
         -2   -1    0    0    0  501 -0.00000000000E+00 -0.00000000000E+00 -0.10102846924E+04  0.10102846924E+04  0.25500000000E-02 0.  1.
    8880023    1    1    2    0    0  0.11005331148E+03  0.64151416002E+03  0.59496381598E+03  0.11006563031E+04  0.65864270000E+03 0.  0.
    8880022    1    1    2    0    0 -0.11005331148E+03 -0.64151416002E+03 -0.60988725094E+03  0.90498964676E+03  0.15294330000E+03 0.  0.
<mgrwt>
<rscale>  0 0.85359018E+03</rscale>
<asrwt>0</asrwt>
<pdfrwt beam="1">  1        2 0.15313250E+00 0.92599263E+03</pdfrwt>
<pdfrwt beam="2">  1       -2 0.15542841E+00 0.92599263E+03</pdfrwt>
<totfact> 0.69005529E+00</totfact>
</mgrwt>
</event>
<event>
 4    5  0.6615028E-008  0.8456234E+03  0.7818608E-02  0.9619667E-01
         -2   -1    0    0    0  501 -0.00000000000E+00  0.00000000000E+00  0.19720584981E+03  0.19720584983E+03  0.25500000000E-02 0.  1.
          2   -1    0    0  501    0  0.00000000000E+00 -0.00000000000E+00 -0.28816652445E+04  0.28816652445E+04  0.25500000000E-02 0. -1.
    8880023    1    1    2    0    0  0.37084033388E+03 -0.37913880302E+03 -0.21510045365E+04  0.23112549637E+04  0.65864270000E+03 0. -1.
    8880022    1    1    2    0    0 -0.37084033388E+03  0.37913880302E+03 -0.53345485823E+03  0.76761613060E+03  0.15294330000E+03 0.  0.
<mgrwt>
<rscale>  0 0.76008080E+03</rscale>
<asrwt>0</asrwt>
<pdfrwt beam="1">  1        2 0.44333308E+00 0.84562343E+03</pdfrwt>
<pdfrwt beam="2">  1       -2 0.30339364E-01 0.84562343E+03</pdfrwt>
<totfact> 0.21530658E+01</totfact>
</mgrwt>
</event>
<event>
 4    5  0.6615028E-008  0.6855344E+03  0.7818608E-02  0.1006352E+00
         -2   -1    0    0    0  501 -0.00000000000E+00  0.00000000000E+00  0.12697414937E+04  0.12697414937E+04  0.25500000000E-02 0.  1.
          2   -1    0    0  501    0  0.00000000000E+00 -0.00000000000E+00 -0.23700824428E+03  0.23700824430E+03  0.25500000000E-02 0. -1.
    8880023    1    1    2    0    0  0.53831773086E+02 -0.18234394490E+03  0.32604038171E+03  0.75911771868E+03  0.65864270000E+03 0.  0.
    8880022    1    1    2    0    0 -0.53831773086E+02  0.18234394490E+03  0.70669286770E+03  0.74763201931E+03  0.15294330000E+03 0.  0.
<mgrwt>
<rscale>  0 0.52950731E+03</rscale>
<asrwt>0</asrwt>
<pdfrwt beam="1">  1        2 0.36462807E-01 0.68553438E+03</pdfrwt>
<pdfrwt beam="2">  1       -2 0.19534485E+00 0.68553438E+03</pdfrwt>
<totfact> 0.20833794E+01</totfact>
</mgrwt>
</event>
<event>
 4    5  0.6615028E-008  0.6691084E+03  0.7818608E-02  0.1016310E+00
          2   -1    0    0  501    0  0.00000000000E+00  0.00000000000E+00  0.13814489781E+04  0.13814489781E+04  0.25500000000E-02 0. -1.
         -2   -1    0    0    0  501 -0.00000000000E+00 -0.00000000000E+00 -0.19574423582E+03  0.19574423584E+03  0.25500000000E-02 0.  1.
    8880023    1    1    2    0    0  0.28246241721E+02 -0.11444670806E+03  0.12098901804E+04  0.13825846643E+04  0.65864270000E+03 0. -1.
    8880022    1    1    2    0    0 -0.28246241721E+02  0.11444670806E+03 -0.24185438105E+02  0.19460854963E+03  0.15294330000E+03 0.  0.
<mgrwt>
<rscale>  0 0.49041965E+03</rscale>
<asrwt>0</asrwt>
<pdfrwt beam="1">  1        2 0.21253061E+00 0.66910844E+03</pdfrwt>
<pdfrwt beam="2">  1       -2 0.30114497E-01 0.66910844E+03</pdfrwt>
<totfact> 0.15416475E+02</totfact>
</mgrwt>
</event>
<event>
 4    5  0.6615028E-008  0.8829961E+03  0.7818608E-02  0.9553899E-01
          2   -1    0    0  501    0  0.00000000000E+00  0.00000000000E+00  0.19706158617E+04  0.19706158617E+04  0.25500000000E-02 0. -1.
         -2   -1    0    0    0  501 -0.00000000000E+00 -0.00000000000E+00 -0.72006879221E+03  0.72006879222E+03  0.25500000000E-02 0.  1.
    8880023    1    1    2    0    0 -0.58806669465E+03  0.70338117478E+01 -0.37194056891E+03  0.95813459646E+03  0.65864270000E+03 0.  0.
    8880022    1    1    2    0    0  0.58806669465E+03 -0.70338117478E+01  0.16224876384E+04  0.17325500574E+04  0.15294330000E+03 0.  0.
<mgrwt>
<rscale>  0 0.80424089E+03</rscale>
<asrwt>0</asrwt>
<pdfrwt beam="1">  1        2 0.30317167E+00 0.88299610E+03</pdfrwt>
<pdfrwt beam="2">  1       -2 0.11077982E+00 0.88299610E+03</pdfrwt>
<totfact> 0.45465070E+00</totfact>
</mgrwt>
</event>
<event>
 4    5  0.6615028E-008  0.8033432E+03  0.7818608E-02  0.9703614E-01
          2   -1    0    0  501    0  0.00000000000E+00  0.00000000000E+00  0.16886500096E+04  0.16886500096E+04  0.25500000000E-02 0. -1.
         -2   -1    0    0    0  501 -0.00000000000E+00 -0.00000000000E+00 -0.15369284873E+04  0.15369284873E+04  0.25500000000E-02 0.  1.
    8880023    1    1    2    0    0  0.41340883579E+03  0.20160155859E+03  0.15499232808E+04  0.17457440925E+04  0.65864270000E+03 0.  0.
    8880022    1    1    2    0    0 -0.41340883579E+03 -0.20160155859E+03 -0.13982017585E+04  0.14798344044E+04  0.15294330000E+03 0.  0.
<mgrwt>
<rscale>  0 0.70802052E+03</rscale>
<asrwt>0</asrwt>
<pdfrwt beam="1">  1        2 0.25979231E+00 0.80334318E+03</pdfrwt>
<pdfrwt beam="2">  1       -2 0.23645054E+00 0.80334318E+03</pdfrwt>
<totfact> 0.80048299E-01</totfact>
</mgrwt>
</event>
<event>
 4    5  0.6615028E-008  0.9189932E+03  0.7818608E-02  0.9496204E-01
          2   -1    0    0  501    0  0.00000000000E+00  0.00000000000E+00  0.70560985979E+03  0.70560985979E+03  0.25500000000E-02 0. -1.
         -2   -1    0    0    0  501 -0.00000000000E+00 -0.00000000000E+00 -0.39567879714E+04  0.39567879714E+04  0.25500000000E-02 0.  1.
    8880023    1    1    2    0    0 -0.46329534772E+03 -0.44282696451E+03  0.36341700978E+03  0.98824107837E+03  0.65864270000E+03 0. -1.
    8880022    1    1    2    0    0  0.46329534772E+03  0.44282696451E+03 -0.36145951213E+04  0.36741567528E+04  0.15294330000E+03 0.  0.
<mgrwt>
<rscale>  0 0.84564229E+03</rscale>
<asrwt>0</asrwt>
<pdfrwt beam="1">  1        2 0.10855537E+00 0.91899320E+03</pdfrwt>
<pdfrwt beam="2">  1       -2 0.60873660E+00 0.91899320E+03</pdfrwt>
<totfact> 0.18918185E-02</totfact>
</mgrwt>
</event>
<event>
 4    5  0.6615028E-008  0.1009125E+04  0.7818608E-02  0.9369715E-01
          2   -1    0    0  501    0  0.00000000000E+00  0.00000000000E+00  0.75847719150E+03  0.75847719151E+03  0.25500000000E-02 0. -1.
         -2   -1    0    0    0  501 -0.00000000000E+00 -0.00000000000E+00 -0.11298046617E+04  0.11298046617E+04  0.25500000000E-02 0.  1.
    8880023    1    1    2    0    0  0.34854371597E+03  0.68047124319E+03  0.33659164780E+02  0.10096865753E+04  0.65864270000E+03 0.  0.
    8880022    1    1    2    0    0 -0.34854371597E+03 -0.68047124319E+03 -0.40498663494E+03  0.87859527784E+03  0.15294330000E+03 0.  0.
<mgrwt>
<rscale>  0 0.94610481E+03</rscale>
<asrwt>0</asrwt>
<pdfrwt beam="1">  1        2 0.11668880E+00 0.10091254E+04</pdfrwt>
<pdfrwt beam="2">  1       -2 0.17381610E+00 0.10091254E+04</pdfrwt>
<totfact> 0.73373822E+00</totfact>
</mgrwt>
</event>
<event>
 4    5  0.6615028E-008  0.6834892E+03  0.7818608E-02  0.1007415E+00
         -2   -1    0    0    0  501 -0.00000000000E+00  0.00000000000E+00  0.39470845030E+03  0.39470845030E+03  0.25500000000E-02 0.  1.
          2   -1    0    0  501    0  0.00000000000E+00 -0.00000000000E+00 -0.13522126432E+04  0.13522126432E+04  0.25500000000E-02 0. -1.
    8880023    1    1    2    0    0  0.14020694621E+02  0.18207349990E+03 -0.12163030953E+04  0.13951884335E+04  0.65864270000E+03 0.  0.
    8880022    1    1    2    0    0 -0.14020694621E+02 -0.18207349990E+03  0.25879890234E+03  0.35173266000E+03  0.15294330000E+03 0.  0.
<mgrwt>
<rscale>  0 0.52515072E+03</rscale>
<asrwt>0</asrwt>
<pdfrwt beam="1">  1        2 0.20803271E+00 0.68348924E+03</pdfrwt>
<pdfrwt beam="2">  1       -2 0.60724378E-01 0.68348924E+03</pdfrwt>
<totfact> 0.40004496E+01</totfact>
</mgrwt>
</event>
<event>
 4    5  0.6615028E-008  0.1035664E+04  0.7818608E-02  0.9336318E-01
         -2   -1    0    0    0  501 -0.00000000000E+00  0.00000000000E+00  0.57825947887E+03  0.57825947888E+03  0.25500000000E-02 0.  1.
          2   -1    0    0  501    0  0.00000000000E+00 -0.00000000000E+00 -0.15220744938E+04  0.15220744938E+04  0.25500000000E-02 0. -1.
    8880023    1    1    2    0    0  0.56719931333E+03 -0.56309293731E+03 -0.70293651595E+03  0.12516863300E+04  0.65864270000E+03 0. -1.
    8880022    1    1    2    0    0 -0.56719931333E+03  0.56309293731E+03 -0.24087849898E+03  0.84864764265E+03  0.15294330000E+03 0.  0.
<mgrwt>
<rscale>  0 0.97507057E+03</rscale>
<asrwt>0</asrwt>
<pdfrwt beam="1">  1        2 0.23416531E+00 0.10356635E+04</pdfrwt>
<pdfrwt beam="2">  1       -2 0.88962997E-01 0.10356635E+04</pdfrwt>
<totfact> 0.13296763E+01</totfact>
</mgrwt>
</event>
<event>
 4    5  0.6615028E-008  0.7185511E+03  0.7818608E-02  0.9927519E-01
          2   -1    0    0  501    0  0.00000000000E+00  0.00000000000E+00  0.37517185431E+04  0.37517185431E+04  0.25500000000E-02 0. -1.
         -2   -1    0    0    0  501 -0.00000000000E+00 -0.00000000000E+00 -0.11564765727E+03  0.11564765730E+03  0.25500000000E-02 0.  1.
    8880023    1    1    2    0    0 -0.21709378065E+03 -0.18808434905E+03  0.33736439019E+04  0.34493171520E+04  0.65864270000E+03 0.  0.
    8880022    1    1    2    0    0  0.21709378065E+03  0.18808434905E+03  0.26242698390E+03  0.41804904837E+03  0.15294330000E+03 0.  0.
<mgrwt>
<rscale>  0 0.58945917E+03</rscale>
<asrwt>0</asrwt>
<pdfrwt beam="1">  1        2 0.57718746E+00 0.71855107E+03</pdfrwt>
<pdfrwt beam="2">  1       -2 0.17791948E-01 0.71855107E+03</pdfrwt>
<totfact> 0.15303001E+01</totfact>
</mgrwt>
</event>
<event>
 4    5  0.6615028E-008  0.7755698E+03  0.7818608E-02  0.9766348E-01
          2   -1    0    0  501    0  0.00000000000E+00  0.00000000000E+00  0.15474061510E+04  0.15474061510E+04  0.25500000000E-02 0. -1.
         -2   -1    0    0    0  501 -0.00000000000E+00 -0.00000000000E+00 -0.63185464296E+03  0.63185464296E+03  0.25500000000E-02 0.  1.
    8880023    1    1    2    0    0 -0.40949935028E+03 -0.29441446699E+01  0.13538313106E+04  0.15602460734E+04  0.65864270000E+03 0.  0.
    8880022    1    1    2    0    0  0.40949935028E+03  0.29441446699E+01 -0.43827980256E+03  0.61901472052E+03  0.15294330000E+03 0.  0.
<mgrwt>
<rscale>  0 0.67200181E+03</rscale>
<asrwt>0</asrwt>
<pdfrwt beam="1">  1        2 0.23806248E+00 0.77556985E+03</pdfrwt>
<pdfrwt beam="2">  1       -2 0.97208407E-01 0.77556985E+03</pdfrwt>
<totfact> 0.10772723E+01</totfact>
</mgrwt>
</event>
<event>
 4    5  0.6615028E-008  0.1484444E+04  0.7818608E-02  0.8920699E-01
         -2   -1    0    0    0  501 -0.00000000000E+00  0.00000000000E+00  0.11320136061E+04  0.11320136061E+04  0.25500000000E-02 0.  1.
          2   -1    0    0  501    0  0.00000000000E+00 -0.00000000000E+00 -0.22487849935E+04  0.22487849935E+04  0.25500000000E-02 0. -1.
    8880023    1    1    2    0    0  0.38080257672E+02 -0.13297799774E+04 -0.13676345627E+04  0.20184150707E+04  0.65864270000E+03 0.  0.
    8880022    1    1    2    0    0 -0.38080257672E+02  0.13297799774E+04  0.25086317530E+03  0.13623835289E+04  0.15294330000E+03 0.  0.
<mgrwt>
<rscale>  0 0.14466891E+04</rscale>
<asrwt>0</asrwt>
<pdfrwt beam="1">  1        2 0.34596692E+00 0.14844444E+04</pdfrwt>
<pdfrwt beam="2">  1       -2 0.17415594E+00 0.14844444E+04</pdfrwt>
<totfact> 0.91027220E-01</totfact>
</mgrwt>
</event>
<event>
 4    5  0.6615028E-008  0.9909356E+03  0.7818608E-02  0.9393514E-01
         -2   -1    0    0    0  501 -0.00000000000E+00  0.00000000000E+00  0.82690611326E+03  0.82690611327E+03  0.25500000000E-02 0.  1.
          2   -1    0    0  501    0  0.00000000000E+00 -0.00000000000E+00 -0.12895294881E+04  0.12895294881E+04  0.25500000000E-02 0. -1.
    8880023    1    1    2    0    0  0.97222732515E+02  0.73395565422E+03 -0.81434922009E+03  0.12826215422E+04  0.65864270000E+03 0. -1.
    8880022    1    1    2    0    0 -0.97222732515E+02 -0.73395565422E+03  0.35172584521E+03  0.83381405918E+03  0.15294330000E+03 0.  0.
<mgrwt>
<rscale>  0 0.92611392E+03</rscale>
<asrwt>0</asrwt>
<pdfrwt beam="1">  1        2 0.19838915E+00 0.99093560E+03</pdfrwt>
<pdfrwt beam="2">  1       -2 0.12721632E+00 0.99093560E+03</pdfrwt>
<totfact> 0.76405725E+00</totfact>
</mgrwt>
</event>
<event>
 4    5  0.6615028E-008  0.9045260E+03  0.7818608E-02  0.9518805E-01
          2   -1    0    0  501    0  0.00000000000E+00  0.00000000000E+00  0.22367993847E+04  0.22367993847E+04  0.25500000000E-02 0. -1.
         -2   -1    0    0    0  501 -0.00000000000E+00 -0.00000000000E+00 -0.58635090058E+03  0.58635090059E+03  0.25500000000E-02 0.  1.
    8880023    1    1    2    0    0  0.52904091799E+03 -0.32322238710E+03  0.19258887494E+04  0.21277252374E+04  0.65864270000E+03 0. -1.
    8880022    1    1    2    0    0 -0.52904091799E+03  0.32322238710E+03 -0.27544026533E+03  0.69542504787E+03  0.15294330000E+03 0.  0.
<mgrwt>
<rscale>  0 0.82911514E+03</rscale>
<asrwt>0</asrwt>
<pdfrwt beam="1">  1        2 0.34412298E+00 0.90452596E+03</pdfrwt>
<pdfrwt beam="2">  1       -2 0.90207832E-01 0.90452596E+03</pdfrwt>
<totfact> 0.52660040E+00</totfact>
</mgrwt>
</event>
<event>
 4    5  0.6615028E-008  0.7000146E+03  0.7818608E-02  0.9997140E-01
         -2   -1    0    0    0  501 -0.00000000000E+00  0.00000000000E+00  0.56529790105E+03  0.56529790105E+03  0.25500000000E-02 0.  1.
          2   -1    0    0  501    0  0.00000000000E+00 -0.00000000000E+00 -0.27070867946E+04  0.27070867946E+04  0.25500000000E-02 0. -1.
    8880023    1    1    2    0    0  0.15288628965E+03  0.18120720048E+03 -0.26228688645E+04  0.27146752206E+04  0.65864270000E+03 0. -1.
    8880022    1    1    2    0    0 -0.15288628965E+03 -0.18120720048E+03  0.48107997093E+03  0.55770947501E+03  0.15294330000E+03 0.  0.
<mgrwt>
<rscale>  0 0.55775796E+03</rscale>
<asrwt>0</asrwt>
<pdfrwt beam="1">  1        2 0.41647488E+00 0.70001462E+03</pdfrwt>
<pdfrwt beam="2">  1       -2 0.86968910E-01 0.70001462E+03</pdfrwt>
<totfact> 0.32102257E+00</totfact>
</mgrwt>
</event>
<event>
 4    5  0.6615028E-008  0.6712740E+03  0.7818608E-02  0.1014766E+00
         -2   -1    0    0    0  501 -0.00000000000E+00  0.00000000000E+00  0.14657616611E+04  0.14657616611E+04  0.25500000000E-02 0.  1.
          2   -1    0    0  501    0  0.00000000000E+00 -0.00000000000E+00 -0.10446542414E+04  0.10446542414E+04  0.25500000000E-02 0. -1.
    8880023    1    1    2    0    0 -0.63231904157E+02 -0.11313821233E+03 -0.92864435502E+03  0.11458573529E+04  0.65864270000E+03 0. -1.
    8880022    1    1    2    0    0  0.63231904157E+02  0.11313821233E+03  0.13497517747E+04  0.13645585496E+04  0.15294330000E+03 0.  0.
<mgrwt>
<rscale>  0 0.49623781E+03</rscale>
<asrwt>0</asrwt>
<pdfrwt beam="1">  1        2 0.16071604E+00 0.67127396E+03</pdfrwt>
<pdfrwt beam="2">  1       -2 0.22550179E+00 0.67127396E+03</pdfrwt>
<totfact> 0.22458521E+00</totfact>
</mgrwt>
</event>
<event>
 4    5  0.6615028E-008  0.7934836E+03  0.7818608E-02  0.9725067E-01
         -2   -1    0    0    0  501 -0.00000000000E+00  0.00000000000E+00  0.68497103924E+03  0.68497103924E+03  0.25500000000E-02 0.  1.
          2   -1    0    0  501    0  0.00000000000E+00 -0.00000000000E+00 -0.20568272750E+04  0.20568272750E+04  0.25500000000E-02 0. -1.
    8880023    1    1    2    0    0 -0.15703947135E+03 -0.41369636695E+03 -0.18861839173E+04  0.20462908043E+04  0.65864270000E+03 0. -1.
    8880022    1    1    2    0    0  0.15703947135E+03  0.41369636695E+03  0.51432768146E+03  0.69550751003E+03  0.15294330000E+03 0.  0.
<mgrwt>
<rscale>  0 0.69543731E+03</rscale>
<asrwt>0</asrwt>
<pdfrwt beam="1">  1        2 0.31643496E+00 0.79348364E+03</pdfrwt>
<pdfrwt beam="2">  1       -2 0.10538016E+00 0.79348364E+03</pdfrwt>
<totfact> 0.46633526E+00</totfact>
</mgrwt>
</event>
<event>
 4    5  0.6615028E-008  0.1867359E+04  0.7818608E-02  0.8686163E-01
          2   -1    0    0  501    0  0.00000000000E+00  0.00000000000E+00  0.13498093472E+04  0.13498093472E+04  0.25500000000E-02 0. -1.
         -2   -1    0    0    0  501 -0.00000000000E+00 -0.00000000000E+00 -0.35547391741E+04  0.35547391741E+04  0.25500000000E-02 0.  1.
    8880023    1    1    2    0    0  0.91505066383E+02 -0.17449489020E+04  0.25354907826E+03  0.18844938814E+04  0.65864270000E+03 0.  0.
    8880022    1    1    2    0    0 -0.91505066383E+02  0.17449489020E+04 -0.24584789052E+04  0.30200546399E+04  0.15294330000E+03 0.  0.
<mgrwt>
<rscale>  0 0.18383575E+04</rscale>
<asrwt>0</asrwt>
<pdfrwt beam="1">  1        2 0.20766298E+00 0.18673591E+04</pdfrwt>
<pdfrwt beam="2">  1       -2 0.54688295E+00 0.18673591E+04</pdfrwt>
<totfact> 0.12169166E-02</totfact>
</mgrwt>
</event>
<event>
 4    5  0.6615028E-008  0.1110519E+04  0.7818608E-02  0.9249434E-01
         -2   -1    0    0    0  501 -0.00000000000E+00  0.00000000000E+00  0.84622992002E+03  0.84622992002E+03  0.25500000000E-02 0.  1.
          2   -1    0    0  501    0  0.00000000000E+00 -0.00000000000E+00 -0.12683295318E+04  0.12683295318E+04  0.25500000000E-02 0. -1.
    8880023    1    1    2    0    0  0.64699586833E+03  0.61712067982E+03 -0.47070385686E+03  0.12061566707E+04  0.65864270000E+03 0.  0.
    8880022    1    1    2    0    0 -0.64699586833E+03 -0.61712067982E+03  0.48604245098E+02  0.90840278112E+03  0.15294330000E+03 0.  0.
<mgrwt>
<rscale>  0 0.10557434E+04</rscale>
<asrwt>0</asrwt>
<pdfrwt beam="1">  1        2 0.19512762E+00 0.11105187E+04</pdfrwt>
<pdfrwt beam="2">  1       -2 0.13018922E+00 0.11105187E+04</pdfrwt>
<totfact> 0.73312209E+00</totfact>
</mgrwt>
</event>
<event>
 4    5  0.6615028E-008  0.8360483E+03  0.7818608E-02  0.9637677E-01
         -2   -1    0    0    0  501 -0.00000000000E+00  0.00000000000E+00  0.33695316796E+03  0.33695316797E+03  0.25500000000E-02 0.  1.
          2   -1    0    0  501    0  0.00000000000E+00 -0.00000000000E+00 -0.23343126562E+04  0.23343126562E+04  0.25500000000E-02 0. -1.
    8880023    1    1    2    0    0 -0.51464530839E+03 -0.17515028114E+02 -0.19622626807E+04  0.21329443509E+04  0.65864270000E+03 0.  0.
    8880022    1    1    2    0    0  0.51464530839E+03  0.17515028114E+02 -0.35096807506E+02  0.53832147326E+03  0.15294330000E+03 0.  0.
<mgrwt>
<rscale>  0 0.74851880E+03</rscale>
<asrwt>0</asrwt>
<pdfrwt beam="1">  1        2 0.35912501E+00 0.83604831E+03</pdfrwt>
<pdfrwt beam="2">  1       -2 0.51838950E-01 0.83604831E+03</pdfrwt>
<totfact> 0.15685472E+01</totfact>
</mgrwt>
</event>
<event>
 4    5  0.6615028E-008  0.6973855E+03  0.7818608E-02  0.1000822E+00
          2   -1    0    0  501    0  0.00000000000E+00  0.00000000000E+00  0.12000126050E+04  0.12000126050E+04  0.25500000000E-02 0. -1.
         -2   -1    0    0    0  501 -0.00000000000E+00 -0.00000000000E+00 -0.35378877770E+03  0.35378877771E+03  0.25500000000E-02 0.  1.
    8880023    1    1    2    0    0 -0.15433516584E+03 -0.16946068002E+03  0.10143901756E+04  0.12309889927E+04  0.65864270000E+03 0.  0.
    8880022    1    1    2    0    0  0.15433516584E+03  0.16946068002E+03 -0.16816634824E+03  0.32281239007E+03  0.15294330000E+03 0.  0.
<mgrwt>
<rscale>  0 0.55291052E+03</rscale>
<asrwt>0</asrwt>
<pdfrwt beam="1">  1        2 0.18461732E+00 0.69738545E+03</pdfrwt>
<pdfrwt beam="2">  1       -2 0.54429043E-01 0.69738545E+03</pdfrwt>
<totfact> 0.61510030E+01</totfact>
</mgrwt>
</event>
<event>
 4    5  0.6615028E-008  0.1216307E+04  0.7818608E-02  0.9141431E-01
          2   -1    0    0  501    0  0.00000000000E+00  0.00000000000E+00  0.11730754167E+04  0.11730754168E+04  0.25500000000E-02 0. -1.
         -2   -1    0    0    0  501 -0.00000000000E+00 -0.00000000000E+00 -0.10826322029E+04  0.10826322029E+04  0.25500000000E-02 0.  1.
    8880023    1    1    2    0    0  0.90107902927E+03 -0.48337387849E+03 -0.15239305646E+02  0.12164029621E+04  0.65864270000E+03 0.  1.
    8880022    1    1    2    0    0 -0.90107902927E+03  0.48337387849E+03  0.10568251949E+03  0.10393046576E+04  0.15294330000E+03 0. -1.
<mgrwt>
<rscale>  0 0.11678956E+04</rscale>
<asrwt>0</asrwt>
<pdfrwt beam="1">  1        2 0.18047314E+00 0.12163075E+04</pdfrwt>
<pdfrwt beam="2">  1       -2 0.16655880E+00 0.12163075E+04</pdfrwt>
<totfact> 0.43051530E+00</totfact>
</mgrwt>
</event>
<event>
 4    5  0.6615028E-008  0.8891219E+03  0.7818608E-02  0.9543725E-01
         -2   -1    0    0    0  501 -0.00000000000E+00  0.00000000000E+00  0.32726663769E+03  0.32726663770E+03  0.25500000000E-02 0.  1.
          2   -1    0    0  501    0  0.00000000000E+00 -0.00000000000E+00 -0.23206228059E+04  0.23206228059E+04  0.25500000000E-02 0. -1.
    8880023    1    1    2    0    0  0.46324060182E+03  0.37700882774E+03 -0.17900361010E+04  0.19986913119E+04  0.65864270000E+03 0. -1.
    8880022    1    1    2    0    0 -0.46324060182E+03 -0.37700882774E+03 -0.20332006722E+03  0.64919813164E+03  0.15294330000E+03 0.  0.
<mgrwt>
<rscale>  0 0.81135505E+03</rscale>
<asrwt>0</asrwt>
<pdfrwt beam="1">  1        2 0.35701888E+00 0.88912188E+03</pdfrwt>
<pdfrwt beam="2">  1       -2 0.50348715E-01 0.88912188E+03</pdfrwt>
<totfact> 0.16829712E+01</totfact>
</mgrwt>
</event>
<event>
 4    5  0.6615028E-008  0.2072617E+04  0.7818608E-02  0.8585064E-01
          2   -1    0    0  501    0  0.00000000000E+00  0.00000000000E+00  0.21845860252E+04  0.21845860252E+04  0.25500000000E-02 0. -1.
         -2   -1    0    0    0  501 -0.00000000000E+00 -0.00000000000E+00 -0.20682732133E+04  0.20682732133E+04  0.25500000000E-02 0.  1.
    8880023    1    1    2    0    0 -0.18460626265E+04 -0.67378390451E+03  0.71555618580E+03  0.21926611303E+04  0.65864270000E+03 0.  0.
    8880022    1    1    2    0    0  0.18460626265E+04  0.67378390451E+03 -0.59924337390E+03  0.20601981082E+04  0.15294330000E+03 0.  0.
<mgrwt>
<rscale>  0 0.20467638E+04</rscale>
<asrwt>0</asrwt>
<pdfrwt beam="1">  1        2 0.33609016E+00 0.20726172E+04</pdfrwt>
<pdfrwt beam="2">  1       -2 0.31819588E+00 0.20726172E+04</pdfrwt>
<totfact> 0.11416344E-01</totfact>
</mgrwt>
</event>
<event>
 4    5  0.6615028E-008  0.7033307E+03  0.7818608E-02  0.9983655E-01
          2   -1    0    0  501    0  0.00000000000E+00  0.00000000000E+00  0.28608423233E+04  0.28608423233E+04  0.25500000000E-02 0. -1.
         -2   -1    0    0    0  501 -0.00000000000E+00 -0.00000000000E+00 -0.14329843144E+03  0.14329843147E+03  0.25500000000E-02 0.  1.
    8880023    1    1    2    0    0  0.28887858071E+02 -0.24500896054E+03  0.25957643715E+04  0.26893617789E+04  0.65864270000E+03 0. -1.
    8880022    1    1    2    0    0 -0.28887858071E+02  0.24500896054E+03  0.12177952041E+03  0.31477897594E+03  0.15294330000E+03 0.  0.
<mgrwt>
<rscale>  0 0.56372787E+03</rscale>
<asrwt>0</asrwt>
<pdfrwt beam="1">  1        2 0.44012955E+00 0.70333072E+03</pdfrwt>
<pdfrwt beam="2">  1       -2 0.22045915E-01 0.70333072E+03</pdfrwt>
<totfact> 0.40406170E+01</totfact>
</mgrwt>
</event>
<event>
 4    5  0.6615028E-008  0.7340785E+03  0.7818608E-02  0.9877544E-01
         -2   -1    0    0    0  501 -0.00000000000E+00  0.00000000000E+00  0.96671932458E+03  0.96671932458E+03  0.25500000000E-02 0.  1.
          2   -1    0    0  501    0  0.00000000000E+00 -0.00000000000E+00 -0.15029163891E+04  0.15029163891E+04  0.25500000000E-02 0. -1.
    8880023    1    1    2    0    0  0.32227922287E+03 -0.34599180258E+02 -0.13743270884E+04  0.15580905471E+04  0.65864270000E+03 0. -1.
    8880022    1    1    2    0    0 -0.32227922287E+03  0.34599180258E+02  0.83813002388E+03  0.91154516658E+03  0.15294330000E+03 0.  0.
<mgrwt>
<rscale>  0 0.61362035E+03</rscale>
<asrwt>0</asrwt>
<pdfrwt beam="1">  1        2 0.23121791E+00 0.73407847E+03</pdfrwt>
<pdfrwt beam="2">  1       -2 0.14872605E+00 0.73407847E+03</pdfrwt>
<totfact> 0.39884548E+00</totfact>
</mgrwt>
</event>
<event>
 4    5  0.6615028E-008  0.8076275E+03  0.7818608E-02  0.9694540E-01
          2   -1    0    0  501    0  0.00000000000E+00  0.00000000000E+00  0.18317775533E+04  0.18317775533E+04  0.25500000000E-02 0. -1.
         -2   -1    0    0    0  501 -0.00000000000E+00 -0.00000000000E+00 -0.59402885339E+03  0.59402885339E+03  0.25500000000E-02 0.  1.
    8880023    1    1    2    0    0  0.41984438256E+03  0.20538409742E+03  0.16152104633E+04  0.18058701448E+04  0.65864270000E+03 0.  0.
    8880022    1    1    2    0    0 -0.41984438256E+03 -0.20538409742E+03 -0.37746176332E+03  0.61993626191E+03  0.15294330000E+03 0.  0.
<mgrwt>
<rscale>  0 0.71342798E+03</rscale>
<asrwt>0</asrwt>
<pdfrwt beam="1">  1        2 0.28181193E+00 0.80762748E+03</pdfrwt>
<pdfrwt beam="2">  1       -2 0.91389055E-01 0.80762748E+03</pdfrwt>
<totfact> 0.86466125E+00</totfact>
</mgrwt>
</event>
<event>
 4    5  0.6615028E-008  0.1299487E+04  0.7818608E-02  0.9066003E-01
         -2   -1    0    0    0  501 -0.00000000000E+00  0.00000000000E+00  0.12125790873E+04  0.12125790873E+04  0.25500000000E-02 0.  1.
          2   -1    0    0  501    0  0.00000000000E+00 -0.00000000000E+00 -0.18313542624E+04  0.18313542624E+04  0.25500000000E-02 0. -1.
    8880023    1    1    2    0    0  0.59584612182E+03 -0.94859084918E+03 -0.12034131949E+04  0.17711213183E+04  0.65864270000E+03 0. -1.
    8880022    1    1    2    0    0 -0.59584612182E+03  0.94859084918E+03  0.58463801981E+03  0.12728120314E+04  0.15294330000E+03 0.  0.
<mgrwt>
<rscale>  0 0.12550354E+04</rscale>
<asrwt>0</asrwt>
<pdfrwt beam="1">  1        2 0.28174681E+00 0.12994874E+04</pdfrwt>
<pdfrwt beam="2">  1       -2 0.18655063E+00 0.12994874E+04</pdfrwt>
<totfact> 0.13014074E+00</totfact>
</mgrwt>
</event>
<event>
 4    5  0.6615028E-008  0.7933487E+03  0.7818608E-02  0.9725366E-01
          2   -1    0    0  501    0  0.00000000000E+00  0.00000000000E+00  0.18597840125E+04  0.18597840125E+04  0.25500000000E-02 0. -1.
         -2   -1    0    0    0  501 -0.00000000000E+00 -0.00000000000E+00 -0.34603423916E+03  0.34603423917E+03  0.25500000000E-02 0.  1.
    8880023    1    1    2    0    0  0.12674065272E+03 -0.42370837430E+03  0.15450341346E+04  0.17368168190E+04  0.65864270000E+03 0. -1.
    8880022    1    1    2    0    0 -0.12674065272E+03  0.42370837430E+03 -0.31284361303E+02  0.46900143260E+03  0.15294330000E+03 0.  0.
<mgrwt>
<rscale>  0 0.69526369E+03</rscale>
<asrwt>0</asrwt>
<pdfrwt beam="1">  1        2 0.28612062E+00 0.79334872E+03</pdfrwt>
<pdfrwt beam="2">  1       -2 0.53236036E-01 0.79334872E+03</pdfrwt>
<totfact> 0.27245924E+01</totfact>
</mgrwt>
</event>
<event>
 4    5  0.6615028E-008  0.6945443E+03  0.7818608E-02  0.1002063E+00
          2   -1    0    0  501    0  0.00000000000E+00  0.00000000000E+00  0.19019916853E+04  0.19019916853E+04  0.25500000000E-02 0. -1.
         -2   -1    0    0    0  501 -0.00000000000E+00 -0.00000000000E+00 -0.60343602289E+03  0.60343602290E+03  0.25500000000E-02 0.  1.
    8880023    1    1    2    0    0  0.97512752027E+02  0.19766837004E+03  0.18040634638E+04  0.19331416681E+04  0.65864270000E+03 0.  0.
    8880022    1    1    2    0    0 -0.97512752027E+02 -0.19766837004E+03 -0.50550780142E+03  0.57228604005E+03  0.15294330000E+03 0.  0.
<mgrwt>
<rscale>  0 0.54754684E+03</rscale>
<asrwt>0</asrwt>
<pdfrwt beam="1">  1        2 0.29261410E+00 0.69454426E+03</pdfrwt>
<pdfrwt beam="2">  1       -2 0.92836312E-01 0.69454426E+03</pdfrwt>
<totfact> 0.77658216E+00</totfact>
</mgrwt>
</event>
<event>
 4    5  0.6615028E-008  0.7937971E+03  0.7818608E-02  0.9724372E-01
          2   -1    0    0  501    0  0.00000000000E+00  0.00000000000E+00  0.18443103614E+04  0.18443103614E+04  0.25500000000E-02 0. -1.
         -2   -1    0    0    0  501 -0.00000000000E+00 -0.00000000000E+00 -0.65408777469E+03  0.65408777469E+03  0.25500000000E-02 0.  1.
    8880023    1    1    2    0    0 -0.28010190417E+03  0.34328783541E+03  0.16567372328E+04  0.18370879346E+04  0.65864270000E+03 0. -1.
    8880022    1    1    2    0    0  0.28010190417E+03 -0.34328783541E+03 -0.46651464605E+03  0.66131020153E+03  0.15294330000E+03 0.  0.
<mgrwt>
<rscale>  0 0.69584052E+03</rscale>
<asrwt>0</asrwt>
<pdfrwt beam="1">  1        2 0.28374005E+00 0.79379709E+03</pdfrwt>
<pdfrwt beam="2">  1       -2 0.10062889E+00 0.79379709E+03</pdfrwt>
<totfact> 0.68037590E+00</totfact>
</mgrwt>
</event>
<event>
 4    5  0.6615028E-008  0.7409203E+03  0.7818608E-02  0.9857274E-01
          2   -1    0    0  501    0  0.00000000000E+00  0.00000000000E+00  0.93799953937E+03  0.93799953937E+03  0.25500000000E-02 0. -1.
         -2   -1    0    0    0  501 -0.00000000000E+00 -0.00000000000E+00 -0.80843404609E+03  0.80843404610E+03  0.25500000000E-02 0.  1.
    8880023    1    1    2    0    0 -0.23145027459E+03  0.24816010378E+03  0.72991057508E+03  0.10400636137E+04  0.65864270000E+03 0. -1.
    8880022    1    1    2    0    0  0.23145027459E+03 -0.24816010378E+03 -0.60034508180E+03  0.70636997174E+03  0.15294330000E+03 0.  0.
<mgrwt>
<rscale>  0 0.62377391E+03</rscale>
<asrwt>0</asrwt>
<pdfrwt beam="1">  1        2 0.14430762E+00 0.74092029E+03</pdfrwt>
<pdfrwt beam="2">  1       -2 0.12437447E+00 0.74092029E+03</pdfrwt>
<totfact> 0.13659055E+01</totfact>
</mgrwt>
</event>
<event>
 4    5  0.6615028E-008  0.7487601E+03  0.7818608E-02  0.9835127E-01
         -2   -1    0    0    0  501 -0.00000000000E+00  0.00000000000E+00  0.67391871990E+03  0.67391871990E+03  0.25500000000E-02 0.  1.
          2   -1    0    0  501    0  0.00000000000E+00 -0.00000000000E+00 -0.26749329347E+04  0.26749329347E+04  0.25500000000E-02 0. -1.
    8880023    1    1    2    0    0  0.34517075190E+03  0.87684830928E+02 -0.25607779708E+04  0.26680002810E+04  0.65864270000E+03 0. -1.
    8880022    1    1    2    0    0 -0.34517075190E+03 -0.87684830928E+02  0.55976375593E+03  0.68085137365E+03  0.15294330000E+03 0.  0.
<mgrwt>
<rscale>  0 0.63511025E+03</rscale>
<asrwt>0</asrwt>
<pdfrwt beam="1">  1        2 0.41152814E+00 0.74876010E+03</pdfrwt>
<pdfrwt beam="2">  1       -2 0.10367980E+00 0.74876010E+03</pdfrwt>
<totfact> 0.22000666E+00</totfact>
</mgrwt>
</event>
<event>
 4    5  0.6615028E-008  0.8177028E+03  0.7818608E-02  0.9673750E-01
         -2   -1    0    0    0  501 -0.00000000000E+00  0.00000000000E+00  0.90326036772E+03  0.90326036772E+03  0.25500000000E-02 0.  1.
          2   -1    0    0  501    0  0.00000000000E+00 -0.00000000000E+00 -0.71681357773E+03  0.71681357774E+03  0.25500000000E-02 0. -1.
    8880023    1    1    2    0    0 -0.15874728149E+03 -0.45785033460E+03 -0.34254651792E+03  0.88655284754E+03  0.65864270000E+03 0. -1.
    8880022    1    1    2    0    0  0.15874728149E+03  0.45785033460E+03  0.52899330790E+03  0.73352109792E+03  0.15294330000E+03 0.  0.
<mgrwt>
<rscale>  0 0.72601432E+03</rscale>
<asrwt>0</asrwt>
<pdfrwt beam="1">  1        2 0.11027901E+00 0.81770278E+03</pdfrwt>
<pdfrwt beam="2">  1       -2 0.13896313E+00 0.81770278E+03</pdfrwt>
<totfact> 0.14673520E+01</totfact>
</mgrwt>
</event>
<event>
 4    5  0.6615028E-008  0.7312260E+03  0.7818608E-02  0.9886284E-01
         -2   -1    0    0    0  501 -0.00000000000E+00  0.00000000000E+00  0.60241770559E+03  0.60241770559E+03  0.25500000000E-02 0.  1.
          2   -1    0    0  501    0  0.00000000000E+00 -0.00000000000E+00 -0.33126343830E+04  0.33126343830E+04  0.25500000000E-02 0. -1.
    8880023    1    1    2    0    0 -0.24371651937E+03 -0.20367501969E+03 -0.32162537143E+04  0.32983297920E+04  0.65864270000E+03 0. -1.
    8880022    1    1    2    0    0  0.24371651937E+03  0.20367501969E+03  0.50603703689E+03  0.61672229664E+03  0.15294330000E+03 0.  0.
<mgrwt>
<rscale>  0 0.60930645E+03</rscale>
<asrwt>0</asrwt>
<pdfrwt beam="1">  1        2 0.50963605E+00 0.73122600E+03</pdfrwt>
<pdfrwt beam="2">  1       -2 0.92679649E-01 0.73122600E+03</pdfrwt>
<totfact> 0.11701963E+00</totfact>
</mgrwt>
</event>
<event>
 4    5  0.6615028E-008  0.7242878E+03  0.7818608E-02  0.9908336E-01
          2   -1    0    0  501    0  0.00000000000E+00  0.00000000000E+00  0.47072148198E+03  0.47072148199E+03  0.25500000000E-02 0. -1.
         -2   -1    0    0    0  501 -0.00000000000E+00 -0.00000000000E+00 -0.12285383695E+04  0.12285383695E+04  0.25500000000E-02 0.  1.
    8880023    1    1    2    0    0  0.17451620954E+03 -0.24561485000E+03  0.14201336092E+03  0.73807896791E+03  0.65864270000E+03 0. -1.
    8880022    1    1    2    0    0 -0.17451620954E+03  0.24561485000E+03 -0.89983024849E+03  0.96118088362E+03  0.15294330000E+03 0.  0.
<mgrwt>
<rscale>  0 0.59858987E+03</rscale>
<asrwt>0</asrwt>
<pdfrwt beam="1">  1        2 0.72418690E-01 0.72428777E+03</pdfrwt>
<pdfrwt beam="2">  1       -2 0.18900590E+00 0.72428777E+03</pdfrwt>
<totfact> 0.10605823E+01</totfact>
</mgrwt>
</event>
<event>
 4    5  0.6615028E-008  0.9039838E+03  0.7818608E-02  0.9519666E-01
         -2   -1    0    0    0  501 -0.00000000000E+00  0.00000000000E+00  0.21278639428E+04  0.21278639428E+04  0.25500000000E-02 0.  1.
          2   -1    0    0  501    0  0.00000000000E+00 -0.00000000000E+00 -0.87562423964E+03  0.87562423964E+03  0.25500000000E-02 0. -1.
    8880023    1    1    2    0    0 -0.61799684301E+03 -0.38163959160E+02 -0.57282444943E+03  0.10701937403E+04  0.65864270000E+03 0. -1.
    8880022    1    1    2    0    0  0.61799684301E+03  0.38163959160E+02  0.18250641526E+04  0.19332944421E+04  0.15294330000E+03 0.  0.
<mgrwt>
<rscale>  0 0.82849307E+03</rscale>
<asrwt>0</asrwt>
<pdfrwt beam="1">  1        2 0.13471142E+00 0.90398384E+03</pdfrwt>
<pdfrwt beam="2">  1       -2 0.32736368E+00 0.90398384E+03</pdfrwt>
<totfact> 0.67210628E-01</totfact>
</mgrwt>
</event>
<event>
 4    5  0.6615028E-008  0.8388927E+03  0.7818608E-02  0.9632272E-01
         -2   -1    0    0    0  501 -0.00000000000E+00  0.00000000000E+00  0.75424887014E+03  0.75424887015E+03  0.25500000000E-02 0.  1.
          2   -1    0    0  501    0  0.00000000000E+00 -0.00000000000E+00 -0.21038805929E+04  0.21038805929E+04  0.25500000000E-02 0. -1.
    8880023    1    1    2    0    0  0.51954573656E+03  0.17182626105E+01 -0.19055334515E+04  0.20820179312E+04  0.65864270000E+03 0. -1.
    8880022    1    1    2    0    0 -0.51954573656E+03 -0.17182626105E+01  0.55590172876E+03  0.77611153184E+03  0.15294330000E+03 0.  0.
<mgrwt>
<rscale>  0 0.75196557E+03</rscale>
<asrwt>0</asrwt>
<pdfrwt beam="1">  1        2 0.32367393E+00 0.83889268E+03</pdfrwt>
<pdfrwt beam="2">  1       -2 0.11603829E+00 0.83889268E+03</pdfrwt>
<totfact> 0.34530578E+00</totfact>
</mgrwt>
</event>
<event>
 4    5  0.6615028E-008  0.1179356E+04  0.7818608E-02  0.9177455E-01
          2   -1    0    0  501    0  0.00000000000E+00  0.00000000000E+00  0.92746896989E+03  0.92746896989E+03  0.25500000000E-02 0. -1.
         -2   -1    0    0    0  501 -0.00000000000E+00 -0.00000000000E+00 -0.20896206370E+04  0.20896206370E+04  0.25500000000E-02 0.  1.
    8880023    1    1    2    0    0 -0.44345514054E+03  0.87201975500E+03 -0.15551555912E+04  0.19517658758E+04  0.65864270000E+03 0.  0.
    8880022    1    1    2    0    0  0.44345514054E+03 -0.87201975500E+03  0.39300392406E+03  0.10653237311E+04  0.15294330000E+03 0.  0.
<mgrwt>
<rscale>  0 0.11289186E+04</rscale>
<asrwt>0</asrwt>
<pdfrwt beam="1">  1        2 0.14268753E+00 0.11793562E+04</pdfrwt>
<pdfrwt beam="2">  1       -2 0.32148010E+00 0.11793562E+04</pdfrwt>
<totfact> 0.64790120E-01</totfact>
</mgrwt>
</event>
<event>
 4    5  0.6615028E-008  0.1188044E+04  0.7818608E-02  0.9168833E-01
          2   -1    0    0  501    0  0.00000000000E+00  0.00000000000E+00  0.32145993841E+04  0.32145993841E+04  0.25500000000E-02 0. -1.
         -2   -1    0    0    0  501 -0.00000000000E+00 -0.00000000000E+00 -0.50356330010E+03  0.50356330011E+03  0.25500000000E-02 0.  1.
    8880023    1    1    2    0    0 -0.98820815365E+03  0.32921419722E+02  0.49558338540E+03  0.12872654244E+04  0.65864270000E+03 0.  1.
    8880022    1    1    2    0    0  0.98820815365E+03 -0.32921419722E+02  0.22154526986E+04  0.24308972598E+04  0.15294330000E+03 0.  0.
<mgrwt>
<rscale>  0 0.11381000E+04</rscale>
<asrwt>0</asrwt>
<pdfrwt beam="1">  1        2 0.49455376E+00 0.11880444E+04</pdfrwt>
<pdfrwt beam="2">  1       -2 0.77471276E-01 0.11880444E+04</pdfrwt>
<totfact> 0.18834120E+00</totfact>
</mgrwt>
</event>
<event>
 4    5  0.6615028E-008  0.7244170E+03  0.7818608E-02  0.9907914E-01
         -2   -1    0    0    0  501 -0.00000000000E+00  0.00000000000E+00  0.55025235096E+03  0.55025235096E+03  0.25500000000E-02 0.  1.
          2   -1    0    0  501    0  0.00000000000E+00 -0.00000000000E+00 -0.15951380980E+04  0.15951380981E+04  0.25500000000E-02 0. -1.
    8880023    1    1    2    0    0  0.19130083828E+02  0.30100476269E+03 -0.14480682698E+04  0.16191608158E+04  0.65864270000E+03 0. -1.
    8880022    1    1    2    0    0 -0.19130083828E+02 -0.30100476269E+03  0.40318252267E+03  0.52622963321E+03  0.15294330000E+03 0.  0.
<mgrwt>
<rscale>  0 0.59879265E+03</rscale>
<asrwt>0</asrwt>
<pdfrwt beam="1">  1        2 0.24540586E+00 0.72441703E+03</pdfrwt>
<pdfrwt beam="2">  1       -2 0.84654209E-01 0.72441703E+03</pdfrwt>
<totfact> 0.14052733E+01</totfact>
</mgrwt>
</event>
<event>
 4    5  0.6615028E-008  0.8293180E+03  0.7818608E-02  0.9650661E-01
         -2   -1    0    0    0  501 -0.00000000000E+00  0.00000000000E+00  0.18303932676E+03  0.18303932678E+03  0.25500000000E-02 0.  1.
          2   -1    0    0  501    0  0.00000000000E+00 -0.00000000000E+00 -0.28587864932E+04  0.28587864932E+04  0.25500000000E-02 0. -1.
    8880023    1    1    2    0    0 -0.48224853475E+03  0.14626864432E+03 -0.21187712050E+04  0.22752933417E+04  0.65864270000E+03 0.  1.
    8880022    1    1    2    0    0  0.48224853475E+03 -0.14626864432E+03 -0.55697596151E+03  0.76653247831E+03  0.15294330000E+03 0.  0.
<mgrwt>
<rscale>  0 0.74031971E+03</rscale>
<asrwt>0</asrwt>
<pdfrwt beam="1">  1        2 0.43981327E+00 0.82931802E+03</pdfrwt>
<pdfrwt beam="2">  1       -2 0.28159899E-01 0.82931802E+03</pdfrwt>
<totfact> 0.25570832E+01</totfact>
</mgrwt>
</event>
<event>
 4    5  0.7450496E-008  0.7961282E+03  0.7818608E-02  0.9719231E-01
         -2   -1    0    0    0  501 -0.00000000000E+00  0.00000000000E+00  0.10339621004E+04  0.10339621004E+04  0.25500000000E-02 0.  1.
          2   -1    0    0  501    0  0.00000000000E+00 -0.00000000000E+00 -0.16277012080E+04  0.16277012080E+04  0.25500000000E-02 0. -1.
    8880023    1    1    2    0    0 -0.31795598418E+03  0.31450586169E+03 -0.14667671877E+04  0.16688996776E+04  0.65864270000E+03 0. -1.
    8880022    1    1    2    0    0  0.31795598418E+03 -0.31450586169E+03  0.87302808004E+03  0.99276363071E+03  0.15294330000E+03 0.  0.
<mgrwt>
<rscale>  0 0.69883243E+03</rscale>
<asrwt>0</asrwt>
<pdfrwt beam="1">  1        2 0.25041557E+00 0.79612823E+03</pdfrwt>
<pdfrwt beam="2">  1       -2 0.15907109E+00 0.79612823E+03</pdfrwt>
<totfact> 0.28152310E+00</totfact>
</mgrwt>
</event>
<event>
 4    5  0.6615028E-008  0.6840942E+03  0.7818608E-02  0.1007096E+00
          2   -1    0    0  501    0  0.00000000000E+00  0.00000000000E+00  0.34674568848E+04  0.34674568848E+04  0.25500000000E-02 0. -1.
         -2   -1    0    0    0  501 -0.00000000000E+00 -0.00000000000E+00 -0.89590356080E+02  0.89590356117E+02  0.25500000000E-02 0.  1.
    8880023    1    1    2    0    0  0.13640191470E+02 -0.18436008190E+03  0.31592121833E+04  0.32324304354E+04  0.65864270000E+03 0.  0.
    8880022    1    1    2    0    0 -0.13640191470E+02  0.18436008190E+03  0.21865434548E+03  0.32461680553E+03  0.15294330000E+03 0. -1.
<mgrwt>
<rscale>  0 0.52645108E+03</rscale>
<asrwt>0</asrwt>
<pdfrwt beam="1">  1        2 0.53345494E+00 0.68409422E+03</pdfrwt>
<pdfrwt beam="2">  1       -2 0.13783131E-01 0.68409422E+03</pdfrwt>
<totfact> 0.37601003E+01</totfact>
</mgrwt>
</event>
<event>
 4    5  0.6615028E-008  0.1792085E+04  0.7818608E-02  0.8726928E-01
         -2   -1    0    0    0  501 -0.00000000000E+00  0.00000000000E+00  0.15874052393E+04  0.15874052393E+04  0.25500000000E-02 0.  1.
          2   -1    0    0  501    0  0.00000000000E+00 -0.00000000000E+00 -0.28865998667E+04  0.28865998667E+04  0.25500000000E-02 0. -1.
    8880023    1    1    2    0    0  0.15259742097E+04  0.67019413074E+03 -0.19769547972E+04  0.26683174358E+04  0.65864270000E+03 0.  0.
    8880022    1    1    2    0    0 -0.15259742097E+04 -0.67019413074E+03  0.67776016985E+03  0.18056876702E+04  0.15294330000E+03 0.  0.
<mgrwt>
<rscale>  0 0.17617161E+04</rscale>
<asrwt>0</asrwt>
<pdfrwt beam="1">  1        2 0.44409229E+00 0.17920847E+04</pdfrwt>
<pdfrwt beam="2">  1       -2 0.24421619E+00 0.17920847E+04</pdfrwt>
<totfact> 0.12968071E-01</totfact>
</mgrwt>
</event>
<event>
 4    5  0.6615028E-008  0.1527104E+04  0.7818608E-02  0.8890730E-01
         -2   -1    0    0    0  501 -0.00000000000E+00  0.00000000000E+00  0.30740061474E+04  0.30740061474E+04  0.25500000000E-02 0.  1.
          2   -1    0    0  501    0  0.00000000000E+00 -0.00000000000E+00 -0.14272325560E+04  0.14272325560E+04  0.25500000000E-02 0. -1.
    8880023    1    1    2    0    0  0.13776345713E+04  0.18987117736E+02 -0.77369927029E+03  0.17119165546E+04  0.65864270000E+03 0.  0.
    8880022    1    1    2    0    0 -0.13776345713E+04 -0.18987117736E+02  0.24204728617E+04  0.27893221488E+04  0.15294330000E+03 0.  0.
<mgrwt>
<rscale>  0 0.14905970E+04</rscale>
<asrwt>0</asrwt>
<pdfrwt beam="1">  1        2 0.21957424E+00 0.15271044E+04</pdfrwt>
<pdfrwt beam="2">  1       -2 0.47292402E+00 0.15271044E+04</pdfrwt>
<totfact> 0.32053570E-02</totfact>
</mgrwt>
</event>
<event>
 4    5  0.6615028E-008  0.7796364E+03  0.7818608E-02  0.9756692E-01
         -2   -1    0    0    0  501 -0.00000000000E+00  0.00000000000E+00  0.41387006333E+03  0.41387006334E+03  0.25500000000E-02 0.  1.
          2   -1    0    0  501    0  0.00000000000E+00 -0.00000000000E+00 -0.31345979839E+04  0.31345979839E+04  0.25500000000E-02 0. -1.
    8880023    1    1    2    0    0  0.32574157010E+01  0.41714752886E+03 -0.29480363934E+04  0.30493854224E+04  0.65864270000E+03 0. -1.
    8880022    1    1    2    0    0 -0.32574157010E+01 -0.41714752886E+03  0.22730847278E+03  0.49908262483E+03  0.15294330000E+03 0.  0.
<mgrwt>
<rscale>  0 0.67739409E+03</rscale>
<asrwt>0</asrwt>
<pdfrwt beam="1">  1        2 0.48224583E+00 0.77963638E+03</pdfrwt>
<pdfrwt beam="2">  1       -2 0.63672320E-01 0.77963638E+03</pdfrwt>
<totfact> 0.34764174E+00</totfact>
</mgrwt>
</event>
<event>
 4    5  0.6615028E-008  0.1026103E+04  0.7818608E-02  0.9348176E-01
         -2   -1    0    0    0  501 -0.00000000000E+00  0.00000000000E+00  0.52551020061E+03  0.52551020062E+03  0.25500000000E-02 0.  1.
          2   -1    0    0  501    0  0.00000000000E+00 -0.00000000000E+00 -0.20458495956E+04  0.20458495956E+04  0.25500000000E-02 0. -1.
    8880023    1    1    2    0    0 -0.18860519690E+03  0.76387510797E+03 -0.14366509787E+04  0.17654612263E+04  0.65864270000E+03 0.  1.
    8880022    1    1    2    0    0  0.18860519690E+03 -0.76387510797E+03 -0.83688416292E+02  0.80589856987E+03  0.15294330000E+03 0.  0.
<mgrwt>
<rscale>  0 0.96466098E+03</rscale>
<asrwt>0</asrwt>
<pdfrwt beam="1">  1        2 0.31474609E+00 0.10261030E+04</pdfrwt>
<pdfrwt beam="2">  1       -2 0.80847724E-01 0.10261030E+04</pdfrwt>
<totfact> 0.85010621E+00</totfact>
</mgrwt>
</event>
<event>
 4    5  0.6615028E-008  0.8572772E+03  0.7818608E-02  0.9598425E-01
         -2   -1    0    0    0  501 -0.00000000000E+00  0.00000000000E+00  0.55742795863E+03  0.55742795863E+03  0.25500000000E-02 0.  1.
          2   -1    0    0  501    0  0.00000000000E+00 -0.00000000000E+00 -0.22238504637E+04  0.22238504637E+04  0.25500000000E-02 0. -1.
    8880023    1    1    2    0    0 -0.49138828198E+03  0.24423659852E+03 -0.19608317887E+04  0.21400433336E+04  0.65864270000E+03 0. -1.
    8880022    1    1    2    0    0  0.49138828198E+03 -0.24423659852E+03  0.29440928365E+03  0.64123508875E+03  0.15294330000E+03 0.  0.
<mgrwt>
<rscale>  0 0.77400493E+03</rscale>
<asrwt>0</asrwt>
<pdfrwt beam="1">  1        2 0.34213084E+00 0.85727718E+03</pdfrwt>
<pdfrwt beam="2">  1       -2 0.85758148E-01 0.85727718E+03</pdfrwt>
<totfact> 0.60552027E+00</totfact>
</mgrwt>
</event>
<event>
 4    5  0.6615028E-008  0.1176886E+04  0.7818608E-02  0.9179925E-01
         -2   -1    0    0    0  501 -0.00000000000E+00  0.00000000000E+00  0.17195828331E+04  0.17195828331E+04  0.25500000000E-02 0.  1.
          2   -1    0    0  501    0  0.00000000000E+00 -0.00000000000E+00 -0.11280341436E+04  0.11280341436E+04  0.25500000000E-02 0. -1.
    8880023    1    1    2    0    0 -0.64782654491E+03 -0.72908935019E+03 -0.58291822403E+03  0.13133371140E+04  0.65864270000E+03 0. -1.
    8880022    1    1    2    0    0  0.64782654491E+03  0.72908935019E+03  0.11744669136E+04  0.15342798627E+04  0.15294330000E+03 0.  0.
<mgrwt>
<rscale>  0 0.11263061E+04</rscale>
<asrwt>0</asrwt>
<pdfrwt beam="1">  1        2 0.17354371E+00 0.11768860E+04</pdfrwt>
<pdfrwt beam="2">  1       -2 0.26455121E+00 0.11768860E+04</pdfrwt>
<totfact> 0.10701801E+00</totfact>
</mgrwt>
</event>
<event>
 4    5  0.6615028E-008  0.7443305E+03  0.7818608E-02  0.9847508E-01
         -2   -1    0    0    0  501 -0.00000000000E+00  0.00000000000E+00  0.72938050602E+03  0.72938050603E+03  0.25500000000E-02 0.  1.
          2   -1    0    0  501    0  0.00000000000E+00 -0.00000000000E+00 -0.17462686836E+04  0.17462686836E+04  0.25500000000E-02 0. -1.
    8880023    1    1    2    0    0 -0.33631856626E+03  0.84305980446E+02 -0.16089007877E+04  0.17727350697E+04  0.65864270000E+03 0. -1.
    8880022    1    1    2    0    0  0.33631856626E+03 -0.84305980446E+02  0.59201261017E+03  0.70291411991E+03  0.15294330000E+03 0.  0.
<mgrwt>
<rscale>  0 0.62874159E+03</rscale>
<asrwt>0</asrwt>
<pdfrwt beam="1">  1        2 0.26865672E+00 0.74433049E+03</pdfrwt>
<pdfrwt beam="2">  1       -2 0.11221239E+00 0.74433049E+03</pdfrwt>
<totfact> 0.59653354E+00</totfact>
</mgrwt>
</event>
<event>
 4    5  0.6615028E-008  0.6961479E+03  0.7818608E-02  0.1001357E+00
          2   -1    0    0  501    0  0.00000000000E+00  0.00000000000E+00  0.13353572571E+04  0.13353572571E+04  0.25500000000E-02 0. -1.
         -2   -1    0    0    0  501 -0.00000000000E+00 -0.00000000000E+00 -0.27924957481E+03  0.27924957483E+03  0.25500000000E-02 0.  1.
    8880023    1    1    2    0    0 -0.14887632391E+03  0.16925567114E+03  0.11345812174E+04  0.13311259847E+04  0.65864270000E+03 0.  0.
    8880022    1    1    2    0    0  0.14887632391E+03 -0.16925567114E+03 -0.78473535082E+02  0.28348084725E+03  0.15294330000E+03 0.  0.
<mgrwt>
<rscale>  0 0.55059089E+03</rscale>
<asrwt>0</asrwt>
<pdfrwt beam="1">  1        2 0.20543958E+00 0.69614786E+03</pdfrwt>
<pdfrwt beam="2">  1       -2 0.42961473E-01 0.69614786E+03</pdfrwt>
<totfact> 0.82811735E+01</totfact>
</mgrwt>
</event>
<event>
 4    5  0.6615028E-008  0.6648010E+03  0.7818608E-02  0.1019701E+00
         -2   -1    0    0    0  501 -0.00000000000E+00  0.00000000000E+00  0.38669457731E+03  0.38669457732E+03  0.25500000000E-02 0.  1.
          2   -1    0    0  501    0  0.00000000000E+00 -0.00000000000E+00 -0.23938176118E+04  0.23938176118E+04  0.25500000000E-02 0. -1.
    8880023    1    1    2    0    0 -0.41574544609E+01  0.90182204221E+02 -0.23240231714E+04  0.24172389253E+04  0.65864270000E+03 0. -1.
    8880022    1    1    2    0    0  0.41574544609E+01 -0.90182204221E+02  0.31690013695E+03  0.36327326381E+03  0.15294330000E+03 0.  0.
<mgrwt>
<rscale>  0 0.47794672E+03</rscale>
<asrwt>0</asrwt>
<pdfrwt beam="1">  1        2 0.36827962E+00 0.66480096E+03</pdfrwt>
<pdfrwt beam="2">  1       -2 0.59491475E-01 0.66480096E+03</pdfrwt>
<totfact> 0.11211808E+01</totfact>
</mgrwt>
</event>
<event>
 4    5  0.6615028E-008  0.9229933E+03  0.7818608E-02  0.9490084E-01
         -2   -1    0    0    0  501 -0.00000000000E+00  0.00000000000E+00  0.11870026313E+04  0.11870026313E+04  0.25500000000E-02 0.  1.
          2   -1    0    0  501    0  0.00000000000E+00 -0.00000000000E+00 -0.82529767328E+03  0.82529767328E+03  0.25500000000E-02 0. -1.
    8880023    1    1    2    0    0 -0.11973440813E+03 -0.63542913617E+03 -0.39614498947E+03  0.10044140454E+04  0.65864270000E+03 0.  0.
    8880022    1    1    2    0    0  0.11973440813E+03  0.63542913617E+03  0.75784994746E+03  0.10078862592E+04  0.15294330000E+03 0.  0.
<mgrwt>
<rscale>  0 0.85018814E+03</rscale>
<asrwt>0</asrwt>
<pdfrwt beam="1">  1        2 0.12696887E+00 0.92299335E+03</pdfrwt>
<pdfrwt beam="2">  1       -2 0.18261579E+00 0.92299335E+03</pdfrwt>
<totfact> 0.57447306E+00</totfact>
</mgrwt>
</event>
<event>
 4    5  0.6615028E-008  0.8739899E+03  0.7818608E-02  0.9569147E-01
         -2   -1    0    0    0  501 -0.00000000000E+00  0.00000000000E+00  0.48417325767E+03  0.48417325767E+03  0.25500000000E-02 0.  1.
          2   -1    0    0  501    0  0.00000000000E+00 -0.00000000000E+00 -0.16086203962E+04  0.16086203962E+04  0.25500000000E-02 0. -1.
    8880023    1    1    2    0    0 -0.53680993419E+03 -0.20465401362E+03 -0.12095031408E+04  0.14922319607E+04  0.65864270000E+03 0. -1.
    8880022    1    1    2    0    0  0.53680993419E+03  0.20465401362E+03  0.85056002265E+02  0.60056169315E+03  0.15294330000E+03 0.  0.
<mgrwt>
<rscale>  0 0.79372352E+03</rscale>
<asrwt>0</asrwt>
<pdfrwt beam="1">  1        2 0.24748006E+00 0.87398992E+03</pdfrwt>
<pdfrwt beam="2">  1       -2 0.74488194E-01 0.87398992E+03</pdfrwt>
<totfact> 0.18080534E+01</totfact>
</mgrwt>
</event>
<event>
 4    5  0.6615028E-008  0.7432349E+03  0.7818608E-02  0.9850622E-01
          2   -1    0    0  501    0  0.00000000000E+00  0.00000000000E+00  0.29917979863E+04  0.29917979863E+04  0.25500000000E-02 0. -1.
         -2   -1    0    0    0  501 -0.00000000000E+00 -0.00000000000E+00 -0.32744424286E+03  0.32744424287E+03  0.25500000000E-02 0.  1.
    8880023    1    1    2    0    0  0.32467373305E+03  0.11478188099E+03  0.28164763733E+04  0.29128915670E+04  0.65864270000E+03 0. -1.
    8880022    1    1    2    0    0 -0.32467373305E+03 -0.11478188099E+03 -0.15212262988E+03  0.40635066221E+03  0.15294330000E+03 0.  0.
<mgrwt>
<rscale>  0 0.62715199E+03</rscale>
<asrwt>0</asrwt>
<pdfrwt beam="1">  1        2 0.46027659E+00 0.74323490E+03</pdfrwt>
<pdfrwt beam="2">  1       -2 0.50376040E-01 0.74323490E+03</pdfrwt>
<totfact> 0.69990536E+00</totfact>
</mgrwt>
</event>
<event>
 4    5  0.6615028E-008  0.6823224E+03  0.7818608E-02  0.1008039E+00
          2   -1    0    0  501    0  0.00000000000E+00  0.00000000000E+00  0.35839747117E+04  0.35839747117E+04  0.25500000000E-02 0. -1.
         -2   -1    0    0    0  501 -0.00000000000E+00 -0.00000000000E+00 -0.12121773694E+04  0.12121773694E+04  0.25500000000E-02 0.  1.
    8880023    1    1    2    0    0 -0.13695002845E+03 -0.11401032085E+03  0.35397057417E+04  0.36048690140E+04  0.65864270000E+03 0. -1.
    8880022    1    1    2    0    0  0.13695002845E+03  0.11401032085E+03 -0.11679083995E+04  0.11912830672E+04  0.15294330000E+03 0.  0.
<mgrwt>
<rscale>  0 0.52261372E+03</rscale>
<asrwt>0</asrwt>
<pdfrwt beam="1">  1        2 0.55138073E+00 0.68232241E+03</pdfrwt>
<pdfrwt beam="2">  1       -2 0.18648883E+00 0.68232241E+03</pdfrwt>
<totfact> 0.13015746E-01</totfact>
</mgrwt>
</event>
<event>
 4    5  0.6615028E-008  0.1620460E+04  0.7818608E-02  0.8828949E-01
         -2   -1    0    0    0  501 -0.00000000000E+00  0.00000000000E+00  0.10154327120E+04  0.10154327121E+04  0.25500000000E-02 0.  1.
          2   -1    0    0  501    0  0.00000000000E+00 -0.00000000000E+00 -0.31289464297E+04  0.31289464297E+04  0.25500000000E-02 0. -1.
    8880023    1    1    2    0    0 -0.95861050330E+02 -0.14774606489E+04 -0.21042670275E+04  0.26559045991E+04  0.65864270000E+03 0. -1.
    8880022    1    1    2    0    0  0.95861050330E+02  0.14774606489E+04 -0.92466901202E+01  0.14884745427E+04  0.15294330000E+03 0.  0.
<mgrwt>
<rscale>  0 0.15863972E+04</rscale>
<asrwt>0</asrwt>
<pdfrwt beam="1">  1        2 0.48137637E+00 0.16204597E+04</pdfrwt>
<pdfrwt beam="2">  1       -2 0.15622042E+00 0.16204597E+04</pdfrwt>
<totfact> 0.36244209E-01</totfact>
</mgrwt>
</event>
<event>
 4    5  0.6615028E-008  0.7868485E+03  0.7818608E-02  0.9739989E-01
          2   -1    0    0  501    0  0.00000000000E+00  0.00000000000E+00  0.77952180897E+03  0.77952180897E+03  0.25500000000E-02 0. -1.
         -2   -1    0    0    0  501 -0.00000000000E+00 -0.00000000000E+00 -0.10580438182E+04  0.10580438182E+04  0.25500000000E-02 0.  1.
    8880023    1    1    2    0    0 -0.42971835195E+03 -0.25738353362E+02  0.50187636549E+03  0.93327938868E+03  0.65864270000E+03 0. -1.
    8880022    1    1    2    0    0  0.42971835195E+03  0.25738353362E+02 -0.78039837472E+03  0.90428623848E+03  0.15294330000E+03 0.  0.
<mgrwt>
<rscale>  0 0.68684977E+03</rscale>
<asrwt>0</asrwt>
<pdfrwt beam="1">  1        2 0.11992643E+00 0.78684848E+03</pdfrwt>
<pdfrwt beam="2">  1       -2 0.16277597E+00 0.78684848E+03</pdfrwt>
<totfact> 0.86774158E+00</totfact>
</mgrwt>
</event>
<event>
 4    5  0.6615028E-008  0.1117658E+04  0.7818608E-02  0.9241647E-01
          2   -1    0    0  501    0  0.00000000000E+00  0.00000000000E+00  0.97940983144E+03  0.97940983144E+03  0.25500000000E-02 0. -1.
         -2   -1    0    0    0  501 -0.00000000000E+00 -0.00000000000E+00 -0.23597612265E+04  0.23597612265E+04  0.25500000000E-02 0.  1.
    8880023    1    1    2    0    0 -0.89044718562E+03 -0.14984059187E+03  0.51769034775E+03  0.12317312596E+04  0.65864270000E+03 0. -1.
    8880022    1    1    2    0    0  0.89044718562E+03  0.14984059187E+03 -0.18980417428E+04  0.21074397984E+04  0.15294330000E+03 0.  0.
<mgrwt>
<rscale>  0 0.10633715E+04</rscale>
<asrwt>0</asrwt>
<pdfrwt beam="1">  1        2 0.15067844E+00 0.11176576E+04</pdfrwt>
<pdfrwt beam="2">  1       -2 0.36304019E+00 0.11176576E+04</pdfrwt>
<totfact> 0.33246507E-01</totfact>
</mgrwt>
</event>
<event>
 4    5  0.6615028E-008  0.1368572E+04  0.7818608E-02  0.9008496E-01
         -2   -1    0    0    0  501 -0.00000000000E+00  0.00000000000E+00  0.10388680497E+04  0.10388680497E+04  0.25500000000E-02 0.  1.
          2   -1    0    0  501    0  0.00000000000E+00 -0.00000000000E+00 -0.21364813130E+04  0.21364813130E+04  0.25500000000E-02 0. -1.
    8880023    1    1    2    0    0  0.11782473179E+04 -0.22563900686E+03 -0.13691610605E+04  0.19358698095E+04  0.65864270000E+03 0. -1.
    8880022    1    1    2    0    0 -0.11782473179E+04  0.22563900686E+03  0.27154779732E+03  0.12394795532E+04  0.15294330000E+03 0.  0.
<mgrwt>
<rscale>  0 0.13269068E+04</rscale>
<asrwt>0</asrwt>
<pdfrwt beam="1">  1        2 0.32868943E+00 0.13685722E+04</pdfrwt>
<pdfrwt beam="2">  1       -2 0.15982585E+00 0.13685722E+04</pdfrwt>
<totfact> 0.13532294E+00</totfact>
</mgrwt>
</event>
<event>
 4    5  0.6615028E-008  0.9310049E+03  0.7818608E-02  0.9477987E-01
         -2   -1    0    0    0  501 -0.00000000000E+00  0.00000000000E+00  0.80824593201E+03  0.80824593201E+03  0.25500000000E-02 0.  1.
          2   -1    0    0  501    0  0.00000000000E+00 -0.00000000000E+00 -0.11706985475E+04  0.11706985475E+04  0.25500000000E-02 0. -1.
    8880023    1    1    2    0    0 -0.50864943787E+03 -0.41741543083E+03 -0.75409051615E+03  0.11980912341E+04  0.65864270000E+03 0.  0.
    8880022    1    1    2    0    0  0.50864943787E+03  0.41741543083E+03  0.39163790066E+03  0.78085324536E+03  0.15294330000E+03 0.  0.
<mgrwt>
<rscale>  0 0.85926359E+03</rscale>
<asrwt>0</asrwt>
<pdfrwt beam="1">  1        2 0.18010747E+00 0.93100489E+03</pdfrwt>
<pdfrwt beam="2">  1       -2 0.12434553E+00 0.93100489E+03</pdfrwt>
<totfact> 0.95738241E+00</totfact>
</mgrwt>
</event>
<event>
 4    5  0.6615028E-008  0.7811545E+03  0.7818608E-02  0.9753132E-01
          2   -1    0    0  501    0  0.00000000000E+00  0.00000000000E+00  0.26679772492E+04  0.26679772492E+04  0.25500000000E-02 0. -1.
         -2   -1    0    0    0  501 -0.00000000000E+00 -0.00000000000E+00 -0.33403204936E+03  0.33403204937E+03  0.25500000000E-02 0.  1.
    8880023    1    1    2    0    0 -0.39662415375E+03  0.13813562205E+03  0.24233882289E+04  0.25461761297E+04  0.65864270000E+03 0. -1.
    8880022    1    1    2    0    0  0.39662415375E+03 -0.13813562205E+03 -0.89443028985E+02  0.45583316890E+03  0.15294330000E+03 0.  0.
<mgrwt>
<rscale>  0 0.67939563E+03</rscale>
<asrwt>0</asrwt>
<pdfrwt beam="1">  1        2 0.41045804E+00 0.78115451E+03</pdfrwt>
<pdfrwt beam="2">  1       -2 0.51389545E-01 0.78115451E+03</pdfrwt>
<totfact> 0.10400212E+01</totfact>
</mgrwt>
</event>
<event>
 4    5  0.6615028E-008  0.9445167E+03  0.7818608E-02  0.9458048E-01
          2   -1    0    0  501    0  0.00000000000E+00  0.00000000000E+00  0.11018069228E+04  0.11018069228E+04  0.25500000000E-02 0. -1.
         -2   -1    0    0    0  501 -0.00000000000E+00 -0.00000000000E+00 -0.82180712122E+03  0.82180712122E+03  0.25500000000E-02 0.  1.
    8880023    1    1    2    0    0 -0.63035572220E+03 -0.24688720735E+03  0.64081758810E+03  0.11413846929E+04  0.65864270000E+03 0. -1.
    8880022    1    1    2    0    0  0.63035572220E+03  0.24688720735E+03 -0.36081778653E+03  0.78222935113E+03  0.15294330000E+03 0.  0.
<mgrwt>
<rscale>  0 0.87448741E+03</rscale>
<asrwt>0</asrwt>
<pdfrwt beam="1">  1        2 0.16950876E+00 0.94451672E+03</pdfrwt>
<pdfrwt beam="2">  1       -2 0.12643187E+00 0.94451672E+03</pdfrwt>
<totfact> 0.10098158E+01</totfact>
</mgrwt>
</event>
<event>
 4    5  0.6615028E-008  0.6995658E+03  0.7818608E-02  0.9999007E-01
          2   -1    0    0  501    0  0.00000000000E+00  0.00000000000E+00  0.11327232623E+04  0.11327232623E+04  0.25500000000E-02 0. -1.
         -2   -1    0    0    0  501 -0.00000000000E+00 -0.00000000000E+00 -0.85472010938E+03  0.85472010938E+03  0.25500000000E-02 0.  1.
    8880023    1    1    2    0    0  0.20956146595E+03 -0.10800958582E+03  0.99558749513E+03  0.12167936330E+04  0.65864270000E+03 0. -1.
    8880022    1    1    2    0    0 -0.20956146595E+03  0.10800958582E+03 -0.71758434216E+03  0.77064973871E+03  0.15294330000E+03 0.  0.
<mgrwt>
<rscale>  0 0.55693787E+03</rscale>
<asrwt>0</asrwt>
<pdfrwt beam="1">  1        2 0.17426512E+00 0.69956578E+03</pdfrwt>
<pdfrwt beam="2">  1       -2 0.13149540E+00 0.69956578E+03</pdfrwt>
<totfact> 0.90030158E+00</totfact>
</mgrwt>
</event>
<event>
 4    5  0.6615028E-008  0.8960164E+03  0.7818608E-02  0.9532457E-01
         -2   -1    0    0    0  501 -0.00000000000E+00  0.00000000000E+00  0.81937945638E+03  0.81937945639E+03  0.25500000000E-02 0.  1.
          2   -1    0    0  501    0  0.00000000000E+00 -0.00000000000E+00 -0.16987639560E+04  0.16987639560E+04  0.25500000000E-02 0. -1.
    8880023    1    1    2    0    0 -0.48869990746E+03  0.36084280872E+03 -0.14277354093E+04  0.16856078243E+04  0.65864270000E+03 0.  0.
    8880022    1    1    2    0    0  0.48869990746E+03 -0.36084280872E+03  0.54835090972E+03  0.83253558805E+03  0.15294330000E+03 0.  0.
<mgrwt>
<rscale>  0 0.81932610E+03</rscale>
<asrwt>0</asrwt>
<pdfrwt beam="1">  1        2 0.26134830E+00 0.89601637E+03</pdfrwt>
<pdfrwt beam="2">  1       -2 0.12605838E+00 0.89601637E+03</pdfrwt>
<totfact> 0.46483043E+00</totfact>
</mgrwt>
</event>
<event>
 4    5  0.6615028E-008  0.7152283E+03  0.7818608E-02  0.9939075E-01
         -2   -1    0    0    0  501 -0.00000000000E+00  0.00000000000E+00  0.15372478623E+03  0.15372478626E+03  0.25500000000E-02 0.  1.
          2   -1    0    0  501    0  0.00000000000E+00 -0.00000000000E+00 -0.23229799505E+04  0.23229799505E+04  0.25500000000E-02 0. -1.
    8880023    1    1    2    0    0  0.85660334316E+02 -0.26533673726E+03 -0.19832752907E+04  0.21083008234E+04  0.65864270000E+03 0.  0.
    8880022    1    1    2    0    0 -0.85660334316E+02  0.26533673726E+03 -0.18597987366E+03  0.36840391344E+03  0.15294330000E+03 0.  0.
<mgrwt>
<rscale>  0 0.58404334E+03</rscale>
<asrwt>0</asrwt>
<pdfrwt beam="1">  1        2 0.35738151E+00 0.71522827E+03</pdfrwt>
<pdfrwt beam="2">  1       -2 0.23649969E-01 0.71522827E+03</pdfrwt>
<totfact> 0.72435589E+01</totfact>
</mgrwt>
</event>
<event>
 4    5  0.6615028E-008  0.6876854E+03  0.7818608E-02  0.1005273E+00
          2   -1    0    0  501    0  0.00000000000E+00  0.00000000000E+00  0.14859662616E+04  0.14859662616E+04  0.25500000000E-02 0. -1.
         -2   -1    0    0    0  501 -0.00000000000E+00 -0.00000000000E+00 -0.25792610769E+03  0.25792610770E+03  0.25500000000E-02 0.  1.
    8880023    1    1    2    0    0  0.65181696752E+02 -0.18668772904E+03  0.13110707149E+04  0.14804788373E+04  0.65864270000E+03 0. -1.
    8880022    1    1    2    0    0 -0.65181696752E+02  0.18668772904E+03 -0.83030561047E+02  0.26341353201E+03  0.15294330000E+03 0.  0.
<mgrwt>
<rscale>  0 0.53397500E+03</rscale>
<asrwt>0</asrwt>
<pdfrwt beam="1">  1        2 0.22861020E+00 0.68768537E+03</pdfrwt>
<pdfrwt beam="2">  1       -2 0.39680939E-01 0.68768537E+03</pdfrwt>
<totfact> 0.79663475E+01</totfact>
</mgrwt>
</event>
<event>
 4    5  0.6615028E-008  0.1073055E+04  0.7818608E-02  0.9291666E-01
         -2   -1    0    0    0  501 -0.00000000000E+00  0.00000000000E+00  0.99189606486E+03  0.99189606486E+03  0.25500000000E-02 0.  1.
          2   -1    0    0  501    0  0.00000000000E+00 -0.00000000000E+00 -0.25308196543E+04  0.25308196543E+04  0.25500000000E-02 0. -1.
    8880023    1    1    2    0    0  0.81515282458E+03  0.23056932880E+03 -0.21930873313E+04  0.24415320173E+04  0.65864270000E+03 0. -1.
    8880022    1    1    2    0    0 -0.81515282458E+03 -0.23056932880E+03  0.65416374188E+03  0.10811837018E+04  0.15294330000E+03 0.  0.
<mgrwt>
<rscale>  0 0.10155370E+04</rscale>
<asrwt>0</asrwt>
<pdfrwt beam="1">  1        2 0.38935687E+00 0.10730548E+04</pdfrwt>
<pdfrwt beam="2">  1       -2 0.15259940E+00 0.10730548E+04</pdfrwt>
<totfact> 0.95153009E-01</totfact>
</mgrwt>
</event>
<event>
 4    5  0.6615028E-008  0.1306509E+04  0.7818608E-02  0.9059959E-01
          2   -1    0    0  501    0  0.00000000000E+00  0.00000000000E+00  0.92467010553E+03  0.92467010553E+03  0.25500000000E-02 0. -1.
         -2   -1    0    0    0  501 -0.00000000000E+00 -0.00000000000E+00 -0.18753559134E+04  0.18753559134E+04  0.25500000000E-02 0.  1.
    8880023    1    1    2    0    0  0.57286726421E+03 -0.97209981023E+03  0.15630868079E+02  0.13066022630E+04  0.65864270000E+03 0.  0.
    8880022    1    1    2    0    0 -0.57286726421E+03  0.97209981023E+03 -0.96631667593E+03  0.14934237559E+04  0.15294330000E+03 0.  0.
<mgrwt>
<rscale>  0 0.12623587E+04</rscale>
<asrwt>0</asrwt>
<pdfrwt beam="1">  1        2 0.14225694E+00 0.13065088E+04</pdfrwt>
<pdfrwt beam="2">  1       -2 0.28851629E+00 0.13065088E+04</pdfrwt>
<totfact> 0.10194751E+00</totfact>
</mgrwt>
</event>
<event>
 4    5  0.6615028E-008  0.7596936E+03  0.7818608E-02  0.9805901E-01
         -2   -1    0    0    0  501 -0.00000000000E+00  0.00000000000E+00  0.63014438651E+03  0.63014438651E+03  0.25500000000E-02 0.  1.
          2   -1    0    0  501    0  0.00000000000E+00 -0.00000000000E+00 -0.11947872091E+04  0.11947872091E+04  0.25500000000E-02 0. -1.
    8880023    1    1    2    0    0 -0.32536877901E+03  0.19354422371E+03 -0.98167312887E+03  0.12412963172E+04  0.65864270000E+03 0.  0.
    8880022    1    1    2    0    0  0.32536877901E+03 -0.19354422371E+03  0.41703030625E+03  0.58363527844E+03  0.15294330000E+03 0.  0.
<mgrwt>
<rscale>  0 0.65046807E+03</rscale>
<asrwt>0</asrwt>
<pdfrwt beam="1">  1        2 0.18381342E+00 0.75969363E+03</pdfrwt>
<pdfrwt beam="2">  1       -2 0.96945290E-01 0.75969363E+03</pdfrwt>
<totfact> 0.17261051E+01</totfact>
</mgrwt>
</event>
<event>
 4    5  0.6615028E-008  0.7021751E+03  0.7818608E-02  0.9988295E-01
         -2   -1    0    0    0  501 -0.00000000000E+00  0.00000000000E+00  0.46190140070E+03  0.46190140070E+03  0.25500000000E-02 0.  1.
          2   -1    0    0  501    0  0.00000000000E+00 -0.00000000000E+00 -0.22577271021E+04  0.22577271021E+04  0.25500000000E-02 0. -1.
    8880023    1    1    2    0    0  0.22256098867E+03  0.98520338547E+02 -0.21509972012E+04  0.22627060827E+04  0.65864270000E+03 0. -1.
    8880022    1    1    2    0    0 -0.22256098867E+03 -0.98520338547E+02  0.35517149976E+03  0.45692242016E+03  0.15294330000E+03 0.  0.
<mgrwt>
<rscale>  0 0.56166471E+03</rscale>
<asrwt>0</asrwt>
<pdfrwt beam="1">  1        2 0.34734262E+00 0.70217509E+03</pdfrwt>
<pdfrwt beam="2">  1       -2 0.71061755E-01 0.70217509E+03</pdfrwt>
<totfact> 0.90515325E+00</totfact>
</mgrwt>
</event>
<event>
 4    5  0.6615028E-008  0.7979653E+03  0.7818608E-02  0.9715213E-01
          2   -1    0    0  501    0  0.00000000000E+00  0.00000000000E+00  0.56144663897E+03  0.56144663897E+03  0.25500000000E-02 0. -1.
         -2   -1    0    0    0  501 -0.00000000000E+00 -0.00000000000E+00 -0.24476676531E+04  0.24476676531E+04  0.25500000000E-02 0.  1.
    8880023    1    1    2    0    0  0.39091416891E+03 -0.22388492017E+03  0.23765869151E+03  0.83260447083E+03  0.65864270000E+03 0.  0.
    8880022    1    1    2    0    0 -0.39091416891E+03  0.22388492017E+03 -0.21238797056E+04  0.21765098212E+04  0.15294330000E+03 0.  0.
<mgrwt>
<rscale>  0 0.70118199E+03</rscale>
<asrwt>0</asrwt>
<pdfrwt beam="1">  1        2 0.86376407E-01 0.79796526E+03</pdfrwt>
<pdfrwt beam="2">  1       -2 0.37656425E+00 0.79796526E+03</pdfrwt>
<totfact> 0.59476328E-01</totfact>
</mgrwt>
</event>
<event>
 4    5  0.6615028E-008  0.1224889E+04  0.7818608E-02  0.9133300E-01
         -2   -1    0    0    0  501 -0.00000000000E+00  0.00000000000E+00  0.20523624494E+04  0.20523624494E+04  0.25500000000E-02 0.  1.
          2   -1    0    0  501    0  0.00000000000E+00 -0.00000000000E+00 -0.16552127103E+04  0.16552127103E+04  0.25500000000E-02 0. -1.
    8880023    1    1    2    0    0 -0.22332043585E+01 -0.10327337487E+04 -0.12547029606E+04  0.17534633468E+04  0.65864270000E+03 0.  0.
    8880022    1    1    2    0    0  0.22332043585E+01  0.10327337487E+04  0.16518526997E+04  0.19541118130E+04  0.15294330000E+03 0.  0.
<mgrwt>
<rscale>  0 0.11769223E+04</rscale>
<asrwt>0</asrwt>
<pdfrwt beam="1">  1        2 0.25464811E+00 0.12248895E+04</pdfrwt>
<pdfrwt beam="2">  1       -2 0.31574807E+00 0.12248895E+04</pdfrwt>
<totfact> 0.25722612E-01</totfact>
</mgrwt>
</event>
<event>
 4    5  0.6615028E-008  0.6981137E+03  0.7818608E-02  0.1000512E+00
          2   -1    0    0  501    0  0.00000000000E+00  0.00000000000E+00  0.40011573624E+03  0.40011573625E+03  0.25500000000E-02 0. -1.
         -2   -1    0    0    0  501 -0.00000000000E+00 -0.00000000000E+00 -0.11669557927E+04  0.11669557927E+04  0.25500000000E-02 0.  1.
    8880023    1    1    2    0    0 -0.20954804187E+02  0.23046338522E+03  0.54419632278E+02  0.70023151770E+03  0.65864270000E+03 0. -1.
    8880022    1    1    2    0    0  0.20954804187E+02 -0.23046338522E+03 -0.82125968876E+03  0.86684001127E+03  0.15294330000E+03 0.  0.
<mgrwt>
<rscale>  0 0.55426383E+03</rscale>
<asrwt>0</asrwt>
<pdfrwt beam="1">  1        2 0.61556268E-01 0.69811366E+03</pdfrwt>
<pdfrwt beam="2">  1       -2 0.17953166E+00 0.69811366E+03</pdfrwt>
<totfact> 0.14823682E+01</totfact>
</mgrwt>
</event>
<event>
 4    5  0.6615028E-008  0.1032429E+04  0.7818608E-02  0.9340309E-01
         -2   -1    0    0    0  501 -0.00000000000E+00  0.00000000000E+00  0.12053015107E+04  0.12053015107E+04  0.25500000000E-02 0.  1.
          2   -1    0    0  501    0  0.00000000000E+00 -0.00000000000E+00 -0.28149759927E+04  0.28149759927E+04  0.25500000000E-02 0. -1.
    8880023    1    1    2    0    0 -0.65227385840E+03  0.45457373378E+03 -0.25667986022E+04  0.27666520808E+04  0.65864270000E+03 0. -1.
    8880022    1    1    2    0    0  0.65227385840E+03 -0.45457373378E+03  0.95712412020E+03  0.12536254226E+04  0.15294330000E+03 0.  0.
<mgrwt>
<rscale>  0 0.97155137E+03</rscale>
<asrwt>0</asrwt>
<pdfrwt beam="1">  1        2 0.43307323E+00 0.10324285E+04</pdfrwt>
<pdfrwt beam="2">  1       -2 0.18543100E+00 0.10324285E+04</pdfrwt>
<totfact> 0.37941674E-01</totfact>
</mgrwt>
</event>
<event>
 4    5  0.6615028E-008  0.1004311E+04  0.7818608E-02  0.9375939E-01
         -2   -1    0    0    0  501 -0.00000000000E+00  0.00000000000E+00  0.95326036221E+03  0.95326036222E+03  0.25500000000E-02 0.  1.
          2   -1    0    0  501    0  0.00000000000E+00 -0.00000000000E+00 -0.16253976918E+04  0.16253976918E+04  0.25500000000E-02 0. -1.
    8880023    1    1    2    0    0  0.49811595286E+03 -0.57158598898E+03 -0.12570246792E+04  0.16089596936E+04  0.65864270000E+03 0.  0.
    8880022    1    1    2    0    0 -0.49811595286E+03  0.57158598898E+03  0.58488734966E+03  0.96969836037E+03  0.15294330000E+03 0.  0.
<mgrwt>
<rscale>  0 0.94082507E+03</rscale>
<asrwt>0</asrwt>
<pdfrwt beam="1">  1        2 0.25006118E+00 0.10043108E+04</pdfrwt>
<pdfrwt beam="2">  1       -2 0.14665544E+00 0.10043108E+04</pdfrwt>
<totfact> 0.34092646E+00</totfact>
</mgrwt>
</event>
<event>
 4    5  0.6615028E-008  0.7422421E+03  0.7818608E-02  0.9853463E-01
         -2   -1    0    0    0  501 -0.00000000000E+00  0.00000000000E+00  0.18482540351E+03  0.18482540353E+03  0.25500000000E-02 0.  1.
          2   -1    0    0  501    0  0.00000000000E+00 -0.00000000000E+00 -0.20595122677E+04  0.20595122677E+04  0.25500000000E-02 0. -1.
    8880023    1    1    2    0    0 -0.17036448508E+03  0.29679806950E+03 -0.16450552310E+04  0.18047520802E+04  0.65864270000E+03 0. -1.
    8880022    1    1    2    0    0  0.17036448508E+03 -0.29679806950E+03 -0.22963163321E+03  0.43958559101E+03  0.15294330000E+03 0.  0.
<mgrwt>
<rscale>  0 0.62570639E+03</rscale>
<asrwt>0</asrwt>
<pdfrwt beam="1">  1        2 0.31684803E+00 0.74224212E+03</pdfrwt>
<pdfrwt beam="2">  1       -2 0.28434679E-01 0.74224212E+03</pdfrwt>
<totfact> 0.72196445E+01</totfact>
</mgrwt>
</event>
<event>
 4    5  0.6615031E-008  0.1017433E+04  0.7818608E-02  0.9359097E-01
         -2   -1    0    0    0  501 -0.00000000000E+00  0.00000000000E+00  0.11418488397E+04  0.11418488397E+04  0.25500000000E-02 0.  1.
          2   -1    0    0  501    0  0.00000000000E+00 -0.00000000000E+00 -0.27395558092E+04  0.27395558092E+04  0.25500000000E-02 0. -1.
    8880023    1    1    2    0    0  0.39577687968E+03 -0.66687312311E+03 -0.24897181821E+04  0.26895847139E+04  0.65864270000E+03 0. -1.
    8880022    1    1    2    0    0 -0.39577687968E+03  0.66687312311E+03  0.89201121262E+03  0.11918199349E+04  0.15294330000E+03 0.  0.
<mgrwt>
<rscale>  0 0.95519627E+03</rscale>
<asrwt>0</asrwt>
<pdfrwt beam="1">  1        2 0.42147012E+00 0.10174327E+04</pdfrwt>
<pdfrwt beam="2">  1       -2 0.17566905E+00 0.10174327E+04</pdfrwt>
<totfact> 0.49249062E-01</totfact>
</mgrwt>
</event>
<event>
 4    5  0.6615028E-008  0.8617307E+03  0.7818608E-02  0.9590492E-01
          2   -1    0    0  501    0  0.00000000000E+00  0.00000000000E+00  0.18793721326E+04  0.18793721326E+04  0.25500000000E-02 0. -1.
         -2   -1    0    0    0  501 -0.00000000000E+00 -0.00000000000E+00 -0.36580845655E+03  0.36580845656E+03  0.25500000000E-02 0.  1.
    8880023    1    1    2    0    0  0.55565435311E+03  0.42319627249E+01  0.14204074429E+04  0.16613660583E+04  0.65864270000E+03 0.  0.
    8880022    1    1    2    0    0 -0.55565435311E+03 -0.42319627249E+01  0.93156233149E+02  0.58381453085E+03  0.15294330000E+03 0.  0.
<mgrwt>
<rscale>  0 0.77928681E+03</rscale>
<asrwt>0</asrwt>
<pdfrwt beam="1">  1        2 0.28913417E+00 0.86173074E+03</pdfrwt>
<pdfrwt beam="2">  1       -2 0.56278224E-01 0.86173074E+03</pdfrwt>
<totfact> 0.23495888E+01</totfact>
</mgrwt>
</event>
<event>
 4    5  0.6615028E-008  0.7627360E+03  0.7818608E-02  0.9798075E-01
          2   -1    0    0  501    0  0.00000000000E+00  0.00000000000E+00  0.28611074084E+03  0.28611074085E+03  0.25500000000E-02 0. -1.
         -2   -1    0    0    0  501 -0.00000000000E+00 -0.00000000000E+00 -0.25882990383E+04  0.25882990383E+04  0.25500000000E-02 0.  1.
    8880023    1    1    2    0    0 -0.38435007998E+03 -0.15198121533E+02 -0.28350119134E+03  0.81371929966E+03  0.65864270000E+03 0.  0.
    8880022    1    1    2    0    0  0.38435007998E+03  0.15198121533E+02 -0.20186871061E+04  0.20606904795E+04  0.15294330000E+03 0.  0.
<mgrwt>
<rscale>  0 0.65465944E+03</rscale>
<asrwt>0</asrwt>
<pdfrwt beam="1">  1        2 0.44017039E-01 0.76273598E+03</pdfrwt>
<pdfrwt beam="2">  1       -2 0.39819984E+00 0.76273598E+03</pdfrwt>
<totfact> 0.93491175E-01</totfact>
</mgrwt>
</event>
<event>
 4    5  0.6615028E-008  0.1192529E+04  0.7818608E-02  0.9164419E-01
         -2   -1    0    0    0  501 -0.00000000000E+00  0.00000000000E+00  0.94822066633E+03  0.94822066634E+03  0.25500000000E-02 0.  1.
          2   -1    0    0  501    0  0.00000000000E+00 -0.00000000000E+00 -0.18435834685E+04  0.18435834685E+04  0.25500000000E-02 0. -1.
    8880023    1    1    2    0    0  0.90118497772E+03 -0.41974009397E+03 -0.12477931665E+04  0.17260110380E+04  0.65864270000E+03 0.  0.
    8880022    1    1    2    0    0 -0.90118497772E+03  0.41974009397E+03  0.35243036437E+03  0.10657930969E+04  0.15294330000E+03 0.  0.
<mgrwt>
<rscale>  0 0.11428354E+04</rscale>
<asrwt>0</asrwt>
<pdfrwt beam="1">  1        2 0.28362823E+00 0.11925294E+04</pdfrwt>
<pdfrwt beam="2">  1       -2 0.14588010E+00 0.11925294E+04</pdfrwt>
<totfact> 0.25627894E+00</totfact>
</mgrwt>
</event>
<event>
 4    5  0.6615028E-008  0.9658620E+03  0.7818608E-02  0.9427650E-01
          2   -1    0    0  501    0  0.00000000000E+00  0.00000000000E+00  0.55348505003E+03  0.55348505004E+03  0.25500000000E-02 0. -1.
         -2   -1    0    0    0  501 -0.00000000000E+00 -0.00000000000E+00 -0.25084618755E+04  0.25084618755E+04  0.25500000000E-02 0.  1.
    8880023    1    1    2    0    0  0.16415806596E+03  0.68711806219E+03  0.12449195453E+02  0.96594217774E+03  0.65864270000E+03 0.  0.
    8880022    1    1    2    0    0 -0.16415806596E+03 -0.68711806219E+03 -0.19674260209E+04  0.20960047478E+04  0.15294330000E+03 0.  0.
<mgrwt>
<rscale>  0 0.89834683E+03</rscale>
<asrwt>0</asrwt>
<pdfrwt beam="1">  1        2 0.85151548E-01 0.96586195E+03</pdfrwt>
<pdfrwt beam="2">  1       -2 0.38591720E+00 0.96586195E+03</pdfrwt>
<totfact> 0.51271931E-01</totfact>
</mgrwt>
</event>
<event>
 4    5  0.6615028E-008  0.8186159E+03  0.7818608E-02  0.9671902E-01
          2   -1    0    0  501    0  0.00000000000E+00  0.00000000000E+00  0.28508571811E+04  0.28508571811E+04  0.25500000000E-02 0. -1.
         -2   -1    0    0    0  501 -0.00000000000E+00 -0.00000000000E+00 -0.27278866484E+03  0.27278866485E+03  0.25500000000E-02 0.  1.
    8880023    1    1    2    0    0  0.38949167730E+03 -0.29089176277E+03  0.24707703247E+04  0.26028518951E+04  0.65864270000E+03 0. -1.
    8880022    1    1    2    0    0 -0.38949167730E+03  0.29089176277E+03  0.10729819164E+03  0.52079395088E+03  0.15294330000E+03 0.  0.
<mgrwt>
<rscale>  0 0.72714653E+03</rscale>
<asrwt>0</asrwt>
<pdfrwt beam="1">  1        2 0.43859343E+00 0.81861590E+03</pdfrwt>
<pdfrwt beam="2">  1       -2 0.41967485E-01 0.81861590E+03</pdfrwt>
<totfact> 0.12119010E+01</totfact>
</mgrwt>
</event>
<event>
 4    5  0.6615028E-008  0.1634469E+04  0.7818608E-02  0.8820091E-01
          2   -1    0    0  501    0  0.00000000000E+00  0.00000000000E+00  0.21353040660E+04  0.21353040660E+04  0.25500000000E-02 0. -1.
         -2   -1    0    0    0  501 -0.00000000000E+00 -0.00000000000E+00 -0.21997995218E+04  0.21997995218E+04  0.25500000000E-02 0.  1.
    8880023    1    1    2    0    0 -0.14765546376E+04  0.23971961444E+03  0.14616034860E+04  0.21926636878E+04  0.65864270000E+03 0.  0.
    8880022    1    1    2    0    0  0.14765546376E+04 -0.23971961444E+03 -0.15260989418E+04  0.21424398999E+04  0.15294330000E+03 0.  0.
<mgrwt>
<rscale>  0 0.16007437E+04</rscale>
<asrwt>0</asrwt>
<pdfrwt beam="1">  1        2 0.32850832E+00 0.16344691E+04</pdfrwt>
<pdfrwt beam="2">  1       -2 0.33843070E+00 0.16344691E+04</pdfrwt>
<totfact> 0.95326931E-02</totfact>
</mgrwt>
</event>
<event>
 4    5  0.7152051E-008  0.2762421E+04  0.7818608E-02  0.8321060E-01
         -2   -1    0    0    0  501 -0.00000000000E+00  0.00000000000E+00  0.29956567196E+04  0.29956567196E+04  0.25500000000E-02 0.  1.
          2   -1    0    0  501    0  0.00000000000E+00 -0.00000000000E+00 -0.35078029870E+04  0.35078029870E+04  0.25500000000E-02 0. -1.
    8880023    1    1    2    0    0 -0.16401830958E+04  0.21229596640E+04 -0.20200096850E+04  0.34221933985E+04  0.65864270000E+03 0.  0.
    8880022    1    1    2    0    0  0.16401830958E+04 -0.21229596640E+04  0.15078634177E+04  0.30812663082E+04  0.15294330000E+03 0.  0.
<mgrwt>
<rscale>  0 0.27433970E+04</rscale>
<asrwt>0</asrwt>
<pdfrwt beam="1">  1        2 0.53966199E+00 0.27624208E+04</pdfrwt>
<pdfrwt beam="2">  1       -2 0.46087027E+00 0.27624208E+04</pdfrwt>
<totfact> 0.19010605E-03</totfact>
</mgrwt>
</event>
<event>
 4    5  0.6615028E-008  0.1008095E+04  0.7818608E-02  0.9371043E-01
         -2   -1    0    0    0  501 -0.00000000000E+00  0.00000000000E+00  0.93772476916E+03  0.93772476916E+03  0.25500000000E-02 0.  1.
          2   -1    0    0  501    0  0.00000000000E+00 -0.00000000000E+00 -0.17922083862E+04  0.17922083862E+04  0.25500000000E-02 0. -1.
    8880023    1    1    2    0    0  0.22082975502E+03  0.73053306923E+03 -0.14386902192E+04  0.17567253909E+04  0.65864270000E+03 0.  0.
    8880022    1    1    2    0    0 -0.22082975502E+03 -0.73053306923E+03  0.58420660211E+03  0.97320776451E+03  0.15294330000E+03 0.  0.
<mgrwt>
<rscale>  0 0.94497501E+03</rscale>
<asrwt>0</asrwt>
<pdfrwt beam="1">  1        2 0.27572437E+00 0.10080945E+04</pdfrwt>
<pdfrwt beam="2">  1       -2 0.14426535E+00 0.10080945E+04</pdfrwt>
<totfact> 0.28778584E+00</totfact>
</mgrwt>
</event>
<event>
 4    5  0.6615028E-008  0.8912785E+03  0.7818608E-02  0.9540180E-01
          2   -1    0    0  501    0  0.00000000000E+00  0.00000000000E+00  0.18497626886E+04  0.18497626887E+04  0.25500000000E-02 0. -1.
         -2   -1    0    0    0  501 -0.00000000000E+00 -0.00000000000E+00 -0.96163441427E+03  0.96163441427E+03  0.25500000000E-02 0.  1.
    8880023    1    1    2    0    0 -0.54038603035E+03  0.26182066160E+03  0.16221027290E+04  0.18508361868E+04  0.65864270000E+03 0.  0.
    8880022    1    1    2    0    0  0.54038603035E+03 -0.26182066160E+03 -0.73397445459E+03  0.96056091615E+03  0.15294330000E+03 0.  0.
<mgrwt>
<rscale>  0 0.81385238E+03</rscale>
<asrwt>0</asrwt>
<pdfrwt beam="1">  1        2 0.28457887E+00 0.89127848E+03</pdfrwt>
<pdfrwt beam="2">  1       -2 0.14794376E+00 0.89127848E+03</pdfrwt>
<totfact> 0.25438824E+00</totfact>
</mgrwt>
</event>
<event>
 4    5  0.6615028E-008  0.6612452E+03  0.7818608E-02  0.1022915E+00
         -2   -1    0    0    0  501 -0.00000000000E+00  0.00000000000E+00  0.62999563585E+03  0.62999563585E+03  0.25500000000E-02 0.  1.
          2   -1    0    0  501    0  0.00000000000E+00 -0.00000000000E+00 -0.15382923466E+04  0.15382923466E+04  0.25500000000E-02 0. -1.
    8880023    1    1    2    0    0  0.53280217866E+02  0.24417698049E+02 -0.14546619666E+04  0.15979007005E+04  0.65864270000E+03 0. -1.
    8880022    1    1    2    0    0 -0.53280217866E+02 -0.24417698049E+02  0.54636525581E+03  0.57038728191E+03  0.15294330000E+03 0.  0.
<mgrwt>
<rscale>  0 0.46649041E+03</rscale>
<asrwt>0</asrwt>
<pdfrwt beam="1">  1        2 0.23666036E+00 0.66124520E+03</pdfrwt>
<pdfrwt beam="2">  1       -2 0.96922406E-01 0.66124520E+03</pdfrwt>
<totfact> 0.11153811E+01</totfact>
</mgrwt>
</event>
<event>
 4    5  0.6615028E-008  0.1205684E+04  0.7818608E-02  0.9151617E-01
          2   -1    0    0  501    0  0.00000000000E+00  0.00000000000E+00  0.23470887091E+04  0.23470887091E+04  0.25500000000E-02 0. -1.
         -2   -1    0    0    0  501 -0.00000000000E+00 -0.00000000000E+00 -0.18709923178E+04  0.18709923178E+04  0.25500000000E-02 0.  1.
    8880023    1    1    2    0    0  0.96816440631E+03 -0.28726505296E+03  0.20285206590E+04  0.23597817269E+04  0.65864270000E+03 0.  0.
    8880022    1    1    2    0    0 -0.96816440631E+03  0.28726505296E+03 -0.15524242677E+04  0.18582993000E+04  0.15294330000E+03 0.  0.
<mgrwt>
<rscale>  0 0.11567085E+04</rscale>
<asrwt>0</asrwt>
<pdfrwt beam="1">  1        2 0.36109057E+00 0.12056839E+04</pdfrwt>
<pdfrwt beam="2">  1       -2 0.28784497E+00 0.12056839E+04</pdfrwt>
<totfact> 0.15717722E-01</totfact>
</mgrwt>
</event>
<event>
 4    5  0.6615028E-008  0.7173610E+03  0.7818608E-02  0.9931619E-01
          2   -1    0    0  501    0  0.00000000000E+00  0.00000000000E+00  0.82021786571E+03  0.82021786572E+03  0.25500000000E-02 0. -1.
         -2   -1    0    0    0  501 -0.00000000000E+00 -0.00000000000E+00 -0.43930105235E+03  0.43930105236E+03  0.25500000000E-02 0.  1.
    8880023    1    1    2    0    0 -0.26797724104E+03 -0.94788215228E+02  0.54169561531E+03  0.89891098190E+03  0.65864270000E+03 0. -1.
    8880022    1    1    2    0    0  0.26797724104E+03  0.94788215228E+02 -0.16077880195E+03  0.36060793618E+03  0.15294330000E+03 0.  0.
<mgrwt>
<rscale>  0 0.58753085E+03</rscale>
<asrwt>0</asrwt>
<pdfrwt beam="1">  1        2 0.12618736E+00 0.71736101E+03</pdfrwt>
<pdfrwt beam="2">  1       -2 0.67584778E-01 0.71736101E+03</pdfrwt>
<totfact> 0.67909918E+01</totfact>
</mgrwt>
</event>
<event>
 4    5  0.6615028E-008  0.8660826E+03  0.7818608E-02  0.9582834E-01
          2   -1    0    0  501    0  0.00000000000E+00  0.00000000000E+00  0.43333862678E+04  0.43333862678E+04  0.25500000000E-02 0. -1.
         -2   -1    0    0    0  501 -0.00000000000E+00 -0.00000000000E+00 -0.23497669272E+03  0.23497669273E+03  0.25500000000E-02 0.  1.
    8880023    1    1    2    0    0 -0.40279315655E+03  0.39248756433E+03  0.38300040798E+04  0.39267073068E+04  0.65864270000E+03 0.  0.
    8880022    1    1    2    0    0  0.40279315655E+03 -0.39248756433E+03  0.26840549523E+03  0.64165565376E+03  0.15294330000E+03 0.  0.
<mgrwt>
<rscale>  0 0.78442838E+03</rscale>
<asrwt>0</asrwt>
<pdfrwt beam="1">  1        2 0.66667480E+00 0.86608257E+03</pdfrwt>
<pdfrwt beam="2">  1       -2 0.36150261E-01 0.86608257E+03</pdfrwt>
<totfact> 0.13973771E+00</totfact>
</mgrwt>
</event>
<event>
 4    5  0.8470829E-008  0.1203802E+04  0.7818608E-02  0.9153435E-01
          2   -1    0    0  501    0  0.00000000000E+00  0.00000000000E+00  0.24165788206E+04  0.24165788206E+04  0.25500000000E-02 0. -1.
         -2   -1    0    0    0  501 -0.00000000000E+00 -0.00000000000E+00 -0.15319792272E+04  0.15319792272E+04  0.25500000000E-02 0.  1.
    8880023    1    1    2    0    0 -0.64509508764E+03 -0.77406794624E+03  0.20642506107E+04  0.23896170504E+04  0.65864270000E+03 0. -1.
    8880022    1    1    2    0    0  0.64509508764E+03  0.77406794624E+03 -0.11796510174E+04  0.15589409974E+04  0.15294330000E+03 0.  0.
<mgrwt>
<rscale>  0 0.11547251E+04</rscale>
<asrwt>0</asrwt>
<pdfrwt beam="1">  1        2 0.37178136E+00 0.12038019E+04</pdfrwt>
<pdfrwt beam="2">  1       -2 0.23568911E+00 0.12038019E+04</pdfrwt>
<totfact> 0.29880544E-01</totfact>
</mgrwt>
</event>
<event>
 4    5  0.6615028E-008  0.6602671E+03  0.7818608E-02  0.1023884E+00
          2   -1    0    0  501    0  0.00000000000E+00  0.00000000000E+00  0.38215213514E+03  0.38215213515E+03  0.25500000000E-02 0. -1.
         -2   -1    0    0    0  501 -0.00000000000E+00 -0.00000000000E+00 -0.45990487990E+03  0.45990487991E+03  0.25500000000E-02 0.  1.
    8880023    1    1    2    0    0  0.45074265550E+02 -0.10522103206E+02  0.88046673974E+01  0.66032577755E+03  0.65864270000E+03 0. -1.
    8880022    1    1    2    0    0 -0.45074265550E+02  0.10522103206E+02 -0.86557412160E+02  0.18173123751E+03  0.15294330000E+03 0.  0.
<mgrwt>
<rscale>  0 0.46310525E+03</rscale>
<asrwt>0</asrwt>
<pdfrwt beam="1">  1        2 0.58792636E-01 0.66026708E+03</pdfrwt>
<pdfrwt beam="2">  1       -2 0.70754597E-01 0.66026708E+03</pdfrwt>
<totfact> 0.15409713E+02</totfact>
</mgrwt>
</event>
<event>
 4    5  0.6615028E-008  0.9926372E+03  0.7818608E-02  0.9391254E-01
          2   -1    0    0  501    0  0.00000000000E+00  0.00000000000E+00  0.10376830807E+04  0.10376830807E+04  0.25500000000E-02 0. -1.
         -2   -1    0    0    0  501 -0.00000000000E+00 -0.00000000000E+00 -0.81605412709E+03  0.81605412709E+03  0.25500000000E-02 0.  1.
    8880023    1    1    2    0    0  0.69566172767E+03 -0.25994857250E+03 -0.15907055764E+03  0.10053020184E+04  0.65864270000E+03 0.  0.
    8880022    1    1    2    0    0 -0.69566172767E+03  0.25994857250E+03  0.38069951127E+03  0.84843518939E+03  0.15294330000E+03 0.  0.
<mgrwt>
<rscale>  0 0.92798920E+03</rscale>
<asrwt>0</asrwt>
<pdfrwt beam="1">  1        2 0.15964355E+00 0.99263725E+03</pdfrwt>
<pdfrwt beam="2">  1       -2 0.12554679E+00 0.99263725E+03</pdfrwt>
<totfact> 0.11221588E+01</totfact>
</mgrwt>
</event>
<event>
 4    5  0.6615028E-008  0.1208159E+04  0.7818608E-02  0.9149232E-01
         -2   -1    0    0    0  501 -0.00000000000E+00  0.00000000000E+00  0.25920659504E+04  0.25920659504E+04  0.25500000000E-02 0.  1.
          2   -1    0    0  501    0  0.00000000000E+00 -0.00000000000E+00 -0.62029597385E+03  0.62029597386E+03  0.25500000000E-02 0. -1.
    8880023    1    1    2    0    0  0.98286013757E+03 -0.24458799977E+03  0.28882713306E+03  0.12422031471E+04  0.65864270000E+03 0.  0.
    8880022    1    1    2    0    0 -0.98286013757E+03  0.24458799977E+03  0.16829428435E+04  0.19701587771E+04  0.15294330000E+03 0.  0.
<mgrwt>
<rscale>  0 0.11593159E+04</rscale>
<asrwt>0</asrwt>
<pdfrwt beam="1">  1        2 0.95430149E-01 0.12081587E+04</pdfrwt>
<pdfrwt beam="2">  1       -2 0.39877938E+00 0.12081587E+04</pdfrwt>
<totfact> 0.35660775E-01</totfact>
</mgrwt>
</event>
<event>
 4    5  0.6615028E-008  0.9574590E+03  0.7818608E-02  0.9439462E-01
         -2   -1    0    0    0  501 -0.00000000000E+00  0.00000000000E+00  0.38794060115E+03  0.38794060116E+03  0.25500000000E-02 0.  1.
          2   -1    0    0  501    0  0.00000000000E+00 -0.00000000000E+00 -0.32195861860E+04  0.32195861860E+04  0.25500000000E-02 0. -1.
    8880023    1    1    2    0    0 -0.28043356778E+03 -0.63582583559E+03 -0.27246379331E+04  0.28879715289E+04  0.65864270000E+03 0. -1.
    8880022    1    1    2    0    0  0.28043356778E+03  0.63582583559E+03 -0.10700765177E+03  0.71955525826E+03  0.15294330000E+03 0.  0.
<mgrwt>
<rscale>  0 0.88898022E+03</rscale>
<asrwt>0</asrwt>
<pdfrwt beam="1">  1        2 0.49532093E+00 0.95745897E+03</pdfrwt>
<pdfrwt beam="2">  1       -2 0.59683172E-01 0.95745897E+03</pdfrwt>
<totfact> 0.34141812E+00</totfact>
</mgrwt>
</event>
<event>
 4    5  0.6615028E-008  0.1160726E+04  0.7818608E-02  0.9196278E-01
          2   -1    0    0  501    0  0.00000000000E+00  0.00000000000E+00  0.20102211259E+04  0.20102211259E+04  0.25500000000E-02 0. -1.
         -2   -1    0    0    0  501 -0.00000000000E+00 -0.00000000000E+00 -0.85871131169E+03  0.85871131169E+03  0.25500000000E-02 0.  1.
    8880023    1    1    2    0    0 -0.52727475986E+03 -0.79715511042E+03  0.14487665202E+04  0.18563969346E+04  0.65864270000E+03 0.  1.
    8880022    1    1    2    0    0  0.52727475986E+03  0.79715511042E+03 -0.29725670603E+03  0.10125355030E+04  0.15294330000E+03 0.  0.
<mgrwt>
<rscale>  0 0.11091928E+04</rscale>
<asrwt>0</asrwt>
<pdfrwt beam="1">  1        2 0.30926479E+00 0.11607261E+04</pdfrwt>
<pdfrwt beam="2">  1       -2 0.13210943E+00 0.11607261E+04</pdfrwt>
<totfact> 0.26922039E+00</totfact>
</mgrwt>
</event>
<event>
 4    5  0.6615028E-008  0.1204423E+04  0.7818608E-02  0.9152834E-01
         -2   -1    0    0    0  501 -0.00000000000E+00  0.00000000000E+00  0.55418008270E+03  0.55418008270E+03  0.25500000000E-02 0.  1.
          2   -1    0    0  501    0  0.00000000000E+00 -0.00000000000E+00 -0.25659998768E+04  0.25659998768E+04  0.25500000000E-02 0. -1.
    8880023    1    1    2    0    0  0.64792069087E+02  0.10062940281E+04 -0.16396776840E+04  0.20344971853E+04  0.65864270000E+03 0.  0.
    8880022    1    1    2    0    0 -0.64792069087E+02 -0.10062940281E+04 -0.37214211008E+03  0.10856827742E+04  0.15294330000E+03 0.  0.
<mgrwt>
<rscale>  0 0.11553802E+04</rscale>
<asrwt>0</asrwt>
<pdfrwt beam="1">  1        2 0.39476920E+00 0.12044235E+04</pdfrwt>
<pdfrwt beam="2">  1       -2 0.85258476E-01 0.12044235E+04</pdfrwt>
<totfact> 0.37584786E+00</totfact>
</mgrwt>
</event>
<event>
 4    5  0.6615028E-008  0.1053230E+04  0.7818608E-02  0.9315009E-01
         -2   -1    0    0    0  501 -0.00000000000E+00  0.00000000000E+00  0.40018924429E+03  0.40018924429E+03  0.25500000000E-02 0.  1.
          2   -1    0    0  501    0  0.00000000000E+00 -0.00000000000E+00 -0.35366134793E+04  0.35366134793E+04  0.25500000000E-02 0. -1.
    8880023    1    1    2    0    0 -0.37587339636E+03  0.73089142180E+03 -0.28735062582E+04  0.30604462915E+04  0.65864270000E+03 0.  0.
    8880022    1    1    2    0    0  0.37587339636E+03 -0.73089142180E+03 -0.26291797673E+03  0.87635643209E+03  0.15294330000E+03 0.  0.
<mgrwt>
<rscale>  0 0.99412801E+03</rscale>
<asrwt>0</asrwt>
<pdfrwt beam="1">  1        2 0.54409436E+00 0.10532299E+04</pdfrwt>
<pdfrwt beam="2">  1       -2 0.61567578E-01 0.10532299E+04</pdfrwt>
<totfact> 0.19327402E+00</totfact>
</mgrwt>
</event>
<event>
 4    5  0.6615028E-008  0.1101715E+04  0.7818608E-02  0.9259149E-01
          2   -1    0    0  501    0  0.00000000000E+00  0.00000000000E+00  0.32033817664E+04  0.32033817664E+04  0.25500000000E-02 0. -1.
         -2   -1    0    0    0  501 -0.00000000000E+00 -0.00000000000E+00 -0.38366857607E+03  0.38366857607E+03  0.25500000000E-02 0.  1.
    8880023    1    1    2    0    0 -0.75685229106E+03 -0.45512702870E+03  0.23017987073E+04  0.25518725474E+04  0.65864270000E+03 0.  0.
    8880022    1    1    2    0    0  0.75685229106E+03  0.45512702870E+03  0.51791448299E+03  0.10351777951E+04  0.15294330000E+03 0.  0.
<mgrwt>
<rscale>  0 0.10463226E+04</rscale>
<asrwt>0</asrwt>
<pdfrwt beam="1">  1        2 0.49282797E+00 0.11017151E+04</pdfrwt>
<pdfrwt beam="2">  1       -2 0.59025934E-01 0.11017151E+04</pdfrwt>
<totfact> 0.35049601E+00</totfact>
</mgrwt>
</event>
<event>
 4    5  0.6615028E-008  0.9587568E+03  0.7818608E-02  0.9437625E-01
          2   -1    0    0  501    0  0.00000000000E+00  0.00000000000E+00  0.14323664410E+04  0.14323664410E+04  0.25500000000E-02 0. -1.
         -2   -1    0    0    0  501 -0.00000000000E+00 -0.00000000000E+00 -0.15649165133E+04  0.15649165133E+04  0.25500000000E-02 0.  1.
    8880023    1    1    2    0    0  0.65903023119E+03  0.22601651983E+03  0.11697343569E+04  0.15124460271E+04  0.65864270000E+03 0.  0.
    8880022    1    1    2    0    0 -0.65903023119E+03 -0.22601651983E+03 -0.13022844292E+04  0.14848369272E+04  0.15294330000E+03 0.  0.
<mgrwt>
<rscale>  0 0.89042898E+03</rscale>
<asrwt>0</asrwt>
<pdfrwt beam="1">  1        2 0.22036407E+00 0.95875676E+03</pdfrwt>
<pdfrwt beam="2">  1       -2 0.24075639E+00 0.95875676E+03</pdfrwt>
<totfact> 0.10190249E+00</totfact>
</mgrwt>
</event>
<event>
 4    5  0.6615028E-008  0.1185922E+04  0.7818608E-02  0.9170930E-01
         -2   -1    0    0    0  501 -0.00000000000E+00  0.00000000000E+00  0.96059498257E+03  0.96059498257E+03  0.25500000000E-02 0.  1.
          2   -1    0    0  501    0  0.00000000000E+00 -0.00000000000E+00 -0.13876373210E+04  0.13876373210E+04  0.25500000000E-02 0. -1.
    8880023    1    1    2    0    0  0.42304819001E+03  0.89085956660E+03 -0.60999724886E+03  0.13336069092E+04  0.65864270000E+03 0.  0.
    8880022    1    1    2    0    0 -0.42304819001E+03 -0.89085956660E+03  0.18295491048E+03  0.10146253943E+04  0.15294330000E+03 0.  0.
<mgrwt>
<rscale>  0 0.11358580E+04</rscale>
<asrwt>0</asrwt>
<pdfrwt beam="1">  1        2 0.21348267E+00 0.11859219E+04</pdfrwt>
<pdfrwt beam="2">  1       -2 0.14778384E+00 0.11859219E+04</pdfrwt>
<totfact> 0.44635659E+00</totfact>
</mgrwt>
</event>
<event>
 4    5  0.6615028E-008  0.8432068E+03  0.7818608E-02  0.9624163E-01
          2   -1    0    0  501    0  0.00000000000E+00  0.00000000000E+00  0.18364614331E+04  0.18364614331E+04  0.25500000000E-02 0. -1.
         -2   -1    0    0    0  501 -0.00000000000E+00 -0.00000000000E+00 -0.50299057564E+03  0.50299057564E+03  0.25500000000E-02 0.  1.
    8880023    1    1    2    0    0  0.50747300764E+03  0.14020907889E+03  0.15382560146E+04  0.17542032984E+04  0.65864270000E+03 0. -1.
    8880022    1    1    2    0    0 -0.50747300764E+03 -0.14020907889E+03 -0.20478515721E+03  0.58524871031E+03  0.15294330000E+03 0.  0.
<mgrwt>
<rscale>  0 0.75717350E+03</rscale>
<asrwt>0</asrwt>
<pdfrwt beam="1">  1        2 0.28253253E+00 0.84320676E+03</pdfrwt>
<pdfrwt beam="2">  1       -2 0.77383165E-01 0.84320676E+03</pdfrwt>
<totfact> 0.12493543E+01</totfact>
</mgrwt>
</event>
<event>
 4    5  0.6615028E-008  0.8066341E+03  0.7818608E-02  0.9696631E-01
          2   -1    0    0  501    0  0.00000000000E+00  0.00000000000E+00  0.25145143697E+04  0.25145143697E+04  0.25500000000E-02 0. -1.
         -2   -1    0    0    0  501 -0.00000000000E+00 -0.00000000000E+00 -0.25793161233E+03  0.25793161235E+03  0.25500000000E-02 0.  1.
    8880023    1    1    2    0    0  0.21221846353E+03 -0.41450176850E+03  0.21129604707E+04  0.22616941768E+04  0.65864270000E+03 0. -1.
    8880022    1    1    2    0    0 -0.21221846353E+03  0.41450176850E+03  0.14362228670E+03  0.51075180529E+03  0.15294330000E+03 0.  0.
<mgrwt>
<rscale>  0 0.71217728E+03</rscale>
<asrwt>0</asrwt>
<pdfrwt beam="1">  1        2 0.38684837E+00 0.80663412E+03</pdfrwt>
<pdfrwt beam="2">  1       -2 0.39681786E-01 0.80663412E+03</pdfrwt>
<totfact> 0.21273062E+01</totfact>
</mgrwt>
</event>
<event>
 4    5  0.6615028E-008  0.6803394E+03  0.7818608E-02  0.1009132E+00
         -2   -1    0    0    0  501 -0.00000000000E+00  0.00000000000E+00  0.24931330407E+03  0.24931330408E+03  0.25500000000E-02 0.  1.
          2   -1    0    0  501    0  0.00000000000E+00 -0.00000000000E+00 -0.96410062573E+03  0.96410062574E+03  0.25500000000E-02 0. -1.
    8880023    1    1    2    0    0 -0.20033215676E+02 -0.16926375883E+03 -0.71144324591E+03  0.98438470539E+03  0.65864270000E+03 0.  0.
    8880022    1    1    2    0    0  0.20033215676E+02  0.16926375883E+03 -0.33440757537E+01  0.22902922443E+03  0.15294330000E+03 0.  0.
<mgrwt>
<rscale>  0 0.51820952E+03</rscale>
<asrwt>0</asrwt>
<pdfrwt beam="1">  1        2 0.14832317E+00 0.68033944E+03</pdfrwt>
<pdfrwt beam="2">  1       -2 0.38355893E-01 0.68033944E+03</pdfrwt>
<totfact> 0.17321210E+02</totfact>
</mgrwt>
</event>
<event>
 4    5  0.6615028E-008  0.8190987E+03  0.7818608E-02  0.9670927E-01
          2   -1    0    0  501    0  0.00000000000E+00  0.00000000000E+00  0.12054749009E+04  0.12054749009E+04  0.25500000000E-02 0. -1.
         -2   -1    0    0    0  501 -0.00000000000E+00 -0.00000000000E+00 -0.37625523177E+03  0.37625523178E+03  0.25500000000E-02 0.  1.
    8880023    1    1    2    0    0 -0.32853732509E+03 -0.35941022884E+03  0.63192092049E+03  0.10345273039E+04  0.65864270000E+03 0. -1.
    8880022    1    1    2    0    0  0.32853732509E+03  0.35941022884E+03  0.19729874864E+03  0.54720282876E+03  0.15294330000E+03 0.  0.
<mgrwt>
<rscale>  0 0.72774463E+03</rscale>
<asrwt>0</asrwt>
<pdfrwt beam="1">  1        2 0.18545768E+00 0.81909871E+03</pdfrwt>
<pdfrwt beam="2">  1       -2 0.57885420E-01 0.81909871E+03</pdfrwt>
<totfact> 0.53111532E+01</totfact>
</mgrwt>
</event>
<event>
 4    5  0.6615028E-008  0.7393110E+03  0.7818608E-02  0.9861959E-01
          2   -1    0    0  501    0  0.00000000000E+00  0.00000000000E+00  0.24128620280E+03  0.24128620281E+03  0.25500000000E-02 0. -1.
         -2   -1    0    0    0  501 -0.00000000000E+00 -0.00000000000E+00 -0.21151121548E+04  0.21151121548E+04  0.25500000000E-02 0.  1.
    8880023    1    1    2    0    0  0.76984065648E+02  0.32687004649E+03 -0.40713662262E+03  0.84400296765E+03  0.65864270000E+03 0. -1.
    8880022    1    1    2    0    0 -0.76984065648E+02 -0.32687004649E+03 -0.14666893294E+04  0.15123953900E+04  0.15294330000E+03 0.  0.
<mgrwt>
<rscale>  0 0.62140889E+03</rscale>
<asrwt>0</asrwt>
<pdfrwt beam="1">  1        2 0.37120956E-01 0.73931102E+03</pdfrwt>
<pdfrwt beam="2">  1       -2 0.32540186E+00 0.73931102E+03</pdfrwt>
<totfact> 0.32499088E+00</totfact>
</mgrwt>
</event>
<event>
 4    5  0.6615028E-008  0.1389908E+04  0.7818608E-02  0.8991565E-01
          2   -1    0    0  501    0  0.00000000000E+00  0.00000000000E+00  0.12901868630E+04  0.12901868630E+04  0.25500000000E-02 0. -1.
         -2   -1    0    0    0  501 -0.00000000000E+00 -0.00000000000E+00 -0.24121276430E+04  0.24121276430E+04  0.25500000000E-02 0.  1.
    8880023    1    1    2    0    0 -0.18867243947E+03 -0.12093122057E+04  0.65717549582E+03  0.15374404505E+04  0.65864270000E+03 0.  0.
    8880022    1    1    2    0    0  0.18867243947E+03  0.12093122057E+04 -0.17791162758E+04  0.21648740555E+04  0.15294330000E+03 0.  0.
<mgrwt>
<rscale>  0 0.13490275E+04</rscale>
<asrwt>0</asrwt>
<pdfrwt beam="1">  1        2 0.19849029E+00 0.13899077E+04</pdfrwt>
<pdfrwt beam="2">  1       -2 0.37109656E+00 0.13899077E+04</pdfrwt>
<totfact> 0.18324448E-01</totfact>
</mgrwt>
</event>
<event>
 4    5  0.6615028E-008  0.7071938E+03  0.7818608E-02  0.9968573E-01
          2   -1    0    0  501    0  0.00000000000E+00  0.00000000000E+00  0.18312385373E+04  0.18312385373E+04  0.25500000000E-02 0. -1.
         -2   -1    0    0    0  501 -0.00000000000E+00 -0.00000000000E+00 -0.11776108532E+04  0.11776108532E+04  0.25500000000E-02 0.  1.
    8880023    1    1    2    0    0  0.21310793282E+03  0.14456072840E+03  0.17419695159E+04  0.18800480834E+04  0.65864270000E+03 0. -1.
    8880022    1    1    2    0    0 -0.21310793282E+03 -0.14456072840E+03 -0.10883418318E+04  0.11288013072E+04  0.15294330000E+03 0.  0.
<mgrwt>
<rscale>  0 0.57049988E+03</rscale>
<asrwt>0</asrwt>
<pdfrwt beam="1">  1        2 0.28172901E+00 0.70719375E+03</pdfrwt>
<pdfrwt beam="2">  1       -2 0.18117090E+00 0.70719375E+03</pdfrwt>
<totfact> 0.15429414E+00</totfact>
</mgrwt>
</event>
<event>
 4    5  0.6615028E-008  0.1803262E+04  0.7818608E-02  0.8720734E-01
         -2   -1    0    0    0  501 -0.00000000000E+00  0.00000000000E+00  0.13936977530E+04  0.13936977530E+04  0.25500000000E-02 0.  1.
          2   -1    0    0  501    0  0.00000000000E+00 -0.00000000000E+00 -0.28684723496E+04  0.28684723496E+04  0.25500000000E-02 0. -1.
    8880023    1    1    2    0    0 -0.67168883236E+03 -0.15384335224E+04 -0.17972779791E+04  0.25459697427E+04  0.65864270000E+03 0.  0.
    8880022    1    1    2    0    0  0.67168883236E+03  0.15384335224E+04  0.32250338260E+03  0.17162003599E+04  0.15294330000E+03 0.  0.
<mgrwt>
<rscale>  0 0.17731049E+04</rscale>
<asrwt>0</asrwt>
<pdfrwt beam="1">  1        2 0.44130344E+00 0.18032620E+04</pdfrwt>
<pdfrwt beam="2">  1       -2 0.21441504E+00 0.18032620E+04</pdfrwt>
<totfact> 0.20489444E-01</totfact>
</mgrwt>
</event>
<event>
 4    5  0.6615028E-008  0.8550501E+03  0.7818608E-02  0.9602430E-01
          2   -1    0    0  501    0  0.00000000000E+00  0.00000000000E+00  0.19383246775E+04  0.19383246775E+04  0.25500000000E-02 0. -1.
         -2   -1    0    0    0  501 -0.00000000000E+00 -0.00000000000E+00 -0.27468694910E+03  0.27468694911E+03  0.25500000000E-02 0.  1.
    8880023    1    1    2    0    0 -0.48563641932E+03 -0.24790672251E+03  0.12380595394E+04  0.15046268986E+04  0.65864270000E+03 0.  0.
    8880022    1    1    2    0    0  0.48563641932E+03  0.24790672251E+03  0.42557818905E+03  0.70838472799E+03  0.15294330000E+03 0.  0.
<mgrwt>
<rscale>  0 0.77135573E+03</rscale>
<asrwt>0</asrwt>
<pdfrwt beam="1">  1        2 0.29820380E+00 0.85505010E+03</pdfrwt>
<pdfrwt beam="2">  1       -2 0.42259530E-01 0.85505010E+03</pdfrwt>
<totfact> 0.39052104E+01</totfact>
</mgrwt>
</event>
<event>
 4    5  0.6747319E-008  0.9381285E+03  0.7818608E-02  0.9467404E-01
         -2   -1    0    0    0  501 -0.00000000000E+00  0.00000000000E+00  0.19464433867E+04  0.19464433867E+04  0.25500000000E-02 0.  1.
          2   -1    0    0  501    0  0.00000000000E+00 -0.00000000000E+00 -0.16720670384E+04  0.16720670384E+04  0.25500000000E-02 0. -1.
    8880023    1    1    2    0    0 -0.10767041826E+03 -0.65930410603E+03 -0.14702806633E+04  0.17440786273E+04  0.65864270000E+03 0. -1.
    8880022    1    1    2    0    0  0.10767041826E+03  0.65930410603E+03  0.17446570116E+04  0.18744317977E+04  0.15294330000E+03 0.  0.
<mgrwt>
<rscale>  0 0.86730217E+03</rscale>
<asrwt>0</asrwt>
<pdfrwt beam="1">  1        2 0.25724108E+00 0.93812847E+03</pdfrwt>
<pdfrwt beam="2">  1       -2 0.29945283E+00 0.93812847E+03</pdfrwt>
<totfact> 0.33136640E-01</totfact>
</mgrwt>
</event>
<event>
 4    5  0.6615028E-008  0.7722965E+03  0.7818608E-02  0.9774254E-01
          2   -1    0    0  501    0  0.00000000000E+00  0.00000000000E+00  0.33182084945E+03  0.33182084946E+03  0.25500000000E-02 0. -1.
         -2   -1    0    0    0  501 -0.00000000000E+00 -0.00000000000E+00 -0.10948636604E+04  0.10948636604E+04  0.25500000000E-02 0.  1.
    8880023    1    1    2    0    0  0.76124644557E+01  0.40320427085E+03 -0.45102999179E+03  0.89435445625E+03  0.65864270000E+03 0. -1.
    8880022    1    1    2    0    0 -0.76124644557E+01 -0.40320427085E+03 -0.31201281915E+03  0.53233005361E+03  0.15294330000E+03 0.  1.
<mgrwt>
<rscale>  0 0.66762709E+03</rscale>
<asrwt>0</asrwt>
<pdfrwt beam="1">  1        2 0.51049362E-01 0.77229647E+03</pdfrwt>
<pdfrwt beam="2">  1       -2 0.16844056E+00 0.77229647E+03</pdfrwt>
<totfact> 0.21708228E+01</totfact>
</mgrwt>
</event>
<event>
 4    5  0.6615028E-008  0.6728172E+03  0.7818608E-02  0.1013719E+00
          2   -1    0    0  501    0  0.00000000000E+00  0.00000000000E+00  0.75595914878E+03  0.75595914879E+03  0.25500000000E-02 0. -1.
         -2   -1    0    0    0  501 -0.00000000000E+00 -0.00000000000E+00 -0.74448199380E+03  0.74448199381E+03  0.25500000000E-02 0.  1.
    8880023    1    1    2    0    0 -0.10382559880E+03 -0.89961351611E+02  0.58475521296E+03  0.89141554008E+03  0.65864270000E+03 0. -1.
    8880022    1    1    2    0    0  0.10382559880E+03  0.89961351611E+02 -0.57327805797E+03  0.60902560252E+03  0.15294330000E+03 0.  0.
<mgrwt>
<rscale>  0 0.50022999E+03</rscale>
<asrwt>0</asrwt>
<pdfrwt beam="1">  1        2 0.11630141E+00 0.67281722E+03</pdfrwt>
<pdfrwt beam="2">  1       -2 0.11453569E+00 0.67281722E+03</pdfrwt>
<totfact> 0.22585661E+01</totfact>
</mgrwt>
</event>
<event>
 4    5  0.6615028E-008  0.8607510E+03  0.7818608E-02  0.9592229E-01
         -2   -1    0    0    0  501 -0.00000000000E+00  0.00000000000E+00  0.44644266562E+03  0.44644266562E+03  0.25500000000E-02 0.  1.
          2   -1    0    0  501    0  0.00000000000E+00 -0.00000000000E+00 -0.21670043808E+04  0.21670043808E+04  0.25500000000E-02 0. -1.
    8880023    1    1    2    0    0 -0.14927344882E+03 -0.53366606260E+03 -0.67631791453E+02  0.86340389991E+03  0.65864270000E+03 0.  1.
    8880022    1    1    2    0    0  0.14927344882E+03  0.53366606260E+03 -0.16529299237E+04  0.17500431465E+04  0.15294330000E+03 0.  0.
<mgrwt>
<rscale>  0 0.77812658E+03</rscale>
<asrwt>0</asrwt>
<pdfrwt beam="1">  1        2 0.33338528E+00 0.86075097E+03</pdfrwt>
<pdfrwt beam="2">  1       -2 0.68683488E-01 0.86075097E+03</pdfrwt>
<totfact> 0.10681157E+01</totfact>
</mgrwt>
</event>
<event>
 4    5  0.6615028E-008  0.8702295E+03  0.7818608E-02  0.9575620E-01
          2   -1    0    0  501    0  0.00000000000E+00  0.00000000000E+00  0.32361881446E+03  0.32361881447E+03  0.25500000000E-02 0. -1.
         -2   -1    0    0    0  501 -0.00000000000E+00 -0.00000000000E+00 -0.18110561652E+04  0.18110561652E+04  0.25500000000E-02 0.  1.
    8880023    1    1    2    0    0 -0.10395242056E+03 -0.55918073106E+03 -0.55610556227E+03  0.10327404313E+04  0.65864270000E+03 0. -1.
    8880022    1    1    2    0    0  0.10395242056E+03  0.55918073106E+03 -0.93133178843E+03  0.11019345484E+04  0.15294330000E+03 0.  0.
<mgrwt>
<rscale>  0 0.78931053E+03</rscale>
<asrwt>0</asrwt>
<pdfrwt beam="1">  1        2 0.49787511E-01 0.87022951E+03</pdfrwt>
<pdfrwt beam="2">  1       -2 0.27862402E+00 0.87022951E+03</pdfrwt>
<totfact> 0.44161869E+00</totfact>
</mgrwt>
</event>
<event>
 4    5  0.6615028E-008  0.1656095E+04  0.7818608E-02  0.8806616E-01
         -2   -1    0    0    0  501 -0.00000000000E+00  0.00000000000E+00  0.13330003589E+04  0.13330003589E+04  0.25500000000E-02 0.  1.
          2   -1    0    0  501    0  0.00000000000E+00 -0.00000000000E+00 -0.24621364982E+04  0.24621364982E+04  0.25500000000E-02 0. -1.
    8880023    1    1    2    0    0 -0.66029708447E+03  0.13685201877E+04 -0.14879875852E+04  0.22263775520E+04  0.65864270000E+03 0. -1.
    8880022    1    1    2    0    0  0.66029708447E+03 -0.13685201877E+04  0.35885144593E+03  0.15687593050E+04  0.15294330000E+03 0.  0.
<mgrwt>
<rscale>  0 0.16228760E+04</rscale>
<asrwt>0</asrwt>
<pdfrwt beam="1">  1        2 0.37879023E+00 0.16560948E+04</pdfrwt>
<pdfrwt beam="2">  1       -2 0.20507698E+00 0.16560948E+04</pdfrwt>
<totfact> 0.41678749E-01</totfact>
</mgrwt>
</event>
<event>
 4    5  0.6615028E-008  0.1672446E+04  0.7818608E-02  0.8796583E-01
         -2   -1    0    0    0  501 -0.00000000000E+00  0.00000000000E+00  0.11511606560E+04  0.11511606560E+04  0.25500000000E-02 0.  1.
          2   -1    0    0  501    0  0.00000000000E+00 -0.00000000000E+00 -0.27685218791E+04  0.27685218791E+04  0.25500000000E-02 0. -1.
    8880023    1    1    2    0    0  0.12684949540E+04  0.86843955588E+03  0.14547956742E+02  0.16725096591E+04  0.65864270000E+03 0.  0.
    8880022    1    1    2    0    0 -0.12684949540E+04 -0.86843955588E+03 -0.16319091798E+04  0.22471728760E+04  0.15294330000E+03 0.  0.
<mgrwt>
<rscale>  0 0.16396001E+04</rscale>
<asrwt>0</asrwt>
<pdfrwt beam="1">  1        2 0.42592644E+00 0.16724464E+04</pdfrwt>
<pdfrwt beam="2">  1       -2 0.17710164E+00 0.16724464E+04</pdfrwt>
<totfact> 0.42474541E-01</totfact>
</mgrwt>
</event>
<event>
 4    5  0.6615028E-008  0.8003038E+03  0.7818608E-02  0.9710140E-01
         -2   -1    0    0    0  501 -0.00000000000E+00  0.00000000000E+00  0.22461975433E+04  0.22461975433E+04  0.25500000000E-02 0.  1.
          2   -1    0    0  501    0  0.00000000000E+00 -0.00000000000E+00 -0.23903236119E+03  0.23903236121E+03  0.25500000000E-02 0. -1.
    8880023    1    1    2    0    0 -0.44273351374E+03  0.10326183562E+03  0.60487346178E+03  0.10031740038E+04  0.65864270000E+03 0.  0.
    8880022    1    1    2    0    0  0.44273351374E+03 -0.10326183562E+03  0.14022917203E+04  0.14820559007E+04  0.15294330000E+03 0.  0.
<mgrwt>
<rscale>  0 0.70416283E+03</rscale>
<asrwt>0</asrwt>
<pdfrwt beam="1">  1        2 0.36774211E-01 0.80030380E+03</pdfrwt>
<pdfrwt beam="2">  1       -2 0.34556884E+00 0.80030380E+03</pdfrwt>
<totfact> 0.24481355E+00</totfact>
</mgrwt>
</event>
<event>
 4    5  0.6615028E-008  0.9296821E+03  0.7818608E-02  0.9479970E-01
          2   -1    0    0  501    0  0.00000000000E+00  0.00000000000E+00  0.36477151049E+04  0.36477151049E+04  0.25500000000E-02 0. -1.
         -2   -1    0    0    0  501 -0.00000000000E+00 -0.00000000000E+00 -0.18926293286E+03  0.18926293288E+03  0.25500000000E-02 0.  1.
    8880023    1    1    2    0    0  0.65475371358E+03 -0.42382327880E+02  0.24842698586E+04  0.26525281570E+04  0.65864270000E+03 0.  0.
    8880022    1    1    2    0    0 -0.65475371358E+03  0.42382327880E+02  0.97418231338E+03  0.11844498807E+04  0.15294330000E+03 0.  0.
<mgrwt>
<rscale>  0 0.85776779E+03</rscale>
<asrwt>0</asrwt>
<pdfrwt beam="1">  1        2 0.56118692E+00 0.92968215E+03</pdfrwt>
<pdfrwt beam="2">  1       -2 0.29117375E-01 0.92968215E+03</pdfrwt>
<totfact> 0.72739895E+00</totfact>
</mgrwt>
</event>
<event>
 4    5  0.6615028E-008  0.6875989E+03  0.7818608E-02  0.1005315E+00
          2   -1    0    0  501    0  0.00000000000E+00  0.00000000000E+00  0.19996507618E+04  0.19996507618E+04  0.25500000000E-02 0. -1.
         -2   -1    0    0    0  501 -0.00000000000E+00 -0.00000000000E+00 -0.14168743706E+03  0.14168743708E+03  0.25500000000E-02 0.  1.
    8880023    1    1    2    0    0 -0.15627291540E+03  0.12066832507E+03  0.17280442285E+04  0.18598196500E+04  0.65864270000E+03 0. -1.
    8880022    1    1    2    0    0  0.15627291540E+03 -0.12066832507E+03  0.12991909626E+03  0.28151854886E+03  0.15294330000E+03 0. -1.
<mgrwt>
<rscale>  0 0.53379758E+03</rscale>
<asrwt>0</asrwt>
<pdfrwt beam="1">  1        2 0.30763855E+00 0.68759892E+03</pdfrwt>
<pdfrwt beam="2">  1       -2 0.21798069E-01 0.68759892E+03</pdfrwt>
<totfact> 0.12644179E+02</totfact>
</mgrwt>
</event>
<event>
 4    5  0.6615028E-008  0.8656403E+03  0.7818608E-02  0.9583608E-01
          2   -1    0    0  501    0  0.00000000000E+00  0.00000000000E+00  0.10320876772E+04  0.10320876772E+04  0.25500000000E-02 0. -1.
         -2   -1    0    0    0  501 -0.00000000000E+00 -0.00000000000E+00 -0.21730546289E+04  0.21730546289E+04  0.25500000000E-02 0.  1.
    8880023    1    1    2    0    0 -0.38624129454E+03  0.40784870910E+03  0.80003047672E+03  0.11787204406E+04  0.65864270000E+03 0. -1.
    8880022    1    1    2    0    0  0.38624129454E+03 -0.40784870910E+03 -0.19409974284E+04  0.20264218656E+04  0.15294330000E+03 0.  0.
<mgrwt>
<rscale>  0 0.78390670E+03</rscale>
<asrwt>0</asrwt>
<pdfrwt beam="1">  1        2 0.15878272E+00 0.86564029E+03</pdfrwt>
<pdfrwt beam="2">  1       -2 0.33431610E+00 0.86564029E+03</pdfrwt>
<totfact> 0.48383053E-01</totfact>
</mgrwt>
</event>
<event>
 4    5  0.6615028E-008  0.1005047E+04  0.7818608E-02  0.9374985E-01
          2   -1    0    0  501    0  0.00000000000E+00  0.00000000000E+00  0.11246235531E+04  0.11246235531E+04  0.25500000000E-02 0. -1.
         -2   -1    0    0    0  501 -0.00000000000E+00 -0.00000000000E+00 -0.89154556356E+03  0.89154556357E+03  0.25500000000E-02 0.  1.
    8880023    1    1    2    0    0  0.75146801348E+03  0.10772362886E+03  0.58788208943E+03  0.11643556642E+04  0.65864270000E+03 0.  0.
    8880022    1    1    2    0    0 -0.75146801348E+03 -0.10772362886E+03 -0.35480409987E+03  0.85181345246E+03  0.15294330000E+03 0.  0.
<mgrwt>
<rscale>  0 0.94163250E+03</rscale>
<asrwt>0</asrwt>
<pdfrwt beam="1">  1        2 0.17301901E+00 0.10050466E+04</pdfrwt>
<pdfrwt beam="2">  1       -2 0.13716086E+00 0.10050466E+04</pdfrwt>
<totfact> 0.78985646E+00</totfact>
</mgrwt>
</event>
<event>
 4    5  0.6615028E-008  0.6759465E+03  0.7818608E-02  0.1011716E+00
         -2   -1    0    0    0  501 -0.00000000000E+00  0.00000000000E+00  0.17751546171E+03  0.17751546173E+03  0.25500000000E-02 0.  1.
          2   -1    0    0  501    0  0.00000000000E+00 -0.00000000000E+00 -0.11232171870E+04  0.11232171870E+04  0.25500000000E-02 0. -1.
    8880023    1    1    2    0    0  0.15126209926E+03 -0.14604102825E+02 -0.68380617050E+03  0.96150641577E+03  0.65864270000E+03 0.  1.
    8880022    1    1    2    0    0 -0.15126209926E+03  0.14604102825E+02 -0.26189555480E+03  0.33922623297E+03  0.15294330000E+03 0. -1.
<mgrwt>
<rscale>  0 0.50798226E+03</rscale>
<asrwt>0</asrwt>
<pdfrwt beam="1">  1        2 0.17280264E+00 0.67594653E+03</pdfrwt>
<pdfrwt beam="2">  1       -2 0.27310072E-01 0.67594653E+03</pdfrwt>
<totfact> 0.26077065E+02</totfact>
</mgrwt>
</event>
<event>
 4    5  0.6615028E-008  0.1284996E+04  0.7818608E-02  0.9078626E-01
          2   -1    0    0  501    0  0.00000000000E+00  0.00000000000E+00  0.38646492521E+04  0.38646492521E+04  0.25500000000E-02 0. -1.
         -2   -1    0    0    0  501 -0.00000000000E+00 -0.00000000000E+00 -0.54035789087E+03  0.54035789087E+03  0.25500000000E-02 0.  1.
    8880023    1    1    2    0    0 -0.72745549503E+03  0.82958563778E+03  0.29700757370E+04  0.32361341006E+04  0.65864270000E+03 0.  0.
    8880022    1    1    2    0    0  0.72745549503E+03 -0.82958563778E+03  0.35421562429E+03  0.11688730424E+04  0.15294330000E+03 0.  0.
<mgrwt>
<rscale>  0 0.12399061E+04</rscale>
<asrwt>0</asrwt>
<pdfrwt beam="1">  1        2 0.59456140E+00 0.12849957E+04</pdfrwt>
<pdfrwt beam="2">  1       -2 0.83131987E-01 0.12849957E+04</pdfrwt>
<totfact> 0.55478372E-01</totfact>
</mgrwt>
</event>
<event>
 4    5  0.6615028E-008  0.6765787E+03  0.7818608E-02  0.1011329E+00
         -2   -1    0    0    0  501 -0.00000000000E+00  0.00000000000E+00  0.15447406053E+04  0.15447406053E+04  0.25500000000E-02 0.  1.
          2   -1    0    0  501    0  0.00000000000E+00 -0.00000000000E+00 -0.26493026767E+03  0.26493026768E+03  0.25500000000E-02 0. -1.
    8880023    1    1    2    0    0  0.15316697020E+03 -0.22100024922E+02  0.19622814453E+03  0.70446023510E+03  0.65864270000E+03 0. -1.
    8880022    1    1    2    0    0 -0.15316697020E+03  0.22100024922E+02  0.10835821931E+04  0.11052106379E+04  0.15294330000E+03 0.  0.
<mgrwt>
<rscale>  0 0.50949800E+03</rscale>
<asrwt>0</asrwt>
<pdfrwt beam="1">  1        2 0.40758502E-01 0.67657870E+03</pdfrwt>
<pdfrwt beam="2">  1       -2 0.23765241E+00 0.67657870E+03</pdfrwt>
<totfact> 0.99734629E+00</totfact>
</mgrwt>
</event>
<event>
 4    5  0.6615028E-008  0.6883016E+03  0.7818608E-02  0.1004970E+00
          2   -1    0    0  501    0  0.00000000000E+00  0.00000000000E+00  0.17571767971E+04  0.17571767971E+04  0.25500000000E-02 0. -1.
         -2   -1    0    0    0  501 -0.00000000000E+00 -0.00000000000E+00 -0.45236988070E+03  0.45236988071E+03  0.25500000000E-02 0.  1.
    8880023    1    1    2    0    0  0.35209319595E+02 -0.19674650175E+03  0.16468427554E+04  0.17848949967E+04  0.65864270000E+03 0. -1.
    8880022    1    1    2    0    0 -0.35209319595E+02  0.19674650175E+03 -0.34203583895E+03  0.42465168112E+03  0.15294330000E+03 0.  0.
<mgrwt>
<rscale>  0 0.53523475E+03</rscale>
<asrwt>0</asrwt>
<pdfrwt beam="1">  1        2 0.27033489E+00 0.68830160E+03</pdfrwt>
<pdfrwt beam="2">  1       -2 0.69595367E-01 0.68830160E+03</pdfrwt>
<totfact> 0.17811254E+01</totfact>
</mgrwt>
</event>
<event>
 4    5  0.6615028E-008  0.7897944E+03  0.7818608E-02  0.9733313E-01
         -2   -1    0    0    0  501 -0.00000000000E+00  0.00000000000E+00  0.56019229985E+03  0.56019229985E+03  0.25500000000E-02 0.  1.
          2   -1    0    0  501    0  0.00000000000E+00 -0.00000000000E+00 -0.17356990312E+04  0.17356990312E+04  0.25500000000E-02 0. -1.
    8880023    1    1    2    0    0 -0.20893289263E+03 -0.38250748884E+03 -0.15245198774E+04  0.17169554436E+04  0.65864270000E+03 0.  0.
    8880022    1    1    2    0    0  0.20893289263E+03  0.38250748884E+03  0.34901314602E+03  0.57893588743E+03  0.15294330000E+03 0.  0.
<mgrwt>
<rscale>  0 0.69067507E+03</rscale>
<asrwt>0</asrwt>
<pdfrwt beam="1">  1        2 0.26703062E+00 0.78979436E+03</pdfrwt>
<pdfrwt beam="2">  1       -2 0.86183432E-01 0.78979436E+03</pdfrwt>
<totfact> 0.11196173E+01</totfact>
</mgrwt>
</event>
<event>
 4    5  0.6615028E-008  0.7682470E+03  0.7818608E-02  0.9784206E-01
         -2   -1    0    0    0  501 -0.00000000000E+00  0.00000000000E+00  0.53570370202E+03  0.53570370203E+03  0.25500000000E-02 0.  1.
          2   -1    0    0  501    0  0.00000000000E+00 -0.00000000000E+00 -0.13774092571E+04  0.13774092571E+04  0.25500000000E-02 0. -1.
    8880023    1    1    2    0    0 -0.26660670145E+03  0.29208580883E+03 -0.11541227298E+04  0.13864352616E+04  0.65864270000E+03 0. -1.
    8880022    1    1    2    0    0  0.26660670145E+03 -0.29208580883E+03  0.31241717472E+03  0.52667769751E+03  0.15294330000E+03 0.  0.
<mgrwt>
<rscale>  0 0.66217047E+03</rscale>
<asrwt>0</asrwt>
<pdfrwt beam="1">  1        2 0.21190911E+00 0.76824700E+03</pdfrwt>
<pdfrwt beam="2">  1       -2 0.82415955E-01 0.76824700E+03</pdfrwt>
<totfact> 0.19649293E+01</totfact>
</mgrwt>
</event>
<event>
 4    5  0.6615028E-008  0.2062516E+04  0.7818608E-02  0.8589732E-01
         -2   -1    0    0    0  501 -0.00000000000E+00  0.00000000000E+00  0.89427328327E+03  0.89427328327E+03  0.25500000000E-02 0.  1.
          2   -1    0    0  501    0  0.00000000000E+00 -0.00000000000E+00 -0.49061603372E+04  0.49061603372E+04  0.25500000000E-02 0. -1.
    8880023    1    1    2    0    0 -0.16560164952E+04  0.10381579249E+04 -0.28614944899E+04  0.35273394267E+04  0.65864270000E+03 0.  0.
    8880022    1    1    2    0    0  0.16560164952E+04 -0.10381579249E+04 -0.11503925641E+04  0.22730941938E+04  0.15294330000E+03 0.  0.
<mgrwt>
<rscale>  0 0.20365245E+04</rscale>
<asrwt>0</asrwt>
<pdfrwt beam="1">  1        2 0.75479388E+00 0.20625161E+04</pdfrwt>
<pdfrwt beam="2">  1       -2 0.13758051E+00 0.20625161E+04</pdfrwt>
<totfact> 0.15311347E-02</totfact>
</mgrwt>
</event>
<event>
 4    5  0.6615028E-008  0.1471842E+04  0.7818608E-02  0.8929779E-01
         -2   -1    0    0    0  501 -0.00000000000E+00  0.00000000000E+00  0.12870107432E+04  0.12870107432E+04  0.25500000000E-02 0.  1.
          2   -1    0    0  501    0  0.00000000000E+00 -0.00000000000E+00 -0.17286476443E+04  0.17286476443E+04  0.25500000000E-02 0. -1.
    8880023    1    1    2    0    0  0.11634810196E+04 -0.61548445405E+03 -0.75473196986E+03  0.16540676373E+04  0.65864270000E+03 0.  0.
    8880022    1    1    2    0    0 -0.11634810196E+04  0.61548445405E+03  0.31309506877E+03  0.13615907502E+04  0.15294330000E+03 0.  0.
<mgrwt>
<rscale>  0 0.14337005E+04</rscale>
<asrwt>0</asrwt>
<pdfrwt beam="1">  1        2 0.26594579E+00 0.14718422E+04</pdfrwt>
<pdfrwt beam="2">  1       -2 0.19800165E+00 0.14718422E+04</pdfrwt>
<totfact> 0.12223461E+00</totfact>
</mgrwt>
</event>
<event>
 4    5  0.6615028E-008  0.1281935E+04  0.7818608E-02  0.9081319E-01
         -2   -1    0    0    0  501 -0.00000000000E+00  0.00000000000E+00  0.61046502126E+03  0.61046502127E+03  0.25500000000E-02 0.  1.
          2   -1    0    0  501    0  0.00000000000E+00 -0.00000000000E+00 -0.30130177258E+04  0.30130177258E+04  0.25500000000E-02 0. -1.
    8880023    1    1    2    0    0  0.79140256618E+03  0.76369450348E+03 -0.21204414900E+04  0.24778276040E+04  0.65864270000E+03 0.  0.
    8880022    1    1    2    0    0 -0.79140256618E+03 -0.76369450348E+03 -0.28211121452E+03  0.11456551430E+04  0.15294330000E+03 0.  0.
<mgrwt>
<rscale>  0 0.12367081E+04</rscale>
<asrwt>0</asrwt>
<pdfrwt beam="1">  1        2 0.46354118E+00 0.12819351E+04</pdfrwt>
<pdfrwt beam="2">  1       -2 0.93917697E-01 0.12819351E+04</pdfrwt>
<totfact> 0.16053768E+00</totfact>
</mgrwt>
</event>
<event>
 4    5  0.6615028E-008  0.8900290E+03  0.7818608E-02  0.9542232E-01
          2   -1    0    0  501    0  0.00000000000E+00  0.00000000000E+00  0.10519543692E+04  0.10519543692E+04  0.25500000000E-02 0. -1.
         -2   -1    0    0    0  501 -0.00000000000E+00 -0.00000000000E+00 -0.97248805893E+03  0.97248805894E+03  0.25500000000E-02 0.  1.
    8880023    1    1    2    0    0  0.53918688849E+03  0.26003650503E+03  0.71233650223E+03  0.11399890277E+04  0.65864270000E+03 0. -1.
    8880022    1    1    2    0    0 -0.53918688849E+03 -0.26003650503E+03 -0.63287019194E+03  0.88445340043E+03  0.15294330000E+03 0.  0.
<mgrwt>
<rscale>  0 0.81240599E+03</rscale>
<asrwt>0</asrwt>
<pdfrwt beam="1">  1        2 0.16183913E+00 0.89002904E+03</pdfrwt>
<pdfrwt beam="2">  1       -2 0.14961355E+00 0.89002904E+03</pdfrwt>
<totfact> 0.70586922E+00</totfact>
</mgrwt>
</event>
<event>
 4    5  0.6615028E-008  0.8447094E+03  0.7818608E-02  0.9621363E-01
          2   -1    0    0  501    0  0.00000000000E+00  0.00000000000E+00  0.17354029165E+04  0.17354029165E+04  0.25500000000E-02 0. -1.
         -2   -1    0    0    0  501 -0.00000000000E+00 -0.00000000000E+00 -0.36149007761E+03  0.36149007762E+03  0.25500000000E-02 0.  1.
    8880023    1    1    2    0    0  0.52774254471E+03  0.34807196751E+02  0.12870984865E+04  0.15395312451E+04  0.65864270000E+03 0. -1.
    8880022    1    1    2    0    0 -0.52774254471E+03 -0.34807196751E+02  0.86814352357E+02  0.55736174899E+03  0.15294330000E+03 0.  0.
<mgrwt>
<rscale>  0 0.75898202E+03</rscale>
<asrwt>0</asrwt>
<pdfrwt beam="1">  1        2 0.26698506E+00 0.84470938E+03</pdfrwt>
<pdfrwt beam="2">  1       -2 0.55613858E-01 0.84470938E+03</pdfrwt>
<totfact> 0.28936175E+01</totfact>
</mgrwt>
</event>
<event>
 4    5  0.6615028E-008  0.7177755E+03  0.7818608E-02  0.9930186E-01
          2   -1    0    0  501    0  0.00000000000E+00  0.00000000000E+00  0.21755916671E+04  0.21755916671E+04  0.25500000000E-02 0. -1.
         -2   -1    0    0    0  501 -0.00000000000E+00 -0.00000000000E+00 -0.60064815522E+03  0.60064815522E+03  0.25500000000E-02 0.  1.
    8880023    1    1    2    0    0  0.11732056289E+03 -0.26005271708E+03  0.20665371051E+04  0.21876419596E+04  0.65864270000E+03 0.  0.
    8880022    1    1    2    0    0 -0.11732056289E+03  0.26005271708E+03 -0.49159359323E+03  0.58859786277E+03  0.15294330000E+03 0.  1.
<mgrwt>
<rscale>  0 0.58820396E+03</rscale>
<asrwt>0</asrwt>
<pdfrwt beam="1">  1        2 0.33470641E+00 0.71777555E+03</pdfrwt>
<pdfrwt beam="2">  1       -2 0.92407408E-01 0.71777555E+03</pdfrwt>
<totfact> 0.55432980E+00</totfact>
</mgrwt>
</event>
<event>
 4    5  0.6615028E-008  0.1638208E+04  0.7818608E-02  0.8817745E-01
         -2   -1    0    0    0  501 -0.00000000000E+00  0.00000000000E+00  0.13957652144E+04  0.13957652144E+04  0.25500000000E-02 0.  1.
          2   -1    0    0  501    0  0.00000000000E+00 -0.00000000000E+00 -0.20174426292E+04  0.20174426292E+04  0.25500000000E-02 0. -1.
    8880023    1    1    2    0    0  0.12474170462E+04 -0.83298603192E+03 -0.91613730023E+03  0.18769743673E+04  0.65864270000E+03 0.  0.
    8880022    1    1    2    0    0 -0.12474170462E+04  0.83298603192E+03  0.29445988539E+03  0.15362334763E+04  0.15294330000E+03 0.  0.
<mgrwt>
<rscale>  0 0.16045713E+04</rscale>
<asrwt>0</asrwt>
<pdfrwt beam="1">  1        2 0.31037579E+00 0.16382079E+04</pdfrwt>
<pdfrwt beam="2">  1       -2 0.21473311E+00 0.16382079E+04</pdfrwt>
<totfact> 0.64589950E-01</totfact>
</mgrwt>
</event>
<event>
 4    5  0.6615028E-008  0.7130424E+03  0.7818608E-02  0.9946872E-01
          2   -1    0    0  501    0  0.00000000000E+00  0.00000000000E+00  0.14541501776E+04  0.14541501776E+04  0.25500000000E-02 0. -1.
         -2   -1    0    0    0  501 -0.00000000000E+00 -0.00000000000E+00 -0.29582837812E+03  0.29582837813E+03  0.25500000000E-02 0.  1.
    8880023    1    1    2    0    0  0.67106351066E+02  0.26479420738E+03  0.12364424801E+04  0.14273119657E+04  0.65864270000E+03 0. -1.
    8880022    1    1    2    0    0 -0.67106351066E+02 -0.26479420738E+03 -0.78120680544E+02  0.32266659009E+03  0.15294330000E+03 0.  0.
<mgrwt>
<rscale>  0 0.58042458E+03</rscale>
<asrwt>0</asrwt>
<pdfrwt beam="1">  1        2 0.22371541E+00 0.71304238E+03</pdfrwt>
<pdfrwt beam="2">  1       -2 0.45512059E-01 0.71304238E+03</pdfrwt>
<totfact> 0.63173156E+01</totfact>
</mgrwt>
</event>
<event>
 4    5  0.6615028E-008  0.9366591E+03  0.7818608E-02  0.9469574E-01
          2   -1    0    0  501    0  0.00000000000E+00  0.00000000000E+00  0.19263651751E+04  0.19263651751E+04  0.25500000000E-02 0. -1.
         -2   -1    0    0    0  501 -0.00000000000E+00 -0.00000000000E+00 -0.15385118904E+04  0.15385118904E+04  0.25500000000E-02 0.  1.
    8880023    1    1    2    0    0  0.32120610932E+03  0.58339239358E+03  0.17252028973E+04  0.19630729209E+04  0.65864270000E+03 0. -1.
    8880022    1    1    2    0    0 -0.32120610932E+03 -0.58339239358E+03 -0.13373496126E+04  0.15018041446E+04  0.15294330000E+03 0.  0.
<mgrwt>
<rscale>  0 0.86564637E+03</rscale>
<asrwt>0</asrwt>
<pdfrwt beam="1">  1        2 0.29636387E+00 0.93665909E+03</pdfrwt>
<pdfrwt beam="2">  1       -2 0.23669414E+00 0.93665909E+03</pdfrwt>
<totfact> 0.57671082E-01</totfact>
</mgrwt>
</event>
<event>
 4    5  0.6615028E-008  0.1434756E+04  0.7818608E-02  0.8957136E-01
          2   -1    0    0  501    0  0.00000000000E+00  0.00000000000E+00  0.18146184727E+04  0.18146184727E+04  0.25500000000E-02 0. -1.
         -2   -1    0    0    0  501 -0.00000000000E+00 -0.00000000000E+00 -0.11472644061E+04  0.11472644061E+04  0.25500000000E-02 0.  1.
    8880023    1    1    2    0    0  0.27076628686E+03  0.12455521270E+04  0.84618831616E+03  0.16657008603E+04  0.65864270000E+03 0. -1.
    8880022    1    1    2    0    0 -0.27076628686E+03 -0.12455521270E+04 -0.17883424962E+03  0.12961820185E+04  0.15294330000E+03 0.  0.
<mgrwt>
<rscale>  0 0.13954256E+04</rscale>
<asrwt>0</asrwt>
<pdfrwt beam="1">  1        2 0.27917207E+00 0.14347560E+04</pdfrwt>
<pdfrwt beam="2">  1       -2 0.17650222E+00 0.14347560E+04</pdfrwt>
<totfact> 0.15392860E+00</totfact>
</mgrwt>
</event>
<event>
 4    5  0.6615028E-008  0.9034536E+03  0.7818608E-02  0.9520510E-01
         -2   -1    0    0    0  501 -0.00000000000E+00  0.00000000000E+00  0.66905869490E+03  0.66905869491E+03  0.25500000000E-02 0.  1.
          2   -1    0    0  501    0  0.00000000000E+00 -0.00000000000E+00 -0.20702976483E+04  0.20702976483E+04  0.25500000000E-02 0. -1.
    8880023    1    1    2    0    0 -0.55456714828E+03  0.27363024691E+03 -0.17814787361E+04  0.19974721343E+04  0.65864270000E+03 0.  0.
    8880022    1    1    2    0    0  0.55456714828E+03 -0.27363024691E+03  0.38023978273E+03  0.74188420886E+03  0.15294330000E+03 0.  0.
<mgrwt>
<rscale>  0 0.82788445E+03</rscale>
<asrwt>0</asrwt>
<pdfrwt beam="1">  1        2 0.31850733E+00 0.90345362E+03</pdfrwt>
<pdfrwt beam="2">  1       -2 0.10293211E+00 0.90345362E+03</pdfrwt>
<totfact> 0.47723893E+00</totfact>
</mgrwt>
</event>
<event>
 4    5  0.6615028E-008  0.6643884E+03  0.7818608E-02  0.1020052E+00
          2   -1    0    0  501    0  0.00000000000E+00  0.00000000000E+00  0.81848474016E+03  0.81848474016E+03  0.25500000000E-02 0. -1.
         -2   -1    0    0    0  501 -0.00000000000E+00 -0.00000000000E+00 -0.28500117920E+03  0.28500117921E+03  0.25500000000E-02 0.  1.
    8880023    1    1    2    0    0 -0.15856953389E+02  0.85733688067E+02  0.61873674034E+03  0.90788053639E+03  0.65864270000E+03 0. -1.
    8880022    1    1    2    0    0  0.15856953389E+02 -0.85733688067E+02 -0.85253179384E+02  0.19560538298E+03  0.15294330000E+03 0.  0.
<mgrwt>
<rscale>  0 0.47667800E+03</rscale>
<asrwt>0</asrwt>
<pdfrwt beam="1">  1        2 0.12592073E+00 0.66438838E+03</pdfrwt>
<pdfrwt beam="2">  1       -2 0.43846336E-01 0.66438838E+03</pdfrwt>
<totfact> 0.16736603E+02</totfact>
</mgrwt>
</event>
<event>
 4    5  0.6615028E-008  0.9007790E+03  0.7818608E-02  0.9524782E-01
         -2   -1    0    0    0  501 -0.00000000000E+00  0.00000000000E+00  0.22959234722E+03  0.22959234724E+03  0.25500000000E-02 0.  1.
          2   -1    0    0  501    0  0.00000000000E+00 -0.00000000000E+00 -0.30007719274E+04  0.30007719274E+04  0.25500000000E-02 0. -1.
    8880023    1    1    2    0    0 -0.55327118442E-01 -0.61448557083E+03 -0.22012432634E+04  0.23784185146E+04  0.65864270000E+03 0. -1.
    8880022    1    1    2    0    0  0.55327118442E-01  0.61448557083E+03 -0.56993631681E+03  0.85194576004E+03  0.15294330000E+03 0.  0.
<mgrwt>
<rscale>  0 0.82481125E+03</rscale>
<asrwt>0</asrwt>
<pdfrwt beam="1">  1        2 0.46165719E+00 0.90077896E+03</pdfrwt>
<pdfrwt beam="2">  1       -2 0.35321902E-01 0.90077896E+03</pdfrwt>
<totfact> 0.13570247E+01</totfact>
</mgrwt>
</event>
<event>
 4    5  0.6615028E-008  0.8704669E+03  0.7818608E-02  0.9575209E-01
          2   -1    0    0  501    0  0.00000000000E+00  0.00000000000E+00  0.98269144424E+03  0.98269144424E+03  0.25500000000E-02 0. -1.
         -2   -1    0    0    0  501 -0.00000000000E+00 -0.00000000000E+00 -0.78465043227E+03  0.78465043228E+03  0.25500000000E-02 0.  1.
    8880023    1    1    2    0    0  0.54982886814E+03  0.14693770470E+03  0.59714252981E+03  0.10556002465E+04  0.65864270000E+03 0. -1.
    8880022    1    1    2    0    0 -0.54982886814E+03 -0.14693770470E+03 -0.39910151785E+03  0.71174162999E+03  0.15294330000E+03 0.  0.
<mgrwt>
<rscale>  0 0.78958954E+03</rscale>
<asrwt>0</asrwt>
<pdfrwt beam="1">  1        2 0.15118330E+00 0.87046693E+03</pdfrwt>
<pdfrwt beam="2">  1       -2 0.12071545E+00 0.87046693E+03</pdfrwt>
<totfact> 0.13578214E+01</totfact>
</mgrwt>
</event>
<event>
 4    5  0.6615028E-008  0.9184430E+03  0.7818608E-02  0.9497050E-01
         -2   -1    0    0    0  501 -0.00000000000E+00  0.00000000000E+00  0.30206112431E+03  0.30206112432E+03  0.25500000000E-02 0.  1.
          2   -1    0    0  501    0  0.00000000000E+00 -0.00000000000E+00 -0.23189864092E+04  0.23189864092E+04  0.25500000000E-02 0. -1.
    8880023    1    1    2    0    0 -0.62631113253E+03 -0.13214299653E+03 -0.15911829431E+04  0.18372263799E+04  0.65864270000E+03 0. -1.
    8880022    1    1    2    0    0  0.62631113253E+03  0.13214299653E+03 -0.42574234173E+03  0.78382115359E+03  0.15294330000E+03 0.  0.
<mgrwt>
<rscale>  0 0.84501629E+03</rscale>
<asrwt>0</asrwt>
<pdfrwt beam="1">  1        2 0.35676713E+00 0.91844304E+03</pdfrwt>
<pdfrwt beam="2">  1       -2 0.46470944E-01 0.91844304E+03</pdfrwt>
<totfact> 0.19770871E+01</totfact>
</mgrwt>
</event>
<event>
 4    5  0.6615028E-008  0.1347437E+04  0.7818608E-02  0.9025641E-01
          2   -1    0    0  501    0  0.00000000000E+00  0.00000000000E+00  0.17230539469E+04  0.17230539469E+04  0.25500000000E-02 0. -1.
         -2   -1    0    0    0  501 -0.00000000000E+00 -0.00000000000E+00 -0.18016001432E+04  0.18016001432E+04  0.25500000000E-02 0.  1.
    8880023    1    1    2    0    0  0.43643361091E+03 -0.10914672178E+04  0.11833624852E+04  0.17933019718E+04  0.65864270000E+03 0.  0.
    8880022    1    1    2    0    0 -0.43643361091E+03  0.10914672178E+04 -0.12619086815E+04  0.17313521184E+04  0.15294330000E+03 0.  0.
<mgrwt>
<rscale>  0 0.13049600E+04</rscale>
<asrwt>0</asrwt>
<pdfrwt beam="1">  1        2 0.26508522E+00 0.13474365E+04</pdfrwt>
<pdfrwt beam="2">  1       -2 0.27716925E+00 0.13474365E+04</pdfrwt>
<totfact> 0.39863638E-01</totfact>
</mgrwt>
</event>
<event>
 4    5  0.6615028E-008  0.7471199E+03  0.7818608E-02  0.9839672E-01
          2   -1    0    0  501    0  0.00000000000E+00  0.00000000000E+00  0.29340414331E+04  0.29340414331E+04  0.25500000000E-02 0. -1.
         -2   -1    0    0    0  501 -0.00000000000E+00 -0.00000000000E+00 -0.17287339799E+03  0.17287339801E+03  0.25500000000E-02 0.  1.
    8880023    1    1    2    0    0  0.85787194117E+02 -0.34207967960E+03  0.25723226142E+04  0.26786249808E+04  0.65864270000E+03 0. -1.
    8880022    1    1    2    0    0 -0.85787194117E+02  0.34207967960E+03  0.18884542089E+03  0.42828985031E+03  0.15294330000E+03 0.  0.
<mgrwt>
<rscale>  0 0.63276270E+03</rscale>
<asrwt>0</asrwt>
<pdfrwt beam="1">  1        2 0.45139095E+00 0.74711991E+03</pdfrwt>
<pdfrwt beam="2">  1       -2 0.26595910E-01 0.74711991E+03</pdfrwt>
<totfact> 0.25896256E+01</totfact>
</mgrwt>
</event>
<event>
 4    5  0.6615028E-008  0.1448115E+04  0.7818608E-02  0.8947170E-01
          2   -1    0    0  501    0  0.00000000000E+00  0.00000000000E+00  0.13407691889E+04  0.13407691889E+04  0.25500000000E-02 0. -1.
         -2   -1    0    0    0  501 -0.00000000000E+00 -0.00000000000E+00 -0.15632352756E+04  0.15632352756E+04  0.25500000000E-02 0.  1.
    8880023    1    1    2    0    0 -0.12616802483E+04 -0.26718882782E+03  0.34197981581E+03  0.14879473510E+04  0.65864270000E+03 0.  0.
    8880022    1    1    2    0    0  0.12616802483E+04  0.26718882782E+03 -0.56444590252E+03  0.14160571135E+04  0.15294330000E+03 0.  0.
<mgrwt>
<rscale>  0 0.14092220E+04</rscale>
<asrwt>0</asrwt>
<pdfrwt beam="1">  1        2 0.20627218E+00 0.14481150E+04</pdfrwt>
<pdfrwt beam="2">  1       -2 0.24049774E+00 0.14481150E+04</pdfrwt>
<totfact> 0.10901569E+00</totfact>
</mgrwt>
</event>
<event>
 4    5  0.6615028E-008  0.9399605E+03  0.7818608E-02  0.9464708E-01
          2   -1    0    0  501    0  0.00000000000E+00  0.00000000000E+00  0.32995732392E+04  0.32995732392E+04  0.25500000000E-02 0. -1.
         -2   -1    0    0    0  501 -0.00000000000E+00 -0.00000000000E+00 -0.23635409403E+03  0.23635409404E+03  0.25500000000E-02 0.  1.
    8880023    1    1    2    0    0  0.25450365069E+02 -0.67012518169E+03  0.24121771309E+04  0.25888461131E+04  0.65864270000E+03 0.  0.
    8880022    1    1    2    0    0 -0.25450365069E+02  0.67012518169E+03  0.65104201435E+03  0.94708122021E+03  0.15294330000E+03 0.  0.
<mgrwt>
<rscale>  0 0.86936496E+03</rscale>
<asrwt>0</asrwt>
<pdfrwt beam="1">  1        2 0.50762662E+00 0.93996047E+03</pdfrwt>
<pdfrwt beam="2">  1       -2 0.36362170E-01 0.93996047E+03</pdfrwt>
<totfact> 0.82508734E+00</totfact>
</mgrwt>
</event>
<event>
 4    5  0.6615028E-008  0.1362005E+04  0.7818608E-02  0.9013783E-01
         -2   -1    0    0    0  501 -0.00000000000E+00  0.00000000000E+00  0.11221877284E+04  0.11221877284E+04  0.25500000000E-02 0.  1.
          2   -1    0    0  501    0  0.00000000000E+00 -0.00000000000E+00 -0.15019593757E+04  0.15019593757E+04  0.25500000000E-02 0. -1.
    8880023    1    1    2    0    0  0.63372995522E+03 -0.10097686020E+04 -0.40826686713E+03  0.14218784501E+04  0.65864270000E+03 0.  0.
    8880022    1    1    2    0    0 -0.63372995522E+03  0.10097686020E+04  0.28495219890E+02  0.12022686540E+04  0.15294330000E+03 0.  0.
<mgrwt>
<rscale>  0 0.13200908E+04</rscale>
<asrwt>0</asrwt>
<pdfrwt beam="1">  1        2 0.23107067E+00 0.13620046E+04</pdfrwt>
<pdfrwt beam="2">  1       -2 0.17264427E+00 0.13620046E+04</pdfrwt>
<totfact> 0.24704617E+00</totfact>
</mgrwt>
</event>
<event>
 4    5  0.6615028E-008  0.7315171E+03  0.7818608E-02  0.9885384E-01
          2   -1    0    0  501    0  0.00000000000E+00  0.00000000000E+00  0.79781864449E+03  0.79781864449E+03  0.25500000000E-02 0. -1.
         -2   -1    0    0    0  501 -0.00000000000E+00 -0.00000000000E+00 -0.10129063914E+04  0.10129063914E+04  0.25500000000E-02 0.  1.
    8880023    1    1    2    0    0 -0.55501669690E+02 -0.31341135789E+03  0.58468080071E+03  0.93646620845E+03  0.65864270000E+03 0. -1.
    8880022    1    1    2    0    0  0.55501669690E+02  0.31341135789E+03 -0.79976854759E+03  0.87425882742E+03  0.15294330000E+03 0.  0.
<mgrwt>
<rscale>  0 0.60974907E+03</rscale>
<asrwt>0</asrwt>
<pdfrwt beam="1">  1        2 0.12274133E+00 0.73151714E+03</pdfrwt>
<pdfrwt beam="2">  1       -2 0.15583175E+00 0.73151714E+03</pdfrwt>
<totfact> 0.95303921E+00</totfact>
</mgrwt>
</event>
<event>
 4    5  0.6615028E-008  0.9937652E+03  0.7818608E-02  0.9389761E-01
          2   -1    0    0  501    0  0.00000000000E+00  0.00000000000E+00  0.25416782497E+04  0.25416782497E+04  0.25500000000E-02 0. -1.
         -2   -1    0    0    0  501 -0.00000000000E+00 -0.00000000000E+00 -0.45647304574E+03  0.45647304575E+03  0.25500000000E-02 0.  1.
    8880023    1    1    2    0    0  0.55178623162E+03 -0.49929042577E+03  0.20005063093E+04  0.22337400642E+04  0.65864270000E+03 0. -1.
    8880022    1    1    2    0    0 -0.55178623162E+03  0.49929042577E+03  0.84698894653E+02  0.76441123123E+03  0.15294330000E+03 0.  0.
<mgrwt>
<rscale>  0 0.92923160E+03</rscale>
<asrwt>0</asrwt>
<pdfrwt beam="1">  1        2 0.39102742E+00 0.99376515E+03</pdfrwt>
<pdfrwt beam="2">  1       -2 0.70226622E-01 0.99376515E+03</pdfrwt>
<totfact> 0.61538846E+00</totfact>
</mgrwt>
</event>
<event>
 4    5  0.6615028E-008  0.1261141E+04  0.7818608E-02  0.9099865E-01
          2   -1    0    0  501    0  0.00000000000E+00  0.00000000000E+00  0.18905969756E+04  0.18905969756E+04  0.25500000000E-02 0. -1.
         -2   -1    0    0    0  501 -0.00000000000E+00 -0.00000000000E+00 -0.15345557210E+04  0.15345557210E+04  0.25500000000E-02 0.  1.
    8880023    1    1    2    0    0  0.37730177499E+03 -0.10071289884E+04  0.14237469621E+04  0.19019808220E+04  0.65864270000E+03 0. -1.
    8880022    1    1    2    0    0 -0.37730177499E+03  0.10071289884E+04 -0.10677057076E+04  0.15231718747E+04  0.15294330000E+03 0.  0.
<mgrwt>
<rscale>  0 0.12149559E+04</rscale>
<asrwt>0</asrwt>
<pdfrwt beam="1">  1        2 0.29086107E+00 0.12611406E+04</pdfrwt>
<pdfrwt beam="2">  1       -2 0.23608550E+00 0.12611406E+04</pdfrwt>
<totfact> 0.58037995E-01</totfact>
</mgrwt>
</event>
<event>
 4    5  0.6615028E-008  0.6642840E+03  0.7818608E-02  0.1020142E+00
          2   -1    0    0  501    0  0.00000000000E+00  0.00000000000E+00  0.23863413704E+04  0.23863413704E+04  0.25500000000E-02 0. -1.
         -2   -1    0    0    0  501 -0.00000000000E+00 -0.00000000000E+00 -0.29261344675E+03  0.29261344676E+03  0.25500000000E-02 0.  1.
    8880023    1    1    2    0    0 -0.68853480359E+00  0.86385974206E+02  0.23081102627E+04  0.24018006165E+04  0.65864270000E+03 0. -1.
    8880022    1    1    2    0    0  0.68853480359E+00 -0.86385974206E+02 -0.21438233904E+03  0.27715420063E+03  0.15294330000E+03 0.  0.
<mgrwt>
<rscale>  0 0.47635468E+03</rscale>
<asrwt>0</asrwt>
<pdfrwt beam="1">  1        2 0.36712944E+00 0.66428399E+03</pdfrwt>
<pdfrwt beam="2">  1       -2 0.45017454E-01 0.66428399E+03</pdfrwt>
<totfact> 0.20029001E+01</totfact>
</mgrwt>
</event>
<event>
 4    5  0.6615028E-008  0.1651880E+04  0.7818608E-02  0.8809224E-01
         -2   -1    0    0    0  501 -0.00000000000E+00  0.00000000000E+00  0.26582616708E+04  0.26582616708E+04  0.25500000000E-02 0.  1.
          2   -1    0    0  501    0  0.00000000000E+00 -0.00000000000E+00 -0.20234843475E+04  0.20234843476E+04  0.25500000000E-02 0. -1.
    8880023    1    1    2    0    0 -0.13154397745E+04  0.75134140801E+03 -0.13827001850E+04  0.21541972332E+04  0.65864270000E+03 0.  0.
    8880022    1    1    2    0    0  0.13154397745E+04 -0.75134140801E+03  0.20174775083E+04  0.25275487851E+04  0.15294330000E+03 0.  0.
<mgrwt>
<rscale>  0 0.16185633E+04</rscale>
<asrwt>0</asrwt>
<pdfrwt beam="1">  1        2 0.31130529E+00 0.16518795E+04</pdfrwt>
<pdfrwt beam="2">  1       -2 0.40896333E+00 0.16518795E+04</pdfrwt>
<totfact> 0.38708257E-02</totfact>
</mgrwt>
</event>
<event>
 4    5  0.6615028E-008  0.7952992E+03  0.7818608E-02  0.9721054E-01
          2   -1    0    0  501    0  0.00000000000E+00  0.00000000000E+00  0.37183091915E+03  0.37183091916E+03  0.25500000000E-02 0. -1.
         -2   -1    0    0    0  501 -0.00000000000E+00 -0.00000000000E+00 -0.15315967398E+04  0.15315967398E+04  0.25500000000E-02 0.  1.
    8880023    1    1    2    0    0 -0.87696171284E+02 -0.43703553021E+03 -0.17881958162E+03  0.81515478417E+03  0.65864270000E+03 0. -1.
    8880022    1    1    2    0    0  0.87696171284E+02  0.43703553021E+03 -0.98094623908E+03  0.10882728748E+04  0.15294330000E+03 0.  0.
<mgrwt>
<rscale>  0 0.69776981E+03</rscale>
<asrwt>0</asrwt>
<pdfrwt beam="1">  1        2 0.57204757E-01 0.79529924E+03</pdfrwt>
<pdfrwt beam="2">  1       -2 0.23563027E+00 0.79529924E+03</pdfrwt>
<totfact> 0.69425861E+00</totfact>
</mgrwt>
</event>
<event>
 4    5  0.6615028E-008  0.1732663E+04  0.7818608E-02  0.8760729E-01
          2   -1    0    0  501    0  0.00000000000E+00  0.00000000000E+00  0.10419337434E+04  0.10419337434E+04  0.25500000000E-02 0. -1.
         -2   -1    0    0    0  501 -0.00000000000E+00 -0.00000000000E+00 -0.32873506380E+04  0.32873506380E+04  0.25500000000E-02 0.  1.
    8880023    1    1    2    0    0 -0.15836774146E+04 -0.24551378286E+03 -0.22698293935E+03  0.17474674910E+04  0.65864270000E+03 0.  0.
    8880022    1    1    2    0    0  0.15836774146E+04  0.24551378286E+03 -0.20184339552E+04  0.25818168904E+04  0.15294330000E+03 0.  0.
<mgrwt>
<rscale>  0 0.17011153E+04</rscale>
<asrwt>0</asrwt>
<pdfrwt beam="1">  1        2 0.16029750E+00 0.17326631E+04</pdfrwt>
<pdfrwt beam="2">  1       -2 0.50574625E+00 0.17326631E+04</pdfrwt>
<totfact> 0.32976953E-02</totfact>
</mgrwt>
</event>
<event>
 4    5  0.6615028E-008  0.8738423E+03  0.7818608E-02  0.9569400E-01
         -2   -1    0    0    0  501 -0.00000000000E+00  0.00000000000E+00  0.46051311056E+03  0.46051311057E+03  0.25500000000E-02 0.  1.
          2   -1    0    0  501    0  0.00000000000E+00 -0.00000000000E+00 -0.15142615976E+04  0.15142615976E+04  0.25500000000E-02 0. -1.
    8880023    1    1    2    0    0  0.49934963307E+03 -0.28361958536E+03 -0.10684715927E+04  0.13803013714E+04  0.65864270000E+03 0.  0.
    8880022    1    1    2    0    0 -0.49934963307E+03  0.28361958536E+03  0.14723105677E+02  0.59447333674E+03  0.15294330000E+03 0.  0.
<mgrwt>
<rscale>  0 0.79355051E+03</rscale>
<asrwt>0</asrwt>
<pdfrwt beam="1">  1        2 0.23296332E+00 0.87384228E+03</pdfrwt>
<pdfrwt beam="2">  1       -2 0.70848172E-01 0.87384228E+03</pdfrwt>
<totfact> 0.22786759E+01</totfact>
</mgrwt>
</event>
<event>
 4    5  0.6615028E-008  0.6704675E+03  0.7818608E-02  0.1015330E+00
         -2   -1    0    0    0  501 -0.00000000000E+00  0.00000000000E+00  0.16392234012E+03  0.16392234014E+03  0.25500000000E-02 0.  1.
          2   -1    0    0  501    0  0.00000000000E+00 -0.00000000000E+00 -0.12001197288E+04  0.12001197288E+04  0.25500000000E-02 0. -1.
    8880023    1    1    2    0    0  0.59033184536E+02 -0.11059640292E+03 -0.66997171364E+03  0.94783373255E+03  0.65864270000E+03 0.  0.
    8880022    1    1    2    0    0 -0.59033184536E+02  0.11059640292E+03 -0.36622567504E+03  0.41620833640E+03  0.15294330000E+03 0. -1.
<mgrwt>
<rscale>  0 0.49410209E+03</rscale>
<asrwt>0</asrwt>
<pdfrwt beam="1">  1        2 0.18463380E+00 0.67046751E+03</pdfrwt>
<pdfrwt beam="2">  1       -2 0.25218822E-01 0.67046751E+03</pdfrwt>
<totfact> 0.27119282E+02</totfact>
</mgrwt>
</event>
<event>
 4    5  0.6615028E-008  0.8545745E+03  0.7818608E-02  0.9603288E-01
         -2   -1    0    0    0  501 -0.00000000000E+00  0.00000000000E+00  0.85197855779E+03  0.85197855779E+03  0.25500000000E-02 0.  1.
          2   -1    0    0  501    0  0.00000000000E+00 -0.00000000000E+00 -0.10222814977E+04  0.10222814977E+04  0.25500000000E-02 0. -1.
    8880023    1    1    2    0    0 -0.51935901474E+03  0.16356532665E+03 -0.69596654654E+03  0.11021193413E+04  0.65864270000E+03 0.  0.
    8880022    1    1    2    0    0  0.51935901474E+03 -0.16356532665E+03  0.52566360660E+03  0.77214071424E+03  0.15294330000E+03 0.  1.
<mgrwt>
<rscale>  0 0.77078930E+03</rscale>
<asrwt>0</asrwt>
<pdfrwt beam="1">  1        2 0.15727408E+00 0.85457452E+03</pdfrwt>
<pdfrwt beam="2">  1       -2 0.13107363E+00 0.85457452E+03</pdfrwt>
<totfact> 0.10428116E+01</totfact>
</mgrwt>
</event>
<event>
 4    5  0.6615028E-008  0.1305115E+04  0.7818608E-02  0.9061155E-01
          2   -1    0    0  501    0  0.00000000000E+00  0.00000000000E+00  0.10190605136E+04  0.10190605136E+04  0.25500000000E-02 0. -1.
         -2   -1    0    0    0  501 -0.00000000000E+00 -0.00000000000E+00 -0.16986900898E+04  0.16986900898E+04  0.25500000000E-02 0.  1.
    8880023    1    1    2    0    0  0.69809873979E+03 -0.88440541496E+03  0.14499811371E+03  0.13131448693E+04  0.65864270000E+03 0.  0.
    8880022    1    1    2    0    0 -0.69809873979E+03  0.88440541496E+03 -0.82462768989E+03  0.14046057342E+04  0.15294330000E+03 0.  0.
<mgrwt>
<rscale>  0 0.12609053E+04</rscale>
<asrwt>0</asrwt>
<pdfrwt beam="1">  1        2 0.15677854E+00 0.13051149E+04</pdfrwt>
<pdfrwt beam="2">  1       -2 0.26133694E+00 0.13051149E+04</pdfrwt>
<totfact> 0.12929043E+00</totfact>
</mgrwt>
</event>
<event>
 4    5  0.6615028E-008  0.7793022E+03  0.7818608E-02  0.9757479E-01
          2   -1    0    0  501    0  0.00000000000E+00  0.00000000000E+00  0.69855639948E+03  0.69855639948E+03  0.25500000000E-02 0. -1.
         -2   -1    0    0    0  501 -0.00000000000E+00 -0.00000000000E+00 -0.13128970297E+04  0.13128970297E+04  0.25500000000E-02 0.  1.
    8880023    1    1    2    0    0 -0.40743963548E+03  0.86571744808E+02  0.42048557940E+03  0.88550553488E+03  0.65864270000E+03 0. -1.
    8880022    1    1    2    0    0  0.40743963548E+03 -0.86571744808E+02 -0.10348262097E+04  0.11259478943E+04  0.15294330000E+03 0.  0.
<mgrwt>
<rscale>  0 0.67695269E+03</rscale>
<asrwt>0</asrwt>
<pdfrwt beam="1">  1        2 0.10747022E+00 0.77930221E+03</pdfrwt>
<pdfrwt beam="2">  1       -2 0.20198416E+00 0.77930221E+03</pdfrwt>
<totfact> 0.53954823E+00</totfact>
</mgrwt>
</event>
<event>
 4    5  0.6615028E-008  0.6807790E+03  0.7818608E-02  0.1008886E+00
          2   -1    0    0  501    0  0.00000000000E+00  0.00000000000E+00  0.22313725426E+03  0.22313725427E+03  0.25500000000E-02 0. -1.
         -2   -1    0    0    0  501 -0.00000000000E+00 -0.00000000000E+00 -0.13119385484E+04  0.13119385484E+04  0.25500000000E-02 0.  1.
    8880023    1    1    2    0    0 -0.17208189092E+03 -0.61351897162E+01 -0.35867126317E+03  0.76948365741E+03  0.65864270000E+03 0. -1.
    8880022    1    1    2    0    0  0.17208189092E+03  0.61351897162E+01 -0.73013003093E+03  0.76559214522E+03  0.15294330000E+03 0.  0.
<mgrwt>
<rscale>  0 0.51919625E+03</rscale>
<asrwt>0</asrwt>
<pdfrwt beam="1">  1        2 0.34328809E-01 0.68077898E+03</pdfrwt>
<pdfrwt beam="2">  1       -2 0.20183670E+00 0.68077898E+03</pdfrwt>
<totfact> 0.20227679E+01</totfact>
</mgrwt>
</event>
<event>
 4    5  0.6615028E-008  0.7605035E+03  0.7818608E-02  0.9803806E-01
          2   -1    0    0  501    0  0.00000000000E+00  0.00000000000E+00  0.58926618016E+03  0.58926618017E+03  0.25500000000E-02 0. -1.
         -2   -1    0    0    0  501 -0.00000000000E+00 -0.00000000000E+00 -0.10497981139E+04  0.10497981139E+04  0.25500000000E-02 0.  1.
    8880023    1    1    2    0    0  0.38017423868E+03 -0.47810401556E+01 -0.80228410663E+03  0.11054525336E+04  0.65864270000E+03 0.  1.
    8880022    1    1    2    0    0 -0.38017423868E+03  0.47810401556E+01  0.34175217294E+03  0.53361176039E+03  0.15294330000E+03 0.  0.
<mgrwt>
<rscale>  0 0.65158701E+03</rscale>
<asrwt>0</asrwt>
<pdfrwt beam="1">  1        2 0.90656336E-01 0.76050346E+03</pdfrwt>
<pdfrwt beam="2">  1       -2 0.16150740E+00 0.76050346E+03</pdfrwt>
<totfact> 0.12622807E+01</totfact>
</mgrwt>
</event>
<event>
 4    5  0.6615028E-008  0.1154216E+04  0.7818608E-02  0.9202966E-01
          2   -1    0    0  501    0  0.00000000000E+00  0.00000000000E+00  0.16971912471E+04  0.16971912471E+04  0.25500000000E-02 0. -1.
         -2   -1    0    0    0  501 -0.00000000000E+00 -0.00000000000E+00 -0.10065261137E+04  0.10065261137E+04  0.25500000000E-02 0.  1.
    8880023    1    1    2    0    0  0.21245921887E+03  0.92372335928E+03  0.11588126013E+04  0.16355612539E+04  0.65864270000E+03 0. -1.
    8880022    1    1    2    0    0 -0.21245921887E+03 -0.92372335928E+03 -0.46814746784E+03  0.10681561070E+04  0.15294330000E+03 0.  0.
<mgrwt>
<rscale>  0 0.11022867E+04</rscale>
<asrwt>0</asrwt>
<pdfrwt beam="1">  1        2 0.26110634E+00 0.11542157E+04</pdfrwt>
<pdfrwt beam="2">  1       -2 0.15485017E+00 0.11542157E+04</pdfrwt>
<totfact> 0.26453652E+00</totfact>
</mgrwt>
</event>
<event>
 4    5  0.6615028E-008  0.6865000E+03  0.7818608E-02  0.1005863E+00
          2   -1    0    0  501    0  0.00000000000E+00  0.00000000000E+00  0.10670050328E+04  0.10670050328E+04  0.25500000000E-02 0. -1.
         -2   -1    0    0    0  501 -0.00000000000E+00 -0.00000000000E+00 -0.11036380198E+04  0.11036380198E+04  0.25500000000E-02 0.  1.
    8880023    1    1    2    0    0  0.32938232064E+02  0.19075402872E+03  0.93962739039E+03  0.11636932008E+04  0.65864270000E+03 0. -1.
    8880022    1    1    2    0    0 -0.32938232064E+02 -0.19075402872E+03 -0.97626037736E+03  0.10069498518E+04  0.15294330000E+03 0.  0.
<mgrwt>
<rscale>  0 0.53152681E+03</rscale>
<asrwt>0</asrwt>
<pdfrwt beam="1">  1        2 0.16415462E+00 0.68649999E+03</pdfrwt>
<pdfrwt beam="2">  1       -2 0.16979047E+00 0.68649999E+03</pdfrwt>
<totfact> 0.50340365E+00</totfact>
</mgrwt>
</event>
<event>
 4    5  0.6615028E-008  0.1905441E+04  0.7818608E-02  0.8666349E-01
          2   -1    0    0  501    0  0.00000000000E+00  0.00000000000E+00  0.34869826990E+04  0.34869826990E+04  0.25500000000E-02 0. -1.
         -2   -1    0    0    0  501 -0.00000000000E+00 -0.00000000000E+00 -0.11816597280E+04  0.11816597280E+04  0.25500000000E-02 0.  1.
    8880023    1    1    2    0    0 -0.17751646712E+04 -0.21373859288E+03  0.22095226023E+03  0.19182085141E+04  0.65864270000E+03 0.  0.
    8880022    1    1    2    0    0  0.17751646712E+04  0.21373859288E+03  0.20843707109E+04  0.27504339129E+04  0.15294330000E+03 0.  0.
<mgrwt>
<rscale>  0 0.18770825E+04</rscale>
<asrwt>0</asrwt>
<pdfrwt beam="1">  1        2 0.53645886E+00 0.19054406E+04</pdfrwt>
<pdfrwt beam="2">  1       -2 0.18179381E+00 0.19054406E+04</pdfrwt>
<totfact> 0.13246948E-01</totfact>
</mgrwt>
</event>
<event>
 4    5  0.6615028E-008  0.9880840E+03  0.7818608E-02  0.9397316E-01
         -2   -1    0    0    0  501 -0.00000000000E+00  0.00000000000E+00  0.21007725167E+03  0.21007725169E+03  0.25500000000E-02 0.  1.
          2   -1    0    0  501    0  0.00000000000E+00 -0.00000000000E+00 -0.38556325508E+04  0.38556325508E+04  0.25500000000E-02 0. -1.
    8880023    1    1    2    0    0  0.40954457021E+03  0.61218712275E+03 -0.15392109350E+04  0.18290654272E+04  0.65864270000E+03 0.  1.
    8880022    1    1    2    0    0 -0.40954457021E+03 -0.61218712275E+03 -0.21063443641E+04  0.22366443753E+04  0.15294330000E+03 0. -1.
<mgrwt>
<rscale>  0 0.92296887E+03</rscale>
<asrwt>0</asrwt>
<pdfrwt beam="1">  1        2 0.59317418E+00 0.98808402E+03</pdfrwt>
<pdfrwt beam="2">  1       -2 0.32319580E-01 0.98808402E+03</pdfrwt>
<totfact> 0.41694850E+00</totfact>
</mgrwt>
</event>
<event>
 4    5  0.6615028E-008  0.1371573E+04  0.7818608E-02  0.9006092E-01
          2   -1    0    0  501    0  0.00000000000E+00  0.00000000000E+00  0.91210969114E+03  0.91210969114E+03  0.25500000000E-02 0. -1.
         -2   -1    0    0    0  501 -0.00000000000E+00 -0.00000000000E+00 -0.47496859809E+04  0.47496859809E+04  0.25500000000E-02 0.  1.
    8880023    1    1    2    0    0 -0.10435729822E+04  0.59862919341E+03  0.25345198028E+03  0.13947937457E+04  0.65864270000E+03 0.  0.
    8880022    1    1    2    0    0  0.10435729822E+04 -0.59862919341E+03 -0.40910282700E+04  0.42670019264E+04  0.15294330000E+03 0.  0.
<mgrwt>
<rscale>  0 0.13300197E+04</rscale>
<asrwt>0</asrwt>
<pdfrwt beam="1">  1        2 0.14032457E+00 0.13715727E+04</pdfrwt>
<pdfrwt beam="2">  1       -2 0.73072091E+00 0.13715727E+04</pdfrwt>
<totfact> 0.48170637E-03</totfact>
</mgrwt>
</event>
<event>
 4    5  0.9523627E-008  0.6895355E+03  0.7818608E-02  0.1004374E+00
          2   -1    0    0  501    0  0.00000000000E+00  0.00000000000E+00  0.24254859630E+04  0.24254859630E+04  0.25500000000E-02 0. -1.
         -2   -1    0    0    0  501 -0.00000000000E+00 -0.00000000000E+00 -0.14873734733E+04  0.14873734733E+04  0.25500000000E-02 0.  1.
    8880023    1    1    2    0    0 -0.54879864844E+02  0.19656345863E+03  0.23649434538E+04  0.24634156651E+04  0.65864270000E+03 0. -1.
    8880022    1    1    2    0    0  0.54879864844E+02 -0.19656345863E+03 -0.14268309641E+04  0.14494437713E+04  0.15294330000E+03 0.  0.
<mgrwt>
<rscale>  0 0.53773162E+03</rscale>
<asrwt>0</asrwt>
<pdfrwt beam="1">  1        2 0.37315168E+00 0.68953550E+03</pdfrwt>
<pdfrwt beam="2">  1       -2 0.22882669E+00 0.68953550E+03</pdfrwt>
<totfact> 0.36026359E-01</totfact>
</mgrwt>
</event>
<event>
 4    5  0.6615028E-008  0.9784319E+03  0.7818608E-02  0.9410336E-01
         -2   -1    0    0    0  501 -0.00000000000E+00  0.00000000000E+00  0.54720241265E+03  0.54720241266E+03  0.25500000000E-02 0.  1.
          2   -1    0    0  501    0  0.00000000000E+00 -0.00000000000E+00 -0.22153809555E+04  0.22153809555E+04  0.25500000000E-02 0. -1.
    8880023    1    1    2    0    0  0.71576993294E+03  0.10579301295E+03 -0.17636859291E+04  0.20169077870E+04  0.65864270000E+03 0. -1.
    8880022    1    1    2    0    0 -0.71576993294E+03 -0.10579301295E+03  0.95507386258E+02  0.74567558115E+03  0.15294330000E+03 0.  0.
<mgrwt>
<rscale>  0 0.91229958E+03</rscale>
<asrwt>0</asrwt>
<pdfrwt beam="1">  1        2 0.34082783E+00 0.97843189E+03</pdfrwt>
<pdfrwt beam="2">  1       -2 0.84184988E-01 0.97843189E+03</pdfrwt>
<totfact> 0.62819905E+00</totfact>
</mgrwt>
</event>
<event>
 4    5  0.6615028E-008  0.7211147E+03  0.7818608E-02  0.9918832E-01
          2   -1    0    0  501    0  0.00000000000E+00  0.00000000000E+00  0.10294911438E+04  0.10294911438E+04  0.25500000000E-02 0. -1.
         -2   -1    0    0    0  501 -0.00000000000E+00 -0.00000000000E+00 -0.12145375579E+04  0.12145375579E+04  0.25500000000E-02 0.  1.
    8880023    1    1    2    0    0  0.27550765405E+03  0.10144799221E+03  0.87479008349E+03  0.11336948703E+04  0.65864270000E+03 0. -1.
    8880022    1    1    2    0    0 -0.27550765405E+03 -0.10144799221E+03 -0.10598364975E+04  0.11103338314E+04  0.15294330000E+03 0.  0.
<mgrwt>
<rscale>  0 0.59357217E+03</rscale>
<asrwt>0</asrwt>
<pdfrwt beam="1">  1        2 0.15838325E+00 0.72111467E+03</pdfrwt>
<pdfrwt beam="2">  1       -2 0.18685193E+00 0.72111467E+03</pdfrwt>
<totfact> 0.40315227E+00</totfact>
</mgrwt>
</event>
<event>
 4    5  0.6615028E-008  0.8985832E+03  0.7818608E-02  0.9528310E-01
         -2   -1    0    0    0  501 -0.00000000000E+00  0.00000000000E+00  0.13915412225E+04  0.13915412225E+04  0.25500000000E-02 0.  1.
          2   -1    0    0  501    0  0.00000000000E+00 -0.00000000000E+00 -0.57484801785E+03  0.57484801785E+03  0.25500000000E-02 0. -1.
    8880023    1    1    2    0    0 -0.51176631056E+03 -0.33427066209E+03 -0.44046840694E+02  0.89966213802E+03  0.65864270000E+03 0. -1.
    8880022    1    1    2    0    0  0.51176631056E+03  0.33427066209E+03  0.86074004532E+03  0.10667271023E+04  0.15294330000E+03 0.  0.
<mgrwt>
<rscale>  0 0.82228449E+03</rscale>
<asrwt>0</asrwt>
<pdfrwt beam="1">  1        2 0.88438158E-01 0.89858324E+03</pdfrwt>
<pdfrwt beam="2">  1       -2 0.21408326E+00 0.89858324E+03</pdfrwt>
<totfact> 0.56600102E+00</totfact>
</mgrwt>
</event>
<event>
 4    5  0.6615028E-008  0.1411819E+04  0.7818608E-02  0.8974553E-01
          2   -1    0    0  501    0  0.00000000000E+00  0.00000000000E+00  0.35615170260E+04  0.35615170260E+04  0.25500000000E-02 0. -1.
         -2   -1    0    0    0  501 -0.00000000000E+00 -0.00000000000E+00 -0.71513449275E+03  0.71513449276E+03  0.25500000000E-02 0.  1.
    8880023    1    1    2    0    0 -0.16514850068E+03 -0.12377997348E+04  0.26509556298E+04  0.30034643611E+04  0.65864270000E+03 0. -1.
    8880022    1    1    2    0    0  0.16514850068E+03  0.12377997348E+04  0.19542690344E+03  0.12731871577E+04  0.15294330000E+03 0.  0.
<mgrwt>
<rscale>  0 0.13717121E+04</rscale>
<asrwt>0</asrwt>
<pdfrwt beam="1">  1        2 0.54792570E+00 0.14118188E+04</pdfrwt>
<pdfrwt beam="2">  1       -2 0.11002069E+00 0.14118188E+04</pdfrwt>
<totfact> 0.46927144E-01</totfact>
</mgrwt>
</event>
<event>
 4    5  0.6615028E-008  0.1182446E+04  0.7818608E-02  0.9174377E-01
         -2   -1    0    0    0  501 -0.00000000000E+00  0.00000000000E+00  0.62705408150E+03  0.62705408150E+03  0.25500000000E-02 0.  1.
          2   -1    0    0  501    0  0.00000000000E+00 -0.00000000000E+00 -0.25423242223E+04  0.25423242223E+04  0.25500000000E-02 0. -1.
    8880023    1    1    2    0    0 -0.24851221430E+03  0.95005837108E+03 -0.18207719237E+04  0.21710342774E+04  0.65864270000E+03 0.  0.
    8880022    1    1    2    0    0  0.24851221430E+03 -0.95005837108E+03 -0.94498217119E+02  0.99834402646E+03  0.15294330000E+03 0.  0.
<mgrwt>
<rscale>  0 0.11321854E+04</rscale>
<asrwt>0</asrwt>
<pdfrwt beam="1">  1        2 0.39112680E+00 0.11824464E+04</pdfrwt>
<pdfrwt beam="2">  1       -2 0.96469860E-01 0.11824464E+04</pdfrwt>
<totfact> 0.29170725E+00</totfact>
</mgrwt>
</event>
<event>
 4    5  0.6615028E-008  0.1077710E+04  0.7818608E-02  0.9286289E-01
         -2   -1    0    0    0  501 -0.00000000000E+00  0.00000000000E+00  0.11029344949E+04  0.11029344949E+04  0.25500000000E-02 0.  1.
          2   -1    0    0  501    0  0.00000000000E+00 -0.00000000000E+00 -0.10369282135E+04  0.10369282135E+04  0.25500000000E-02 0. -1.
    8880023    1    1    2    0    0 -0.83988288888E+03 -0.14914745367E+03 -0.40766558251E+03  0.11522368087E+04  0.65864270000E+03 0.  0.
    8880022    1    1    2    0    0  0.83988288888E+03  0.14914745367E+03  0.47367186398E+03  0.98762589967E+03  0.15294330000E+03 0.  0.
<mgrwt>
<rscale>  0 0.10205499E+04</rscale>
<asrwt>0</asrwt>
<pdfrwt beam="1">  1        2 0.15952742E+00 0.10777098E+04</pdfrwt>
<pdfrwt beam="2">  1       -2 0.16968223E+00 0.10777098E+04</pdfrwt>
<totfact> 0.50277628E+00</totfact>
</mgrwt>
</event>
<event>
 4    5  0.6615028E-008  0.7793903E+03  0.7818608E-02  0.9757271E-01
          2   -1    0    0  501    0  0.00000000000E+00  0.00000000000E+00  0.46955983598E+03  0.46955983599E+03  0.25500000000E-02 0. -1.
         -2   -1    0    0    0  501 -0.00000000000E+00 -0.00000000000E+00 -0.25992759003E+04  0.25992759003E+04  0.25500000000E-02 0.  1.
    8880023    1    1    2    0    0 -0.12843258365E+03 -0.39641403677E+03  0.10860972729E+03  0.78692140409E+03  0.65864270000E+03 0. -1.
    8880022    1    1    2    0    0  0.12843258365E+03  0.39641403677E+03 -0.22383257916E+04  0.22819143322E+04  0.15294330000E+03 0.  0.
<mgrwt>
<rscale>  0 0.67706907E+03</rscale>
<asrwt>0</asrwt>
<pdfrwt beam="1">  1        2 0.72239976E-01 0.77939029E+03</pdfrwt>
<pdfrwt beam="2">  1       -2 0.39988859E+00 0.77939029E+03</pdfrwt>
<totfact> 0.52080240E-01</totfact>
</mgrwt>
</event>
<event>
 4    5  0.6615028E-008  0.6594423E+03  0.7818608E-02  0.1024735E+00
          2   -1    0    0  501    0  0.00000000000E+00  0.00000000000E+00  0.17953502801E+04  0.17953502801E+04  0.25500000000E-02 0. -1.
         -2   -1    0    0    0  501 -0.00000000000E+00 -0.00000000000E+00 -0.13238981513E+04  0.13238981513E+04  0.25500000000E-02 0.  1.
    8880023    1    1    2    0    0  0.32412356988E+02 -0.18380361062E+01  0.17297943332E+04  0.18512300183E+04  0.65864270000E+03 0. -1.
    8880022    1    1    2    0    0 -0.32412356988E+02  0.18380361062E+01 -0.12583422044E+04  0.12680184130E+04  0.15294330000E+03 0.  0.
<mgrwt>
<rscale>  0 0.46015874E+03</rscale>
<asrwt>0</asrwt>
<pdfrwt beam="1">  1        2 0.27620773E+00 0.65944230E+03</pdfrwt>
<pdfrwt beam="2">  1       -2 0.20367664E+00 0.65944230E+03</pdfrwt>
<totfact> 0.11572002E+00</totfact>
</mgrwt>
</event>
<event>
 4    5  0.6615028E-008  0.7723986E+03  0.7818608E-02  0.9774005E-01
          2   -1    0    0  501    0  0.00000000000E+00  0.00000000000E+00  0.28087623457E+04  0.28087623457E+04  0.25500000000E-02 0. -1.
         -2   -1    0    0    0  501 -0.00000000000E+00 -0.00000000000E+00 -0.61336150395E+03  0.61336150395E+03  0.25500000000E-02 0.  1.
    8880023    1    1    2    0    0  0.10757243476E+03 -0.38886709335E+03  0.26707178960E+04  0.27801679322E+04  0.65864270000E+03 0.  0.
    8880022    1    1    2    0    0 -0.10757243476E+03  0.38886709335E+03 -0.47531705418E+03  0.64195591751E+03  0.15294330000E+03 0.  0.
<mgrwt>
<rscale>  0 0.66776411E+03</rscale>
<asrwt>0</asrwt>
<pdfrwt beam="1">  1        2 0.43211728E+00 0.77239863E+03</pdfrwt>
<pdfrwt beam="2">  1       -2 0.94363309E-01 0.77239863E+03</pdfrwt>
<totfact> 0.22836189E+00</totfact>
</mgrwt>
</event>
<event>
 4    5  0.6615028E-008  0.9586991E+03  0.7818608E-02  0.9437707E-01
         -2   -1    0    0    0  501 -0.00000000000E+00  0.00000000000E+00  0.13118288103E+04  0.13118288103E+04  0.25500000000E-02 0.  1.
          2   -1    0    0  501    0  0.00000000000E+00 -0.00000000000E+00 -0.11361309534E+04  0.11361309534E+04  0.25500000000E-02 0. -1.
    8880023    1    1    2    0    0 -0.57173973274E+03 -0.39800433378E+03 -0.79359167122E+03  0.12445447837E+04  0.65864270000E+03 0. -1.
    8880022    1    1    2    0    0  0.57173973274E+03  0.39800433378E+03  0.96928952811E+03  0.12034149800E+04  0.15294330000E+03 0.  0.
<mgrwt>
<rscale>  0 0.89036464E+03</rscale>
<asrwt>0</asrwt>
<pdfrwt beam="1">  1        2 0.17478938E+00 0.95869911E+03</pdfrwt>
<pdfrwt beam="2">  1       -2 0.20181982E+00 0.95869911E+03</pdfrwt>
<totfact> 0.26710921E+00</totfact>
</mgrwt>
</event>
<event>
 4    5  0.6615028E-008  0.8926385E+03  0.7818608E-02  0.9537954E-01
         -2   -1    0    0    0  501 -0.00000000000E+00  0.00000000000E+00  0.37933816627E+03  0.37933816628E+03  0.25500000000E-02 0.  1.
          2   -1    0    0  501    0  0.00000000000E+00 -0.00000000000E+00 -0.41905039089E+04  0.41905039089E+04  0.25500000000E-02 0. -1.
    8880023    1    1    2    0    0 -0.60046118951E+03  0.49391926860E+02 -0.38450656326E+04  0.39473197398E+04  0.65864270000E+03 0. -1.
    8880022    1    1    2    0    0  0.60046118951E+03 -0.49391926860E+02  0.33899889976E+02  0.62252233542E+03  0.15294330000E+03 0.  0.
<mgrwt>
<rscale>  0 0.81542534E+03</rscale>
<asrwt>0</asrwt>
<pdfrwt beam="1">  1        2 0.64469288E+00 0.89263845E+03</pdfrwt>
<pdfrwt beam="2">  1       -2 0.58359721E-01 0.89263845E+03</pdfrwt>
<totfact> 0.70656261E-01</totfact>
</mgrwt>
</event>
<event>
 4    5  0.6615028E-008  0.6841541E+03  0.7818608E-02  0.1007065E+00
         -2   -1    0    0    0  501 -0.00000000000E+00  0.00000000000E+00  0.69840319976E+03  0.69840319976E+03  0.25500000000E-02 0.  1.
          2   -1    0    0  501    0  0.00000000000E+00 -0.00000000000E+00 -0.95894217225E+03  0.95894217226E+03  0.25500000000E-02 0. -1.
    8880023    1    1    2    0    0 -0.11391282499E+03  0.14587827135E+03 -0.80848101755E+03  0.10591073429E+04  0.65864270000E+03 0. -1.
    8880022    1    1    2    0    0  0.11391282499E+03 -0.14587827135E+03  0.54794204505E+03  0.59823802913E+03  0.15294330000E+03 0.  0.
<mgrwt>
<rscale>  0 0.52657921E+03</rscale>
<asrwt>0</asrwt>
<pdfrwt beam="1">  1        2 0.14752956E+00 0.68415408E+03</pdfrwt>
<pdfrwt beam="2">  1       -2 0.10744665E+00 0.68415408E+03</pdfrwt>
<totfact> 0.19063788E+01</totfact>
</mgrwt>
</event>
<event>
 4    5  0.6615028E-008  0.1198943E+04  0.7818608E-02  0.9158150E-01
         -2   -1    0    0    0  501 -0.00000000000E+00  0.00000000000E+00  0.11506050640E+04  0.11506050640E+04  0.25500000000E-02 0.  1.
          2   -1    0    0  501    0  0.00000000000E+00 -0.00000000000E+00 -0.16663989699E+04  0.16663989699E+04  0.25500000000E-02 0. -1.
    8880023    1    1    2    0    0  0.73255868798E+03 -0.68338309937E+03 -0.11170133307E+04  0.16386530075E+04  0.65864270000E+03 0.  0.
    8880022    1    1    2    0    0 -0.73255868798E+03  0.68338309937E+03  0.60121942472E+03  0.11783510264E+04  0.15294330000E+03 0.  0.
<mgrwt>
<rscale>  0 0.11496026E+04</rscale>
<asrwt>0</asrwt>
<pdfrwt beam="1">  1        2 0.25636907E+00 0.11989432E+04</pdfrwt>
<pdfrwt beam="2">  1       -2 0.17701616E+00 0.11989432E+04</pdfrwt>
<totfact> 0.18902649E+00</totfact>
</mgrwt>
</event>
<event>
 4    5  0.6615028E-008  0.7202892E+03  0.7818608E-02  0.9921609E-01
          2   -1    0    0  501    0  0.00000000000E+00  0.00000000000E+00  0.12862385856E+04  0.12862385856E+04  0.25500000000E-02 0. -1.
         -2   -1    0    0    0  501 -0.00000000000E+00 -0.00000000000E+00 -0.98177670657E+03  0.98177670658E+03  0.25500000000E-02 0.  1.
    8880023    1    1    2    0    0 -0.21338921329E+02  0.29077645772E+03  0.11520718684E+04  0.13587075087E+04  0.65864270000E+03 0.  0.
    8880022    1    1    2    0    0  0.21338921329E+02 -0.29077645772E+03 -0.84760998941E+03  0.90930778347E+03  0.15294330000E+03 0.  0.
<mgrwt>
<rscale>  0 0.59225373E+03</rscale>
<asrwt>0</asrwt>
<pdfrwt beam="1">  1        2 0.19788286E+00 0.72028918E+03</pdfrwt>
<pdfrwt beam="2">  1       -2 0.15104257E+00 0.72028918E+03</pdfrwt>
<totfact> 0.50886987E+00</totfact>
</mgrwt>
</event>
<event>
 4    5  0.6615028E-008  0.9048963E+03  0.7818608E-02  0.9518217E-01
          2   -1    0    0  501    0  0.00000000000E+00  0.00000000000E+00  0.12568405216E+04  0.12568405216E+04  0.25500000000E-02 0. -1.
         -2   -1    0    0    0  501 -0.00000000000E+00 -0.00000000000E+00 -0.51247592074E+03  0.51247592075E+03  0.25500000000E-02 0.  1.
    8880023    1    1    2    0    0 -0.55628701812E+03 -0.27490328578E+03  0.66997812101E+03  0.11259253758E+04  0.65864270000E+03 0.  0.
    8880022    1    1    2    0    0  0.55628701812E+03  0.27490328578E+03  0.74386479840E+02  0.64339106650E+03  0.15294330000E+03 0.  0.
<mgrwt>
<rscale>  0 0.82953995E+03</rscale>
<asrwt>0</asrwt>
<pdfrwt beam="1">  1        2 0.19336008E+00 0.90489628E+03</pdfrwt>
<pdfrwt beam="2">  1       -2 0.78842450E-01 0.90489628E+03</pdfrwt>
<totfact> 0.25134265E+01</totfact>
</mgrwt>
</event>
<event>
 4    5  0.6615028E-008  0.6806277E+03  0.7818608E-02  0.1008971E+00
         -2   -1    0    0    0  501 -0.00000000000E+00  0.00000000000E+00  0.20640328286E+03  0.20640328287E+03  0.25500000000E-02 0.  1.
          2   -1    0    0  501    0  0.00000000000E+00 -0.00000000000E+00 -0.13076803133E+04  0.13076803133E+04  0.25500000000E-02 0. -1.
    8880023    1    1    2    0    0  0.41845778936E+02  0.16641153722E+03 -0.10886145835E+04  0.12838753002E+04  0.65864270000E+03 0. -1.
    8880022    1    1    2    0    0 -0.41845778936E+02 -0.16641153722E+03 -0.12662446953E+02  0.23020829593E+03  0.15294330000E+03 0.  0.
<mgrwt>
<rscale>  0 0.51885734E+03</rscale>
<asrwt>0</asrwt>
<pdfrwt beam="1">  1        2 0.20118158E+00 0.68062771E+03</pdfrwt>
<pdfrwt beam="2">  1       -2 0.31754352E-01 0.68062771E+03</pdfrwt>
<totfact> 0.15369864E+02</totfact>
</mgrwt>
</event>
<event>
 4    5  0.6615028E-008  0.1031388E+04  0.7818608E-02  0.9341597E-01
         -2   -1    0    0    0  501 -0.00000000000E+00  0.00000000000E+00  0.15131857244E+04  0.15131857244E+04  0.25500000000E-02 0.  1.
          2   -1    0    0  501    0  0.00000000000E+00 -0.00000000000E+00 -0.78424749964E+03  0.78424749964E+03  0.25500000000E-02 0. -1.
    8880023    1    1    2    0    0  0.44018368190E+03  0.66044695257E+03 -0.21619248470E+03  0.10538032301E+04  0.65864270000E+03 0.  0.
    8880022    1    1    2    0    0 -0.44018368190E+03 -0.66044695257E+03  0.94513070944E+03  0.12436299940E+04  0.15294330000E+03 0.  0.
<mgrwt>
<rscale>  0 0.97041921E+03</rscale>
<asrwt>0</asrwt>
<pdfrwt beam="1">  1        2 0.12065346E+00 0.10313884E+04</pdfrwt>
<pdfrwt beam="2">  1       -2 0.23279780E+00 0.10313884E+04</pdfrwt>
<totfact> 0.28819961E+00</totfact>
</mgrwt>
</event>
<event>
 4    5  0.6615028E-008  0.6652794E+03  0.7818608E-02  0.1019300E+00
         -2   -1    0    0    0  501 -0.00000000000E+00  0.00000000000E+00  0.85034881150E+03  0.85034881151E+03  0.25500000000E-02 0.  1.
          2   -1    0    0  501    0  0.00000000000E+00 -0.00000000000E+00 -0.97403586231E+03  0.97403586232E+03  0.25500000000E-02 0. -1.
    8880023    1    1    2    0    0  0.61081592748E+02 -0.71102389365E+02 -0.84820891860E+03  0.10779865892E+04  0.65864270000E+03 0. -1.
    8880022    1    1    2    0    0 -0.61081592748E+02  0.71102389365E+02  0.72452186778E+03  0.74639808458E+03  0.15294330000E+03 0.  0.
<mgrwt>
<rscale>  0 0.47940022E+03</rscale>
<asrwt>0</asrwt>
<pdfrwt beam="1">  1        2 0.14985167E+00 0.66527943E+03</pdfrwt>
<pdfrwt beam="2">  1       -2 0.13082289E+00 0.66527943E+03</pdfrwt>
<totfact> 0.11500424E+01</totfact>
</mgrwt>
</event>
<event>
 4    5  0.6615028E-008  0.1143830E+04  0.7818608E-02  0.9213757E-01
         -2   -1    0    0    0  501 -0.00000000000E+00  0.00000000000E+00  0.14166578223E+04  0.14166578223E+04  0.25500000000E-02 0.  1.
          2   -1    0    0  501    0  0.00000000000E+00 -0.00000000000E+00 -0.15885254507E+04  0.15885254507E+04  0.25500000000E-02 0. -1.
    8880023    1    1    2    0    0  0.77679284204E+02 -0.93193555163E+03 -0.11648943646E+04  0.16325829322E+04  0.65864270000E+03 0.  0.
    8880022    1    1    2    0    0 -0.77679284204E+02  0.93193555163E+03  0.99302673627E+03  0.13726003408E+04  0.15294330000E+03 0.  1.
<mgrwt>
<rscale>  0 0.10912557E+04</rscale>
<asrwt>0</asrwt>
<pdfrwt beam="1">  1        2 0.24438853E+00 0.11438305E+04</pdfrwt>
<pdfrwt beam="2">  1       -2 0.21794736E+00 0.11438305E+04</pdfrwt>
<totfact> 0.11260286E+00</totfact>
</mgrwt>
</event>
<event>
 4    5  0.6615028E-008  0.7131832E+03  0.7818608E-02  0.9946365E-01
          2   -1    0    0  501    0  0.00000000000E+00  0.00000000000E+00  0.40105449316E+04  0.40105449316E+04  0.25500000000E-02 0. -1.
         -2   -1    0    0    0  501 -0.00000000000E+00 -0.00000000000E+00 -0.18354424680E+03  0.18354424681E+03  0.25500000000E-02 0.  1.
    8880023    1    1    2    0    0  0.23209201616E+03 -0.14475275734E+03  0.38143456943E+04  0.38804462819E+04  0.65864270000E+03 0. -1.
    8880022    1    1    2    0    0 -0.23209201616E+03  0.14475275734E+03  0.12654990466E+02  0.31364289649E+03  0.15294330000E+03 0.  0.
<mgrwt>
<rscale>  0 0.58065910E+03</rscale>
<asrwt>0</asrwt>
<pdfrwt beam="1">  1        2 0.61700687E+00 0.71318320E+03</pdfrwt>
<pdfrwt beam="2">  1       -2 0.28237578E-01 0.71318320E+03</pdfrwt>
<totfact> 0.42901307E+00</totfact>
</mgrwt>
</event>
<event>
 4    5  0.6615028E-008  0.1315391E+04  0.7818608E-02  0.9052382E-01
         -2   -1    0    0    0  501 -0.00000000000E+00  0.00000000000E+00  0.85141741984E+03  0.85141741985E+03  0.25500000000E-02 0.  1.
          2   -1    0    0  501    0  0.00000000000E+00 -0.00000000000E+00 -0.21377220973E+04  0.21377220973E+04  0.25500000000E-02 0. -1.
    8880023    1    1    2    0    0 -0.21807939465E+03 -0.11175345311E+04 -0.12870309388E+04  0.18402991317E+04  0.65864270000E+03 0.  0.
    8880022    1    1    2    0    0  0.21807939465E+03  0.11175345311E+04  0.72626134416E+00  0.11488403854E+04  0.15294330000E+03 0.  0.
<mgrwt>
<rscale>  0 0.12716159E+04</rscale>
<asrwt>0</asrwt>
<pdfrwt beam="1">  1        2 0.32888032E+00 0.13153905E+04</pdfrwt>
<pdfrwt beam="2">  1       -2 0.13098730E+00 0.13153905E+04</pdfrwt>
<totfact> 0.22988664E+00</totfact>
</mgrwt>
</event>
<event>
 4    5  0.6615028E-008  0.9542565E+03  0.7818608E-02  0.9444016E-01
          2   -1    0    0  501    0  0.00000000000E+00  0.00000000000E+00  0.21311613390E+04  0.21311613390E+04  0.25500000000E-02 0. -1.
         -2   -1    0    0    0  501 -0.00000000000E+00 -0.00000000000E+00 -0.11222079435E+04  0.11222079435E+04  0.25500000000E-02 0.  1.
    8880023    1    1    2    0    0  0.43561032454E+03  0.53576011765E+03  0.18937871555E+04  0.21206214313E+04  0.65864270000E+03 0.  0.
    8880022    1    1    2    0    0 -0.43561032454E+03 -0.53576011765E+03 -0.88483375996E+03  0.11327478512E+04  0.15294330000E+03 0.  0.
<mgrwt>
<rscale>  0 0.88540177E+03</rscale>
<asrwt>0</asrwt>
<pdfrwt beam="1">  1        2 0.32787097E+00 0.95425650E+03</pdfrwt>
<pdfrwt beam="2">  1       -2 0.17264738E+00 0.95425650E+03</pdfrwt>
<totfact> 0.11596463E+00</totfact>
</mgrwt>
</event>
<event>
 4    5  0.6615028E-008  0.8513636E+03  0.7818608E-02  0.9609114E-01
         -2   -1    0    0    0  501 -0.00000000000E+00  0.00000000000E+00  0.97387757811E+03  0.97387757811E+03  0.25500000000E-02 0.  1.
          2   -1    0    0  501    0  0.00000000000E+00 -0.00000000000E+00 -0.30864488658E+04  0.30864488658E+04  0.25500000000E-02 0. -1.
    8880023    1    1    2    0    0 -0.46457078513E+03 -0.27419654115E+03 -0.29400107598E+04  0.30607978097E+04  0.65864270000E+03 0.  0.
    8880022    1    1    2    0    0  0.46457078513E+03  0.27419654115E+03  0.82743947214E+03  0.99952863423E+03  0.15294330000E+03 0.  0.
<mgrwt>
<rscale>  0 0.76695850E+03</rscale>
<asrwt>0</asrwt>
<pdfrwt beam="1">  1        2 0.47483828E+00 0.85136359E+03</pdfrwt>
<pdfrwt beam="2">  1       -2 0.14982732E+00 0.85136359E+03</pdfrwt>
<totfact> 0.48386328E-01</totfact>
</mgrwt>
</event>
<event>
 4    5  0.6768073E-008  0.1073963E+04  0.7818608E-02  0.9290614E-01
         -2   -1    0    0    0  501 -0.00000000000E+00  0.00000000000E+00  0.13905423096E+04  0.13905423096E+04  0.25500000000E-02 0.  1.
          2   -1    0    0  501    0  0.00000000000E+00 -0.00000000000E+00 -0.20419491359E+04  0.20419491359E+04  0.25500000000E-02 0. -1.
    8880023    1    1    2    0    0 -0.67961639204E+03  0.50764955131E+03 -0.17395190419E+04  0.20443393091E+04  0.65864270000E+03 0.  0.
    8880022    1    1    2    0    0  0.67961639204E+03 -0.50764955131E+03  0.10881122155E+04  0.13881521364E+04  0.15294330000E+03 0.  0.
<mgrwt>
<rscale>  0 0.10165155E+04</rscale>
<asrwt>0</asrwt>
<pdfrwt beam="1">  1        2 0.31414602E+00 0.10739631E+04</pdfrwt>
<pdfrwt beam="2">  1       -2 0.21392959E+00 0.10739631E+04</pdfrwt>
<totfact> 0.67642026E-01</totfact>
</mgrwt>
</event>
<event>
 4    5  0.6615028E-008  0.9572219E+03  0.7818608E-02  0.9439799E-01
         -2   -1    0    0    0  501 -0.00000000000E+00  0.00000000000E+00  0.50838568413E+03  0.50838568413E+03  0.25500000000E-02 0.  1.
          2   -1    0    0  501    0  0.00000000000E+00 -0.00000000000E+00 -0.34678847542E+04  0.34678847542E+04  0.25500000000E-02 0. -1.
    8880023    1    1    2    0    0  0.62628190498E+03 -0.30039049252E+03 -0.31059556766E+04  0.32501129740E+04  0.65864270000E+03 0.  0.
    8880022    1    1    2    0    0 -0.62628190498E+03  0.30039049252E+03  0.14645660647E+03  0.72615746439E+03  0.15294330000E+03 0.  0.
<mgrwt>
<rscale>  0 0.88871544E+03</rscale>
<asrwt>0</asrwt>
<pdfrwt beam="1">  1        2 0.53352072E+00 0.95722185E+03</pdfrwt>
<pdfrwt beam="2">  1       -2 0.78213184E-01 0.95722185E+03</pdfrwt>
<totfact> 0.12973085E+00</totfact>
</mgrwt>
</event>
<event>
 4    5  0.6615028E-008  0.1016292E+04  0.7818608E-02  0.9360546E-01
         -2   -1    0    0    0  501 -0.00000000000E+00  0.00000000000E+00  0.49949530262E+03  0.49949530263E+03  0.25500000000E-02 0.  1.
          2   -1    0    0  501    0  0.00000000000E+00 -0.00000000000E+00 -0.21929756246E+04  0.21929756246E+04  0.25500000000E-02 0. -1.
    8880023    1    1    2    0    0 -0.75625115406E+03 -0.16469317539E+03 -0.16034677175E+04  0.18984094862E+04  0.65864270000E+03 0.  0.
    8880022    1    1    2    0    0  0.75625115406E+03  0.16469317539E+03 -0.90012604421E+02  0.79406144096E+03  0.15294330000E+03 0.  0.
<mgrwt>
<rscale>  0 0.95394948E+03</rscale>
<asrwt>0</asrwt>
<pdfrwt beam="1">  1        2 0.33738086E+00 0.10162922E+04</pdfrwt>
<pdfrwt beam="2">  1       -2 0.76845433E-01 0.10162922E+04</pdfrwt>
<totfact> 0.79084743E+00</totfact>
</mgrwt>
</event>
<event>
 4    5  0.6615028E-008  0.8066333E+03  0.7818608E-02  0.9696633E-01
          2   -1    0    0  501    0  0.00000000000E+00  0.00000000000E+00  0.10163639340E+04  0.10163639340E+04  0.25500000000E-02 0. -1.
         -2   -1    0    0    0  501 -0.00000000000E+00 -0.00000000000E+00 -0.81495184253E+03  0.81495184253E+03  0.25500000000E-02 0.  1.
    8880023    1    1    2    0    0  0.46481917130E+03  0.28110523565E+02  0.74594726989E+03  0.10986785696E+04  0.65864270000E+03 0.  0.
    8880022    1    1    2    0    0 -0.46481917130E+03 -0.28110523565E+02 -0.54453517838E+03  0.73263720698E+03  0.15294330000E+03 0.  0.
<mgrwt>
<rscale>  0 0.71217624E+03</rscale>
<asrwt>0</asrwt>
<pdfrwt beam="1">  1        2 0.15636368E+00 0.80663329E+03</pdfrwt>
<pdfrwt beam="2">  1       -2 0.12537721E+00 0.80663329E+03</pdfrwt>
<totfact> 0.11828034E+01</totfact>
</mgrwt>
</event>
<event>
 4    5  0.6615028E-008  0.9542192E+03  0.7818608E-02  0.9444069E-01
         -2   -1    0    0    0  501 -0.00000000000E+00  0.00000000000E+00  0.14258399588E+04  0.14258399588E+04  0.25500000000E-02 0.  1.
          2   -1    0    0  501    0  0.00000000000E+00 -0.00000000000E+00 -0.54848548357E+03  0.54848548357E+03  0.25500000000E-02 0. -1.
    8880023    1    1    2    0    0  0.16162574590E+03  0.67126829085E+03  0.16099726860E+03  0.96770570257E+03  0.65864270000E+03 0.  0.
    8880022    1    1    2    0    0 -0.16162574590E+03 -0.67126829085E+03  0.71635720662E+03  0.10066197398E+04  0.15294330000E+03 0.  0.
<mgrwt>
<rscale>  0 0.88536002E+03</rscale>
<asrwt>0</asrwt>
<pdfrwt beam="1">  1        2 0.84382383E-01 0.95421916E+03</pdfrwt>
<pdfrwt beam="2">  1       -2 0.21935999E+00 0.95421916E+03</pdfrwt>
<totfact> 0.55133741E+00</totfact>
</mgrwt>
</event>
<event>
 4    5  0.6615028E-008  0.1219503E+04  0.7818608E-02  0.9138393E-01
          2   -1    0    0  501    0  0.00000000000E+00  0.00000000000E+00  0.11689854314E+04  0.11689854314E+04  0.25500000000E-02 0. -1.
         -2   -1    0    0    0  501 -0.00000000000E+00 -0.00000000000E+00 -0.14976563147E+04  0.14976563147E+04  0.25500000000E-02 0.  1.
    8880023    1    1    2    0    0  0.12173333947E+03 -0.10190968160E+04  0.52036556418E+03  0.13258838007E+04  0.65864270000E+03 0. -1.
    8880022    1    1    2    0    0 -0.12173333947E+03  0.10190968160E+04 -0.84903644741E+03  0.13407579455E+04  0.15294330000E+03 0.  0.
<mgrwt>
<rscale>  0 0.11712577E+04</rscale>
<asrwt>0</asrwt>
<pdfrwt beam="1">  1        2 0.17984391E+00 0.12195030E+04</pdfrwt>
<pdfrwt beam="2">  1       -2 0.23040866E+00 0.12195030E+04</pdfrwt>
<totfact> 0.16299319E+00</totfact>
</mgrwt>
</event>
<event>
 4    5  0.6615028E-008  0.1477056E+04  0.7818608E-02  0.8926010E-01
         -2   -1    0    0    0  501 -0.00000000000E+00  0.00000000000E+00  0.16269490374E+04  0.16269490374E+04  0.25500000000E-02 0.  1.
          2   -1    0    0  501    0  0.00000000000E+00 -0.00000000000E+00 -0.15871608458E+04  0.15871608458E+04  0.25500000000E-02 0. -1.
    8880023    1    1    2    0    0 -0.11991864964E+04 -0.55662878356E+03 -0.76028626923E+03  0.16612432914E+04  0.65864270000E+03 0.  0.
    8880022    1    1    2    0    0  0.11991864964E+04  0.55662878356E+03  0.80007446083E+03  0.15528665918E+04  0.15294330000E+03 0.  0.
<mgrwt>
<rscale>  0 0.14390751E+04</rscale>
<asrwt>0</asrwt>
<pdfrwt beam="1">  1        2 0.24417859E+00 0.14770559E+04</pdfrwt>
<pdfrwt beam="2">  1       -2 0.25029985E+00 0.14770559E+04</pdfrwt>
<totfact> 0.68334501E-01</totfact>
</mgrwt>
</event>
<event>
 4    5  0.6615028E-008  0.9610426E+03  0.7818608E-02  0.9434401E-01
         -2   -1    0    0    0  501 -0.00000000000E+00  0.00000000000E+00  0.36457312372E+03  0.36457312373E+03  0.25500000000E-02 0.  1.
          2   -1    0    0  501    0  0.00000000000E+00 -0.00000000000E+00 -0.32451310114E+04  0.32451310114E+04  0.25500000000E-02 0. -1.
    8880023    1    1    2    0    0  0.35429410916E+03 -0.60354649029E+03 -0.27071084683E+04  0.28726362713E+04  0.65864270000E+03 0.  0.
    8880022    1    1    2    0    0 -0.35429410916E+03  0.60354649029E+03 -0.17344941929E+03  0.73706786376E+03  0.15294330000E+03 0.  0.
<mgrwt>
<rscale>  0 0.89297881E+03</rscale>
<asrwt>0</asrwt>
<pdfrwt beam="1">  1        2 0.49925091E+00 0.96104260E+03</pdfrwt>
<pdfrwt beam="2">  1       -2 0.56088175E-01 0.96104260E+03</pdfrwt>
<totfact> 0.37438281E+00</totfact>
</mgrwt>
</event>
<event>
 4    5  0.6615028E-008  0.7527957E+03  0.7818608E-02  0.9824129E-01
          2   -1    0    0  501    0  0.00000000000E+00  0.00000000000E+00  0.10907546029E+04  0.10907546029E+04  0.25500000000E-02 0. -1.
         -2   -1    0    0    0  501 -0.00000000000E+00 -0.00000000000E+00 -0.57671120536E+03  0.57671120537E+03  0.25500000000E-02 0.  1.
    8880023    1    1    2    0    0  0.25284403098E+03 -0.26260439441E+03  0.85943503390E+03  0.11425103744E+04  0.65864270000E+03 0. -1.
    8880022    1    1    2    0    0 -0.25284403098E+03  0.26260439441E+03 -0.34539163639E+03  0.52495543379E+03  0.15294330000E+03 0.  0.
<mgrwt>
<rscale>  0 0.64083579E+03</rscale>
<asrwt>0</asrwt>
<pdfrwt beam="1">  1        2 0.16780840E+00 0.75279571E+03</pdfrwt>
<pdfrwt beam="2">  1       -2 0.88724801E-01 0.75279571E+03</pdfrwt>
<totfact> 0.24522881E+01</totfact>
</mgrwt>
</event>
<event>
 4    5  0.6615028E-008  0.8204683E+03  0.7818608E-02  0.9668171E-01
         -2   -1    0    0    0  501 -0.00000000000E+00  0.00000000000E+00  0.64854232293E+03  0.64854232294E+03  0.25500000000E-02 0.  1.
          2   -1    0    0  501    0  0.00000000000E+00 -0.00000000000E+00 -0.84754425044E+03  0.84754425044E+03  0.25500000000E-02 0. -1.
    8880023    1    1    2    0    0  0.47629875715E+03 -0.11179241847E+03 -0.43850990504E+03  0.93030059334E+03  0.65864270000E+03 0.  0.
    8880022    1    1    2    0    0 -0.47629875715E+03  0.11179241847E+03  0.23950797754E+03  0.56578598004E+03  0.15294330000E+03 0.  0.
<mgrwt>
<rscale>  0 0.72943927E+03</rscale>
<asrwt>0</asrwt>
<pdfrwt beam="1">  1        2 0.13039142E+00 0.82046832E+03</pdfrwt>
<pdfrwt beam="2">  1       -2 0.99775742E-01 0.82046832E+03</pdfrwt>
<totfact> 0.26681562E+01</totfact>
</mgrwt>
</event>
<event>
 4    5  0.6615028E-008  0.9857873E+03  0.7818608E-02  0.9400393E-01
         -2   -1    0    0    0  501 -0.00000000000E+00  0.00000000000E+00  0.13478658392E+04  0.13478658392E+04  0.25500000000E-02 0.  1.
          2   -1    0    0  501    0  0.00000000000E+00 -0.00000000000E+00 -0.12469323635E+04  0.12469323635E+04  0.25500000000E-02 0. -1.
    8880023    1    1    2    0    0  0.68149519510E+03 -0.27116544863E+03 -0.90655067775E+03  0.13392575328E+04  0.65864270000E+03 0.  0.
    8880022    1    1    2    0    0 -0.68149519510E+03  0.27116544863E+03  0.10074841534E+04  0.12555406699E+04  0.15294330000E+03 0.  0.
<mgrwt>
<rscale>  0 0.92043349E+03</rscale>
<asrwt>0</asrwt>
<pdfrwt beam="1">  1        2 0.19183575E+00 0.98578730E+03</pdfrwt>
<pdfrwt beam="2">  1       -2 0.20736398E+00 0.98578730E+03</pdfrwt>
<totfact> 0.21037317E+00</totfact>
</mgrwt>
</event>
<event>
 4    5  0.6615028E-008  0.9824929E+03  0.7818608E-02  0.9404829E-01
          2   -1    0    0  501    0  0.00000000000E+00  0.00000000000E+00  0.24363925739E+04  0.24363925739E+04  0.25500000000E-02 0. -1.
         -2   -1    0    0    0  501 -0.00000000000E+00 -0.00000000000E+00 -0.60518427672E+03  0.60518427672E+03  0.25500000000E-02 0.  1.
    8880023    1    1    2    0    0 -0.22856718876E+03 -0.69227098758E+03  0.20431595301E+04  0.22671111909E+04  0.65864270000E+03 0. -1.
    8880022    1    1    2    0    0  0.22856718876E+03  0.69227098758E+03 -0.21195123291E+03  0.77446565978E+03  0.15294330000E+03 0.  0.
<mgrwt>
<rscale>  0 0.91679310E+03</rscale>
<asrwt>0</asrwt>
<pdfrwt beam="1">  1        2 0.37482964E+00 0.98249289E+03</pdfrwt>
<pdfrwt beam="2">  1       -2 0.93105271E-01 0.98249289E+03</pdfrwt>
<totfact> 0.37394579E+00</totfact>
</mgrwt>
</event>
<event>
 4    5  0.6615028E-008  0.1641914E+04  0.7818608E-02  0.8815426E-01
          2   -1    0    0  501    0  0.00000000000E+00  0.00000000000E+00  0.16451602450E+04  0.16451602450E+04  0.25500000000E-02 0. -1.
         -2   -1    0    0    0  501 -0.00000000000E+00 -0.00000000000E+00 -0.18958579336E+04  0.18958579336E+04  0.25500000000E-02 0.  1.
    8880023    1    1    2    0    0  0.14740655637E+04  0.29866716664E+03  0.66731827932E+03  0.17723417432E+04  0.65864270000E+03 0. -1.
    8880022    1    1    2    0    0 -0.14740655637E+04 -0.29866716664E+03 -0.91801596791E+03  0.17686764354E+04  0.15294330000E+03 0.  0.
<mgrwt>
<rscale>  0 0.16083649E+04</rscale>
<asrwt>0</asrwt>
<pdfrwt beam="1">  1        2 0.25310158E+00 0.16419140E+04</pdfrwt>
<pdfrwt beam="2">  1       -2 0.29167045E+00 0.16419140E+04</pdfrwt>
<totfact> 0.34814344E-01</totfact>
</mgrwt>
</event>
<event>
 4    5  0.6615028E-008  0.9447960E+03  0.7818608E-02  0.9457641E-01
         -2   -1    0    0    0  501 -0.00000000000E+00  0.00000000000E+00  0.12986129875E+04  0.12986129875E+04  0.25500000000E-02 0.  1.
          2   -1    0    0  501    0  0.00000000000E+00 -0.00000000000E+00 -0.15410273069E+04  0.15410273069E+04  0.25500000000E-02 0. -1.
    8880023    1    1    2    0    0 -0.34740219776E+03 -0.58149886706E+03 -0.12801192945E+04  0.15910200608E+04  0.65864270000E+03 0. -1.
    8880022    1    1    2    0    0  0.34740219776E+03  0.58149886706E+03  0.10377049751E+04  0.12486202336E+04  0.15294330000E+03 0.  0.
<mgrwt>
<rscale>  0 0.87480101E+03</rscale>
<asrwt>0</asrwt>
<pdfrwt beam="1">  1        2 0.23708113E+00 0.94479597E+03</pdfrwt>
<pdfrwt beam="2">  1       -2 0.19978661E+00 0.94479597E+03</pdfrwt>
<totfact> 0.16082476E+00</totfact>
</mgrwt>
</event>
<event>
 4    5  0.6615028E-008  0.1547881E+04  0.7818608E-02  0.8876545E-01
         -2   -1    0    0    0  501 -0.00000000000E+00  0.00000000000E+00  0.91123162051E+03  0.91123162051E+03  0.25500000000E-02 0.  1.
          2   -1    0    0  501    0  0.00000000000E+00 -0.00000000000E+00 -0.28582570355E+04  0.28582570355E+04  0.25500000000E-02 0. -1.
    8880023    1    1    2    0    0 -0.10040231716E+04 -0.97676063392E+03 -0.17667794354E+04  0.23489239333E+04  0.65864270000E+03 0.  0.
    8880022    1    1    2    0    0  0.10040231716E+04  0.97676063392E+03 -0.18024597956E+03  0.14205647226E+04  0.15294330000E+03 0.  0.
<mgrwt>
<rscale>  0 0.15119493E+04</rscale>
<asrwt>0</asrwt>
<pdfrwt beam="1">  1        2 0.43973185E+00 0.15478805E+04</pdfrwt>
<pdfrwt beam="2">  1       -2 0.14018948E+00 0.15478805E+04</pdfrwt>
<totfact> 0.71950105E-01</totfact>
</mgrwt>
</event>
<event>
 4    5  0.6615028E-008  0.9251181E+03  0.7818608E-02  0.9486856E-01
         -2   -1    0    0    0  501 -0.00000000000E+00  0.00000000000E+00  0.75090767503E+03  0.75090767503E+03  0.25500000000E-02 0.  1.
          2   -1    0    0  501    0  0.00000000000E+00 -0.00000000000E+00 -0.14385369593E+04  0.14385369593E+04  0.25500000000E-02 0. -1.
    8880023    1    1    2    0    0 -0.44759999651E+03  0.47083712990E+03 -0.10746093615E+04  0.14179664474E+04  0.65864270000E+03 0.  0.
    8880022    1    1    2    0    0  0.44759999651E+03 -0.47083712990E+03  0.38698007724E+03  0.77147818696E+03  0.15294330000E+03 0.  0.
<mgrwt>
<rscale>  0 0.85259881E+03</rscale>
<asrwt>0</asrwt>
<pdfrwt beam="1">  1        2 0.22131338E+00 0.92511814E+03</pdfrwt>
<pdfrwt beam="2">  1       -2 0.11552426E+00 0.92511814E+03</pdfrwt>
<totfact> 0.80363127E+00</totfact>
</mgrwt>
</event>
<event>
 4    5  0.6615028E-008  0.8230821E+03  0.7818608E-02  0.9662945E-01
          2   -1    0    0  501    0  0.00000000000E+00  0.00000000000E+00  0.42538930687E+04  0.42538930687E+04  0.25500000000E-02 0. -1.
         -2   -1    0    0    0  501 -0.00000000000E+00 -0.00000000000E+00 -0.14340781945E+03  0.14340781948E+03  0.25500000000E-02 0.  1.
    8880023    1    1    2    0    0 -0.48586297594E+03 -0.87127092816E+02  0.35093388340E+04  0.36045697690E+04  0.65864270000E+03 0. -1.
    8880022    1    1    2    0    0  0.48586297594E+03  0.87127092816E+02  0.60114641527E+03  0.79273111917E+03  0.15294330000E+03 0.  0.
<mgrwt>
<rscale>  0 0.73266518E+03</rscale>
<asrwt>0</asrwt>
<pdfrwt beam="1">  1        2 0.65444500E+00 0.82308211E+03</pdfrwt>
<pdfrwt beam="2">  1       -2 0.22062745E-01 0.82308211E+03</pdfrwt>
<totfact> 0.41164084E+00</totfact>
</mgrwt>
</event>
<event>
 4    5  0.6615028E-008  0.1174284E+04  0.7818608E-02  0.9182534E-01
         -2   -1    0    0    0  501 -0.00000000000E+00  0.00000000000E+00  0.84949843593E+03  0.84949843593E+03  0.25500000000E-02 0.  1.
          2   -1    0    0  501    0  0.00000000000E+00 -0.00000000000E+00 -0.21035955138E+04  0.21035955138E+04  0.25500000000E-02 0. -1.
    8880023    1    1    2    0    0  0.22714684618E+03 -0.94527142569E+03 -0.15321834274E+04  0.19304222386E+04  0.65864270000E+03 0. -1.
    8880022    1    1    2    0    0 -0.22714684618E+03  0.94527142569E+03  0.27808634950E+03  0.10226717111E+04  0.15294330000E+03 0.  0.
<mgrwt>
<rscale>  0 0.11235538E+04</rscale>
<asrwt>0</asrwt>
<pdfrwt beam="1">  1        2 0.32363008E+00 0.11742844E+04</pdfrwt>
<pdfrwt beam="2">  1       -2 0.13069207E+00 0.11742844E+04</pdfrwt>
<totfact> 0.24525603E+00</totfact>
</mgrwt>
</event>
<event>
 4    5  0.6615028E-008  0.9702063E+03  0.7818608E-02  0.9421619E-01
         -2   -1    0    0    0  501 -0.00000000000E+00  0.00000000000E+00  0.90433707170E+03  0.90433707170E+03  0.25500000000E-02 0.  1.
          2   -1    0    0  501    0  0.00000000000E+00 -0.00000000000E+00 -0.17953010725E+04  0.17953010725E+04  0.25500000000E-02 0. -1.
    8880023    1    1    2    0    0  0.55440803638E+02 -0.71022283105E+03 -0.14752449724E+04  0.17656862936E+04  0.65864270000E+03 0. -1.
    8880022    1    1    2    0    0 -0.55440803638E+02  0.71022283105E+03  0.58428097161E+03  0.93395185061E+03  0.15294330000E+03 0.  0.
<mgrwt>
<rscale>  0 0.90317689E+03</rscale>
<asrwt>0</asrwt>
<pdfrwt beam="1">  1        2 0.27620016E+00 0.97020635E+03</pdfrwt>
<pdfrwt beam="2">  1       -2 0.13912878E+00 0.97020635E+03</pdfrwt>
<totfact> 0.31668430E+00</totfact>
</mgrwt>
</event>
<event>
 4    5  0.6615028E-008  0.7565963E+03  0.7818608E-02  0.9814000E-01
          2   -1    0    0  501    0  0.00000000000E+00  0.00000000000E+00  0.23541754461E+04  0.23541754461E+04  0.25500000000E-02 0. -1.
         -2   -1    0    0    0  501 -0.00000000000E+00 -0.00000000000E+00 -0.58006598605E+03  0.58006598605E+03  0.25500000000E-02 0.  1.
    8880023    1    1    2    0    0 -0.30382788927E+03 -0.21521238463E+03  0.22129758686E+04  0.23387390103E+04  0.65864270000E+03 0. -1.
    8880022    1    1    2    0    0  0.30382788927E+03  0.21521238463E+03 -0.43886640861E+03  0.59550242184E+03  0.15294330000E+03 0.  0.
<mgrwt>
<rscale>  0 0.64616591E+03</rscale>
<asrwt>0</asrwt>
<pdfrwt beam="1">  1        2 0.36218084E+00 0.75659630E+03</pdfrwt>
<pdfrwt beam="2">  1       -2 0.89240921E-01 0.75659630E+03</pdfrwt>
<totfact> 0.47528188E+00</totfact>
</mgrwt>
</event>
<event>
 4    5  0.6615028E-008  0.1843844E+04  0.7818608E-02  0.8698664E-01
         -2   -1    0    0    0  501 -0.00000000000E+00  0.00000000000E+00  0.27759240170E+04  0.27759240170E+04  0.25500000000E-02 0.  1.
          2   -1    0    0  501    0  0.00000000000E+00 -0.00000000000E+00 -0.23898146903E+04  0.23898146903E+04  0.25500000000E-02 0. -1.
    8880023    1    1    2    0    0 -0.98338809805E+03 -0.14138239209E+04 -0.16641506939E+04  0.24837789694E+04  0.65864270000E+03 0. -1.
    8880022    1    1    2    0    0  0.98338809805E+03  0.14138239209E+04  0.20502600206E+04  0.26819597379E+04  0.15294330000E+03 0.  0.
<mgrwt>
<rscale>  0 0.18144294E+04</rscale>
<asrwt>0</asrwt>
<pdfrwt beam="1">  1        2 0.36766380E+00 0.18438439E+04</pdfrwt>
<pdfrwt beam="2">  1       -2 0.42706523E+00 0.18438439E+04</pdfrwt>
<totfact> 0.17788820E-02</totfact>
</mgrwt>
</event>
<event>
 4    5  0.6615028E-008  0.1009891E+04  0.7818608E-02  0.9368730E-01
         -2   -1    0    0    0  501 -0.00000000000E+00  0.00000000000E+00  0.84040906075E+03  0.84040906075E+03  0.25500000000E-02 0.  1.
          2   -1    0    0  501    0  0.00000000000E+00 -0.00000000000E+00 -0.30203888089E+04  0.30203888089E+04  0.25500000000E-02 0. -1.
    8880023    1    1    2    0    0  0.73387253400E+03  0.21794836013E+03 -0.27267044138E+04  0.29077134574E+04  0.65864270000E+03 0. -1.
    8880022    1    1    2    0    0 -0.73387253400E+03 -0.21794836013E+03  0.54672466565E+03  0.95308441225E+03  0.15294330000E+03 0.  0.
<mgrwt>
<rscale>  0 0.94694407E+03</rscale>
<asrwt>0</asrwt>
<pdfrwt beam="1">  1        2 0.46467520E+00 0.10098914E+04</pdfrwt>
<pdfrwt beam="2">  1       -2 0.12929370E+00 0.10098914E+04</pdfrwt>
<totfact> 0.75653960E-01</totfact>
</mgrwt>
</event>
<event>
 4    5  0.6615028E-008  0.8977593E+03  0.7818608E-02  0.9529638E-01
         -2   -1    0    0    0  501 -0.00000000000E+00  0.00000000000E+00  0.12599728563E+04  0.12599728563E+04  0.25500000000E-02 0.  1.
          2   -1    0    0  501    0  0.00000000000E+00 -0.00000000000E+00 -0.21582007930E+04  0.21582007930E+04  0.25500000000E-02 0. -1.
    8880023    1    1    2    0    0  0.11139571781E+03 -0.59979378303E+03 -0.19759647713E+04  0.21703475694E+04  0.65864270000E+03 0. -1.
    8880022    1    1    2    0    0 -0.11139571781E+03  0.59979378303E+03  0.10777368347E+04  0.12478260800E+04  0.15294330000E+03 0.  0.
<mgrwt>
<rscale>  0 0.82133543E+03</rscale>
<asrwt>0</asrwt>
<pdfrwt beam="1">  1        2 0.33203089E+00 0.89775932E+03</pdfrwt>
<pdfrwt beam="2">  1       -2 0.19384198E+00 0.89775932E+03</pdfrwt>
<totfact> 0.81036123E-01</totfact>
</mgrwt>
</event>
<event>
 4    5  0.6615028E-008  0.1468391E+04  0.7818608E-02  0.8932285E-01
          2   -1    0    0  501    0  0.00000000000E+00  0.00000000000E+00  0.18174748779E+04  0.18174748779E+04  0.25500000000E-02 0. -1.
         -2   -1    0    0    0  501 -0.00000000000E+00 -0.00000000000E+00 -0.11176498622E+04  0.11176498622E+04  0.25500000000E-02 0.  1.
    8880023    1    1    2    0    0  0.11246675989E+04  0.67637529060E+03  0.66871264756E+03  0.16134892479E+04  0.65864270000E+03 0. -1.
    8880022    1    1    2    0    0 -0.11246675989E+04 -0.67637529060E+03  0.31112368163E+02  0.13216354922E+04  0.15294330000E+03 0.  0.
<mgrwt>
<rscale>  0 0.14301416E+04</rscale>
<asrwt>0</asrwt>
<pdfrwt beam="1">  1        2 0.27961151E+00 0.14683906E+04</pdfrwt>
<pdfrwt beam="2">  1       -2 0.17194614E+00 0.14683906E+04</pdfrwt>
<totfact> 0.16467517E+00</totfact>
</mgrwt>
</event>
<event>
 4    5  0.6615028E-008  0.7071079E+03  0.7818608E-02  0.9968901E-01
         -2   -1    0    0    0  501 -0.00000000000E+00  0.00000000000E+00  0.48744087633E+03  0.48744087634E+03  0.25500000000E-02 0.  1.
          2   -1    0    0  501    0  0.00000000000E+00 -0.00000000000E+00 -0.20771967371E+04  0.20771967371E+04  0.25500000000E-02 0. -1.
    8880023    1    1    2    0    0 -0.80556851091E+02  0.24433994376E+03 -0.19628462547E+04  0.20863286031E+04  0.65864270000E+03 0. -1.
    8880022    1    1    2    0    0  0.80556851091E+02 -0.24433994376E+03  0.37309039387E+03  0.47830901036E+03  0.15294330000E+03 0.  0.
<mgrwt>
<rscale>  0 0.57035141E+03</rscale>
<asrwt>0</asrwt>
<pdfrwt beam="1">  1        2 0.31956872E+00 0.70710793E+03</pdfrwt>
<pdfrwt beam="2">  1       -2 0.74990905E-01 0.70710793E+03</pdfrwt>
<totfact> 0.10093319E+01</totfact>
</mgrwt>
</event>
<event>
 4    5  0.6615028E-008  0.1158084E+04  0.7818608E-02  0.9198985E-01
         -2   -1    0    0    0  501 -0.00000000000E+00  0.00000000000E+00  0.94103380022E+03  0.94103380022E+03  0.25500000000E-02 0.  1.
          2   -1    0    0  501    0  0.00000000000E+00 -0.00000000000E+00 -0.14095747554E+04  0.14095747554E+04  0.25500000000E-02 0. -1.
    8880023    1    1    2    0    0  0.16031846565E+03 -0.93896016880E+03  0.20220224756E+03  0.11756037445E+04  0.65864270000E+03 0.  1.
    8880022    1    1    2    0    0 -0.16031846565E+03  0.93896016880E+03 -0.67074320274E+03  0.11750048111E+04  0.15294330000E+03 0.  0.
<mgrwt>
<rscale>  0 0.11063908E+04</rscale>
<asrwt>0</asrwt>
<pdfrwt beam="1">  1        2 0.21685766E+00 0.11580839E+04</pdfrwt>
<pdfrwt beam="2">  1       -2 0.14477443E+00 0.11580839E+04</pdfrwt>
<totfact> 0.45905425E+00</totfact>
</mgrwt>
</event>
<event>
 4    5  0.6615028E-008  0.1171797E+04  0.7818608E-02  0.9185037E-01
         -2   -1    0    0    0  501 -0.00000000000E+00  0.00000000000E+00  0.11755559317E+04  0.11755559317E+04  0.25500000000E-02 0.  1.
          2   -1    0    0  501    0  0.00000000000E+00 -0.00000000000E+00 -0.14920267783E+04  0.14920267783E+04  0.25500000000E-02 0. -1.
    8880023    1    1    2    0    0 -0.47440552923E+03 -0.84512548732E+03 -0.94242200350E+03  0.15037510214E+04  0.65864270000E+03 0.  0.
    8880022    1    1    2    0    0  0.47440552923E+03  0.84512548732E+03  0.62595115688E+03  0.11638316886E+04  0.15294330000E+03 0.  0.
<mgrwt>
<rscale>  0 0.11209210E+04</rscale>
<asrwt>0</asrwt>
<pdfrwt beam="1">  1        2 0.22954258E+00 0.11717969E+04</pdfrwt>
<pdfrwt beam="2">  1       -2 0.18085476E+00 0.11717969E+04</pdfrwt>
<totfact> 0.22330520E+00</totfact>
</mgrwt>
</event>
<event>
 4    5  0.6615028E-008  0.1008258E+04  0.7818608E-02  0.9370833E-01
         -2   -1    0    0    0  501 -0.00000000000E+00  0.00000000000E+00  0.81100694246E+03  0.81100694247E+03  0.25500000000E-02 0.  1.
          2   -1    0    0  501    0  0.00000000000E+00 -0.00000000000E+00 -0.10682108679E+04  0.10682108679E+04  0.25500000000E-02 0. -1.
    8880023    1    1    2    0    0  0.40745001853E+03 -0.64556779867E+03 -0.40533909904E+03  0.10866845411E+04  0.65864270000E+03 0.  0.
    8880022    1    1    2    0    0 -0.40745001853E+03  0.64556779867E+03  0.14813517361E+03  0.79253326931E+03  0.15294330000E+03 0.  0.
<mgrwt>
<rscale>  0 0.94515383E+03</rscale>
<asrwt>0</asrwt>
<pdfrwt beam="1">  1        2 0.16434013E+00 0.10082577E+04</pdfrwt>
<pdfrwt beam="2">  1       -2 0.12477030E+00 0.10082577E+04</pdfrwt>
<totfact> 0.10890083E+01</totfact>
</mgrwt>
</event>
<event>
 4    5  0.6615028E-008  0.6664144E+03  0.7818608E-02  0.1018375E+00
         -2   -1    0    0    0  501 -0.00000000000E+00  0.00000000000E+00  0.86335049889E+02  0.86335049927E+02  0.25500000000E-02 0.  1.
          2   -1    0    0  501    0  0.00000000000E+00 -0.00000000000E+00 -0.22337927485E+04  0.22337927485E+04  0.25500000000E-02 0. -1.
    8880023    1    1    2    0    0 -0.17389507511E+02 -0.99977731075E+02 -0.18891672887E+04  0.20032626370E+04  0.65864270000E+03 0. -1.
    8880022    1    1    2    0    0  0.17389507511E+02  0.99977731075E+02 -0.25829040987E+03  0.31686516143E+03  0.15294330000E+03 0.  0.
<mgrwt>
<rscale>  0 0.48277553E+03</rscale>
<asrwt>0</asrwt>
<pdfrwt beam="1">  1        2 0.34366038E+00 0.66641440E+03</pdfrwt>
<pdfrwt beam="2">  1       -2 0.13282317E-01 0.66641440E+03</pdfrwt>
<totfact> 0.22061108E+02</totfact>
</mgrwt>
</event>
<event>
 4    5  0.6615028E-008  0.8395876E+03  0.7818608E-02  0.9630958E-01
          2   -1    0    0  501    0  0.00000000000E+00  0.00000000000E+00  0.50351166110E+03  0.50351166111E+03  0.25500000000E-02 0. -1.
         -2   -1    0    0    0  501 -0.00000000000E+00 -0.00000000000E+00 -0.25082399477E+04  0.25082399477E+04  0.25500000000E-02 0.  1.
    8880023    1    1    2    0    0 -0.34302739125E+03 -0.39170058824E+03  0.93227192977E+02  0.84474768881E+03  0.65864270000E+03 0. -1.
    8880022    1    1    2    0    0  0.34302739125E+03  0.39170058824E+03 -0.20979554795E+04  0.21670039200E+04  0.15294330000E+03 0.  0.
<mgrwt>
<rscale>  0 0.75280607E+03</rscale>
<asrwt>0</asrwt>
<pdfrwt beam="1">  1        2 0.77463334E-01 0.83958761E+03</pdfrwt>
<pdfrwt beam="2">  1       -2 0.38588306E+00 0.83958761E+03</pdfrwt>
<totfact> 0.58518606E-01</totfact>
</mgrwt>
</event>
<event>
 4    5  0.6615028E-008  0.6801775E+03  0.7818608E-02  0.1009223E+00
         -2   -1    0    0    0  501 -0.00000000000E+00  0.00000000000E+00  0.10693189159E+04  0.10693189159E+04  0.25500000000E-02 0.  1.
          2   -1    0    0  501    0  0.00000000000E+00 -0.00000000000E+00 -0.20227605429E+04  0.20227605429E+04  0.25500000000E-02 0. -1.
    8880023    1    1    2    0    0  0.14948038393E+03 -0.80541206094E+02 -0.19523101457E+04  0.20674032945E+04  0.65864270000E+03 0. -1.
    8880022    1    1    2    0    0 -0.14948038393E+03  0.80541206094E+02  0.99886851865E+03  0.10246761643E+04  0.15294330000E+03 0.  0.
<mgrwt>
<rscale>  0 0.51784449E+03</rscale>
<asrwt>0</asrwt>
<pdfrwt beam="1">  1        2 0.31119393E+00 0.68017753E+03</pdfrwt>
<pdfrwt beam="2">  1       -2 0.16451060E+00 0.68017753E+03</pdfrwt>
<totfact> 0.15974494E+00</totfact>
</mgrwt>
</event>
<event>
 4    5  0.6615028E-008  0.8155089E+03  0.7818608E-02  0.9678214E-01
         -2   -1    0    0    0  501 -0.00000000000E+00  0.00000000000E+00  0.13864503965E+04  0.13864503965E+04  0.25500000000E-02 0.  1.
          2   -1    0    0  501    0  0.00000000000E+00 -0.00000000000E+00 -0.11368825207E+04  0.11368825207E+04  0.25500000000E-02 0. -1.
    8880023    1    1    2    0    0  0.45151326230E+03 -0.16546987251E+03 -0.93206236412E+03  0.12384647599E+04  0.65864270000E+03 0. -1.
    8880022    1    1    2    0    0 -0.45151326230E+03  0.16546987251E+03  0.11816302399E+04  0.12848681572E+04  0.15294330000E+03 0.  0.
<mgrwt>
<rscale>  0 0.72328844E+03</rscale>
<asrwt>0</asrwt>
<pdfrwt beam="1">  1        2 0.17490500E+00 0.81550887E+03</pdfrwt>
<pdfrwt beam="2">  1       -2 0.21330006E+00 0.81550887E+03</pdfrwt>
<totfact> 0.22954625E+00</totfact>
</mgrwt>
</event>
<event>
 4    5  0.6615028E-008  0.1235175E+04  0.7818608E-02  0.9123666E-01
          2   -1    0    0  501    0  0.00000000000E+00  0.00000000000E+00  0.16067007436E+04  0.16067007436E+04  0.25500000000E-02 0. -1.
         -2   -1    0    0    0  501 -0.00000000000E+00 -0.00000000000E+00 -0.10434877842E+04  0.10434877842E+04  0.25500000000E-02 0.  1.
    8880023    1    1    2    0    0  0.10074362518E+04 -0.27734186183E+03  0.91491396057E+03  0.15371155036E+04  0.65864270000E+03 0.  0.
    8880022    1    1    2    0    0 -0.10074362518E+04  0.27734186183E+03 -0.35170100118E+03  0.11130730241E+04  0.15294330000E+03 0.  0.
<mgrwt>
<rscale>  0 0.11877286E+04</rscale>
<asrwt>0</asrwt>
<pdfrwt beam="1">  1        2 0.24718473E+00 0.12351747E+04</pdfrwt>
<pdfrwt beam="2">  1       -2 0.16053658E+00 0.12351747E+04</pdfrwt>
<totfact> 0.26708689E+00</totfact>
</mgrwt>
</event>
<event>
 4    5  0.6615028E-008  0.1225395E+04  0.7818608E-02  0.9132823E-01
          2   -1    0    0  501    0  0.00000000000E+00  0.00000000000E+00  0.23563190691E+04  0.23563190691E+04  0.25500000000E-02 0. -1.
         -2   -1    0    0    0  501 -0.00000000000E+00 -0.00000000000E+00 -0.10536737057E+04  0.10536737057E+04  0.25500000000E-02 0.  1.
    8880023    1    1    2    0    0  0.95103127059E+03  0.40413151383E+03  0.18589543470E+04  0.22265004444E+04  0.65864270000E+03 0.  0.
    8880022    1    1    2    0    0 -0.95103127059E+03 -0.40413151383E+03 -0.55630898365E+03  0.11834923305E+04  0.15294330000E+03 0.  0.
<mgrwt>
<rscale>  0 0.11774537E+04</rscale>
<asrwt>0</asrwt>
<pdfrwt beam="1">  1        2 0.36251062E+00 0.12253950E+04</pdfrwt>
<pdfrwt beam="2">  1       -2 0.16210365E+00 0.12253950E+04</pdfrwt>
<totfact> 0.99511300E-01</totfact>
</mgrwt>
</event>
<event>
 4    5  0.6615028E-008  0.7120772E+03  0.7818608E-02  0.9950367E-01
          2   -1    0    0  501    0  0.00000000000E+00  0.00000000000E+00  0.12862961888E+04  0.12862961888E+04  0.25500000000E-02 0. -1.
         -2   -1    0    0    0  501 -0.00000000000E+00 -0.00000000000E+00 -0.36575697207E+03  0.36575697208E+03  0.25500000000E-02 0.  1.
    8880023    1    1    2    0    0  0.11272380738E+03  0.24604292284E+03  0.10869675684E+04  0.12994431413E+04  0.65864270000E+03 0. -1.
    8880022    1    1    2    0    0 -0.11272380738E+03 -0.24604292284E+03 -0.16642835164E+03  0.35261001953E+03  0.15294330000E+03 0.  1.
<mgrwt>
<rscale>  0 0.57881179E+03</rscale>
<asrwt>0</asrwt>
<pdfrwt beam="1">  1        2 0.19789172E+00 0.71207723E+03</pdfrwt>
<pdfrwt beam="2">  1       -2 0.56270304E-01 0.71207723E+03</pdfrwt>
<totfact> 0.51044380E+01</totfact>
</mgrwt>
</event>
<event>
 4    5  0.6615028E-008  0.8634753E+03  0.7818608E-02  0.9587411E-01
          2   -1    0    0  501    0  0.00000000000E+00  0.00000000000E+00  0.31605822240E+04  0.31605822240E+04  0.25500000000E-02 0. -1.
         -2   -1    0    0    0  501 -0.00000000000E+00 -0.00000000000E+00 -0.77562315782E+03  0.77562315783E+03  0.25500000000E-02 0.  1.
    8880023    1    1    2    0    0 -0.17780781135E+03  0.52930494974E+03  0.29820382392E+04  0.31045356519E+04  0.65864270000E+03 0.  0.
    8880022    1    1    2    0    0  0.17780781135E+03 -0.52930494974E+03 -0.59707917310E+03  0.83166972985E+03  0.15294330000E+03 0.  0.
<mgrwt>
<rscale>  0 0.78135021E+03</rscale>
<asrwt>0</asrwt>
<pdfrwt beam="1">  1        2 0.48624343E+00 0.86347528E+03</pdfrwt>
<pdfrwt beam="2">  1       -2 0.11932664E+00 0.86347528E+03</pdfrwt>
<totfact> 0.77659991E-01</totfact>
</mgrwt>
</event>
<event>
 4    5  0.6903614E-008  0.8256056E+03  0.7818608E-02  0.9657944E-01
          2   -1    0    0  501    0  0.00000000000E+00  0.00000000000E+00  0.19467951653E+04  0.19467951653E+04  0.25500000000E-02 0. -1.
         -2   -1    0    0    0  501 -0.00000000000E+00 -0.00000000000E+00 -0.20012922292E+04  0.20012922292E+04  0.25500000000E-02 0.  1.
    8880023    1    1    2    0    0 -0.49537639580E+03 -0.49159978576E+02  0.18221811504E+04  0.20004921465E+04  0.65864270000E+03 0. -1.
    8880022    1    1    2    0    0  0.49537639580E+03  0.49159978576E+02 -0.18766782143E+04  0.19475952480E+04  0.15294330000E+03 0.  0.
<mgrwt>
<rscale>  0 0.73576975E+03</rscale>
<asrwt>0</asrwt>
<pdfrwt beam="1">  1        2 0.29950695E+00 0.82560565E+03</pdfrwt>
<pdfrwt beam="2">  1       -2 0.30789111E+00 0.82560565E+03</pdfrwt>
<totfact> 0.21309615E-01</totfact>
</mgrwt>
</event>
<event>
 4    5  0.6615028E-008  0.1334485E+04  0.7818608E-02  0.9036338E-01
         -2   -1    0    0    0  501 -0.00000000000E+00  0.00000000000E+00  0.22719963552E+04  0.22719963552E+04  0.25500000000E-02 0.  1.
          2   -1    0    0  501    0  0.00000000000E+00 -0.00000000000E+00 -0.19662323970E+04  0.19662323970E+04  0.25500000000E-02 0. -1.
    8880023    1    1    2    0    0  0.19261461149E+03 -0.11445257573E+04 -0.15492239173E+04  0.20447358142E+04  0.65864270000E+03 0.  0.
    8880022    1    1    2    0    0 -0.19261461149E+03  0.11445257573E+04  0.18549878755E+04  0.21934929380E+04  0.15294330000E+03 0.  0.
<mgrwt>
<rscale>  0 0.12914940E+04</rscale>
<asrwt>0</asrwt>
<pdfrwt beam="1">  1        2 0.30249729E+00 0.13344848E+04</pdfrwt>
<pdfrwt beam="2">  1       -2 0.34953790E+00 0.13344848E+04</pdfrwt>
<totfact> 0.10501633E-01</totfact>
</mgrwt>
</event>
<event>
 4    5  0.6615028E-008  0.1654709E+04  0.7818608E-02  0.8807473E-01
         -2   -1    0    0    0  501 -0.00000000000E+00  0.00000000000E+00  0.12650430353E+04  0.12650430353E+04  0.25500000000E-02 0.  1.
          2   -1    0    0  501    0  0.00000000000E+00 -0.00000000000E+00 -0.32448522837E+04  0.32448522837E+04  0.25500000000E-02 0. -1.
    8880023    1    1    2    0    0 -0.84038486205E+03  0.12641220819E+04 -0.24112418987E+04  0.29244057609E+04  0.65864270000E+03 0.  0.
    8880022    1    1    2    0    0  0.84038486205E+03 -0.12641220819E+04  0.43143265020E+03  0.15854895581E+04  0.15294330000E+03 0.  0.
<mgrwt>
<rscale>  0 0.16214582E+04</rscale>
<asrwt>0</asrwt>
<pdfrwt beam="1">  1        2 0.49920804E+00 0.16547089E+04</pdfrwt>
<pdfrwt beam="2">  1       -2 0.19462201E+00 0.16547089E+04</pdfrwt>
<totfact> 0.16225177E-01</totfact>
</mgrwt>
</event>
<event>
 4    5  0.6615028E-008  0.7408349E+03  0.7818608E-02  0.9857522E-01
         -2   -1    0    0    0  501 -0.00000000000E+00  0.00000000000E+00  0.79047723754E+03  0.79047723755E+03  0.25500000000E-02 0.  1.
          2   -1    0    0  501    0  0.00000000000E+00 -0.00000000000E+00 -0.26729225091E+04  0.26729225091E+04  0.25500000000E-02 0. -1.
    8880023    1    1    2    0    0 -0.17535413185E+03 -0.29030524613E+03 -0.25737981833E+04  0.26782967539E+04  0.65864270000E+03 0.  0.
    8880022    1    1    2    0    0  0.17535413185E+03  0.29030524613E+03  0.69135291178E+03  0.78510299269E+03  0.15294330000E+03 0.  0.
<mgrwt>
<rscale>  0 0.62364883E+03</rscale>
<asrwt>0</asrwt>
<pdfrwt beam="1">  1        2 0.41121884E+00 0.74083494E+03</pdfrwt>
<pdfrwt beam="2">  1       -2 0.12161188E+00 0.74083494E+03</pdfrwt>
<totfact> 0.14984515E+00</totfact>
</mgrwt>
</event>
<event>
 4    5  0.6615028E-008  0.6617762E+03  0.7818608E-02  0.1022406E+00
          2   -1    0    0  501    0  0.00000000000E+00  0.00000000000E+00  0.60324628658E+03  0.60324628659E+03  0.25500000000E-02 0. -1.
         -2   -1    0    0    0  501 -0.00000000000E+00 -0.00000000000E+00 -0.38147734256E+03  0.38147734257E+03  0.25500000000E-02 0.  1.
    8880023    1    1    2    0    0  0.31308347801E+02 -0.56190309561E+02  0.37348768193E+03  0.75989526801E+03  0.65864270000E+03 0. -1.
    8880022    1    1    2    0    0 -0.31308347801E+02  0.56190309561E+02 -0.15171873790E+03  0.22482836115E+03  0.15294330000E+03 0.  0.
<mgrwt>
<rscale>  0 0.46828215E+03</rscale>
<asrwt>0</asrwt>
<pdfrwt beam="1">  1        2 0.92807121E-01 0.66177622E+03</pdfrwt>
<pdfrwt beam="2">  1       -2 0.58688822E-01 0.66177622E+03</pdfrwt>
<totfact> 0.13580739E+02</totfact>
</mgrwt>
</event>
<event>
 4    5  0.6615028E-008  0.8756551E+03  0.7818608E-02  0.9566301E-01
         -2   -1    0    0    0  501 -0.00000000000E+00  0.00000000000E+00  0.57600217485E+03  0.57600217485E+03  0.25500000000E-02 0.  1.
          2   -1    0    0  501    0  0.00000000000E+00 -0.00000000000E+00 -0.33250345079E+04  0.33250345079E+04  0.25500000000E-02 0. -1.
    8880023    1    1    2    0    0  0.55376429823E+03 -0.16219343132E+03 -0.30912964616E+04  0.32129247777E+04  0.65864270000E+03 0. -1.
    8880022    1    1    2    0    0 -0.55376429823E+03  0.16219343132E+03  0.34226412858E+03  0.68811190506E+03  0.15294330000E+03 0.  0.
<mgrwt>
<rscale>  0 0.79567350E+03</rscale>
<asrwt>0</asrwt>
<pdfrwt beam="1">  1        2 0.51154376E+00 0.87565508E+03</pdfrwt>
<pdfrwt beam="2">  1       -2 0.88615721E-01 0.87565508E+03</pdfrwt>
<totfact> 0.12353400E+00</totfact>
</mgrwt>
</event>
<event>
 4    5  0.6615028E-008  0.6678975E+03  0.7818608E-02  0.1017217E+00
         -2   -1    0    0    0  501 -0.00000000000E+00  0.00000000000E+00  0.63954390102E+03  0.63954390103E+03  0.25500000000E-02 0.  1.
          2   -1    0    0  501    0  0.00000000000E+00 -0.00000000000E+00 -0.68419759782E+03  0.68419759783E+03  0.25500000000E-02 0. -1.
    8880023    1    1    2    0    0  0.10964426437E+03  0.15969994922E+02 -0.49767629714E+03  0.83292785308E+03  0.65864270000E+03 0. -1.
    8880022    1    1    2    0    0 -0.10964426437E+03 -0.15969994922E+02  0.45302260034E+03  0.49081364577E+03  0.15294330000E+03 0.  0.
<mgrwt>
<rscale>  0 0.48704386E+03</rscale>
<asrwt>0</asrwt>
<pdfrwt beam="1">  1        2 0.10526117E+00 0.66789753E+03</pdfrwt>
<pdfrwt beam="2">  1       -2 0.98391369E-01 0.66789753E+03</pdfrwt>
<totfact> 0.36928398E+01</totfact>
</mgrwt>
</event>
<event>
 4    5  0.6615028E-008  0.6781074E+03  0.7818608E-02  0.1010415E+00
          2   -1    0    0  501    0  0.00000000000E+00  0.00000000000E+00  0.15545230639E+04  0.15545230639E+04  0.25500000000E-02 0. -1.
         -2   -1    0    0    0  501 -0.00000000000E+00 -0.00000000000E+00 -0.55047648625E+03  0.55047648625E+03  0.25500000000E-02 0.  1.
    8880023    1    1    2    0    0  0.15789112770E+03  0.33013409016E+02  0.14533241662E+04  0.16037396396E+04  0.65864270000E+03 0.  0.
    8880022    1    1    2    0    0 -0.15789112770E+03 -0.33013409016E+02 -0.44927758851E+03  0.50125991056E+03  0.15294330000E+03 0.  1.
<mgrwt>
<rscale>  0 0.51309998E+03</rscale>
<asrwt>0</asrwt>
<pdfrwt beam="1">  1        2 0.23915740E+00 0.67810744E+03</pdfrwt>
<pdfrwt beam="2">  1       -2 0.84688689E-01 0.67810744E+03</pdfrwt>
<totfact> 0.14879420E+01</totfact>
</mgrwt>
</event>
<event>
 4    5  0.6615028E-008  0.1179335E+04  0.7818608E-02  0.9177476E-01
          2   -1    0    0  501    0  0.00000000000E+00  0.00000000000E+00  0.27352733823E+04  0.27352733823E+04  0.25500000000E-02 0. -1.
         -2   -1    0    0    0  501 -0.00000000000E+00 -0.00000000000E+00 -0.70892216251E+03  0.70892216251E+03  0.25500000000E-02 0.  1.
    8880023    1    1    2    0    0 -0.82551734341E+03  0.52492166273E+03  0.21441224014E+04  0.24470579713E+04  0.65864270000E+03 0.  0.
    8880022    1    1    2    0    0  0.82551734341E+03 -0.52492166273E+03 -0.11777118165E+03  0.99713757351E+03  0.15294330000E+03 0.  0.
<mgrwt>
<rscale>  0 0.11288965E+04</rscale>
<asrwt>0</asrwt>
<pdfrwt beam="1">  1        2 0.42081128E+00 0.11793353E+04</pdfrwt>
<pdfrwt beam="2">  1       -2 0.10906495E+00 0.11793353E+04</pdfrwt>
<totfact> 0.16760321E+00</totfact>
</mgrwt>
</event>
<event>
 4    5  0.6615028E-008  0.7436898E+03  0.7818608E-02  0.9849326E-01
         -2   -1    0    0    0  501 -0.00000000000E+00  0.00000000000E+00  0.58555009331E+03  0.58555009332E+03  0.25500000000E-02 0.  1.
          2   -1    0    0  501    0  0.00000000000E+00 -0.00000000000E+00 -0.14410353783E+04  0.14410353783E+04  0.25500000000E-02 0. -1.
    8880023    1    1    2    0    0  0.21908046323E+03 -0.26696082262E+03 -0.12662985691E+04  0.14685321251E+04  0.65864270000E+03 0. -1.
    8880022    1    1    2    0    0 -0.21908046323E+03  0.26696082262E+03  0.41081328407E+03  0.55805334653E+03  0.15294330000E+03 0.  0.
<mgrwt>
<rscale>  0 0.62781274E+03</rscale>
<asrwt>0</asrwt>
<pdfrwt beam="1">  1        2 0.22169775E+00 0.74368981E+03</pdfrwt>
<pdfrwt beam="2">  1       -2 0.90084630E-01 0.74368981E+03</pdfrwt>
<totfact> 0.14805584E+01</totfact>
</mgrwt>
</event>
<event>
 4    5  0.6615028E-008  0.1183885E+04  0.7818608E-02  0.9172949E-01
         -2   -1    0    0    0  501 -0.00000000000E+00  0.00000000000E+00  0.24636883966E+04  0.24636883966E+04  0.25500000000E-02 0.  1.
          2   -1    0    0  501    0  0.00000000000E+00 -0.00000000000E+00 -0.65341035173E+03  0.65341035174E+03  0.25500000000E-02 0. -1.
    8880023    1    1    2    0    0  0.98367524685E+03 -0.12504998438E+02  0.16677877154E+03  0.11955746447E+04  0.65864270000E+03 0.  0.
    8880022    1    1    2    0    0 -0.98367524685E+03  0.12504998438E+02  0.16434992734E+04  0.19215241036E+04  0.15294330000E+03 0.  0.
<mgrwt>
<rscale>  0 0.11337058E+04</rscale>
<asrwt>0</asrwt>
<pdfrwt beam="1">  1        2 0.10052467E+00 0.11838849E+04</pdfrwt>
<pdfrwt beam="2">  1       -2 0.37902899E+00 0.11838849E+04</pdfrwt>
<totfact> 0.45002573E-01</totfact>
</mgrwt>
</event>
<event>
 4    5  0.6615028E-008  0.7575463E+03  0.7818608E-02  0.9811502E-01
         -2   -1    0    0    0  501 -0.00000000000E+00  0.00000000000E+00  0.38557630904E+03  0.38557630905E+03  0.25500000000E-02 0.  1.
          2   -1    0    0  501    0  0.00000000000E+00 -0.00000000000E+00 -0.15534723734E+04  0.15534723734E+04  0.25500000000E-02 0. -1.
    8880023    1    1    2    0    0  0.32968617597E+03  0.17712472489E+03 -0.13076866582E+04  0.15112646178E+04  0.65864270000E+03 0. -1.
    8880022    1    1    2    0    0 -0.32968617597E+03 -0.17712472489E+03  0.13979059386E+03  0.42778406461E+03  0.15294330000E+03 0.  0.
<mgrwt>
<rscale>  0 0.64748927E+03</rscale>
<asrwt>0</asrwt>
<pdfrwt beam="1">  1        2 0.23899575E+00 0.75754627E+03</pdfrwt>
<pdfrwt beam="2">  1       -2 0.59319433E-01 0.75754627E+03</pdfrwt>
<totfact> 0.32147217E+01</totfact>
</mgrwt>
</event>
<event>
 4    5  0.6615028E-008  0.9046402E+03  0.7818608E-02  0.9518623E-01
          2   -1    0    0  501    0  0.00000000000E+00  0.00000000000E+00  0.19182342078E+04  0.19182342079E+04  0.25500000000E-02 0. -1.
         -2   -1    0    0    0  501 -0.00000000000E+00 -0.00000000000E+00 -0.48622940331E+03  0.48622940331E+03  0.25500000000E-02 0.  1.
    8880023    1    1    2    0    0  0.51891537033E+03 -0.33954448379E+03  0.15107728232E+04  0.17609112265E+04  0.65864270000E+03 0. -1.
    8880022    1    1    2    0    0 -0.51891537033E+03  0.33954448379E+03 -0.78768018650E+02  0.64355238467E+03  0.15294330000E+03 0.  0.
<mgrwt>
<rscale>  0 0.82924616E+03</rscale>
<asrwt>0</asrwt>
<pdfrwt beam="1">  1        2 0.29511296E+00 0.90464016E+03</pdfrwt>
<pdfrwt beam="2">  1       -2 0.74804523E-01 0.90464016E+03</pdfrwt>
<totfact> 0.12062480E+01</totfact>
</mgrwt>
</event>
<event>
 4    5  0.6615028E-008  0.1381001E+04  0.7818608E-02  0.8998588E-01
          2   -1    0    0  501    0  0.00000000000E+00  0.00000000000E+00  0.21334034408E+04  0.21334034408E+04  0.25500000000E-02 0. -1.
         -2   -1    0    0    0  501 -0.00000000000E+00 -0.00000000000E+00 -0.10876007210E+04  0.10876007210E+04  0.25500000000E-02 0.  1.
    8880023    1    1    2    0    0 -0.16881093173E+03  0.12020213165E+04 -0.28840680615E+03  0.14107944812E+04  0.65864270000E+03 0.  0.
    8880022    1    1    2    0    0  0.16881093173E+03 -0.12020213165E+04  0.13342095259E+04  0.18102096807E+04  0.15294330000E+03 0.  0.
<mgrwt>
<rscale>  0 0.13397965E+04</rscale>
<asrwt>0</asrwt>
<pdfrwt beam="1">  1        2 0.32821591E+00 0.13810006E+04</pdfrwt>
<pdfrwt beam="2">  1       -2 0.16732319E+00 0.13810006E+04</pdfrwt>
<totfact> 0.11953805E+00</totfact>
</mgrwt>
</event>
<event>
 4    5  0.2378280E-007  0.1506737E+04  0.7818608E-02  0.8904893E-01
         -2   -1    0    0    0  501 -0.00000000000E+00  0.00000000000E+00  0.33494007883E+04  0.33494007883E+04  0.25500000000E-02 0.  1.
          2   -1    0    0  501    0  0.00000000000E+00 -0.00000000000E+00 -0.20750968253E+04  0.20750968253E+04  0.25500000000E-02 0. -1.
    8880023    1    1    2    0    0  0.12513307534E+04  0.52020834523E+03 -0.16276963990E+04  0.22180286631E+04  0.65864270000E+03 0. -1.
    8880022    1    1    2    0    0 -0.12513307534E+04 -0.52020834523E+03  0.29020003619E+04  0.32064689505E+04  0.15294330000E+03 0.  0.
<mgrwt>
<rscale>  0 0.14696448E+04</rscale>
<asrwt>0</asrwt>
<pdfrwt beam="1">  1        2 0.31924567E+00 0.15067367E+04</pdfrwt>
<pdfrwt beam="2">  1       -2 0.51529242E+00 0.15067367E+04</pdfrwt>
<totfact> 0.74834874E-03</totfact>
</mgrwt>
</event>
<event>
 4    5  0.6615028E-008  0.1408344E+04  0.7818608E-02  0.8977227E-01
          2   -1    0    0  501    0  0.00000000000E+00  0.00000000000E+00  0.33867397013E+04  0.33867397013E+04  0.25500000000E-02 0. -1.
         -2   -1    0    0    0  501 -0.00000000000E+00 -0.00000000000E+00 -0.86223723065E+03  0.86223723066E+03  0.25500000000E-02 0.  1.
    8880023    1    1    2    0    0 -0.12427798731E+04 -0.71551996802E+02  0.26372350600E+04  0.29897224736E+04  0.65864270000E+03 0.  0.
    8880022    1    1    2    0    0  0.12427798731E+04  0.71551996802E+02 -0.11273258932E+03  0.12592544584E+04  0.15294330000E+03 0.  0.
<mgrwt>
<rscale>  0 0.13681163E+04</rscale>
<asrwt>0</asrwt>
<pdfrwt beam="1">  1        2 0.52103687E+00 0.14083436E+04</pdfrwt>
<pdfrwt beam="2">  1       -2 0.13265188E+00 0.14083436E+04</pdfrwt>
<totfact> 0.38773295E-01</totfact>
</mgrwt>
</event>
<event>
 4    5  0.6615028E-008  0.6982233E+03  0.7818608E-02  0.1000465E+00
         -2   -1    0    0    0  501 -0.00000000000E+00  0.00000000000E+00  0.53139646109E+03  0.53139646110E+03  0.25500000000E-02 0.  1.
          2   -1    0    0  501    0  0.00000000000E+00 -0.00000000000E+00 -0.78569250635E+03  0.78569250635E+03  0.25500000000E-02 0. -1.
    8880023    1    1    2    0    0  0.21033216925E+03  0.97293217037E+02 -0.56660390726E+03  0.89919730065E+03  0.65864270000E+03 0. -1.
    8880022    1    1    2    0    0 -0.21033216925E+03 -0.97293217037E+02  0.31230786200E+03  0.41789166681E+03  0.15294330000E+03 0.  0.
<mgrwt>
<rscale>  0 0.55446689E+03</rscale>
<asrwt>0</asrwt>
<pdfrwt beam="1">  1        2 0.12087577E+00 0.69822332E+03</pdfrwt>
<pdfrwt beam="2">  1       -2 0.81753302E-01 0.69822332E+03</pdfrwt>
<totfact> 0.47275272E+01</totfact>
</mgrwt>
</event>
<event>
 4    5  0.6615028E-008  0.6805883E+03  0.7818608E-02  0.1008993E+00
          2   -1    0    0  501    0  0.00000000000E+00  0.00000000000E+00  0.13434537357E+04  0.13434537357E+04  0.25500000000E-02 0. -1.
         -2   -1    0    0    0  501 -0.00000000000E+00 -0.00000000000E+00 -0.12562193514E+04  0.12562193514E+04  0.25500000000E-02 0.  1.
    8880023    1    1    2    0    0  0.30340490374E+02  0.16872973891E+03  0.12452427160E+04  0.14190947460E+04  0.65864270000E+03 0. -1.
    8880022    1    1    2    0    0 -0.30340490374E+02 -0.16872973891E+03 -0.11580083317E+04  0.11805783411E+04  0.15294330000E+03 0.  0.
<mgrwt>
<rscale>  0 0.51876901E+03</rscale>
<asrwt>0</asrwt>
<pdfrwt beam="1">  1        2 0.20668519E+00 0.68058833E+03</pdfrwt>
<pdfrwt beam="2">  1       -2 0.19326452E+00 0.68058833E+03</pdfrwt>
<totfact> 0.23931947E+00</totfact>
</mgrwt>
</event>
<event>
 4    5  0.6615028E-008  0.1082026E+04  0.7818608E-02  0.9281336E-01
         -2   -1    0    0    0  501 -0.00000000000E+00  0.00000000000E+00  0.74742660177E+03  0.74742660178E+03  0.25500000000E-02 0.  1.
          2   -1    0    0  501    0  0.00000000000E+00 -0.00000000000E+00 -0.25529171708E+04  0.25529171708E+04  0.25500000000E-02 0. -1.
    8880023    1    1    2    0    0 -0.76182429399E+03 -0.39572022549E+03 -0.21144640735E+04  0.23752345729E+04  0.65864270000E+03 0. -1.
    8880022    1    1    2    0    0  0.76182429399E+03  0.39572022549E+03  0.30897350452E+03  0.92510919966E+03  0.15294330000E+03 0.  0.
<mgrwt>
<rscale>  0 0.10251937E+04</rscale>
<asrwt>0</asrwt>
<pdfrwt beam="1">  1        2 0.39275648E+00 0.10820263E+04</pdfrwt>
<pdfrwt beam="2">  1       -2 0.11498871E+00 0.10820263E+04</pdfrwt>
<totfact> 0.19066366E+00</totfact>
</mgrwt>
</event>
<event>
 4    5  0.6615028E-008  0.7529180E+03  0.7818608E-02  0.9823799E-01
         -2   -1    0    0    0  501 -0.00000000000E+00  0.00000000000E+00  0.77564669423E+03  0.77564669423E+03  0.25500000000E-02 0.  1.
          2   -1    0    0  501    0  0.00000000000E+00 -0.00000000000E+00 -0.10086582751E+04  0.10086582751E+04  0.25500000000E-02 0. -1.
    8880023    1    1    2    0    0  0.92793313259E+02  0.35279553751E+03 -0.79637131232E+03  0.10959437776E+04  0.65864270000E+03 0. -1.
    8880022    1    1    2    0    0 -0.92793313259E+02 -0.35279553751E+03  0.56335973145E+03  0.68836119175E+03  0.15294330000E+03 0.  0.
<mgrwt>
<rscale>  0 0.64100819E+03</rscale>
<asrwt>0</asrwt>
<pdfrwt beam="1">  1        2 0.15517820E+00 0.75291799E+03</pdfrwt>
<pdfrwt beam="2">  1       -2 0.11933026E+00 0.75291799E+03</pdfrwt>
<totfact> 0.13613464E+01</totfact>
</mgrwt>
</event>
<event>
 4    5  0.6615028E-008  0.8294348E+03  0.7818608E-02  0.9650433E-01
          2   -1    0    0  501    0  0.00000000000E+00  0.00000000000E+00  0.84085812685E+03  0.84085812686E+03  0.25500000000E-02 0. -1.
         -2   -1    0    0    0  501 -0.00000000000E+00 -0.00000000000E+00 -0.55149454919E+03  0.55149454920E+03  0.25500000000E-02 0.  1.
    8880023    1    1    2    0    0 -0.50409587423E+03 -0.62591525528E+01  0.11469197946E+03  0.83732686797E+03  0.65864270000E+03 0. -1.
    8880022    1    1    2    0    0  0.50409587423E+03  0.62591525528E+01  0.17467159821E+03  0.55502580809E+03  0.15294330000E+03 0.  1.
<mgrwt>
<rscale>  0 0.74046248E+03</rscale>
<asrwt>0</asrwt>
<pdfrwt beam="1">  1        2 0.12936279E+00 0.82943477E+03</pdfrwt>
<pdfrwt beam="2">  1       -2 0.84845315E-01 0.82943477E+03</pdfrwt>
<totfact> 0.39274255E+01</totfact>
</mgrwt>
</event>
<event>
 4    5  0.6615028E-008  0.1102854E+04  0.7818608E-02  0.9257885E-01
          2   -1    0    0  501    0  0.00000000000E+00  0.00000000000E+00  0.16413492579E+04  0.16413492579E+04  0.25500000000E-02 0. -1.
         -2   -1    0    0    0  501 -0.00000000000E+00 -0.00000000000E+00 -0.10807891799E+04  0.10807891799E+04  0.25500000000E-02 0.  1.
    8880023    1    1    2    0    0 -0.55256670137E+03 -0.69075795221E+03  0.11925132467E+04  0.16243074087E+04  0.65864270000E+03 0.  0.
    8880022    1    1    2    0    0  0.55256670137E+03  0.69075795221E+03 -0.63195316879E+03  0.10978310291E+04  0.15294330000E+03 0.  0.
<mgrwt>
<rscale>  0 0.10475421E+04</rscale>
<asrwt>0</asrwt>
<pdfrwt beam="1">  1        2 0.25251527E+00 0.11028539E+04</pdfrwt>
<pdfrwt beam="2">  1       -2 0.16627526E+00 0.11028539E+04</pdfrwt>
<totfact> 0.23519727E+00</totfact>
</mgrwt>
</event>
<event>
 4    5  0.6615028E-008  0.1405046E+04  0.7818608E-02  0.8979772E-01
         -2   -1    0    0    0  501 -0.00000000000E+00  0.00000000000E+00  0.77468487163E+03  0.77468487164E+03  0.25500000000E-02 0.  1.
          2   -1    0    0  501    0  0.00000000000E+00 -0.00000000000E+00 -0.31534588086E+04  0.31534588086E+04  0.25500000000E-02 0. -1.
    8880023    1    1    2    0    0 -0.11289240339E+04  0.51563008466E+03 -0.20440789258E+03  0.14198368397E+04  0.65864270000E+03 0.  0.
    8880022    1    1    2    0    0  0.11289240339E+04 -0.51563008466E+03 -0.21743660444E+04  0.25083068406E+04  0.15294330000E+03 0.  0.
<mgrwt>
<rscale>  0 0.13647035E+04</rscale>
<asrwt>0</asrwt>
<pdfrwt beam="1">  1        2 0.48514750E+00 0.14050459E+04</pdfrwt>
<pdfrwt beam="2">  1       -2 0.11918229E+00 0.14050459E+04</pdfrwt>
<totfact> 0.72444554E-01</totfact>
</mgrwt>
</event>
<event>
 4    5  0.6615028E-008  0.1158600E+04  0.7818608E-02  0.9198456E-01
         -2   -1    0    0    0  501 -0.00000000000E+00  0.00000000000E+00  0.10340547232E+04  0.10340547232E+04  0.25500000000E-02 0.  1.
          2   -1    0    0  501    0  0.00000000000E+00 -0.00000000000E+00 -0.16966624208E+04  0.16966624208E+04  0.25500000000E-02 0. -1.
    8880023    1    1    2    0    0 -0.77391506979E+02  0.95002882822E+03 -0.11644928324E+04  0.16426801219E+04  0.65864270000E+03 0.  0.
    8880022    1    1    2    0    0  0.77391506979E+02 -0.95002882822E+03  0.50188513482E+03  0.10880370221E+04  0.15294330000E+03 0.  0.
<mgrwt>
<rscale>  0 0.11069384E+04</rscale>
<asrwt>0</asrwt>
<pdfrwt beam="1">  1        2 0.26102499E+00 0.11586002E+04</pdfrwt>
<pdfrwt beam="2">  1       -2 0.15908534E+00 0.11586002E+04</pdfrwt>
<totfact> 0.24589892E+00</totfact>
</mgrwt>
</event>
<event>
 4    5  0.6615028E-008  0.6971947E+03  0.7818608E-02  0.1000904E+00
         -2   -1    0    0    0  501 -0.00000000000E+00  0.00000000000E+00  0.46292868053E+03  0.46292868053E+03  0.25500000000E-02 0.  1.
          2   -1    0    0  501    0  0.00000000000E+00 -0.00000000000E+00 -0.51636651574E+03  0.51636651575E+03  0.25500000000E-02 0. -1.
    8880023    1    1    2    0    0 -0.19473331327E+03 -0.11978799307E+03 -0.85281016524E+02  0.70239111941E+03  0.65864270000E+03 0.  1.
    8880022    1    1    2    0    0  0.19473331327E+03  0.11978799307E+03  0.31843181308E+02  0.27690407687E+03  0.15294330000E+03 0. -1.
<mgrwt>
<rscale>  0 0.55255459E+03</rscale>
<asrwt>0</asrwt>
<pdfrwt beam="1">  1        2 0.79441002E-01 0.69719469E+03</pdfrwt>
<pdfrwt beam="2">  1       -2 0.71219797E-01 0.69719469E+03</pdfrwt>
<totfact> 0.10762339E+02</totfact>
</mgrwt>
</event>
<event>
 4    5  0.6615028E-008  0.6888876E+03  0.7818608E-02  0.1004686E+00
          2   -1    0    0  501    0  0.00000000000E+00  0.00000000000E+00  0.69378117997E+03  0.69378117997E+03  0.25500000000E-02 0. -1.
         -2   -1    0    0    0  501 -0.00000000000E+00 -0.00000000000E+00 -0.17904274895E+04  0.17904274895E+04  0.25500000000E-02 0.  1.
    8880023    1    1    2    0    0  0.19509706012E+03  0.51894904475E+02  0.51037587046E+03  0.85735038309E+03  0.65864270000E+03 0.  0.
    8880022    1    1    2    0    0 -0.19509706012E+03 -0.51894904475E+02 -0.16070221800E+04  0.16268582864E+04  0.15294330000E+03 0.  1.
<mgrwt>
<rscale>  0 0.53642478E+03</rscale>
<asrwt>0</asrwt>
<pdfrwt beam="1">  1        2 0.10673557E+00 0.68888762E+03</pdfrwt>
<pdfrwt beam="2">  1       -2 0.27545038E+00 0.68888762E+03</pdfrwt>
<totfact> 0.19487830E+00</totfact>
</mgrwt>
</event>
<event>
 4    5  0.6615028E-008  0.1390170E+04  0.7818608E-02  0.8991359E-01
         -2   -1    0    0    0  501 -0.00000000000E+00  0.00000000000E+00  0.16026577102E+04  0.16026577102E+04  0.25500000000E-02 0.  1.
          2   -1    0    0  501    0  0.00000000000E+00 -0.00000000000E+00 -0.14168995702E+04  0.14168995702E+04  0.25500000000E-02 0. -1.
    8880023    1    1    2    0    0  0.66616329366E+03 -0.10271266508E+04 -0.64465169948E+03  0.15323670286E+04  0.65864270000E+03 0.  0.
    8880022    1    1    2    0    0 -0.66616329366E+03  0.10271266508E+04  0.83040983947E+03  0.14871902518E+04  0.15294330000E+03 0.  0.
<mgrwt>
<rscale>  0 0.13492993E+04</rscale>
<asrwt>0</asrwt>
<pdfrwt beam="1">  1        2 0.21798455E+00 0.13901701E+04</pdfrwt>
<pdfrwt beam="2">  1       -2 0.24656272E+00 0.13901701E+04</pdfrwt>
<totfact> 0.90861437E-01</totfact>
</mgrwt>
</event>
<event>
 4    5  0.6615028E-008  0.9146438E+03  0.7818608E-02  0.9502921E-01
         -2   -1    0    0    0  501 -0.00000000000E+00  0.00000000000E+00  0.22258597495E+04  0.22258597495E+04  0.25500000000E-02 0.  1.
          2   -1    0    0  501    0  0.00000000000E+00 -0.00000000000E+00 -0.11684998514E+04  0.11684998514E+04  0.25500000000E-02 0. -1.
    8880023    1    1    2    0    0 -0.48138349915E+03  0.41356146916E+03 -0.92887170734E+03  0.13036011725E+04  0.65864270000E+03 0.  0.
    8880022    1    1    2    0    0  0.48138349915E+03 -0.41356146916E+03  0.19862316055E+04  0.20907584283E+04  0.15294330000E+03 0.  0.
<mgrwt>
<rscale>  0 0.84068817E+03</rscale>
<asrwt>0</asrwt>
<pdfrwt beam="1">  1        2 0.17976921E+00 0.91464385E+03</pdfrwt>
<pdfrwt beam="2">  1       -2 0.34243996E+00 0.91464385E+03</pdfrwt>
<totfact> 0.35212905E-01</totfact>
</mgrwt>
</event>
<event>
 4    5  0.6615028E-008  0.7568206E+03  0.7818608E-02  0.9813409E-01
          2   -1    0    0  501    0  0.00000000000E+00  0.00000000000E+00  0.25884645171E+04  0.25884645171E+04  0.25500000000E-02 0. -1.
         -2   -1    0    0    0  501 -0.00000000000E+00 -0.00000000000E+00 -0.23462540646E+03  0.23462540647E+03  0.25500000000E-02 0.  1.
    8880023    1    1    2    0    0 -0.21879165016E+03 -0.30182362774E+03  0.22941424112E+04  0.24157538984E+04  0.65864270000E+03 0. -1.
    8880022    1    1    2    0    0  0.21879165016E+03  0.30182362774E+03  0.59696699389E+02  0.40733602514E+03  0.15294330000E+03 0.  0.
<mgrwt>
<rscale>  0 0.64647875E+03</rscale>
<asrwt>0</asrwt>
<pdfrwt beam="1">  1        2 0.39822530E+00 0.75682065E+03</pdfrwt>
<pdfrwt beam="2">  1       -2 0.36096217E-01 0.75682065E+03</pdfrwt>
<totfact> 0.23344450E+01</totfact>
</mgrwt>
</event>
<event>
 4    5  0.7385564E-008  0.1048905E+04  0.7818608E-02  0.9320199E-01
          2   -1    0    0  501    0  0.00000000000E+00  0.00000000000E+00  0.21751135104E+04  0.21751135104E+04  0.25500000000E-02 0. -1.
         -2   -1    0    0    0  501 -0.00000000000E+00 -0.00000000000E+00 -0.13021117818E+04  0.13021117818E+04  0.25500000000E-02 0.  1.
    8880023    1    1    2    0    0 -0.79605217525E+03 -0.18080986196E+03  0.18915987509E+04  0.21629487541E+04  0.65864270000E+03 0.  0.
    8880022    1    1    2    0    0  0.79605217525E+03  0.18080986196E+03 -0.10185970223E+04  0.13142765382E+04  0.15294330000E+03 0.  0.
<mgrwt>
<rscale>  0 0.98944382E+03</rscale>
<asrwt>0</asrwt>
<pdfrwt beam="1">  1        2 0.33463285E+00 0.10489049E+04</pdfrwt>
<pdfrwt beam="2">  1       -2 0.20032489E+00 0.10489049E+04</pdfrwt>
<totfact> 0.70120176E-01</totfact>
</mgrwt>
</event>
<event>
 4    5  0.6615028E-008  0.9936278E+03  0.7818608E-02  0.9389942E-01
          2   -1    0    0  501    0  0.00000000000E+00  0.00000000000E+00  0.23335625934E+04  0.23335625934E+04  0.25500000000E-02 0. -1.
         -2   -1    0    0    0  501 -0.00000000000E+00 -0.00000000000E+00 -0.68498035154E+03  0.68498035155E+03  0.25500000000E-02 0.  1.
    8880023    1    1    2    0    0 -0.73597157751E+03 -0.10877397494E+03  0.19601408551E+04  0.21976005822E+04  0.65864270000E+03 0. -1.
    8880022    1    1    2    0    0  0.73597157751E+03  0.10877397494E+03 -0.31155861326E+03  0.82094236280E+03  0.15294330000E+03 0.  0.
<mgrwt>
<rscale>  0 0.92908030E+03</rscale>
<asrwt>0</asrwt>
<pdfrwt beam="1">  1        2 0.35900963E+00 0.99362777E+03</pdfrwt>
<pdfrwt beam="2">  1       -2 0.10538159E+00 0.99362777E+03</pdfrwt>
<totfact> 0.31807311E+00</totfact>
</mgrwt>
</event>
<event>
 4    5  0.6615028E-008  0.1129540E+04  0.7818608E-02  0.9228858E-01
          2   -1    0    0  501    0  0.00000000000E+00  0.00000000000E+00  0.11152790715E+04  0.11152790715E+04  0.25500000000E-02 0. -1.
         -2   -1    0    0    0  501 -0.00000000000E+00 -0.00000000000E+00 -0.16351462967E+04  0.16351462967E+04  0.25500000000E-02 0.  1.
    8880023    1    1    2    0    0  0.75859903648E+03 -0.51631183063E+03 -0.11616198654E+04  0.16202534748E+04  0.65864270000E+03 0.  0.
    8880022    1    1    2    0    0 -0.75859903648E+03  0.51631183063E+03  0.64175264010E+03  0.11301718934E+04  0.15294330000E+03 0.  0.
<mgrwt>
<rscale>  0 0.10760463E+04</rscale>
<asrwt>0</asrwt>
<pdfrwt beam="1">  1        2 0.17158140E+00 0.11295400E+04</pdfrwt>
<pdfrwt beam="2">  1       -2 0.25156097E+00 0.11295400E+04</pdfrwt>
<totfact> 0.13147146E+00</totfact>
</mgrwt>
</event>
<event>
 4    5  0.9465311E-008  0.2023886E+04  0.7818608E-02  0.8607860E-01
         -2   -1    0    0    0  501 -0.00000000000E+00  0.00000000000E+00  0.15062227372E+04  0.15062227372E+04  0.25500000000E-02 0.  1.
          2   -1    0    0  501    0  0.00000000000E+00 -0.00000000000E+00 -0.52527067330E+04  0.52527067330E+04  0.25500000000E-02 0. -1.
    8880023    1    1    2    0    0  0.17125891413E+04 -0.85401681844E+03 -0.43071186799E+04  0.47589271714E+04  0.65864270000E+03 0.  0.
    8880022    1    1    2    0    0 -0.17125891413E+04  0.85401681844E+03  0.56063468413E+03  0.20000022988E+04  0.15294330000E+03 0.  0.
<mgrwt>
<rscale>  0 0.19973519E+04</rscale>
<asrwt>0</asrwt>
<pdfrwt beam="1">  1        2 0.80810872E+00 0.20238865E+04</pdfrwt>
<pdfrwt beam="2">  1       -2 0.23172658E+00 0.20238865E+04</pdfrwt>
<totfact> 0.11617602E-03</totfact>
</mgrwt>
</event>
<event>
 4    5  0.6615028E-008  0.8013185E+03  0.7818608E-02  0.9707952E-01
         -2   -1    0    0    0  501 -0.00000000000E+00  0.00000000000E+00  0.12897009759E+04  0.12897009759E+04  0.25500000000E-02 0.  1.
          2   -1    0    0  501    0  0.00000000000E+00 -0.00000000000E+00 -0.98665596921E+03  0.98665596922E+03  0.25500000000E-02 0. -1.
    8880023    1    1    2    0    0 -0.45543016199E+03 -0.29740710605E+02 -0.76312974067E+03  0.11065614984E+04  0.65864270000E+03 0. -1.
    8880022    1    1    2    0    0  0.45543016199E+03  0.29740710605E+02  0.10661747474E+04  0.11697954468E+04  0.15294330000E+03 0.  0.
<mgrwt>
<rscale>  0 0.70545277E+03</rscale>
<asrwt>0</asrwt>
<pdfrwt beam="1">  1        2 0.15179323E+00 0.80131851E+03</pdfrwt>
<pdfrwt beam="2">  1       -2 0.19841554E+00 0.80131851E+03</pdfrwt>
<totfact> 0.35575935E+00</totfact>
</mgrwt>
</event>
<event>
 4    5  0.6615028E-008  0.1155263E+04  0.7818608E-02  0.9201887E-01
         -2   -1    0    0    0  501 -0.00000000000E+00  0.00000000000E+00  0.61899074239E+03  0.61899074240E+03  0.25500000000E-02 0.  1.
          2   -1    0    0  501    0  0.00000000000E+00 -0.00000000000E+00 -0.20550253368E+04  0.20550253368E+04  0.25500000000E-02 0. -1.
    8880023    1    1    2    0    0  0.48928192521E+03 -0.81328007974E+03 -0.31544193411E+03  0.11975538028E+04  0.65864270000E+03 0.  0.
    8880022    1    1    2    0    0 -0.48928192521E+03  0.81328007974E+03 -0.11205926603E+04  0.14764622765E+04  0.15294330000E+03 0.  0.
<mgrwt>
<rscale>  0 0.11033976E+04</rscale>
<asrwt>0</asrwt>
<pdfrwt beam="1">  1        2 0.31615774E+00 0.11552625E+04</pdfrwt>
<pdfrwt beam="2">  1       -2 0.95229346E-01 0.11552625E+04</pdfrwt>
<totfact> 0.56799402E+00</totfact>
</mgrwt>
</event>
<event>
 4    5  0.6615028E-008  0.1681439E+04  0.7818608E-02  0.8791120E-01
         -2   -1    0    0    0  501 -0.00000000000E+00  0.00000000000E+00  0.13733718937E+04  0.13733718937E+04  0.25500000000E-02 0.  1.
          2   -1    0    0  501    0  0.00000000000E+00 -0.00000000000E+00 -0.27026463544E+04  0.27026463544E+04  0.25500000000E-02 0. -1.
    8880023    1    1    2    0    0 -0.12750201532E+04 -0.87621404223E+03 -0.17887102187E+04  0.24549382663E+04  0.65864270000E+03 0.  0.
    8880022    1    1    2    0    0  0.12750201532E+04  0.87621404223E+03  0.45943575798E+03  0.16210799818E+04  0.15294330000E+03 0.  0.
<mgrwt>
<rscale>  0 0.16487940E+04</rscale>
<asrwt>0</asrwt>
<pdfrwt beam="1">  1        2 0.41579174E+00 0.16814392E+04</pdfrwt>
<pdfrwt beam="2">  1       -2 0.21128798E+00 0.16814392E+04</pdfrwt>
<totfact> 0.27376945E-01</totfact>
</mgrwt>
</event>
<event>
 4    5  0.6615028E-008  0.7312740E+03  0.7818608E-02  0.9886135E-01
          2   -1    0    0  501    0  0.00000000000E+00  0.00000000000E+00  0.10193581608E+04  0.10193581608E+04  0.25500000000E-02 0. -1.
         -2   -1    0    0    0  501 -0.00000000000E+00 -0.00000000000E+00 -0.50827120160E+03  0.50827120161E+03  0.25500000000E-02 0.  1.
    8880023    1    1    2    0    0 -0.30036652823E+03  0.10359274556E+03  0.79112894615E+03  0.10773331536E+04  0.65864270000E+03 0. -1.
    8880022    1    1    2    0    0  0.30036652823E+03 -0.10359274556E+03 -0.28004198692E+03  0.45029620881E+03  0.15294330000E+03 0.  0.
<mgrwt>
<rscale>  0 0.60937952E+03</rscale>
<asrwt>0</asrwt>
<pdfrwt beam="1">  1        2 0.15682433E+00 0.73127404E+03</pdfrwt>
<pdfrwt beam="2">  1       -2 0.78195570E-01 0.73127404E+03</pdfrwt>
<totfact> 0.36255663E+01</totfact>
</mgrwt>
</event>
<event>
 4    5  0.6615028E-008  0.8463761E+03  0.7818608E-02  0.9618273E-01
         -2   -1    0    0    0  501 -0.00000000000E+00  0.00000000000E+00  0.42930893925E+03  0.42930893926E+03  0.25500000000E-02 0.  1.
          2   -1    0    0  501    0  0.00000000000E+00 -0.00000000000E+00 -0.25442622539E+04  0.25442622539E+04  0.25500000000E-02 0. -1.
    8880023    1    1    2    0    0  0.41502868162E+02  0.52992440481E+03 -0.22502438014E+04  0.24041526022E+04  0.65864270000E+03 0. -1.
    8880022    1    1    2    0    0 -0.41502868162E+02 -0.52992440481E+03  0.13529048674E+03  0.56941859093E+03  0.15294330000E+03 0.  0.
<mgrwt>
<rscale>  0 0.76098488E+03</rscale>
<asrwt>0</asrwt>
<pdfrwt beam="1">  1        2 0.39142495E+00 0.84637614E+03</pdfrwt>
<pdfrwt beam="2">  1       -2 0.66047531E-01 0.84637614E+03</pdfrwt>
<totfact> 0.71562957E+00</totfact>
</mgrwt>
</event>
<event>
 4    5  0.6615028E-008  0.9039974E+03  0.7818608E-02  0.9519645E-01
          2   -1    0    0  501    0  0.00000000000E+00  0.00000000000E+00  0.93932132553E+03  0.93932132553E+03  0.25500000000E-02 0. -1.
         -2   -1    0    0    0  501 -0.00000000000E+00 -0.00000000000E+00 -0.83383584577E+03  0.83383584577E+03  0.25500000000E-02 0.  1.
    8880023    1    1    2    0    0 -0.44300202719E+03 -0.43260872063E+03  0.49015747100E+03  0.10283314903E+04  0.65864270000E+03 0.  0.
    8880022    1    1    2    0    0  0.44300202719E+03  0.43260872063E+03 -0.38467199124E+03  0.74482568103E+03  0.15294330000E+03 0.  0.
<mgrwt>
<rscale>  0 0.82850863E+03</rscale>
<asrwt>0</asrwt>
<pdfrwt beam="1">  1        2 0.14451097E+00 0.90399740E+03</pdfrwt>
<pdfrwt beam="2">  1       -2 0.12828244E+00 0.90399740E+03</pdfrwt>
<totfact> 0.12403101E+01</totfact>
</mgrwt>
</event>
<event>
 4    5  0.6615028E-008  0.1002604E+04  0.7818608E-02  0.9378158E-01
          2   -1    0    0  501    0  0.00000000000E+00  0.00000000000E+00  0.14403205003E+04  0.14403205003E+04  0.25500000000E-02 0. -1.
         -2   -1    0    0    0  501 -0.00000000000E+00 -0.00000000000E+00 -0.10927333423E+04  0.10927333423E+04  0.25500000000E-02 0.  1.
    8880023    1    1    2    0    0 -0.56670424946E+03  0.50025139750E+03  0.10770589990E+04  0.14714861402E+04  0.65864270000E+03 0.  0.
    8880022    1    1    2    0    0  0.56670424946E+03 -0.50025139750E+03 -0.72947184104E+03  0.10615677025E+04  0.15294330000E+03 0.  0.
<mgrwt>
<rscale>  0 0.93895170E+03</rscale>
<asrwt>0</asrwt>
<pdfrwt beam="1">  1        2 0.22158777E+00 0.10026043E+04</pdfrwt>
<pdfrwt beam="2">  1       -2 0.16811282E+00 0.10026043E+04</pdfrwt>
<totfact> 0.29926381E+00</totfact>
</mgrwt>
</event>
<event>
 4    5  0.6615028E-008  0.8612208E+03  0.7818608E-02  0.9591396E-01
         -2   -1    0    0    0  501 -0.00000000000E+00  0.00000000000E+00  0.48299104789E+03  0.48299104790E+03  0.25500000000E-02 0.  1.
          2   -1    0    0  501    0  0.00000000000E+00 -0.00000000000E+00 -0.16684421777E+04  0.16684421777E+04  0.25500000000E-02 0. -1.
    8880023    1    1    2    0    0 -0.47677795514E+03  0.28385521842E+03 -0.31375046242E+02  0.86179208822E+03  0.65864270000E+03 0.  0.
    8880022    1    1    2    0    0  0.47677795514E+03 -0.28385521842E+03 -0.11540760835E+04  0.12896411374E+04  0.15294330000E+03 0.  0.
<mgrwt>
<rscale>  0 0.77868303E+03</rscale>
<asrwt>0</asrwt>
<pdfrwt beam="1">  1        2 0.25668341E+00 0.86122077E+03</pdfrwt>
<pdfrwt beam="2">  1       -2 0.74306316E-01 0.86122077E+03</pdfrwt>
<totfact> 0.16871386E+01</totfact>
</mgrwt>
</event>
<event>
 4    5  0.6615028E-008  0.8218623E+03  0.7818608E-02  0.9665378E-01
         -2   -1    0    0    0  501 -0.00000000000E+00  0.00000000000E+00  0.17676153348E+04  0.17676153348E+04  0.25500000000E-02 0.  1.
          2   -1    0    0  501    0  0.00000000000E+00 -0.00000000000E+00 -0.39053257487E+03  0.39053257488E+03  0.25500000000E-02 0. -1.
    8880023    1    1    2    0    0 -0.24003698724E+03  0.42898673678E+03  0.16086583824E+03  0.83745770028E+03  0.65864270000E+03 0. -1.
    8880022    1    1    2    0    0  0.24003698724E+03 -0.42898673678E+03  0.12162169217E+04  0.13206902094E+04  0.15294330000E+03 0.  0.
<mgrwt>
<rscale>  0 0.73116098E+03</rscale>
<asrwt>0</asrwt>
<pdfrwt beam="1">  1        2 0.60081936E-01 0.82186226E+03</pdfrwt>
<pdfrwt beam="2">  1       -2 0.27194082E+00 0.82186226E+03</pdfrwt>
<totfact> 0.39458750E+00</totfact>
</mgrwt>
</event>
<event>
 4    5  0.6615028E-008  0.7822062E+03  0.7818608E-02  0.9750680E-01
         -2   -1    0    0    0  501 -0.00000000000E+00  0.00000000000E+00  0.38429814729E+03  0.38429814730E+03  0.25500000000E-02 0.  1.
          2   -1    0    0  501    0  0.00000000000E+00 -0.00000000000E+00 -0.19907011148E+04  0.19907011148E+04  0.25500000000E-02 0. -1.
    8880023    1    1    2    0    0  0.31316924149E+03  0.28277446536E+03 -0.17391613507E+04  0.19069684796E+04  0.65864270000E+03 0. -1.
    8880022    1    1    2    0    0 -0.31316924149E+03 -0.28277446536E+03  0.13275838318E+03  0.46803078253E+03  0.15294330000E+03 0.  0.
<mgrwt>
<rscale>  0 0.68077867E+03</rscale>
<asrwt>0</asrwt>
<pdfrwt beam="1">  1        2 0.30626170E+00 0.78220622E+03</pdfrwt>
<pdfrwt beam="2">  1       -2 0.59122793E-01 0.78220622E+03</pdfrwt>
<totfact> 0.18598048E+01</totfact>
</mgrwt>
</event>
<event>
 4    5  0.6615028E-008  0.8441266E+03  0.7818608E-02  0.9622448E-01
          2   -1    0    0  501    0  0.00000000000E+00  0.00000000000E+00  0.30611676157E+04  0.30611676157E+04  0.25500000000E-02 0. -1.
         -2   -1    0    0    0  501 -0.00000000000E+00 -0.00000000000E+00 -0.86901446168E+03  0.86901446169E+03  0.25500000000E-02 0.  1.
    8880023    1    1    2    0    0 -0.25105844477E+03 -0.46444498807E+03  0.29077775956E+04  0.30278243412E+04  0.65864270000E+03 0. -1.
    8880022    1    1    2    0    0  0.25105844477E+03  0.46444498807E+03 -0.71562444157E+03  0.90235773617E+03  0.15294330000E+03 0.  0.
<mgrwt>
<rscale>  0 0.75828091E+03</rscale>
<asrwt>0</asrwt>
<pdfrwt beam="1">  1        2 0.47094886E+00 0.84412659E+03</pdfrwt>
<pdfrwt beam="2">  1       -2 0.13369453E+00 0.84412659E+03</pdfrwt>
<totfact> 0.67600069E-01</totfact>
</mgrwt>
</event>
<event>
 4    5  0.6615028E-008  0.8630036E+03  0.7818608E-02  0.9588243E-01
          2   -1    0    0  501    0  0.00000000000E+00  0.00000000000E+00  0.96003344829E+03  0.96003344830E+03  0.25500000000E-02 0. -1.
         -2   -1    0    0    0  501 -0.00000000000E+00 -0.00000000000E+00 -0.68507253444E+03  0.68507253445E+03  0.25500000000E-02 0.  1.
    8880023    1    1    2    0    0 -0.33957305878E+03 -0.44232931543E+03  0.53039616981E+03  0.10129636661E+04  0.65864270000E+03 0.  0.
    8880022    1    1    2    0    0  0.33957305878E+03  0.44232931543E+03 -0.25543525596E+03  0.63214231669E+03  0.15294330000E+03 0. -1.
<mgrwt>
<rscale>  0 0.78079268E+03</rscale>
<asrwt>0</asrwt>
<pdfrwt beam="1">  1        2 0.14769745E+00 0.86300365E+03</pdfrwt>
<pdfrwt beam="2">  1       -2 0.10539577E+00 0.86300365E+03</pdfrwt>
<totfact> 0.19578782E+01</totfact>
</mgrwt>
</event>
<event>
 4    5  0.6615028E-008  0.1525108E+04  0.7818608E-02  0.8892107E-01
          2   -1    0    0  501    0  0.00000000000E+00  0.00000000000E+00  0.26526439245E+04  0.26526439245E+04  0.25500000000E-02 0. -1.
         -2   -1    0    0    0  501 -0.00000000000E+00 -0.00000000000E+00 -0.11506158811E+04  0.11506158811E+04  0.25500000000E-02 0.  1.
    8880023    1    1    2    0    0 -0.59568550435E+03 -0.12398803546E+04  0.18287043462E+04  0.23812001819E+04  0.65864270000E+03 0.  0.
    8880022    1    1    2    0    0  0.59568550435E+03  0.12398803546E+04 -0.32667630281E+03  0.14220596238E+04  0.15294330000E+03 0.  0.
<mgrwt>
<rscale>  0 0.14885443E+04</rscale>
<asrwt>0</asrwt>
<pdfrwt beam="1">  1        2 0.40809906E+00 0.15251081E+04</pdfrwt>
<pdfrwt beam="2">  1       -2 0.17701783E+00 0.15251081E+04</pdfrwt>
<totfact> 0.50630276E-01</totfact>
</mgrwt>
</event>
<event>
 4    5  0.6615028E-008  0.1253798E+04  0.7818608E-02  0.9106522E-01
         -2   -1    0    0    0  501 -0.00000000000E+00  0.00000000000E+00  0.92009213256E+03  0.92009213256E+03  0.25500000000E-02 0.  1.
          2   -1    0    0  501    0  0.00000000000E+00 -0.00000000000E+00 -0.21948125635E+04  0.21948125635E+04  0.25500000000E-02 0. -1.
    8880023    1    1    2    0    0 -0.82216724501E+03  0.67988194829E+03  0.21917437056E+03  0.12728102975E+04  0.65864270000E+03 0.  1.
    8880022    1    1    2    0    0  0.82216724501E+03 -0.67988194829E+03 -0.14938948015E+04  0.18420943986E+04  0.15294330000E+03 0.  0.
<mgrwt>
<rscale>  0 0.12072639E+04</rscale>
<asrwt>0</asrwt>
<pdfrwt beam="1">  1        2 0.33766347E+00 0.12537977E+04</pdfrwt>
<pdfrwt beam="2">  1       -2 0.14155264E+00 0.12537977E+04</pdfrwt>
<totfact> 0.17587735E+00</totfact>
</mgrwt>
</event>
<event>
 4    5  0.6615028E-008  0.7077186E+03  0.7818608E-02  0.9966572E-01
         -2   -1    0    0    0  501 -0.00000000000E+00  0.00000000000E+00  0.74394316381E+03  0.74394316381E+03  0.25500000000E-02 0.  1.
          2   -1    0    0  501    0  0.00000000000E+00 -0.00000000000E+00 -0.35648483469E+04  0.35648483469E+04  0.25500000000E-02 0. -1.
    8880023    1    1    2    0    0 -0.21381466283E+03 -0.14607794650E+03 -0.34974907428E+04  0.35683759861E+04  0.65864270000E+03 0.  0.
    8880022    1    1    2    0    0  0.21381466283E+03  0.14607794650E+03  0.67658555966E+03  0.74041552458E+03  0.15294330000E+03 0.  0.
<mgrwt>
<rscale>  0 0.57140604E+03</rscale>
<asrwt>0</asrwt>
<pdfrwt beam="1">  1        2 0.54843820E+00 0.70771865E+03</pdfrwt>
<pdfrwt beam="2">  1       -2 0.11445280E+00 0.70771865E+03</pdfrwt>
<totfact> 0.48194078E-01</totfact>
</mgrwt>
</event>
<event>
 4    5  0.6769831E-008  0.8680797E+03  0.7818608E-02  0.9579350E-01
          2   -1    0    0  501    0  0.00000000000E+00  0.00000000000E+00  0.16012960828E+04  0.16012960828E+04  0.25500000000E-02 0. -1.
         -2   -1    0    0    0  501 -0.00000000000E+00 -0.00000000000E+00 -0.17198215909E+04  0.17198215909E+04  0.25500000000E-02 0.  1.
    8880023    1    1    2    0    0 -0.56531222348E+03 -0.13202184028E+02  0.14258862765E+04  0.16693454069E+04  0.65864270000E+03 0. -1.
    8880022    1    1    2    0    0  0.56531222348E+03  0.13202184028E+02 -0.15444117847E+04  0.16517722668E+04  0.15294330000E+03 0.  0.
<mgrwt>
<rscale>  0 0.78678168E+03</rscale>
<asrwt>0</asrwt>
<pdfrwt beam="1">  1        2 0.24635324E+00 0.86807973E+03</pdfrwt>
<pdfrwt beam="2">  1       -2 0.26458794E+00 0.86807973E+03</pdfrwt>
<totfact> 0.59601087E-01</totfact>
</mgrwt>
</event>
<event>
 4    5  0.6615028E-008  0.1854765E+04  0.7818608E-02  0.8692832E-01
         -2   -1    0    0    0  501 -0.00000000000E+00  0.00000000000E+00  0.24626768714E+04  0.24626768714E+04  0.25500000000E-02 0.  1.
          2   -1    0    0  501    0  0.00000000000E+00 -0.00000000000E+00 -0.23461008311E+04  0.23461008311E+04  0.25500000000E-02 0. -1.
    8880023    1    1    2    0    0  0.14495053350E+04 -0.95146122967E+03 -0.15363151510E+04  0.24084058290E+04  0.65864270000E+03 0.  0.
    8880022    1    1    2    0    0 -0.14495053350E+04  0.95146122967E+03  0.16528911913E+04  0.24003718735E+04  0.15294330000E+03 0.  0.
<mgrwt>
<rscale>  0 0.18255441E+04</rscale>
<asrwt>0</asrwt>
<pdfrwt beam="1">  1        2 0.36093859E+00 0.18547653E+04</pdfrwt>
<pdfrwt beam="2">  1       -2 0.37887336E+00 0.18547653E+04</pdfrwt>
<totfact> 0.39019466E-02</totfact>
</mgrwt>
</event>
<event>
 4    5  0.6615028E-008  0.7728385E+03  0.7818608E-02  0.9772936E-01
         -2   -1    0    0    0  501 -0.00000000000E+00  0.00000000000E+00  0.29031445905E+03  0.29031445906E+03  0.25500000000E-02 0.  1.
          2   -1    0    0  501    0  0.00000000000E+00 -0.00000000000E+00 -0.13588416246E+04  0.13588416246E+04  0.25500000000E-02 0. -1.
    8880023    1    1    2    0    0  0.19138727135E+01  0.40430867557E+03 -0.89720747519E+03  0.11841708609E+04  0.65864270000E+03 0.  0.
    8880022    1    1    2    0    0 -0.19138727135E+01 -0.40430867557E+03 -0.17131969037E+03  0.46498522275E+03  0.15294330000E+03 0.  0.
<mgrwt>
<rscale>  0 0.66835369E+03</rscale>
<asrwt>0</asrwt>
<pdfrwt beam="1">  1        2 0.20905255E+00 0.77283852E+03</pdfrwt>
<pdfrwt beam="2">  1       -2 0.44663764E-01 0.77283852E+03</pdfrwt>
<totfact> 0.73815888E+01</totfact>
</mgrwt>
</event>
<event>
 4    5  0.6615028E-008  0.9734638E+03  0.7818608E-02  0.9417129E-01
          2   -1    0    0  501    0  0.00000000000E+00  0.00000000000E+00  0.27462226880E+04  0.27462226880E+04  0.25500000000E-02 0. -1.
         -2   -1    0    0    0  501 -0.00000000000E+00 -0.00000000000E+00 -0.79779264014E+03  0.79779264014E+03  0.25500000000E-02 0.  1.
    8880023    1    1    2    0    0  0.70652839363E+03  0.12099259348E+03  0.24630514704E+04  0.26484437564E+04  0.65864270000E+03 0.  0.
    8880022    1    1    2    0    0 -0.70652839363E+03 -0.12099259348E+03 -0.51462142250E+03  0.89557157179E+03  0.15294330000E+03 0.  0.
<mgrwt>
<rscale>  0 0.90679307E+03</rscale>
<asrwt>0</asrwt>
<pdfrwt beam="1">  1        2 0.42249580E+00 0.97346381E+03</pdfrwt>
<pdfrwt beam="2">  1       -2 0.12273733E+00 0.97346381E+03</pdfrwt>
<totfact> 0.12710789E+00</totfact>
</mgrwt>
</event>
<event>
 4    5  0.6615028E-008  0.1214847E+04  0.7818608E-02  0.9142824E-01
         -2   -1    0    0    0  501 -0.00000000000E+00  0.00000000000E+00  0.13429412503E+04  0.13429412503E+04  0.25500000000E-02 0.  1.
          2   -1    0    0  501    0  0.00000000000E+00 -0.00000000000E+00 -0.15892125307E+04  0.15892125307E+04  0.25500000000E-02 0. -1.
    8880023    1    1    2    0    0  0.37999053115E+03  0.94744376941E+03 -0.10642980925E+04  0.16151108742E+04  0.65864270000E+03 0.  0.
    8880022    1    1    2    0    0 -0.37999053115E+03 -0.94744376941E+03  0.81802681212E+03  0.13170429068E+04  0.15294330000E+03 0.  0.
<mgrwt>
<rscale>  0 0.11663582E+04</rscale>
<asrwt>0</asrwt>
<pdfrwt beam="1">  1        2 0.24449424E+00 0.12148468E+04</pdfrwt>
<pdfrwt beam="2">  1       -2 0.20660634E+00 0.12148468E+04</pdfrwt>
<totfact> 0.13189255E+00</totfact>
</mgrwt>
</event>
<event>
 4    5  0.6615028E-008  0.7711441E+03  0.7818608E-02  0.9777067E-01
          2   -1    0    0  501    0  0.00000000000E+00  0.00000000000E+00  0.15625743341E+04  0.15625743341E+04  0.25500000000E-02 0. -1.
         -2   -1    0    0    0  501 -0.00000000000E+00 -0.00000000000E+00 -0.67201758023E+03  0.67201758023E+03  0.25500000000E-02 0.  1.
    8880023    1    1    2    0    0 -0.13671882309E+03 -0.37704235831E+03  0.13816922098E+04  0.15823199883E+04  0.65864270000E+03 0. -1.
    8880022    1    1    2    0    0  0.13671882309E+03  0.37704235831E+03 -0.49113545585E+03  0.65227192608E+03  0.15294330000E+03 0.  0.
<mgrwt>
<rscale>  0 0.66607939E+03</rscale>
<asrwt>0</asrwt>
<pdfrwt beam="1">  1        2 0.24039605E+00 0.77114407E+03</pdfrwt>
<pdfrwt beam="2">  1       -2 0.10338732E+00 0.77114407E+03</pdfrwt>
<totfact> 0.91340362E+00</totfact>
</mgrwt>
</event>
<event>
 4    5  0.6615028E-008  0.9892985E+03  0.7818608E-02  0.9395694E-01
          2   -1    0    0  501    0  0.00000000000E+00  0.00000000000E+00  0.79268971783E+03  0.79268971784E+03  0.25500000000E-02 0. -1.
         -2   -1    0    0    0  501 -0.00000000000E+00 -0.00000000000E+00 -0.11619116996E+04  0.11619116996E+04  0.25500000000E-02 0.  1.
    8880023    1    1    2    0    0  0.69557311989E+03 -0.24714234539E+03  0.20083500241E+03  0.10094781862E+04  0.65864270000E+03 0.  0.
    8880022    1    1    2    0    0 -0.69557311989E+03  0.24714234539E+03 -0.57005698419E+03  0.94512323124E+03  0.15294330000E+03 0.  0.
<mgrwt>
<rscale>  0 0.92430871E+03</rscale>
<asrwt>0</asrwt>
<pdfrwt beam="1">  1        2 0.12195226E+00 0.98929849E+03</pdfrwt>
<pdfrwt beam="2">  1       -2 0.17875565E+00 0.98929849E+03</pdfrwt>
<totfact> 0.64046116E+00</totfact>
</mgrwt>
</event>
<event>
 4    5  0.6615028E-008  0.7603917E+03  0.7818608E-02  0.9804094E-01
         -2   -1    0    0    0  501 -0.00000000000E+00  0.00000000000E+00  0.70947060059E+03  0.70947060060E+03  0.25500000000E-02 0.  1.
          2   -1    0    0  501    0  0.00000000000E+00 -0.00000000000E+00 -0.15726990355E+04  0.15726990355E+04  0.25500000000E-02 0. -1.
    8880023    1    1    2    0    0  0.28309695141E+03  0.25345904335E+03 -0.14082276161E+04  0.16004063845E+04  0.65864270000E+03 0. -1.
    8880022    1    1    2    0    0 -0.28309695141E+03 -0.25345904335E+03  0.54499918126E+03  0.68176325153E+03  0.15294330000E+03 0.  0.
<mgrwt>
<rscale>  0 0.65143276E+03</rscale>
<asrwt>0</asrwt>
<pdfrwt beam="1">  1        2 0.24195370E+00 0.76039173E+03</pdfrwt>
<pdfrwt beam="2">  1       -2 0.10914932E+00 0.76039173E+03</pdfrwt>
<totfact> 0.79255380E+00</totfact>
</mgrwt>
</event>
<event>
 4    5  0.6615028E-008  0.7645447E+03  0.7818608E-02  0.9793481E-01
          2   -1    0    0  501    0  0.00000000000E+00  0.00000000000E+00  0.16711779299E+04  0.16711779299E+04  0.25500000000E-02 0. -1.
         -2   -1    0    0    0  501 -0.00000000000E+00 -0.00000000000E+00 -0.41332612887E+03  0.41332612887E+03  0.25500000000E-02 0.  1.
    8880023    1    1    2    0    0  0.36380837961E+03  0.13550590028E+03  0.14390941308E+04  0.16295767885E+04  0.65864270000E+03 0.  0.
    8880022    1    1    2    0    0 -0.36380837961E+03 -0.13550590028E+03 -0.18124232979E+03  0.45492727024E+03  0.15294330000E+03 0.  0.
<mgrwt>
<rscale>  0 0.65713581E+03</rscale>
<asrwt>0</asrwt>
<pdfrwt beam="1">  1        2 0.25710430E+00 0.76454470E+03</pdfrwt>
<pdfrwt beam="2">  1       -2 0.63588634E-01 0.76454470E+03</pdfrwt>
<totfact> 0.23870779E+01</totfact>
</mgrwt>
</event>
<event>
 4    5  0.6615028E-008  0.6652766E+03  0.7818608E-02  0.1019302E+00
          2   -1    0    0  501    0  0.00000000000E+00  0.00000000000E+00  0.41694595512E+03  0.41694595513E+03  0.25500000000E-02 0. -1.
         -2   -1    0    0    0  501 -0.00000000000E+00 -0.00000000000E+00 -0.15123644803E+04  0.15123644803E+04  0.25500000000E-02 0.  1.
    8880023    1    1    2    0    0  0.13678245542E+02  0.92712796780E+02  0.14091155906E+03  0.68003605112E+03  0.65864270000E+03 0. -1.
    8880022    1    1    2    0    0 -0.13678245542E+02 -0.92712796780E+02 -0.12363300843E+04  0.12492743844E+04  0.15294330000E+03 0.  0.
<mgrwt>
<rscale>  0 0.47939170E+03</rscale>
<asrwt>0</asrwt>
<pdfrwt beam="1">  1        2 0.64145532E-01 0.66527661E+03</pdfrwt>
<pdfrwt beam="2">  1       -2 0.23267146E+00 0.66527661E+03</pdfrwt>
<totfact> 0.64646024E+00</totfact>
</mgrwt>
</event>
<event>
 4    5  0.6615028E-008  0.6739692E+03  0.7818608E-02  0.1012964E+00
          2   -1    0    0  501    0  0.00000000000E+00  0.00000000000E+00  0.18535662525E+04  0.18535662525E+04  0.25500000000E-02 0. -1.
         -2   -1    0    0    0  501 -0.00000000000E+00 -0.00000000000E+00 -0.24812694016E+03  0.24812694017E+03  0.25500000000E-02 0.  1.
    8880023    1    1    2    0    0 -0.39853811358E+01 -0.14285806706E+03  0.17310153583E+04  0.18575921747E+04  0.65864270000E+03 0. -1.
    8880022    1    1    2    0    0  0.39853811358E+01  0.14285806706E+03 -0.12557604603E+03  0.24410101790E+03  0.15294330000E+03 0.  0.
<mgrwt>
<rscale>  0 0.50313450E+03</rscale>
<asrwt>0</asrwt>
<pdfrwt beam="1">  1        2 0.28516405E+00 0.67396923E+03</pdfrwt>
<pdfrwt beam="2">  1       -2 0.38173374E-01 0.67396923E+03</pdfrwt>
<totfact> 0.54108177E+01</totfact>
</mgrwt>
</event>
<event>
 4    5  0.6615028E-008  0.7596495E+03  0.7818608E-02  0.9806016E-01
         -2   -1    0    0    0  501 -0.00000000000E+00  0.00000000000E+00  0.46262395281E+03  0.46262395282E+03  0.25500000000E-02 0.  1.
          2   -1    0    0  501    0  0.00000000000E+00 -0.00000000000E+00 -0.12749313169E+04  0.12749313169E+04  0.25500000000E-02 0. -1.
    8880023    1    1    2    0    0  0.33659767351E+03  0.17308705238E+03 -0.10261314059E+04  0.12767196207E+04  0.65864270000E+03 0.  0.
    8880022    1    1    2    0    0 -0.33659767351E+03 -0.17308705238E+03  0.21382404181E+03  0.46083564900E+03  0.15294330000E+03 0.  0.
<mgrwt>
<rscale>  0 0.65040699E+03</rscale>
<asrwt>0</asrwt>
<pdfrwt beam="1">  1        2 0.19614328E+00 0.75964948E+03</pdfrwt>
<pdfrwt beam="2">  1       -2 0.71172916E-01 0.75964948E+03</pdfrwt>
<totfact> 0.31222165E+01</totfact>
</mgrwt>
</event>
<event>
 4    5  0.6615028E-008  0.9170901E+03  0.7818608E-02  0.9499135E-01
         -2   -1    0    0    0  501 -0.00000000000E+00  0.00000000000E+00  0.48124950354E+03  0.48124950354E+03  0.25500000000E-02 0.  1.
          2   -1    0    0  501    0  0.00000000000E+00 -0.00000000000E+00 -0.14333402520E+04  0.14333402520E+04  0.25500000000E-02 0. -1.
    8880023    1    1    2    0    0  0.61991942792E+03  0.15147271623E+03 -0.24362380298E+03  0.94889769971E+03  0.65864270000E+03 0.  0.
    8880022    1    1    2    0    0 -0.61991942792E+03 -0.15147271623E+03 -0.70846694553E+03  0.96569205588E+03  0.15294330000E+03 0.  0.
<mgrwt>
<rscale>  0 0.84347608E+03</rscale>
<asrwt>0</asrwt>
<pdfrwt beam="1">  1        2 0.22051388E+00 0.91709012E+03</pdfrwt>
<pdfrwt beam="2">  1       -2 0.74038386E-01 0.91709012E+03</pdfrwt>
<totfact> 0.22864564E+01</totfact>
</mgrwt>
</event>
<event>
 4    5  0.6615028E-008  0.1285140E+04  0.7818608E-02  0.9078500E-01
          2   -1    0    0  501    0  0.00000000000E+00  0.00000000000E+00  0.32199937114E+04  0.32199937114E+04  0.25500000000E-02 0. -1.
         -2   -1    0    0    0  501 -0.00000000000E+00 -0.00000000000E+00 -0.48663766219E+03  0.48663766220E+03  0.25500000000E-02 0.  1.
    8880023    1    1    2    0    0  0.39600868428E+02  0.11028172733E+04  0.92789695506E+03  0.15851110789E+04  0.65864270000E+03 0.  0.
    8880022    1    1    2    0    0 -0.39600868428E+02 -0.11028172733E+04  0.18054590941E+04  0.21215202946E+04  0.15294330000E+03 0.  0.
<mgrwt>
<rscale>  0 0.12400566E+04</rscale>
<asrwt>0</asrwt>
<pdfrwt beam="1">  1        2 0.49538365E+00 0.12851398E+04</pdfrwt>
<pdfrwt beam="2">  1       -2 0.74867333E-01 0.12851398E+04</pdfrwt>
<totfact> 0.19921710E+00</totfact>
</mgrwt>
</event>
<event>
 4    5  0.6615028E-008  0.1395555E+04  0.7818608E-02  0.8987145E-01
          2   -1    0    0  501    0  0.00000000000E+00  0.00000000000E+00  0.33735661850E+04  0.33735661850E+04  0.25500000000E-02 0. -1.
         -2   -1    0    0    0  501 -0.00000000000E+00 -0.00000000000E+00 -0.62503737193E+03  0.62503737194E+03  0.25500000000E-02 0.  1.
    8880023    1    1    2    0    0 -0.20286811308E+02 -0.12301833746E+04  0.60224677096E+03  0.15199585749E+04  0.65864270000E+03 0.  0.
    8880022    1    1    2    0    0  0.20286811308E+02  0.12301833746E+04  0.21462820421E+04  0.24786449821E+04  0.15294330000E+03 0.  0.
<mgrwt>
<rscale>  0 0.13548769E+04</rscale>
<asrwt>0</asrwt>
<pdfrwt beam="1">  1        2 0.51901018E+00 0.13955547E+04</pdfrwt>
<pdfrwt beam="2">  1       -2 0.96159596E-01 0.13955547E+04</pdfrwt>
<totfact> 0.87596378E-01</totfact>
</mgrwt>
</event>
<event>
 4    5  0.6615028E-008  0.7577291E+03  0.7818608E-02  0.9811022E-01
          2   -1    0    0  501    0  0.00000000000E+00  0.00000000000E+00  0.11260511727E+04  0.11260511727E+04  0.25500000000E-02 0. -1.
         -2   -1    0    0    0  501 -0.00000000000E+00 -0.00000000000E+00 -0.15858173698E+04  0.15858173698E+04  0.25500000000E-02 0.  1.
    8880023    1    1    2    0    0  0.33269885501E+03  0.17220521871E+03  0.96718294183E+03  0.12286562638E+04  0.65864270000E+03 0. -1.
    8880022    1    1    2    0    0 -0.33269885501E+03 -0.17220521871E+03 -0.14269491389E+04  0.14832122786E+04  0.15294330000E+03 0.  0.
<mgrwt>
<rscale>  0 0.64774355E+03</rscale>
<asrwt>0</asrwt>
<pdfrwt beam="1">  1        2 0.17323864E+00 0.75772909E+03</pdfrwt>
<pdfrwt beam="2">  1       -2 0.24397190E+00 0.75772909E+03</pdfrwt>
<totfact> 0.15183784E+00</totfact>
</mgrwt>
</event>
<event>
 4    5  0.6615028E-008  0.8770516E+03  0.7818608E-02  0.9563923E-01
          2   -1    0    0  501    0  0.00000000000E+00  0.00000000000E+00  0.15719623615E+04  0.15719623615E+04  0.25500000000E-02 0. -1.
         -2   -1    0    0    0  501 -0.00000000000E+00 -0.00000000000E+00 -0.41228185685E+03  0.41228185686E+03  0.25500000000E-02 0.  1.
    8880023    1    1    2    0    0  0.22211380419E+03 -0.53485956651E+03  0.10619880723E+04  0.13773300875E+04  0.65864270000E+03 0. -1.
    8880022    1    1    2    0    0 -0.22211380419E+03  0.53485956651E+03  0.97692432339E+02  0.60691413087E+03  0.15294330000E+03 0.  0.
<mgrwt>
<rscale>  0 0.79730696E+03</rscale>
<asrwt>0</asrwt>
<pdfrwt beam="1">  1        2 0.24184036E+00 0.87705160E+03</pdfrwt>
<pdfrwt beam="2">  1       -2 0.63427978E-01 0.87705160E+03</pdfrwt>
<totfact> 0.26886520E+01</totfact>
</mgrwt>
</event>
<event>
 4    5  0.6615028E-008  0.7282951E+03  0.7818608E-02  0.9895457E-01
          2   -1    0    0  501    0  0.00000000000E+00  0.00000000000E+00  0.96938692550E+03  0.96938692550E+03  0.25500000000E-02 0. -1.
         -2   -1    0    0    0  501 -0.00000000000E+00 -0.00000000000E+00 -0.39717815941E+03  0.39717815942E+03  0.25500000000E-02 0.  1.
    8880023    1    1    2    0    0  0.26991202642E+03  0.15411381251E+03  0.68744604504E+03  0.10014968000E+04  0.65864270000E+03 0. -1.
    8880022    1    1    2    0    0 -0.26991202642E+03 -0.15411381251E+03 -0.11523727895E+03  0.36506828497E+03  0.15294330000E+03 0.  0.
<mgrwt>
<rscale>  0 0.60481986E+03</rscale>
<asrwt>0</asrwt>
<pdfrwt beam="1">  1        2 0.14913645E+00 0.72829512E+03</pdfrwt>
<pdfrwt beam="2">  1       -2 0.61104333E-01 0.72829512E+03</pdfrwt>
<totfact> 0.66770894E+01</totfact>
</mgrwt>
</event>
<event>
 4    5  0.6615028E-008  0.9157069E+03  0.7818608E-02  0.9501273E-01
          2   -1    0    0  501    0  0.00000000000E+00  0.00000000000E+00  0.10584903344E+04  0.10584903344E+04  0.25500000000E-02 0. -1.
         -2   -1    0    0    0  501 -0.00000000000E+00 -0.00000000000E+00 -0.19022404127E+04  0.19022404127E+04  0.25500000000E-02 0.  1.
    8880023    1    1    2    0    0 -0.43022901530E+03  0.46862777431E+03  0.78458564753E+03  0.12058581347E+04  0.65864270000E+03 0.  0.
    8880022    1    1    2    0    0  0.43022901530E+03 -0.46862777431E+03 -0.16283357259E+04  0.17548726124E+04  0.15294330000E+03 0.  0.
<mgrwt>
<rscale>  0 0.84190021E+03</rscale>
<asrwt>0</asrwt>
<pdfrwt beam="1">  1        2 0.16284467E+00 0.91570694E+03</pdfrwt>
<pdfrwt beam="2">  1       -2 0.29265237E+00 0.91570694E+03</pdfrwt>
<totfact> 0.82767774E-01</totfact>
</mgrwt>
</event>
<event>
 4    5  0.6615028E-008  0.9319306E+03  0.7818608E-02  0.9476603E-01
         -2   -1    0    0    0  501 -0.00000000000E+00  0.00000000000E+00  0.94426565138E+03  0.94426565138E+03  0.25500000000E-02 0.  1.
          2   -1    0    0  501    0  0.00000000000E+00 -0.00000000000E+00 -0.12216510963E+04  0.12216510963E+04  0.25500000000E-02 0. -1.
    8880023    1    1    2    0    0 -0.13604263619E+03  0.64511769854E+03 -0.86358174791E+03  0.12705385021E+04  0.65864270000E+03 0.  0.
    8880022    1    1    2    0    0  0.13604263619E+03 -0.64511769854E+03  0.58619630303E+03  0.89537824551E+03  0.15294330000E+03 0.  0.
<mgrwt>
<rscale>  0 0.86030983E+03</rscale>
<asrwt>0</asrwt>
<pdfrwt beam="1">  1        2 0.18794632E+00 0.93193060E+03</pdfrwt>
<pdfrwt beam="2">  1       -2 0.14527164E+00 0.93193060E+03</pdfrwt>
<totfact> 0.59874721E+00</totfact>
</mgrwt>
</event>
<event>
 4    5  0.6615028E-008  0.1218517E+04  0.7818608E-02  0.9139329E-01
          2   -1    0    0  501    0  0.00000000000E+00  0.00000000000E+00  0.63845812499E+03  0.63845812500E+03  0.25500000000E-02 0. -1.
         -2   -1    0    0    0  501 -0.00000000000E+00 -0.00000000000E+00 -0.32444536502E+04  0.32444536502E+04  0.25500000000E-02 0.  1.
    8880023    1    1    2    0    0 -0.98982136253E+03  0.26688447730E+03 -0.16331410249E+03  0.12294126062E+04  0.65864270000E+03 0.  0.
    8880022    1    1    2    0    0  0.98982136253E+03 -0.26688447730E+03 -0.24426814227E+04  0.26534991690E+04  0.15294330000E+03 0.  0.
<mgrwt>
<rscale>  0 0.11702205E+04</rscale>
<asrwt>0</asrwt>
<pdfrwt beam="1">  1        2 0.98224329E-01 0.12185171E+04</pdfrwt>
<pdfrwt beam="2">  1       -2 0.49914670E+00 0.12185171E+04</pdfrwt>
<totfact> 0.75268473E-02</totfact>
</mgrwt>
</event>
<event>
 4    5  0.6615028E-008  0.1365291E+04  0.7818608E-02  0.9011133E-01
          2   -1    0    0  501    0  0.00000000000E+00  0.00000000000E+00  0.20670173288E+04  0.20670173288E+04  0.25500000000E-02 0. -1.
         -2   -1    0    0    0  501 -0.00000000000E+00 -0.00000000000E+00 -0.93191503006E+03  0.93191503007E+03  0.25500000000E-02 0.  1.
    8880023    1    1    2    0    0  0.63030642871E+03  0.10163286973E+04  0.33353511697E+02  0.13656986776E+04  0.65864270000E+03 0.  0.
    8880022    1    1    2    0    0 -0.63030642871E+03 -0.10163286973E+04  0.11017487870E+04  0.16332336813E+04  0.15294330000E+03 0.  0.
<mgrwt>
<rscale>  0 0.13235022E+04</rscale>
<asrwt>0</asrwt>
<pdfrwt beam="1">  1        2 0.31800267E+00 0.13652913E+04</pdfrwt>
<pdfrwt beam="2">  1       -2 0.14337154E+00 0.13652913E+04</pdfrwt>
<totfact> 0.19812939E+00</totfact>
</mgrwt>
</event>
<event>
 4    5  0.6615028E-008  0.8858724E+03  0.7818608E-02  0.9549102E-01
          2   -1    0    0  501    0  0.00000000000E+00  0.00000000000E+00  0.16866095599E+04  0.16866095599E+04  0.25500000000E-02 0. -1.
         -2   -1    0    0    0  501 -0.00000000000E+00 -0.00000000000E+00 -0.14551926191E+04  0.14551926191E+04  0.25500000000E-02 0.  1.
    8880023    1    1    2    0    0 -0.52069203476E+03  0.28255876301E+03  0.14950714298E+04  0.17378171469E+04  0.65864270000E+03 0.  0.
    8880022    1    1    2    0    0  0.52069203476E+03 -0.28255876301E+03 -0.12636544891E+04  0.14039850321E+04  0.15294330000E+03 0.  0.
<mgrwt>
<rscale>  0 0.80758508E+03</rscale>
<asrwt>0</asrwt>
<pdfrwt beam="1">  1        2 0.25947839E+00 0.88587237E+03</pdfrwt>
<pdfrwt beam="2">  1       -2 0.22387579E+00 0.88587237E+03</pdfrwt>
<totfact> 0.94591775E-01</totfact>
</mgrwt>
</event>
<event>
 4    5  0.6615028E-008  0.1806077E+04  0.7818608E-02  0.8719182E-01
          2   -1    0    0  501    0  0.00000000000E+00  0.00000000000E+00  0.19113664430E+04  0.19113664430E+04  0.25500000000E-02 0. -1.
         -2   -1    0    0    0  501 -0.00000000000E+00 -0.00000000000E+00 -0.19567234914E+04  0.19567234914E+04  0.25500000000E-02 0.  1.
    8880023    1    1    2    0    0 -0.43417729698E+03 -0.16246828821E+04  0.80508299563E+03  0.19773905099E+04  0.65864270000E+03 0.  0.
    8880022    1    1    2    0    0  0.43417729698E+03  0.16246828821E+04 -0.85044004403E+03  0.18906994245E+04  0.15294330000E+03 0.  0.
<mgrwt>
<rscale>  0 0.17759728E+04</rscale>
<asrwt>0</asrwt>
<pdfrwt beam="1">  1        2 0.29405637E+00 0.18060771E+04</pdfrwt>
<pdfrwt beam="2">  1       -2 0.30103438E+00 0.18060771E+04</pdfrwt>
<totfact> 0.21286868E-01</totfact>
</mgrwt>
</event>
<event>
 4    5  0.6615028E-008  0.8987088E+03  0.7818608E-02  0.9528108E-01
         -2   -1    0    0    0  501 -0.00000000000E+00  0.00000000000E+00  0.58809266334E+03  0.58809266335E+03  0.25500000000E-02 0.  1.
          2   -1    0    0  501    0  0.00000000000E+00 -0.00000000000E+00 -0.16731828918E+04  0.16731828918E+04  0.25500000000E-02 0. -1.
    8880023    1    1    2    0    0 -0.51942492757E+03  0.32259111602E+03 -0.13129446551E+04  0.15910691868E+04  0.65864270000E+03 0.  0.
    8880022    1    1    2    0    0  0.51942492757E+03 -0.32259111602E+03  0.22785442660E+03  0.67020636841E+03  0.15294330000E+03 0.  0.
<mgrwt>
<rscale>  0 0.82242907E+03</rscale>
<asrwt>0</asrwt>
<pdfrwt beam="1">  1        2 0.25741275E+00 0.89870879E+03</pdfrwt>
<pdfrwt beam="2">  1       -2 0.90475795E-01 0.89870879E+03</pdfrwt>
<totfact> 0.10689382E+01</totfact>
</mgrwt>
</event>
<event>
 4    5  0.6615028E-008  0.6732209E+03  0.7818608E-02  0.1013452E+00
         -2   -1    0    0    0  501 -0.00000000000E+00  0.00000000000E+00  0.33407031499E+03  0.33407031500E+03  0.25500000000E-02 0.  1.
          2   -1    0    0  501    0  0.00000000000E+00 -0.00000000000E+00 -0.16962787442E+04  0.16962787442E+04  0.25500000000E-02 0. -1.
    8880023    1    1    2    0    0 -0.47254866694E+02 -0.13108446974E+03 -0.15875703859E+04  0.17244147114E+04  0.65864270000E+03 0. -1.
    8880022    1    1    2    0    0  0.47254866694E+02  0.13108446974E+03  0.22536195665E+03  0.30593434778E+03  0.15294330000E+03 0.  0.
<mgrwt>
<rscale>  0 0.50125483E+03</rscale>
<asrwt>0</asrwt>
<pdfrwt beam="1">  1        2 0.26096596E+00 0.67322089E+03</pdfrwt>
<pdfrwt beam="2">  1       -2 0.51395434E-01 0.67322089E+03</pdfrwt>
<totfact> 0.36509758E+01</totfact>
</mgrwt>
</event>
<event>
 4    5  0.6615028E-008  0.6965517E+03  0.7818608E-02  0.1001182E+00
         -2   -1    0    0    0  501 -0.00000000000E+00  0.00000000000E+00  0.12657353379E+03  0.12657353382E+03  0.25500000000E-02 0.  1.
          2   -1    0    0  501    0  0.00000000000E+00 -0.00000000000E+00 -0.25111078831E+04  0.25111078831E+04  0.25500000000E-02 0. -1.
    8880023    1    1    2    0    0 -0.14201566681E+03 -0.17665108481E+03 -0.22004275906E+04  0.23080437264E+04  0.65864270000E+03 0. -1.
    8880022    1    1    2    0    0  0.14201566681E+03  0.17665108481E+03 -0.18410675874E+03  0.32963769053E+03  0.15294330000E+03 0.  0.
<mgrwt>
<rscale>  0 0.55135056E+03</rscale>
<asrwt>0</asrwt>
<pdfrwt beam="1">  1        2 0.38632425E+00 0.69655169E+03</pdfrwt>
<pdfrwt beam="2">  1       -2 0.19472853E-01 0.69655169E+03</pdfrwt>
<totfact> 0.80253455E+01</totfact>
</mgrwt>
</event>
<event>
 4    5  0.6615028E-008  0.1491314E+04  0.7818608E-02  0.8915794E-01
         -2   -1    0    0    0  501 -0.00000000000E+00  0.00000000000E+00  0.12444767691E+04  0.12444767691E+04  0.25500000000E-02 0.  1.
          2   -1    0    0  501    0  0.00000000000E+00 -0.00000000000E+00 -0.17509645219E+04  0.17509645219E+04  0.25500000000E-02 0. -1.
    8880023    1    1    2    0    0  0.58612183704E+01  0.13379733360E+04  0.14704029757E+03  0.14985453136E+04  0.65864270000E+03 0.  0.
    8880022    1    1    2    0    0 -0.58612183704E+01 -0.13379733360E+04 -0.65352805034E+03  0.14968959774E+04  0.15294330000E+03 0.  0.
<mgrwt>
<rscale>  0 0.14537658E+04</rscale>
<asrwt>0</asrwt>
<pdfrwt beam="1">  1        2 0.26937916E+00 0.14913139E+04</pdfrwt>
<pdfrwt beam="2">  1       -2 0.19145796E+00 0.14913139E+04</pdfrwt>
<totfact> 0.13113061E+00</totfact>
</mgrwt>
</event>
<event>
 4    5  0.6615028E-008  0.8603179E+03  0.7818608E-02  0.9592998E-01
         -2   -1    0    0    0  501 -0.00000000000E+00  0.00000000000E+00  0.27123075943E+03  0.27123075944E+03  0.25500000000E-02 0.  1.
          2   -1    0    0  501    0  0.00000000000E+00 -0.00000000000E+00 -0.30648043479E+04  0.30648043479E+04  0.25500000000E-02 0. -1.
    8880023    1    1    2    0    0  0.12487114488E+03  0.53920673416E+03 -0.25861597796E+04  0.27255034979E+04  0.65864270000E+03 0.  0.
    8880022    1    1    2    0    0 -0.12487114488E+03 -0.53920673416E+03 -0.20741380880E+03  0.61053160941E+03  0.15294330000E+03 0.  0.
<mgrwt>
<rscale>  0 0.77761345E+03</rscale>
<asrwt>0</asrwt>
<pdfrwt beam="1">  1        2 0.47150834E+00 0.86031791E+03</pdfrwt>
<pdfrwt beam="2">  1       -2 0.41727811E-01 0.86031791E+03</pdfrwt>
<totfact> 0.90184928E+00</totfact>
</mgrwt>
</event>
<event>
 4    5  0.6615028E-008  0.1117100E+04  0.7818608E-02  0.9242252E-01
         -2   -1    0    0    0  501 -0.00000000000E+00  0.00000000000E+00  0.42376540625E+03  0.42376540626E+03  0.25500000000E-02 0.  1.
          2   -1    0    0  501    0  0.00000000000E+00 -0.00000000000E+00 -0.28847321955E+04  0.28847321955E+04  0.25500000000E-02 0. -1.
    8880023    1    1    2    0    0 -0.73344587655E+03 -0.52550855542E+03 -0.19831112592E+04  0.22761024951E+04  0.65864270000E+03 0.  1.
    8880022    1    1    2    0    0  0.73344587655E+03  0.52550855542E+03 -0.47785553010E+03  0.10323951067E+04  0.15294330000E+03 0.  0.
<mgrwt>
<rscale>  0 0.10627760E+04</rscale>
<asrwt>0</asrwt>
<pdfrwt beam="1">  1        2 0.44380494E+00 0.11171000E+04</pdfrwt>
<pdfrwt beam="2">  1       -2 0.65194680E-01 0.11171000E+04</pdfrwt>
<totfact> 0.44705037E+00</totfact>
</mgrwt>
</event>
<event>
 4    5  0.6615028E-008  0.7659334E+03  0.7818608E-02  0.9789982E-01
         -2   -1    0    0    0  501 -0.00000000000E+00  0.00000000000E+00  0.35200347101E+03  0.35200347102E+03  0.25500000000E-02 0.  1.
          2   -1    0    0  501    0  0.00000000000E+00 -0.00000000000E+00 -0.26880878669E+04  0.26880878669E+04  0.25500000000E-02 0. -1.
    8880023    1    1    2    0    0 -0.36801666536E+03 -0.13193751593E+03 -0.24805627661E+04  0.25961212640E+04  0.65864270000E+03 0. -1.
    8880022    1    1    2    0    0  0.36801666536E+03  0.13193751593E+03  0.14447837025E+03  0.44397007397E+03  0.15294330000E+03 0.  0.
<mgrwt>
<rscale>  0 0.65902958E+03</rscale>
<asrwt>0</asrwt>
<pdfrwt beam="1">  1        2 0.41355197E+00 0.76593340E+03</pdfrwt>
<pdfrwt beam="2">  1       -2 0.54154382E-01 0.76593340E+03</pdfrwt>
<totfact> 0.91118306E+00</totfact>
</mgrwt>
</event>
<event>
 4    5  0.6615028E-008  0.8685133E+03  0.7818608E-02  0.9578596E-01
          2   -1    0    0  501    0  0.00000000000E+00  0.00000000000E+00  0.16023118521E+04  0.16023118521E+04  0.25500000000E-02 0. -1.
         -2   -1    0    0    0  501 -0.00000000000E+00 -0.00000000000E+00 -0.42890527305E+03  0.42890527305E+03  0.25500000000E-02 0.  1.
    8880023    1    1    2    0    0  0.49673012009E+03 -0.27159581389E+03  0.11542075654E+04  0.14444758249E+04  0.65864270000E+03 0.  0.
    8880022    1    1    2    0    0 -0.49673012009E+03  0.27159581389E+03  0.19199013648E+02  0.58674130029E+03  0.15294330000E+03 0.  0.
<mgrwt>
<rscale>  0 0.78729203E+03</rscale>
<asrwt>0</asrwt>
<pdfrwt beam="1">  1        2 0.24650951E+00 0.86851327E+03</pdfrwt>
<pdfrwt beam="2">  1       -2 0.65985427E-01 0.86851327E+03</pdfrwt>
<totfact> 0.23777221E+01</totfact>
</mgrwt>
</event>
<event>
 4    5  0.6615028E-008  0.1767689E+04  0.7818608E-02  0.8740623E-01
          2   -1    0    0  501    0  0.00000000000E+00  0.00000000000E+00  0.22870326558E+04  0.22870326558E+04  0.25500000000E-02 0. -1.
         -2   -1    0    0    0  501 -0.00000000000E+00 -0.00000000000E+00 -0.19799692261E+04  0.19799692261E+04  0.25500000000E-02 0.  1.
    8880023    1    1    2    0    0  0.12719621657E+04 -0.10358706206E+04  0.14295862847E+04  0.22734209564E+04  0.65864270000E+03 0.  0.
    8880022    1    1    2    0    0 -0.12719621657E+04  0.10358706206E+04 -0.11225228550E+04  0.19935809255E+04  0.15294330000E+03 0.  0.
<mgrwt>
<rscale>  0 0.17368482E+04</rscale>
<asrwt>0</asrwt>
<pdfrwt beam="1">  1        2 0.35185118E+00 0.17676894E+04</pdfrwt>
<pdfrwt beam="2">  1       -2 0.30461065E+00 0.17676894E+04</pdfrwt>
<totfact> 0.12481090E-01</totfact>
</mgrwt>
</event>
<event>
 4    5  0.6615028E-008  0.7189832E+03  0.7818608E-02  0.9926042E-01
          2   -1    0    0  501    0  0.00000000000E+00  0.00000000000E+00  0.20286875530E+04  0.20286875530E+04  0.25500000000E-02 0. -1.
         -2   -1    0    0    0  501 -0.00000000000E+00 -0.00000000000E+00 -0.41938977225E+03  0.41938977226E+03  0.25500000000E-02 0.  1.
    8880023    1    1    2    0    0  0.24267257861E+03  0.15568135098E+03  0.18871362367E+04  0.20194603353E+04  0.65864270000E+03 0.  0.
    8880022    1    1    2    0    0 -0.24267257861E+03 -0.15568135098E+03 -0.27783845600E+03  0.42861698998E+03  0.15294330000E+03 0.  0.
<mgrwt>
<rscale>  0 0.59015637E+03</rscale>
<asrwt>0</asrwt>
<pdfrwt beam="1">  1        2 0.31210577E+00 0.71898322E+03</pdfrwt>
<pdfrwt beam="2">  1       -2 0.64521504E-01 0.71898322E+03</pdfrwt>
<totfact> 0.14858320E+01</totfact>
</mgrwt>
</event>
<event>
 4    5  0.6615028E-008  0.9244249E+03  0.7818608E-02  0.9487907E-01
          2   -1    0    0  501    0  0.00000000000E+00  0.00000000000E+00  0.45930867452E+03  0.45930867453E+03  0.25500000000E-02 0. -1.
         -2   -1    0    0    0  501 -0.00000000000E+00 -0.00000000000E+00 -0.18774785025E+04  0.18774785025E+04  0.25500000000E-02 0.  1.
    8880023    1    1    2    0    0  0.53104121628E+03 -0.37248685806E+03 -0.19637531877E+03  0.94505275244E+03  0.65864270000E+03 0.  0.
    8880022    1    1    2    0    0 -0.53104121628E+03  0.37248685806E+03 -0.12217945092E+04  0.13917344246E+04  0.15294330000E+03 0.  0.
<mgrwt>
<rscale>  0 0.85181263E+03</rscale>
<asrwt>0</asrwt>
<pdfrwt beam="1">  1        2 0.70662874E-01 0.92442492E+03</pdfrwt>
<pdfrwt beam="2">  1       -2 0.28884284E+00 0.92442492E+03</pdfrwt>
<totfact> 0.25634076E+00</totfact>
</mgrwt>
</event>
<event>
 4    5  0.6615028E-008  0.1610401E+04  0.7818608E-02  0.8835372E-01
          2   -1    0    0  501    0  0.00000000000E+00  0.00000000000E+00  0.43623417858E+04  0.43623417858E+04  0.25500000000E-02 0. -1.
         -2   -1    0    0    0  501 -0.00000000000E+00 -0.00000000000E+00 -0.73448797235E+03  0.73448797236E+03  0.25500000000E-02 0.  1.
    8880023    1    1    2    0    0 -0.82910078879E+03  0.12133310356E+04  0.31605926410E+04  0.35472152977E+04  0.65864270000E+03 0.  0.
    8880022    1    1    2    0    0  0.82910078879E+03 -0.12133310356E+04  0.46726117253E+03  0.15496144605E+04  0.15294330000E+03 0.  0.
<mgrwt>
<rscale>  0 0.15760917E+04</rscale>
<asrwt>0</asrwt>
<pdfrwt beam="1">  1        2 0.67112951E+00 0.16104007E+04</pdfrwt>
<pdfrwt beam="2">  1       -2 0.11299815E+00 0.16104007E+04</pdfrwt>
<totfact> 0.98300385E-02</totfact>
</mgrwt>
</event>
<event>
 4    5  0.6615028E-008  0.7156145E+03  0.7818608E-02  0.9937714E-01
         -2   -1    0    0    0  501 -0.00000000000E+00  0.00000000000E+00  0.14908623947E+04  0.14908623947E+04  0.25500000000E-02 0.  1.
          2   -1    0    0  501    0  0.00000000000E+00 -0.00000000000E+00 -0.93254025146E+03  0.93254025146E+03  0.25500000000E-02 0. -1.
    8880023    1    1    2    0    0  0.21566053354E+03 -0.17828177470E+03 -0.77360487063E+03  0.10538351669E+04  0.65864270000E+03 0. -1.
    8880022    1    1    2    0    0 -0.21566053354E+03  0.17828177470E+03  0.13319270139E+04  0.13695674793E+04  0.15294330000E+03 0.  0.
<mgrwt>
<rscale>  0 0.58467795E+03</rscale>
<asrwt>0</asrwt>
<pdfrwt beam="1">  1        2 0.14346773E+00 0.71561447E+03</pdfrwt>
<pdfrwt beam="2">  1       -2 0.22936344E+00 0.71561447E+03</pdfrwt>
<totfact> 0.24886293E+00</totfact>
</mgrwt>
</event>
<event>
 4    5  0.6615028E-008  0.1262908E+04  0.7818608E-02  0.9098272E-01
          2   -1    0    0  501    0  0.00000000000E+00  0.00000000000E+00  0.34792704779E+04  0.34792704779E+04  0.25500000000E-02 0. -1.
         -2   -1    0    0    0  501 -0.00000000000E+00 -0.00000000000E+00 -0.82563026327E+03  0.82563026327E+03  0.25500000000E-02 0.  1.
    8880023    1    1    2    0    0  0.91673152052E+03 -0.56632900450E+03  0.29226117243E+04  0.31838019284E+04  0.65864270000E+03 0.  0.
    8880022    1    1    2    0    0 -0.91673152052E+03  0.56632900450E+03 -0.26897150963E+03  0.11210988128E+04  0.15294330000E+03 0.  0.
<mgrwt>
<rscale>  0 0.12168059E+04</rscale>
<asrwt>0</asrwt>
<pdfrwt beam="1">  1        2 0.53527238E+00 0.12629075E+04</pdfrwt>
<pdfrwt beam="2">  1       -2 0.12702004E+00 0.12629075E+04</pdfrwt>
<totfact> 0.38208483E-01</totfact>
</mgrwt>
</event>
<event>
 4    5  0.6615028E-008  0.1671783E+04  0.7818608E-02  0.8796987E-01
          2   -1    0    0  501    0  0.00000000000E+00  0.00000000000E+00  0.20902205007E+04  0.20902205007E+04  0.25500000000E-02 0. -1.
         -2   -1    0    0    0  501 -0.00000000000E+00 -0.00000000000E+00 -0.15306260118E+04  0.15306260118E+04  0.25500000000E-02 0.  1.
    8880023    1    1    2    0    0 -0.87690188293E+03  0.12617808681E+04  0.10812268996E+04  0.19909569775E+04  0.65864270000E+03 0.  0.
    8880022    1    1    2    0    0  0.87690188293E+03 -0.12617808681E+04 -0.52163241065E+03  0.16298895350E+04  0.15294330000E+03 0.  0.
<mgrwt>
<rscale>  0 0.16389217E+04</rscale>
<asrwt>0</asrwt>
<pdfrwt beam="1">  1        2 0.32157239E+00 0.16717829E+04</pdfrwt>
<pdfrwt beam="2">  1       -2 0.23548092E+00 0.16717829E+04</pdfrwt>
<totfact> 0.43317311E-01</totfact>
</mgrwt>
</event>
<event>
 4    5  0.6615028E-008  0.7395875E+03  0.7818608E-02  0.9861150E-01
         -2   -1    0    0    0  501 -0.00000000000E+00  0.00000000000E+00  0.26862162862E+03  0.26862162864E+03  0.25500000000E-02 0.  1.
          2   -1    0    0  501    0  0.00000000000E+00 -0.00000000000E+00 -0.15984769692E+04  0.15984769692E+04  0.25500000000E-02 0. -1.
    8880023    1    1    2    0    0 -0.11053655012E+03  0.31774385391E+03 -0.13008638274E+04  0.14964078286E+04  0.65864270000E+03 0.  0.
    8880022    1    1    2    0    0  0.11053655012E+03 -0.31774385391E+03 -0.28991513195E+02  0.37069076932E+03  0.15294330000E+03 0.  0.
<mgrwt>
<rscale>  0 0.62181622E+03</rscale>
<asrwt>0</asrwt>
<pdfrwt beam="1">  1        2 0.24591953E+00 0.73958751E+03</pdfrwt>
<pdfrwt beam="2">  1       -2 0.41326405E-01 0.73958751E+03</pdfrwt>
<totfact> 0.63413791E+01</totfact>
</mgrwt>
</event>
<event>
 4    5  0.6615028E-008  0.9432302E+03  0.7818608E-02  0.9459922E-01
          2   -1    0    0  501    0  0.00000000000E+00  0.00000000000E+00  0.22186983483E+04  0.22186983483E+04  0.25500000000E-02 0. -1.
         -2   -1    0    0    0  501 -0.00000000000E+00 -0.00000000000E+00 -0.61133838205E+03  0.61133838205E+03  0.25500000000E-02 0.  1.
    8880023    1    1    2    0    0 -0.58672938493E+03 -0.33409816148E+03  0.18661322461E+04  0.20909645427E+04  0.65864270000E+03 0.  0.
    8880022    1    1    2    0    0  0.58672938493E+03  0.33409816148E+03 -0.25877227989E+03  0.73907218761E+03  0.15294330000E+03 0.  0.
<mgrwt>
<rscale>  0 0.87304209E+03</rscale>
<asrwt>0</asrwt>
<pdfrwt beam="1">  1        2 0.34133822E+00 0.94323017E+03</pdfrwt>
<pdfrwt beam="2">  1       -2 0.94052057E-01 0.94323017E+03</pdfrwt>
<totfact> 0.48648258E+00</totfact>
</mgrwt>
</event>
<event>
 4    5  0.6615028E-008  0.6965621E+03  0.7818608E-02  0.1001177E+00
         -2   -1    0    0    0  501 -0.00000000000E+00  0.00000000000E+00  0.35713349584E+03  0.35713349585E+03  0.25500000000E-02 0.  1.
          2   -1    0    0  501    0  0.00000000000E+00 -0.00000000000E+00 -0.17664513268E+04  0.17664513268E+04  0.25500000000E-02 0. -1.
    8880023    1    1    2    0    0 -0.19456100501E+03 -0.11633811196E+03 -0.16297349248E+04  0.17723528634E+04  0.65864270000E+03 0. -1.
    8880022    1    1    2    0    0  0.19456100501E+03  0.11633811196E+03  0.22041709381E+03  0.35123195929E+03  0.15294330000E+03 0.  0.
<mgrwt>
<rscale>  0 0.55137009E+03</rscale>
<asrwt>0</asrwt>
<pdfrwt beam="1">  1        2 0.27176174E+00 0.69656209E+03</pdfrwt>
<pdfrwt beam="2">  1       -2 0.54943616E-01 0.69656209E+03</pdfrwt>
<totfact> 0.29050732E+01</totfact>
</mgrwt>
</event>
<event>
 4    5  0.6615028E-008  0.6597140E+03  0.7818608E-02  0.1024451E+00
          2   -1    0    0  501    0  0.00000000000E+00  0.00000000000E+00  0.18137617022E+04  0.18137617022E+04  0.25500000000E-02 0. -1.
         -2   -1    0    0    0  501 -0.00000000000E+00 -0.00000000000E+00 -0.18844778866E+04  0.18844778866E+04  0.25500000000E-02 0.  1.
    8880023    1    1    2    0    0  0.36995034170E+02 -0.66137292006E+01  0.17502611571E+04  0.18704643002E+04  0.65864270000E+03 0. -1.
    8880022    1    1    2    0    0 -0.36995034170E+02  0.66137292006E+01 -0.18209773416E+04  0.18277752886E+04  0.15294330000E+03 0.  0.
<mgrwt>
<rscale>  0 0.46113922E+03</rscale>
<asrwt>0</asrwt>
<pdfrwt beam="1">  1        2 0.27904026E+00 0.65971401E+03</pdfrwt>
<pdfrwt beam="2">  1       -2 0.28991967E+00 0.65971401E+03</pdfrwt>
<totfact> 0.33661087E-01</totfact>
</mgrwt>
</event>
<event>
 4    5  0.6615028E-008  0.1478081E+04  0.7818608E-02  0.8925271E-01
          2   -1    0    0  501    0  0.00000000000E+00  0.00000000000E+00  0.13678810373E+04  0.13678810373E+04  0.25500000000E-02 0. -1.
         -2   -1    0    0    0  501 -0.00000000000E+00 -0.00000000000E+00 -0.19211210438E+04  0.19211210438E+04  0.25500000000E-02 0.  1.
    8880023    1    1    2    0    0 -0.11476522870E+04  0.65864040436E+03  0.53194062045E+03  0.15708863689E+04  0.65864270000E+03 0.  0.
    8880022    1    1    2    0    0  0.11476522870E+04 -0.65864040436E+03 -0.10851806270E+04  0.17181157122E+04  0.15294330000E+03 0.  0.
<mgrwt>
<rscale>  0 0.14401316E+04</rscale>
<asrwt>0</asrwt>
<pdfrwt beam="1">  1        2 0.21044324E+00 0.14780809E+04</pdfrwt>
<pdfrwt beam="2">  1       -2 0.29555708E+00 0.14780809E+04</pdfrwt>
<totfact> 0.48247992E-01</totfact>
</mgrwt>
</event>
<event>
 4    5  0.6615028E-008  0.8435034E+03  0.7818608E-02  0.9623609E-01
         -2   -1    0    0    0  501 -0.00000000000E+00  0.00000000000E+00  0.94064005276E+03  0.94064005276E+03  0.25500000000E-02 0.  1.
          2   -1    0    0  501    0  0.00000000000E+00 -0.00000000000E+00 -0.13809628426E+04  0.13809628426E+04  0.25500000000E-02 0. -1.
    8880023    1    1    2    0    0 -0.17587823717E+03 -0.49674398327E+03 -0.11489715194E+04  0.14253538150E+04  0.65864270000E+03 0.  0.
    8880022    1    1    2    0    0  0.17587823717E+03  0.49674398327E+03  0.70864872954E+03  0.89624908040E+03  0.15294330000E+03 0.  0.
<mgrwt>
<rscale>  0 0.75753072E+03</rscale>
<asrwt>0</asrwt>
<pdfrwt beam="1">  1        2 0.21245582E+00 0.84350338E+03</pdfrwt>
<pdfrwt beam="2">  1       -2 0.14471385E+00 0.84350338E+03</pdfrwt>
<totfact> 0.49406874E+00</totfact>
</mgrwt>
</event>
<event>
 4    5  0.6615028E-008  0.8730430E+03  0.7818608E-02  0.9570771E-01
         -2   -1    0    0    0  501 -0.00000000000E+00  0.00000000000E+00  0.50094818285E+03  0.50094818286E+03  0.25500000000E-02 0.  1.
          2   -1    0    0  501    0  0.00000000000E+00 -0.00000000000E+00 -0.31840258561E+04  0.31840258561E+04  0.25500000000E-02 0. -1.
    8880023    1    1    2    0    0  0.16537795980E+03 -0.54867475392E+03 -0.29189223586E+04  0.30466886609E+04  0.65864270000E+03 0.  0.
    8880022    1    1    2    0    0 -0.16537795980E+03  0.54867475392E+03  0.23584468531E+03  0.63828537801E+03  0.15294330000E+03 0.  1.
<mgrwt>
<rscale>  0 0.79261350E+03</rscale>
<asrwt>0</asrwt>
<pdfrwt beam="1">  1        2 0.48985012E+00 0.87304299E+03</pdfrwt>
<pdfrwt beam="2">  1       -2 0.77068953E-01 0.87304299E+03</pdfrwt>
<totfact> 0.20931327E+00</totfact>
</mgrwt>
</event>
<event>
 4    5  0.6615028E-008  0.7612496E+03  0.7818608E-02  0.9801883E-01
         -2   -1    0    0    0  501 -0.00000000000E+00  0.00000000000E+00  0.31593658826E+03  0.31593658827E+03  0.25500000000E-02 0.  1.
          2   -1    0    0  501    0  0.00000000000E+00 -0.00000000000E+00 -0.24382594335E+04  0.24382594335E+04  0.25500000000E-02 0. -1.
    8880023    1    1    2    0    0  0.23354966627E+03  0.30190275817E+03 -0.22068021371E+04  0.23344114035E+04  0.65864270000E+03 0.  0.
    8880022    1    1    2    0    0 -0.23354966627E+03 -0.30190275817E+03  0.84479291869E+02  0.41978461832E+03  0.15294330000E+03 0.  0.
<mgrwt>
<rscale>  0 0.65261581E+03</rscale>
<asrwt>0</asrwt>
<pdfrwt beam="1">  1        2 0.37511682E+00 0.76124958E+03</pdfrwt>
<pdfrwt beam="2">  1       -2 0.48605630E-01 0.76124958E+03</pdfrwt>
<totfact> 0.15808839E+01</totfact>
</mgrwt>
</event>
<event>
 4    5  0.6615028E-008  0.8959456E+03  0.7818608E-02  0.9532572E-01
          2   -1    0    0  501    0  0.00000000000E+00  0.00000000000E+00  0.41226833615E+04  0.41226833615E+04  0.25500000000E-02 0. -1.
         -2   -1    0    0    0  501 -0.00000000000E+00 -0.00000000000E+00 -0.26864442401E+03  0.26864442402E+03  0.25500000000E-02 0.  1.
    8880023    1    1    2    0    0  0.57349486605E+03 -0.20002991527E+03  0.36093536391E+04  0.37188912631E+04  0.65864270000E+03 0.  0.
    8880022    1    1    2    0    0 -0.57349486605E+03  0.20002991527E+03  0.24468529835E+03  0.67243652238E+03  0.15294330000E+03 0.  0.
<mgrwt>
<rscale>  0 0.81924447E+03</rscale>
<asrwt>0</asrwt>
<pdfrwt beam="1">  1        2 0.63425897E+00 0.89594561E+03</pdfrwt>
<pdfrwt beam="2">  1       -2 0.41329912E-01 0.89594561E+03</pdfrwt>
<totfact> 0.16233697E+00</totfact>
</mgrwt>
</event>
<event>
 4    5  0.6615028E-008  0.1412642E+04  0.7818608E-02  0.8973921E-01
          2   -1    0    0  501    0  0.00000000000E+00  0.00000000000E+00  0.17751281042E+04  0.17751281042E+04  0.25500000000E-02 0. -1.
         -2   -1    0    0    0  501 -0.00000000000E+00 -0.00000000000E+00 -0.15618009586E+04  0.15618009586E+04  0.25500000000E-02 0.  1.
    8880023    1    1    2    0    0 -0.88600581613E+03 -0.88132927225E+03 -0.88432164366E+03  0.16666081027E+04  0.65864270000E+03 0.  0.
    8880022    1    1    2    0    0  0.88600581613E+03  0.88132927225E+03  0.10976487892E+04  0.16703209601E+04  0.15294330000E+03 0.  0.
<mgrwt>
<rscale>  0 0.13725638E+04</rscale>
<asrwt>0</asrwt>
<pdfrwt beam="1">  1        2 0.27309663E+00 0.14126421E+04</pdfrwt>
<pdfrwt beam="2">  1       -2 0.24027707E+00 0.14126421E+04</pdfrwt>
<totfact> 0.62259606E-01</totfact>
</mgrwt>
</event>
<event>
 4    5  0.6615028E-008  0.7134331E+03  0.7818608E-02  0.9945467E-01
         -2   -1    0    0    0  501 -0.00000000000E+00  0.00000000000E+00  0.32084663599E+03  0.32084663600E+03  0.25500000000E-02 0.  1.
          2   -1    0    0  501    0  0.00000000000E+00 -0.00000000000E+00 -0.23933601436E+04  0.23933601436E+04  0.25500000000E-02 0. -1.
    8880023    1    1    2    0    0 -0.63430843676E+00 -0.27418286544E+03 -0.22452474584E+04  0.23558699034E+04  0.65864270000E+03 0. -1.
    8880022    1    1    2    0    0  0.63430843676E+00  0.27418286544E+03  0.17273395081E+03  0.35833687618E+03  0.15294330000E+03 0.  0.
<mgrwt>
<rscale>  0 0.58107490E+03</rscale>
<asrwt>0</asrwt>
<pdfrwt beam="1">  1        2 0.36820924E+00 0.71343314E+03</pdfrwt>
<pdfrwt beam="2">  1       -2 0.49361022E-01 0.71343314E+03</pdfrwt>
<totfact> 0.16360031E+01</totfact>
</mgrwt>
</event>
<event>
 4    5  0.6615028E-008  0.7357710E+03  0.7818608E-02  0.9872442E-01
          2   -1    0    0  501    0  0.00000000000E+00  0.00000000000E+00  0.79351327400E+03  0.79351327400E+03  0.25500000000E-02 0. -1.
         -2   -1    0    0    0  501 -0.00000000000E+00 -0.00000000000E+00 -0.56432743997E+03  0.56432743997E+03  0.25500000000E-02 0.  1.
    8880023    1    1    2    0    0  0.16433013913E+03  0.28380333801E+03  0.51384417883E+03  0.89743789516E+03  0.65864270000E+03 0.  0.
    8880022    1    1    2    0    0 -0.16433013913E+03 -0.28380333801E+03 -0.28465834480E+03  0.46040281881E+03  0.15294330000E+03 0.  0.
<mgrwt>
<rscale>  0 0.61615672E+03</rscale>
<asrwt>0</asrwt>
<pdfrwt beam="1">  1        2 0.12207896E+00 0.73577098E+03</pdfrwt>
<pdfrwt beam="2">  1       -2 0.86819607E-01 0.73577098E+03</pdfrwt>
<totfact> 0.40575446E+01</totfact>
</mgrwt>
</event>
<event>
 4    5  0.6615028E-008  0.8639038E+03  0.7818608E-02  0.9586657E-01
          2   -1    0    0  501    0  0.00000000000E+00  0.00000000000E+00  0.21435326723E+04  0.21435326723E+04  0.25500000000E-02 0. -1.
         -2   -1    0    0    0  501 -0.00000000000E+00 -0.00000000000E+00 -0.51098947389E+03  0.51098947389E+03  0.25500000000E-02 0.  1.
    8880023    1    1    2    0    0  0.22109054588E+03  0.51345751519E+03  0.18449906787E+04  0.20372335311E+04  0.65864270000E+03 0.  0.
    8880022    1    1    2    0    0 -0.22109054588E+03 -0.51345751519E+03 -0.21244748034E+03  0.61728861507E+03  0.15294330000E+03 0.  1.
<mgrwt>
<rscale>  0 0.78185665E+03</rscale>
<asrwt>0</asrwt>
<pdfrwt beam="1">  1        2 0.32977425E+00 0.86390385E+03</pdfrwt>
<pdfrwt beam="2">  1       -2 0.78613766E-01 0.86390385E+03</pdfrwt>
<totfact> 0.81605420E+00</totfact>
</mgrwt>
</event>
<event>
 4    5  0.6615028E-008  0.6665871E+03  0.7818608E-02  0.1018237E+00
          2   -1    0    0  501    0  0.00000000000E+00  0.00000000000E+00  0.98796884970E+03  0.98796884971E+03  0.25500000000E-02 0. -1.
         -2   -1    0    0    0  501 -0.00000000000E+00 -0.00000000000E+00 -0.10209458917E+04  0.10209458917E+04  0.25500000000E-02 0.  1.
    8880023    1    1    2    0    0 -0.61396308924E+02 -0.82211249273E+02  0.86511284053E+03  0.10921348952E+04  0.65864270000E+03 0. -1.
    8880022    1    1    2    0    0  0.61396308924E+02  0.82211249273E+02 -0.89808988255E+03  0.91677984621E+03  0.15294330000E+03 0.  0.
<mgrwt>
<rscale>  0 0.48328068E+03</rscale>
<asrwt>0</asrwt>
<pdfrwt beam="1">  1        2 0.15199521E+00 0.66658713E+03</pdfrwt>
<pdfrwt beam="2">  1       -2 0.15706860E+00 0.66658713E+03</pdfrwt>
<totfact> 0.69989965E+00</totfact>
</mgrwt>
</event>
<event>
 4    5  0.6615028E-008  0.6720933E+03  0.7818608E-02  0.1014205E+00
          2   -1    0    0  501    0  0.00000000000E+00  0.00000000000E+00  0.13115804860E+04  0.13115804860E+04  0.25500000000E-02 0. -1.
         -2   -1    0    0    0  501 -0.00000000000E+00 -0.00000000000E+00 -0.37138436227E+03  0.37138436228E+03  0.25500000000E-02 0.  1.
    8880023    1    1    2    0    0  0.12906816342E+03  0.35222628920E+02  0.11865163310E+04  0.13636460077E+04  0.65864270000E+03 0. -1.
    8880022    1    1    2    0    0 -0.12906816342E+03 -0.35222628920E+02 -0.24632020729E+03  0.31931884055E+03  0.15294330000E+03 0.  0.
<mgrwt>
<rscale>  0 0.49837236E+03</rscale>
<asrwt>0</asrwt>
<pdfrwt beam="1">  1        2 0.20178161E+00 0.67209332E+03</pdfrwt>
<pdfrwt beam="2">  1       -2 0.57136056E-01 0.67209332E+03</pdfrwt>
<totfact> 0.48020332E+01</totfact>
</mgrwt>
</event>
<event>
 4    5  0.6615028E-008  0.8556089E+03  0.7818608E-02  0.9601423E-01
          2   -1    0    0  501    0  0.00000000000E+00  0.00000000000E+00  0.21301687800E+04  0.21301687800E+04  0.25500000000E-02 0. -1.
         -2   -1    0    0    0  501 -0.00000000000E+00 -0.00000000000E+00 -0.20063571946E+04  0.20063571946E+04  0.25500000000E-02 0.  1.
    8880023    1    1    2    0    0  0.32389822769E+03 -0.43971156319E+03  0.20006187656E+04  0.21759002670E+04  0.65864270000E+03 0. -1.
    8880022    1    1    2    0    0 -0.32389822769E+03  0.43971156319E+03 -0.18768071802E+04  0.19606257076E+04  0.15294330000E+03 0.  0.
<mgrwt>
<rscale>  0 0.77202090E+03</rscale>
<asrwt>0</asrwt>
<pdfrwt beam="1">  1        2 0.32771827E+00 0.85560886E+03</pdfrwt>
<pdfrwt beam="2">  1       -2 0.30867034E+00 0.85560886E+03</pdfrwt>
<totfact> 0.16604413E-01</totfact>
</mgrwt>
</event>
<event>
 4    5  0.6615028E-008  0.7696395E+03  0.7818608E-02  0.9780762E-01
          2   -1    0    0  501    0  0.00000000000E+00  0.00000000000E+00  0.67159256172E+03  0.67159256173E+03  0.25500000000E-02 0. -1.
         -2   -1    0    0    0  501 -0.00000000000E+00 -0.00000000000E+00 -0.13345657157E+04  0.13345657157E+04  0.25500000000E-02 0.  1.
    8880023    1    1    2    0    0  0.29462535156E+03  0.26782568846E+03  0.39525883538E+03  0.86520197086E+03  0.65864270000E+03 0.  0.
    8880022    1    1    2    0    0 -0.29462535156E+03 -0.26782568846E+03 -0.10582319893E+04  0.11409563065E+04  0.15294330000E+03 0.  0.
<mgrwt>
<rscale>  0 0.66405255E+03</rscale>
<asrwt>0</asrwt>
<pdfrwt beam="1">  1        2 0.10332193E+00 0.76963946E+03</pdfrwt>
<pdfrwt beam="2">  1       -2 0.20531780E+00 0.76963946E+03</pdfrwt>
<totfact> 0.54012082E+00</totfact>
</mgrwt>
</event>
<event>
 4    5  0.6615028E-008  0.9275298E+03  0.7818608E-02  0.9483209E-01
          2   -1    0    0  501    0  0.00000000000E+00  0.00000000000E+00  0.14411115781E+04  0.14411115781E+04  0.25500000000E-02 0. -1.
         -2   -1    0    0    0  501 -0.00000000000E+00 -0.00000000000E+00 -0.52829250442E+03  0.52829250443E+03  0.25500000000E-02 0.  1.
    8880023    1    1    2    0    0 -0.14547448723E+03 -0.63666197696E+03  0.12689226463E+03  0.93616940370E+03  0.65864270000E+03 0.  0.
    8880022    1    1    2    0    0  0.14547448723E+03  0.63666197696E+03  0.78592680910E+03  0.10332346789E+04  0.15294330000E+03 0.  0.
<mgrwt>
<rscale>  0 0.85533166E+03</rscale>
<asrwt>0</asrwt>
<pdfrwt beam="1">  1        2 0.22170947E+00 0.92752979E+03</pdfrwt>
<pdfrwt beam="2">  1       -2 0.81275771E-01 0.92752979E+03</pdfrwt>
<totfact> 0.18348740E+01</totfact>
</mgrwt>
</event>
<event>
 4    5  0.6615028E-008  0.7035969E+03  0.7818608E-02  0.9982595E-01
          2   -1    0    0  501    0  0.00000000000E+00  0.00000000000E+00  0.32918493995E+04  0.32918493995E+04  0.25500000000E-02 0. -1.
         -2   -1    0    0    0  501 -0.00000000000E+00 -0.00000000000E+00 -0.34829277954E+03  0.34829277955E+03  0.25500000000E-02 0.  1.
    8880023    1    1    2    0    0  0.24124128334E+03  0.55146018749E+02  0.31851844953E+04  0.32619700973E+04  0.65864270000E+03 0. -1.
    8880022    1    1    2    0    0 -0.24124128334E+03 -0.55146018749E+02 -0.24162787543E+03  0.37817208169E+03  0.15294330000E+03 0.  0.
<mgrwt>
<rscale>  0 0.56420062E+03</rscale>
<asrwt>0</asrwt>
<pdfrwt beam="1">  1        2 0.50643837E+00 0.70359693E+03</pdfrwt>
<pdfrwt beam="2">  1       -2 0.53583504E-01 0.70359693E+03</pdfrwt>
<totfact> 0.40266941E+00</totfact>
</mgrwt>
</event>
<event>
 4    5  0.6615028E-008  0.7294295E+03  0.7818608E-02  0.9891882E-01
         -2   -1    0    0    0  501 -0.00000000000E+00  0.00000000000E+00  0.11883854270E+04  0.11883854270E+04  0.25500000000E-02 0.  1.
          2   -1    0    0  501    0  0.00000000000E+00 -0.00000000000E+00 -0.84534776563E+03  0.84534776564E+03  0.25500000000E-02 0. -1.
    8880023    1    1    2    0    0  0.80057628313E+02 -0.30306436438E+03 -0.65261278823E+03  0.97875987373E+03  0.65864270000E+03 0. -1.
    8880022    1    1    2    0    0 -0.80057628313E+02  0.30306436438E+03  0.99565044958E+03  0.10549733189E+04  0.15294330000E+03 0.  0.
<mgrwt>
<rscale>  0 0.60656315E+03</rscale>
<asrwt>0</asrwt>
<pdfrwt beam="1">  1        2 0.13005350E+00 0.72942953E+03</pdfrwt>
<pdfrwt beam="2">  1       -2 0.18282853E+00 0.72942953E+03</pdfrwt>
<totfact> 0.56698159E+00</totfact>
</mgrwt>
</event>
<event>
 4    5  0.6615028E-008  0.9374337E+03  0.7818608E-02  0.9468430E-01
          2   -1    0    0  501    0  0.00000000000E+00  0.00000000000E+00  0.12034160355E+04  0.12034160355E+04  0.25500000000E-02 0. -1.
         -2   -1    0    0    0  501 -0.00000000000E+00 -0.00000000000E+00 -0.15602833332E+04  0.15602833332E+04  0.25500000000E-02 0.  1.
    8880023    1    1    2    0    0  0.41192254122E+03 -0.52468235212E+03  0.92096709096E+03  0.13141393912E+04  0.65864270000E+03 0. -1.
    8880022    1    1    2    0    0 -0.41192254122E+03  0.52468235212E+03 -0.12778343887E+04  0.14495599776E+04  0.15294330000E+03 0.  0.
<mgrwt>
<rscale>  0 0.86651941E+03</rscale>
<asrwt>0</asrwt>
<pdfrwt beam="1">  1        2 0.18514093E+00 0.93743371E+03</pdfrwt>
<pdfrwt beam="2">  1       -2 0.24004359E+00 0.93743371E+03</pdfrwt>
<totfact> 0.14016659E+00</totfact>
</mgrwt>
</event>
<event>
 4    5  0.6615028E-008  0.7953771E+03  0.7818608E-02  0.9720882E-01
          2   -1    0    0  501    0  0.00000000000E+00  0.00000000000E+00  0.15385946780E+04  0.15385946780E+04  0.25500000000E-02 0. -1.
         -2   -1    0    0    0  501 -0.00000000000E+00 -0.00000000000E+00 -0.41996123518E+03  0.41996123518E+03  0.25500000000E-02 0.  1.
    8880023    1    1    2    0    0  0.45839447320E+02  0.44352374374E+03  0.12387399068E+04  0.14721077845E+04  0.65864270000E+03 0.  0.
    8880022    1    1    2    0    0 -0.45839447320E+02 -0.44352374374E+03 -0.12010646400E+03  0.48644812868E+03  0.15294330000E+03 0.  0.
<mgrwt>
<rscale>  0 0.69786971E+03</rscale>
<asrwt>0</asrwt>
<pdfrwt beam="1">  1        2 0.23670687E+00 0.79537713E+03</pdfrwt>
<pdfrwt beam="2">  1       -2 0.64609421E-01 0.79537713E+03</pdfrwt>
<totfact> 0.27204828E+01</totfact>
</mgrwt>
</event>
<event>
 4    5  0.6615028E-008  0.1485353E+04  0.7818608E-02  0.8920049E-01
         -2   -1    0    0    0  501 -0.00000000000E+00  0.00000000000E+00  0.35572832516E+04  0.35572832516E+04  0.25500000000E-02 0.  1.
          2   -1    0    0  501    0  0.00000000000E+00 -0.00000000000E+00 -0.97477607399E+03  0.97477607399E+03  0.25500000000E-02 0. -1.
    8880023    1    1    2    0    0 -0.13017976966E+04  0.27890061565E+03  0.28046338455E+04  0.31736798846E+04  0.65864270000E+03 0.  0.
    8880022    1    1    2    0    0  0.13017976966E+04 -0.27890061565E+03 -0.22212666789E+03  0.13583794410E+04  0.15294330000E+03 0.  0.
<mgrwt>
<rscale>  0 0.14476251E+04</rscale>
<asrwt>0</asrwt>
<pdfrwt beam="1">  1        2 0.14996555E+00 0.14853528E+04</pdfrwt>
<pdfrwt beam="2">  1       -2 0.54727434E+00 0.14853528E+04</pdfrwt>
<totfact> 0.21461066E-02</totfact>
</mgrwt>
</event>
<event>
 4    5  0.6645956E-008  0.1242758E+04  0.7818608E-02  0.9116639E-01
         -2   -1    0    0    0  501 -0.00000000000E+00  0.00000000000E+00  0.22552455971E+04  0.22552455971E+04  0.25500000000E-02 0.  1.
          2   -1    0    0  501    0  0.00000000000E+00 -0.00000000000E+00 -0.22631079890E+04  0.22631079890E+04  0.25500000000E-02 0. -1.
    8880023    1    1    2    0    0  0.38571595136E+03  0.98074479263E+03 -0.19448091220E+04  0.23079709424E+04  0.65864270000E+03 0.  0.
    8880022    1    1    2    0    0 -0.38571595136E+03 -0.98074479263E+03  0.19369467301E+04  0.22103826438E+04  0.15294330000E+03 0.  0.
<mgrwt>
<rscale>  0 0.11956882E+04</rscale>
<asrwt>0</asrwt>
<pdfrwt beam="1">  1        2 0.34817046E+00 0.12427580E+04</pdfrwt>
<pdfrwt beam="2">  1       -2 0.34696086E+00 0.12427580E+04</pdfrwt>
<totfact> 0.75497028E-02</totfact>
</mgrwt>
</event>
<event>
 4    5  0.6615028E-008  0.9806336E+03  0.7818608E-02  0.9407345E-01
         -2   -1    0    0    0  501 -0.00000000000E+00  0.00000000000E+00  0.30278339366E+03  0.30278339367E+03  0.25500000000E-02 0.  1.
          2   -1    0    0  501    0  0.00000000000E+00 -0.00000000000E+00 -0.28752634937E+04  0.28752634937E+04  0.25500000000E-02 0. -1.
    8880023    1    1    2    0    0 -0.10188168730E+03  0.71934143860E+03 -0.20429330834E+04  0.22661018894E+04  0.65864270000E+03 0.  0.
    8880022    1    1    2    0    0  0.10188168730E+03 -0.71934143860E+03 -0.52954701659E+03  0.91194499795E+03  0.15294330000E+03 0.  0.
<mgrwt>
<rscale>  0 0.91473658E+03</rscale>
<asrwt>0</asrwt>
<pdfrwt beam="1">  1        2 0.44234821E+00 0.98063357E+03</pdfrwt>
<pdfrwt beam="2">  1       -2 0.46582063E-01 0.98063357E+03</pdfrwt>
<totfact> 0.92977363E+00</totfact>
</mgrwt>
</event>
<event>
 4    5  0.8052686E-008  0.9740009E+03  0.7818608E-02  0.9416392E-01
         -2   -1    0    0    0  501 -0.00000000000E+00  0.00000000000E+00  0.17624028796E+04  0.17624028796E+04  0.25500000000E-02 0.  1.
          2   -1    0    0  501    0  0.00000000000E+00 -0.00000000000E+00 -0.20587070698E+04  0.20587070698E+04  0.25500000000E-02 0. -1.
    8880023    1    1    2    0    0 -0.14259979016E+03  0.70323034069E+03 -0.18567986194E+04  0.20967543804E+04  0.65864270000E+03 0.  0.
    8880022    1    1    2    0    0  0.14259979016E+03 -0.70323034069E+03  0.15604944291E+04  0.17243555691E+04  0.15294330000E+03 0.  0.
<mgrwt>
<rscale>  0 0.90738891E+03</rscale>
<asrwt>0</asrwt>
<pdfrwt beam="1">  1        2 0.31672416E+00 0.97400093E+03</pdfrwt>
<pdfrwt beam="2">  1       -2 0.27113891E+00 0.97400093E+03</pdfrwt>
<totfact> 0.29900262E-01</totfact>
</mgrwt>
</event>
<event>
 4    5  0.6615028E-008  0.6798761E+03  0.7818608E-02  0.1009394E+00
          2   -1    0    0  501    0  0.00000000000E+00  0.00000000000E+00  0.12467297491E+04  0.12467297491E+04  0.25500000000E-02 0. -1.
         -2   -1    0    0    0  501 -0.00000000000E+00 -0.00000000000E+00 -0.33433021515E+03  0.33433021516E+03  0.25500000000E-02 0.  1.
    8880023    1    1    2    0    0  0.16855699435E+03 -0.31311811756E+01  0.10952357246E+04  0.12890976547E+04  0.65864270000E+03 0. -1.
    8880022    1    1    2    0    0 -0.16855699435E+03  0.31311811756E+01 -0.18283619059E+03  0.29196230963E+03  0.15294330000E+03 0.  0.
<mgrwt>
<rscale>  0 0.51716256E+03</rscale>
<asrwt>0</asrwt>
<pdfrwt beam="1">  1        2 0.19180458E+00 0.67987607E+03</pdfrwt>
<pdfrwt beam="2">  1       -2 0.51435418E-01 0.67987607E+03</pdfrwt>
<totfact> 0.64987244E+01</totfact>
</mgrwt>
</event>
<event>
 4    5  0.6615028E-008  0.7280721E+03  0.7818608E-02  0.9896163E-01
          2   -1    0    0  501    0  0.00000000000E+00  0.00000000000E+00  0.67681763250E+03  0.67681763251E+03  0.25500000000E-02 0. -1.
         -2   -1    0    0    0  501 -0.00000000000E+00 -0.00000000000E+00 -0.47540695157E+03  0.47540695157E+03  0.25500000000E-02 0.  1.
    8880023    1    1    2    0    0 -0.19471308040E+03  0.24158979123E+03  0.30756358964E+03  0.79036977349E+03  0.65864270000E+03 0. -1.
    8880022    1    1    2    0    0  0.19471308040E+03 -0.24158979123E+03 -0.10615290871E+03  0.36185481059E+03  0.15294330000E+03 0.  1.
<mgrwt>
<rscale>  0 0.60447616E+03</rscale>
<asrwt>0</asrwt>
<pdfrwt beam="1">  1        2 0.10412579E+00 0.72807212E+03</pdfrwt>
<pdfrwt beam="2">  1       -2 0.73139532E-01 0.72807212E+03</pdfrwt>
<totfact> 0.73167337E+01</totfact>
</mgrwt>
</event>
<event>
 4    5  0.6615028E-008  0.7943782E+03  0.7818608E-02  0.9723086E-01
          2   -1    0    0  501    0  0.00000000000E+00  0.00000000000E+00  0.39325313882E+04  0.39325313882E+04  0.25500000000E-02 0. -1.
         -2   -1    0    0    0  501 -0.00000000000E+00 -0.00000000000E+00 -0.22769485930E+03  0.22769485931E+03  0.25500000000E-02 0.  1.
    8880023    1    1    2    0    0 -0.58404565255E+02 -0.44024479660E+03  0.35898021174E+04  0.36766446691E+04  0.65864270000E+03 0.  0.
    8880022    1    1    2    0    0  0.58404565255E+02  0.44024479660E+03  0.11503441151E+03  0.48358157845E+03  0.15294330000E+03 0.  1.
<mgrwt>
<rscale>  0 0.69658750E+03</rscale>
<asrwt>0</asrwt>
<pdfrwt beam="1">  1        2 0.60500485E+00 0.79437824E+03</pdfrwt>
<pdfrwt beam="2">  1       -2 0.35029977E-01 0.79437824E+03</pdfrwt>
<totfact> 0.32395202E+00</totfact>
</mgrwt>
</event>
<event>
 4    5  0.6615028E-008  0.1080313E+04  0.7818608E-02  0.9283298E-01
          2   -1    0    0  501    0  0.00000000000E+00  0.00000000000E+00  0.34900434036E+04  0.34900434036E+04  0.25500000000E-02 0. -1.
         -2   -1    0    0    0  501 -0.00000000000E+00 -0.00000000000E+00 -0.12416725219E+04  0.12416725219E+04  0.25500000000E-02 0.  1.
    8880023    1    1    2    0    0  0.29112225670E+03 -0.80530322186E+03 -0.93678959658E+03  0.14299127253E+04  0.65864270000E+03 0.  0.
    8880022    1    1    2    0    0 -0.29112225670E+03  0.80530322186E+03  0.31851604783E+04  0.33018032002E+04  0.15294330000E+03 0.  0.
<mgrwt>
<rscale>  0 0.10233508E+04</rscale>
<asrwt>0</asrwt>
<pdfrwt beam="1">  1        2 0.53692976E+00 0.10803128E+04</pdfrwt>
<pdfrwt beam="2">  1       -2 0.19102654E+00 0.10803128E+04</pdfrwt>
<totfact> 0.12784285E-01</totfact>
</mgrwt>
</event>
<event>
 4    5  0.6615028E-008  0.8208399E+03  0.7818608E-02  0.9667425E-01
         -2   -1    0    0    0  501 -0.00000000000E+00  0.00000000000E+00  0.30256694821E+03  0.30256694822E+03  0.25500000000E-02 0.  1.
          2   -1    0    0  501    0  0.00000000000E+00 -0.00000000000E+00 -0.26334383537E+04  0.26334383537E+04  0.25500000000E-02 0. -1.
    8880023    1    1    2    0    0  0.22608709090E+03  0.43457170188E+03 -0.22764788877E+04  0.24199450963E+04  0.65864270000E+03 0. -1.
    8880022    1    1    2    0    0 -0.22608709090E+03 -0.43457170188E+03 -0.54392517709E+02  0.51606020554E+03  0.15294330000E+03 0.  0.
<mgrwt>
<rscale>  0 0.72989853E+03</rscale>
<asrwt>0</asrwt>
<pdfrwt beam="1">  1        2 0.40514435E+00 0.82083990E+03</pdfrwt>
<pdfrwt beam="2">  1       -2 0.46548763E-01 0.82083990E+03</pdfrwt>
<totfact> 0.13228735E+01</totfact>
</mgrwt>
</event>
<event>
 4    5  0.6615028E-008  0.8945230E+03  0.7818608E-02  0.9534882E-01
         -2   -1    0    0    0  501 -0.00000000000E+00  0.00000000000E+00  0.37932621318E+03  0.37932621319E+03  0.25500000000E-02 0.  1.
          2   -1    0    0  501    0  0.00000000000E+00 -0.00000000000E+00 -0.26285409093E+04  0.26285409093E+04  0.25500000000E-02 0. -1.
    8880023    1    1    2    0    0  0.15618262579E+03  0.58478040122E+03 -0.22078711786E+04  0.23821978251E+04  0.65864270000E+03 0.  0.
    8880022    1    1    2    0    0 -0.15618262579E+03 -0.58478040122E+03 -0.41343517500E+02  0.62566929739E+03  0.15294330000E+03 0.  0.
<mgrwt>
<rscale>  0 0.81760262E+03</rscale>
<asrwt>0</asrwt>
<pdfrwt beam="1">  1        2 0.40439090E+00 0.89452297E+03</pdfrwt>
<pdfrwt beam="2">  1       -2 0.58357881E-01 0.89452297E+03</pdfrwt>
<totfact> 0.82732016E+00</totfact>
</mgrwt>
</event>
<event>
 4    5  0.6615028E-008  0.7029219E+03  0.7818608E-02  0.9985289E-01
         -2   -1    0    0    0  501 -0.00000000000E+00  0.00000000000E+00  0.45896062138E+03  0.45896062139E+03  0.25500000000E-02 0.  1.
          2   -1    0    0  501    0  0.00000000000E+00 -0.00000000000E+00 -0.55155448445E+03  0.55155448446E+03  0.25500000000E-02 0. -1.
    8880023    1    1    2    0    0 -0.18021452657E+03  0.16676832095E+03 -0.14180570738E+03  0.71708298918E+03  0.65864270000E+03 0. -1.
    8880022    1    1    2    0    0  0.18021452657E+03 -0.16676832095E+03  0.49211844305E+02  0.29343211667E+03  0.15294330000E+03 0.  1.
<mgrwt>
<rscale>  0 0.56299999E+03</rscale>
<asrwt>0</asrwt>
<pdfrwt beam="1">  1        2 0.84854536E-01 0.70292187E+03</pdfrwt>
<pdfrwt beam="2">  1       -2 0.70609326E-01 0.70292187E+03</pdfrwt>
<totfact> 0.10147123E+02</totfact>
</mgrwt>
</event>
<event>
 4    5  0.6615028E-008  0.6960511E+03  0.7818608E-02  0.1001399E+00
         -2   -1    0    0    0  501 -0.00000000000E+00  0.00000000000E+00  0.60266484518E+03  0.60266484518E+03  0.25500000000E-02 0.  1.
          2   -1    0    0  501    0  0.00000000000E+00 -0.00000000000E+00 -0.37739852956E+04  0.37739852956E+04  0.25500000000E-02 0. -1.
    8880023    1    1    2    0    0 -0.81143771409E+02 -0.20998257240E+03 -0.37091433188E+04  0.37738880956E+04  0.65864270000E+03 0. -1.
    8880022    1    1    2    0    0  0.81143771409E+02  0.20998257240E+03  0.53782286838E+03  0.60276204519E+03  0.15294330000E+03 0.  0.
<mgrwt>
<rscale>  0 0.55040854E+03</rscale>
<asrwt>0</asrwt>
<pdfrwt beam="1">  1        2 0.58061311E+00 0.69605115E+03</pdfrwt>
<pdfrwt beam="2">  1       -2 0.92717671E-01 0.69605115E+03</pdfrwt>
<totfact> 0.56672002E-01</totfact>
</mgrwt>
</event>
<event>
 4    5  0.6615028E-008  0.8083045E+03  0.7818608E-02  0.9693119E-01
          2   -1    0    0  501    0  0.00000000000E+00  0.00000000000E+00  0.16157405546E+04  0.16157405546E+04  0.25500000000E-02 0. -1.
         -2   -1    0    0    0  501 -0.00000000000E+00 -0.00000000000E+00 -0.26970194545E+03  0.26970194546E+03  0.25500000000E-02 0.  1.
    8880023    1    1    2    0    0  0.31132882550E+03 -0.35017192669E+03  0.98648756063E+03  0.12753485521E+04  0.65864270000E+03 0.  0.
    8880022    1    1    2    0    0 -0.31132882550E+03  0.35017192669E+03  0.35955104852E+03  0.61009394796E+03  0.15294330000E+03 0.  0.
<mgrwt>
<rscale>  0 0.71427939E+03</rscale>
<asrwt>0</asrwt>
<pdfrwt beam="1">  1        2 0.24857547E+00 0.80830454E+03</pdfrwt>
<pdfrwt beam="2">  1       -2 0.41492607E-01 0.80830454E+03</pdfrwt>
<totfact> 0.61130060E+01</totfact>
</mgrwt>
</event>
<event>
 4    5  0.6615028E-008  0.8297264E+03  0.7818608E-02  0.9649865E-01
          2   -1    0    0  501    0  0.00000000000E+00  0.00000000000E+00  0.16893675369E+04  0.16893675369E+04  0.25500000000E-02 0. -1.
         -2   -1    0    0    0  501 -0.00000000000E+00 -0.00000000000E+00 -0.10343426850E+04  0.10343426850E+04  0.25500000000E-02 0.  1.
    8880023    1    1    2    0    0  0.32341098970E+02  0.50357699450E+03  0.15078394572E+04  0.17210536805E+04  0.65864270000E+03 0. -1.
    8880022    1    1    2    0    0 -0.32341098970E+02 -0.50357699450E+03 -0.85281460530E+03  0.10026565414E+04  0.15294330000E+03 0.  0.
<mgrwt>
<rscale>  0 0.74081905E+03</rscale>
<asrwt>0</asrwt>
<pdfrwt beam="1">  1        2 0.25990269E+00 0.82972643E+03</pdfrwt>
<pdfrwt beam="2">  1       -2 0.15912965E+00 0.82972643E+03</pdfrwt>
<totfact> 0.25874287E+00</totfact>
</mgrwt>
</event>
<event>
 4    5  0.6615028E-008  0.6854886E+03  0.7818608E-02  0.1006375E+00
          2   -1    0    0  501    0  0.00000000000E+00  0.00000000000E+00  0.15053318361E+03  0.15053318363E+03  0.25500000000E-02 0. -1.
         -2   -1    0    0    0  501 -0.00000000000E+00 -0.00000000000E+00 -0.23637481867E+04  0.23637481867E+04  0.25500000000E-02 0.  1.
    8880023    1    1    2    0    0  0.72809887848E+02  0.17545106202E+03 -0.69344933702E+03  0.97507258407E+03  0.65864270000E+03 0. -1.
    8880022    1    1    2    0    0 -0.72809887848E+02 -0.17545106202E+03 -0.15197656661E+04  0.15392087863E+04  0.15294330000E+03 0.  0.
<mgrwt>
<rscale>  0 0.52941091E+03</rscale>
<asrwt>0</asrwt>
<pdfrwt beam="1">  1        2 0.23158953E-01 0.68548856E+03</pdfrwt>
<pdfrwt beam="2">  1       -2 0.36365354E+00 0.68548856E+03</pdfrwt>
<totfact> 0.32473843E+00</totfact>
</mgrwt>
</event>
<event>
 4    5  0.6615028E-008  0.1499244E+04  0.7818608E-02  0.8910170E-01
         -2   -1    0    0    0  501 -0.00000000000E+00  0.00000000000E+00  0.56618132170E+03  0.56618132171E+03  0.25500000000E-02 0.  1.
          2   -1    0    0  501    0  0.00000000000E+00 -0.00000000000E+00 -0.43171180377E+04  0.43171180377E+04  0.25500000000E-02 0. -1.
    8880023    1    1    2    0    0  0.88665964154E+03 -0.10137831271E+04 -0.95901586040E+03  0.17797312088E+04  0.65864270000E+03 0.  0.
    8880022    1    1    2    0    0 -0.88665964154E+03  0.10137831271E+04 -0.27919208556E+04  0.31035681507E+04  0.15294330000E+03 0.  0.
<mgrwt>
<rscale>  0 0.14619317E+04</rscale>
<asrwt>0</asrwt>
<pdfrwt beam="1">  1        2 0.66417199E+00 0.14992437E+04</pdfrwt>
<pdfrwt beam="2">  1       -2 0.87104821E-01 0.14992437E+04</pdfrwt>
<totfact> 0.20421359E-01</totfact>
</mgrwt>
</event>
<event>
 4    5  0.6615028E-008  0.7734238E+03  0.7818608E-02  0.9771518E-01
          2   -1    0    0  501    0  0.00000000000E+00  0.00000000000E+00  0.11831440125E+04  0.11831440125E+04  0.25500000000E-02 0. -1.
         -2   -1    0    0    0  501 -0.00000000000E+00 -0.00000000000E+00 -0.81007195048E+03  0.81007195048E+03  0.25500000000E-02 0.  1.
    8880023    1    1    2    0    0 -0.22328619209E+03  0.33840421156E+03  0.97940184041E+03  0.12479632628E+04  0.65864270000E+03 0. -1.
    8880022    1    1    2    0    0  0.22328619209E+03 -0.33840421156E+03 -0.60632977839E+03  0.74525270020E+03  0.15294330000E+03 0.  0.
<mgrwt>
<rscale>  0 0.66913724E+03</rscale>
<asrwt>0</asrwt>
<pdfrwt beam="1">  1        2 0.18202215E+00 0.77342378E+03</pdfrwt>
<pdfrwt beam="2">  1       -2 0.12462645E+00 0.77342378E+03</pdfrwt>
<totfact> 0.95226472E+00</totfact>
</mgrwt>
</event>
<event>
 4    5  0.6615028E-008  0.8870641E+03  0.7818608E-02  0.9547125E-01
          2   -1    0    0  501    0  0.00000000000E+00  0.00000000000E+00  0.20669803714E+04  0.20669803714E+04  0.25500000000E-02 0. -1.
         -2   -1    0    0    0  501 -0.00000000000E+00 -0.00000000000E+00 -0.11510522308E+04  0.11510522308E+04  0.25500000000E-02 0.  1.
    8880023    1    1    2    0    0 -0.32956767075E+03 -0.49442665997E+03  0.18779995068E+04  0.20769605017E+04  0.65864270000E+03 0.  0.
    8880022    1    1    2    0    0  0.32956767075E+03  0.49442665997E+03 -0.96207136621E+03  0.11410721004E+04  0.15294330000E+03 0.  0.
<mgrwt>
<rscale>  0 0.80896872E+03</rscale>
<asrwt>0</asrwt>
<pdfrwt beam="1">  1        2 0.31799698E+00 0.88706413E+03</pdfrwt>
<pdfrwt beam="2">  1       -2 0.17708496E+00 0.88706413E+03</pdfrwt>
<totfact> 0.11839707E+00</totfact>
</mgrwt>
</event>
<event>
 4    5  0.6615028E-008  0.1296934E+04  0.7818608E-02  0.9068212E-01
          2   -1    0    0  501    0  0.00000000000E+00  0.00000000000E+00  0.14227987569E+04  0.14227987569E+04  0.25500000000E-02 0. -1.
         -2   -1    0    0    0  501 -0.00000000000E+00 -0.00000000000E+00 -0.16379828981E+04  0.16379828981E+04  0.25500000000E-02 0.  1.
    8880023    1    1    2    0    0  0.39858168491E+03 -0.10437238781E+04 -0.10410228895E+04  0.16630591559E+04  0.65864270000E+03 0.  1.
    8880022    1    1    2    0    0 -0.39858168491E+03  0.10437238781E+04  0.82583874833E+03  0.13977224991E+04  0.15294330000E+03 0.  0.
<mgrwt>
<rscale>  0 0.12523708E+04</rscale>
<asrwt>0</asrwt>
<pdfrwt beam="1">  1        2 0.21889212E+00 0.12969337E+04</pdfrwt>
<pdfrwt beam="2">  1       -2 0.25199737E+00 0.12969337E+04</pdfrwt>
<totfact> 0.84307124E-01</totfact>
</mgrwt>
</event>
<event>
 4    5  0.6615028E-008  0.1226437E+04  0.7818608E-02  0.9131843E-01
          2   -1    0    0  501    0  0.00000000000E+00  0.00000000000E+00  0.16375181396E+04  0.16375181396E+04  0.25500000000E-02 0. -1.
         -2   -1    0    0    0  501 -0.00000000000E+00 -0.00000000000E+00 -0.13322019209E+04  0.13322019209E+04  0.25500000000E-02 0.  1.
    8880023    1    1    2    0    0  0.94746251730E+03 -0.41551437808E+03  0.11068715584E+04  0.16520630354E+04  0.65864270000E+03 0.  0.
    8880022    1    1    2    0    0 -0.94746251730E+03  0.41551437808E+03 -0.80155533964E+03  0.13176570250E+04  0.15294330000E+03 0.  0.
<mgrwt>
<rscale>  0 0.11785490E+04</rscale>
<asrwt>0</asrwt>
<pdfrwt beam="1">  1        2 0.25192587E+00 0.12264370E+04</pdfrwt>
<pdfrwt beam="2">  1       -2 0.20495414E+00 0.12264370E+04</pdfrwt>
<totfact> 0.12686714E+00</totfact>
</mgrwt>
</event>
<event>
 4    5  0.6615028E-008  0.8753410E+03  0.7818608E-02  0.9566837E-01
         -2   -1    0    0    0  501 -0.00000000000E+00  0.00000000000E+00  0.72303042971E+03  0.72303042971E+03  0.25500000000E-02 0.  1.
          2   -1    0    0  501    0  0.00000000000E+00 -0.00000000000E+00 -0.21228544167E+04  0.21228544167E+04  0.25500000000E-02 0. -1.
    8880023    1    1    2    0    0 -0.57638100729E+03  0.14020613262E+02 -0.18841299778E+04  0.20775388379E+04  0.65864270000E+03 0. -1.
    8880022    1    1    2    0    0  0.57638100729E+03 -0.14020613262E+02  0.48430599081E+03  0.76834600859E+03  0.15294330000E+03 0.  0.
<mgrwt>
<rscale>  0 0.79530588E+03</rscale>
<asrwt>0</asrwt>
<pdfrwt beam="1">  1        2 0.32659298E+00 0.87534099E+03</pdfrwt>
<pdfrwt beam="2">  1       -2 0.11123545E+00 0.87534099E+03</pdfrwt>
<totfact> 0.37165942E+00</totfact>
</mgrwt>
</event>
<event>
 4    5  0.6615028E-008  0.7039018E+03  0.7818608E-02  0.9981384E-01
          2   -1    0    0  501    0  0.00000000000E+00  0.00000000000E+00  0.62262168347E+03  0.62262168347E+03  0.25500000000E-02 0. -1.
         -2   -1    0    0    0  501 -0.00000000000E+00 -0.00000000000E+00 -0.42135751739E+03  0.42135751740E+03  0.25500000000E-02 0.  1.
    8880023    1    1    2    0    0 -0.10308690341E+03 -0.22592182449E+03  0.25258662850E+03  0.74784877589E+03  0.65864270000E+03 0.  0.
    8880022    1    1    2    0    0  0.10308690341E+03  0.22592182449E+03 -0.51322462430E+02  0.29613042499E+03  0.15294330000E+03 0.  1.
<mgrwt>
<rscale>  0 0.56474092E+03</rscale>
<asrwt>0</asrwt>
<pdfrwt beam="1">  1        2 0.95787951E-01 0.70390183E+03</pdfrwt>
<pdfrwt beam="2">  1       -2 0.64824234E-01 0.70390183E+03</pdfrwt>
<totfact> 0.10558553E+02</totfact>
</mgrwt>
</event>
<event>
 4    5  0.6615028E-008  0.8997760E+03  0.7818608E-02  0.9526391E-01
          2   -1    0    0  501    0  0.00000000000E+00  0.00000000000E+00  0.18449027096E+04  0.18449027096E+04  0.25500000000E-02 0. -1.
         -2   -1    0    0    0  501 -0.00000000000E+00 -0.00000000000E+00 -0.92885369220E+03  0.92885369221E+03  0.25500000000E-02 0.  1.
    8880023    1    1    2    0    0  0.59694349505E+03  0.13944570047E+03  0.16043541597E+04  0.18394426100E+04  0.65864270000E+03 0.  0.
    8880022    1    1    2    0    0 -0.59694349505E+03 -0.13944570047E+03 -0.68830514226E+03  0.93431379180E+03  0.15294330000E+03 0.  0.
<mgrwt>
<rscale>  0 0.82365752E+03</rscale>
<asrwt>0</asrwt>
<pdfrwt beam="1">  1        2 0.28383118E+00 0.89977600E+03</pdfrwt>
<pdfrwt beam="2">  1       -2 0.14290057E+00 0.89977600E+03</pdfrwt>
<totfact> 0.28004435E+00</totfact>
</mgrwt>
</event>
<event>
 4    5  0.6615028E-008  0.9720213E+03  0.7818608E-02  0.9419114E-01
          2   -1    0    0  501    0  0.00000000000E+00  0.00000000000E+00  0.37710992769E+04  0.37710992769E+04  0.25500000000E-02 0. -1.
         -2   -1    0    0    0  501 -0.00000000000E+00 -0.00000000000E+00 -0.24825023018E+03  0.24825023019E+03  0.25500000000E-02 0.  1.
    8880023    1    1    2    0    0  0.30111534154E+03  0.64834004551E+03  0.29013137139E+04  0.30598115524E+04  0.65864270000E+03 0. -1.
    8880022    1    1    2    0    0 -0.30111534154E+03 -0.64834004551E+03  0.62153533283E+03  0.95953795469E+03  0.15294330000E+03 0.  0.
<mgrwt>
<rscale>  0 0.90519231E+03</rscale>
<asrwt>0</asrwt>
<pdfrwt beam="1">  1        2 0.58016911E+00 0.97202133E+03</pdfrwt>
<pdfrwt beam="2">  1       -2 0.38192344E-01 0.97202133E+03</pdfrwt>
<totfact> 0.35136089E+00</totfact>
</mgrwt>
</event>
<event>
 4    5  0.6615028E-008  0.7614308E+03  0.7818608E-02  0.9801417E-01
         -2   -1    0    0    0  501 -0.00000000000E+00  0.00000000000E+00  0.13214374748E+04  0.13214374749E+04  0.25500000000E-02 0.  1.
          2   -1    0    0  501    0  0.00000000000E+00 -0.00000000000E+00 -0.43662047070E+03  0.43662047070E+03  0.25500000000E-02 0. -1.
    8880023    1    1    2    0    0 -0.37537522283E+03 -0.71134247907E+02 -0.22511146519E+02  0.76176347846E+03  0.65864270000E+03 0. -1.
    8880022    1    1    2    0    0  0.37537522283E+03  0.71134247907E+02  0.90732815067E+03  0.99629446709E+03  0.15294330000E+03 0.  0.
<mgrwt>
<rscale>  0 0.65286537E+03</rscale>
<asrwt>0</asrwt>
<pdfrwt beam="1">  1        2 0.67172380E-01 0.76143079E+03</pdfrwt>
<pdfrwt beam="2">  1       -2 0.20329807E+00 0.76143079E+03</pdfrwt>
<totfact> 0.92759889E+00</totfact>
</mgrwt>
</event>
<event>
 4    5  0.6615028E-008  0.1289528E+04  0.7818608E-02  0.9074656E-01
         -2   -1    0    0    0  501 -0.00000000000E+00  0.00000000000E+00  0.16311659843E+04  0.16311659843E+04  0.25500000000E-02 0.  1.
          2   -1    0    0  501    0  0.00000000000E+00 -0.00000000000E+00 -0.18969044382E+04  0.18969044382E+04  0.25500000000E-02 0. -1.
    8880023    1    1    2    0    0 -0.13648462462E+03  0.11002021072E+04 -0.14215071097E+04  0.19192616806E+04  0.65864270000E+03 0.  0.
    8880022    1    1    2    0    0  0.13648462462E+03 -0.11002021072E+04  0.11557686558E+04  0.16088087419E+04  0.15294330000E+03 0.  0.
<mgrwt>
<rscale>  0 0.12446401E+04</rscale>
<asrwt>0</asrwt>
<pdfrwt beam="1">  1        2 0.29183145E+00 0.12895282E+04</pdfrwt>
<pdfrwt beam="2">  1       -2 0.25094861E+00 0.12895282E+04</pdfrwt>
<totfact> 0.46456709E-01</totfact>
</mgrwt>
</event>
<event>
 4    5  0.6615028E-008  0.6667714E+03  0.7818608E-02  0.1018091E+00
          2   -1    0    0  501    0  0.00000000000E+00  0.00000000000E+00  0.11847545494E+04  0.11847545495E+04  0.25500000000E-02 0. -1.
         -2   -1    0    0    0  501 -0.00000000000E+00 -0.00000000000E+00 -0.17638434729E+03  0.17638434731E+03  0.25500000000E-02 0.  1.
    8880023    1    1    2    0    0 -0.44540197382E+02  0.93755033542E+02  0.96215576546E+03  0.11706099943E+04  0.65864270000E+03 0. -1.
    8880022    1    1    2    0    0  0.44540197382E+02 -0.93755033542E+02  0.46214436699E+02  0.19052890246E+03  0.15294330000E+03 0.  0.
<mgrwt>
<rscale>  0 0.48381703E+03</rscale>
<asrwt>0</asrwt>
<pdfrwt beam="1">  1        2 0.18226992E+00 0.66677136E+03</pdfrwt>
<pdfrwt beam="2">  1       -2 0.27136054E-01 0.66677136E+03</pdfrwt>
<totfact> 0.24253541E+02</totfact>
</mgrwt>
</event>
<event>
 4    5  0.6615028E-008  0.1055934E+04  0.7818608E-02  0.9311782E-01
         -2   -1    0    0    0  501 -0.00000000000E+00  0.00000000000E+00  0.32002254649E+03  0.32002254650E+03  0.25500000000E-02 0.  1.
          2   -1    0    0  501    0  0.00000000000E+00 -0.00000000000E+00 -0.28460103977E+04  0.28460103977E+04  0.25500000000E-02 0. -1.
    8880023    1    1    2    0    0 -0.82430933501E+03 -0.41241988966E+02 -0.12193892694E+04  0.16130428321E+04  0.65864270000E+03 0.  0.
    8880022    1    1    2    0    0  0.82430933501E+03  0.41241988966E+02 -0.13065985818E+04  0.15529901121E+04  0.15294330000E+03 0.  0.
<mgrwt>
<rscale>  0 0.99705428E+03</rscale>
<asrwt>0</asrwt>
<pdfrwt beam="1">  1        2 0.43784774E+00 0.10559342E+04</pdfrwt>
<pdfrwt beam="2">  1       -2 0.49234240E-01 0.10559342E+04</pdfrwt>
<totfact> 0.85703875E+00</totfact>
</mgrwt>
</event>
<event>
 4    5  0.6615028E-008  0.6659326E+03  0.7818608E-02  0.1018764E+00
          2   -1    0    0  501    0  0.00000000000E+00  0.00000000000E+00  0.17429280945E+04  0.17429280945E+04  0.25500000000E-02 0. -1.
         -2   -1    0    0    0  501 -0.00000000000E+00 -0.00000000000E+00 -0.10773236120E+03  0.10773236123E+03  0.25500000000E-02 0.  1.
    8880023    1    1    2    0    0  0.46318633949E+02 -0.86663543826E+02  0.14238793377E+04  0.15719092087E+04  0.65864270000E+03 0. -1.
    8880022    1    1    2    0    0 -0.46318633949E+02  0.86663543826E+02  0.21131639557E+03  0.27875124705E+03  0.15294330000E+03 0.  1.
<mgrwt>
<rscale>  0 0.48135473E+03</rscale>
<asrwt>0</asrwt>
<pdfrwt beam="1">  1        2 0.26814281E+00 0.66593257E+03</pdfrwt>
<pdfrwt beam="2">  1       -2 0.16574208E-01 0.66593257E+03</pdfrwt>
<totfact> 0.28111616E+02</totfact>
</mgrwt>
</event>
<event>
 4    5  0.6615028E-008  0.9241384E+03  0.7818608E-02  0.9488343E-01
         -2   -1    0    0    0  501 -0.00000000000E+00  0.00000000000E+00  0.59877652625E+03  0.59877652625E+03  0.25500000000E-02 0.  1.
          2   -1    0    0  501    0  0.00000000000E+00 -0.00000000000E+00 -0.14724227893E+04  0.14724227893E+04  0.25500000000E-02 0. -1.
    8880023    1    1    2    0    0  0.64822911212E+03  0.45332616737E+01 -0.10333205802E+04  0.13862839392E+04  0.65864270000E+03 0.  0.
    8880022    1    1    2    0    0 -0.64822911212E+03 -0.45332616737E+01  0.15967431713E+03  0.68491537640E+03  0.15294330000E+03 0.  0.
<mgrwt>
<rscale>  0 0.85148756E+03</rscale>
<asrwt>0</asrwt>
<pdfrwt beam="1">  1        2 0.22652658E+00 0.92413838E+03</pdfrwt>
<pdfrwt beam="2">  1       -2 0.92119466E-01 0.92413838E+03</pdfrwt>
<totfact> 0.13222438E+01</totfact>
</mgrwt>
</event>
<event>
 4    5  0.6615028E-008  0.8034186E+03  0.7818608E-02  0.9703453E-01
          2   -1    0    0  501    0  0.00000000000E+00  0.00000000000E+00  0.44954628657E+03  0.44954628658E+03  0.25500000000E-02 0. -1.
         -2   -1    0    0    0  501 -0.00000000000E+00 -0.00000000000E+00 -0.13368428204E+04  0.13368428204E+04  0.25500000000E-02 0.  1.
    8880023    1    1    2    0    0 -0.42379621073E+03 -0.17907536765E+03 -0.10057942626E+04  0.12872853299E+04  0.65864270000E+03 0.  0.
    8880022    1    1    2    0    0  0.42379621073E+03  0.17907536765E+03  0.11849772884E+03  0.49910377706E+03  0.15294330000E+03 0.  0.
<mgrwt>
<rscale>  0 0.70811600E+03</rscale>
<asrwt>0</asrwt>
<pdfrwt beam="1">  1        2 0.69160968E-01 0.80341858E+03</pdfrwt>
<pdfrwt beam="2">  1       -2 0.20566812E+00 0.80341858E+03</pdfrwt>
<totfact> 0.86248987E+00</totfact>
</mgrwt>
</event>
<event>
 4    5  0.6615028E-008  0.1093587E+04  0.7818608E-02  0.9268230E-01
         -2   -1    0    0    0  501 -0.00000000000E+00  0.00000000000E+00  0.17638971995E+04  0.17638971995E+04  0.25500000000E-02 0.  1.
          2   -1    0    0  501    0  0.00000000000E+00 -0.00000000000E+00 -0.86512087161E+03  0.86512087161E+03  0.25500000000E-02 0. -1.
    8880023    1    1    2    0    0 -0.87266299429E+03  0.24100700925E+02 -0.30392024366E+03  0.11350327159E+04  0.65864270000E+03 0. -1.
    8880022    1    1    2    0    0  0.87266299429E+03 -0.24100700925E+02  0.12026965716E+04  0.14939853553E+04  0.15294330000E+03 0.  0.
<mgrwt>
<rscale>  0 0.10376098E+04</rscale>
<asrwt>0</asrwt>
<pdfrwt beam="1">  1        2 0.13309552E+00 0.10935866E+04</pdfrwt>
<pdfrwt beam="2">  1       -2 0.27136880E+00 0.10935866E+04</pdfrwt>
<totfact> 0.14562816E+00</totfact>
</mgrwt>
</event>
<event>
 4    5  0.6615028E-008  0.1278497E+04  0.7818608E-02  0.9084355E-01
          2   -1    0    0  501    0  0.00000000000E+00  0.00000000000E+00  0.17750810387E+04  0.17750810387E+04  0.25500000000E-02 0. -1.
         -2   -1    0    0    0  501 -0.00000000000E+00 -0.00000000000E+00 -0.85044418177E+03  0.85044418177E+03  0.25500000000E-02 0.  1.
    8880023    1    1    2    0    0  0.10917247097E+04  0.94236901449E+02  0.17816513781E+03  0.12908510596E+04  0.65864270000E+03 0.  0.
    8880022    1    1    2    0    0 -0.10917247097E+04 -0.94236901449E+02  0.74647171914E+03  0.13346741609E+04  0.15294330000E+03 0.  0.
<mgrwt>
<rscale>  0 0.12331144E+04</rscale>
<asrwt>0</asrwt>
<pdfrwt beam="1">  1        2 0.27308939E+00 0.12784966E+04</pdfrwt>
<pdfrwt beam="2">  1       -2 0.13083757E+00 0.12784966E+04</pdfrwt>
<totfact> 0.36795254E+00</totfact>
</mgrwt>
</event>
<event>
 4    5  0.6615028E-008  0.8497207E+03  0.7818608E-02  0.9612116E-01
         -2   -1    0    0    0  501 -0.00000000000E+00  0.00000000000E+00  0.71462909322E+03  0.71462909322E+03  0.25500000000E-02 0.  1.
          2   -1    0    0  501    0  0.00000000000E+00 -0.00000000000E+00 -0.16681332423E+04  0.16681332423E+04  0.25500000000E-02 0. -1.
    8880023    1    1    2    0    0 -0.52274114903E+03 -0.12229812954E+03 -0.14203100153E+04  0.16550848581E+04  0.65864270000E+03 0.  0.
    8880022    1    1    2    0    0  0.52274114903E+03  0.12229812954E+03  0.46680586629E+03  0.72767747746E+03  0.15294330000E+03 0.  1.
<mgrwt>
<rscale>  0 0.76499400E+03</rscale>
<asrwt>0</asrwt>
<pdfrwt beam="1">  1        2 0.25663588E+00 0.84972075E+03</pdfrwt>
<pdfrwt beam="2">  1       -2 0.10994294E+00 0.84972075E+03</pdfrwt>
<totfact> 0.68155579E+00</totfact>
</mgrwt>
</event>
<event>
 4    5  0.6615028E-008  0.7042317E+03  0.7818608E-02  0.9980079E-01
         -2   -1    0    0    0  501 -0.00000000000E+00  0.00000000000E+00  0.13235695876E+03  0.13235695879E+03  0.25500000000E-02 0.  1.
          2   -1    0    0  501    0  0.00000000000E+00 -0.00000000000E+00 -0.43084083465E+04  0.43084083465E+04  0.25500000000E-02 0. -1.
    8880023    1    1    2    0    0 -0.17068558293E+03  0.18165487614E+03 -0.40687681650E+04  0.41292634511E+04  0.65864270000E+03 0. -1.
    8880022    1    1    2    0    0  0.17068558293E+03 -0.18165487614E+03 -0.10728322276E+03  0.31150185416E+03  0.15294330000E+03 0.  0.
<mgrwt>
<rscale>  0 0.56532409E+03</rscale>
<asrwt>0</asrwt>
<pdfrwt beam="1">  1        2 0.66283195E+00 0.70423169E+03</pdfrwt>
<pdfrwt beam="2">  1       -2 0.20362612E-01 0.70423169E+03</pdfrwt>
<totfact> 0.43647534E+00</totfact>
</mgrwt>
</event>
<event>
 4    5  0.6615028E-008  0.8660558E+03  0.7818608E-02  0.9582881E-01
         -2   -1    0    0    0  501 -0.00000000000E+00  0.00000000000E+00  0.12475393767E+04  0.12475393767E+04  0.25500000000E-02 0.  1.
          2   -1    0    0  501    0  0.00000000000E+00 -0.00000000000E+00 -0.18694834718E+04  0.18694834718E+04  0.25500000000E-02 0. -1.
    8880023    1    1    2    0    0  0.10472882091E+03 -0.55251634563E+03 -0.16907511405E+04  0.18996557750E+04  0.65864270000E+03 0.  0.
    8880022    1    1    2    0    0 -0.10472882091E+03  0.55251634563E+03  0.10688070455E+04  0.12173670735E+04  0.15294330000E+03 0.  0.
<mgrwt>
<rscale>  0 0.78439680E+03</rscale>
<asrwt>0</asrwt>
<pdfrwt beam="1">  1        2 0.28761284E+00 0.86605580E+03</pdfrwt>
<pdfrwt beam="2">  1       -2 0.19192913E+00 0.86605580E+03</pdfrwt>
<totfact> 0.12087918E+00</totfact>
</mgrwt>
</event>
<event>
 4    5  0.6615028E-008  0.1403517E+04  0.7818608E-02  0.8980955E-01
          2   -1    0    0  501    0  0.00000000000E+00  0.00000000000E+00  0.22308487270E+04  0.22308487270E+04  0.25500000000E-02 0. -1.
         -2   -1    0    0    0  501 -0.00000000000E+00 -0.00000000000E+00 -0.95487216206E+03  0.95487216206E+03  0.25500000000E-02 0.  1.
    8880023    1    1    2    0    0 -0.68541369681E+03 -0.10325973875E+04  0.13329889442E+04  0.19356443454E+04  0.65864270000E+03 0.  0.
    8880022    1    1    2    0    0  0.68541369681E+03  0.10325973875E+04 -0.57012379293E+02  0.12500765436E+04  0.15294330000E+03 0.  0.
<mgrwt>
<rscale>  0 0.13631208E+04</rscale>
<asrwt>0</asrwt>
<pdfrwt beam="1">  1        2 0.34320749E+00 0.14035168E+04</pdfrwt>
<pdfrwt beam="2">  1       -2 0.14690341E+00 0.14035168E+04</pdfrwt>
<totfact> 0.14981945E+00</totfact>
</mgrwt>
</event>
<event>
 4    5  0.6615028E-008  0.7652940E+03  0.7818608E-02  0.9791590E-01
         -2   -1    0    0    0  501 -0.00000000000E+00  0.00000000000E+00  0.25373443343E+03  0.25373443344E+03  0.25500000000E-02 0.  1.
          2   -1    0    0  501    0  0.00000000000E+00 -0.00000000000E+00 -0.17090181602E+04  0.17090181603E+04  0.25500000000E-02 0. -1.
    8880023    1    1    2    0    0 -0.37417175142E+03  0.10890453873E+03 -0.13145561952E+04  0.15210959518E+04  0.65864270000E+03 0.  0.
    8880022    1    1    2    0    0  0.37417175142E+03 -0.10890453873E+03 -0.14072753162E+03  0.44165664185E+03  0.15294330000E+03 0.  0.
<mgrwt>
<rscale>  0 0.65815843E+03</rscale>
<asrwt>0</asrwt>
<pdfrwt beam="1">  1        2 0.26292586E+00 0.76529400E+03</pdfrwt>
<pdfrwt beam="2">  1       -2 0.39036068E-01 0.76529400E+03</pdfrwt>
<totfact> 0.61470181E+01</totfact>
</mgrwt>
</event>
<event>
 4    5  0.6615028E-008  0.1087883E+04  0.7818608E-02  0.9274668E-01
         -2   -1    0    0    0  501 -0.00000000000E+00  0.00000000000E+00  0.94272591322E+03  0.94272591322E+03  0.25500000000E-02 0.  1.
          2   -1    0    0  501    0  0.00000000000E+00 -0.00000000000E+00 -0.11361222770E+04  0.11361222770E+04  0.25500000000E-02 0. -1.
    8880023    1    1    2    0    0  0.92243690378E+02  0.86091277537E+03  0.21574677033E+03  0.11090701422E+04  0.65864270000E+03 0.  1.
    8880022    1    1    2    0    0 -0.92243690378E+02 -0.86091277537E+03 -0.40914313415E+03  0.96977804804E+03  0.15294330000E+03 0. -1.
<mgrwt>
<rscale>  0 0.10314879E+04</rscale>
<asrwt>0</asrwt>
<pdfrwt beam="1">  1        2 0.17478804E+00 0.10878832E+04</pdfrwt>
<pdfrwt beam="2">  1       -2 0.14503476E+00 0.10878832E+04</pdfrwt>
<totfact> 0.66654632E+00</totfact>
</mgrwt>
</event>
<event>
 4    5  0.6615028E-008  0.6701118E+03  0.7818608E-02  0.1015583E+00
          2   -1    0    0  501    0  0.00000000000E+00  0.00000000000E+00  0.25044726879E+04  0.25044726879E+04  0.25500000000E-02 0. -1.
         -2   -1    0    0    0  501 -0.00000000000E+00 -0.00000000000E+00 -0.20369113544E+03  0.20369113546E+03  0.25500000000E-02 0.  1.
    8880023    1    1    2    0    0  0.53450214108E+02 -0.11127773669E+03  0.23972995869E+04  0.24891956885E+04  0.65864270000E+03 0. -1.
    8880022    1    1    2    0    0 -0.53450214108E+02  0.11127773669E+03 -0.96518034480E+02  0.21896813482E+03  0.15294330000E+03 0.  0.
<mgrwt>
<rscale>  0 0.49314871E+03</rscale>
<asrwt>0</asrwt>
<pdfrwt beam="1">  1        2 0.38530352E+00 0.67011183E+03</pdfrwt>
<pdfrwt beam="2">  1       -2 0.31337096E-01 0.67011183E+03</pdfrwt>
<totfact> 0.34505224E+01</totfact>
</mgrwt>
</event>
<event>
 4    5  0.6615028E-008  0.6799972E+03  0.7818608E-02  0.1009325E+00
         -2   -1    0    0    0  501 -0.00000000000E+00  0.00000000000E+00  0.74558546004E+03  0.74558546004E+03  0.25500000000E-02 0.  1.
          2   -1    0    0  501    0  0.00000000000E+00 -0.00000000000E+00 -0.31816292542E+04  0.31816292542E+04  0.25500000000E-02 0. -1.
    8880023    1    1    2    0    0  0.16790451396E+03 -0.19851368544E+02 -0.31267587396E+04  0.31998463127E+04  0.65864270000E+03 0. -1.
    8880022    1    1    2    0    0 -0.16790451396E+03  0.19851368544E+02  0.69071494549E+03  0.72736840155E+03  0.15294330000E+03 0.  0.
<mgrwt>
<rscale>  0 0.51743695E+03</rscale>
<asrwt>0</asrwt>
<pdfrwt beam="1">  1        2 0.48948142E+00 0.67999721E+03</pdfrwt>
<pdfrwt beam="2">  1       -2 0.11470546E+00 0.67999721E+03</pdfrwt>
<totfact> 0.86529494E-01</totfact>
</mgrwt>
</event>
<event>
 4    5  0.6615028E-008  0.1017272E+04  0.7818608E-02  0.9359301E-01
         -2   -1    0    0    0  501 -0.00000000000E+00  0.00000000000E+00  0.47796707101E+03  0.47796707102E+03  0.25500000000E-02 0.  1.
          2   -1    0    0  501    0  0.00000000000E+00 -0.00000000000E+00 -0.21795867166E+04  0.21795867166E+04  0.25500000000E-02 0. -1.
    8880023    1    1    2    0    0 -0.33720290105E+03 -0.69808819179E+03 -0.15483396213E+04  0.18526194183E+04  0.65864270000E+03 0. -1.
    8880022    1    1    2    0    0  0.33720290105E+03  0.69808819179E+03 -0.15328002429E+03  0.80493436929E+03  0.15294330000E+03 0.  0.
<mgrwt>
<rscale>  0 0.95502105E+03</rscale>
<asrwt>0</asrwt>
<pdfrwt beam="1">  1        2 0.33532103E+00 0.10172724E+04</pdfrwt>
<pdfrwt beam="2">  1       -2 0.73533397E-01 0.10172724E+04</pdfrwt>
<totfact> 0.88736305E+00</totfact>
</mgrwt>
</event>
<event>
 4    5  0.6615028E-008  0.8890050E+03  0.7818608E-02  0.9543918E-01
         -2   -1    0    0    0  501 -0.00000000000E+00  0.00000000000E+00  0.12582430177E+04  0.12582430177E+04  0.25500000000E-02 0.  1.
          2   -1    0    0  501    0  0.00000000000E+00 -0.00000000000E+00 -0.24179732865E+04  0.24179732865E+04  0.25500000000E-02 0. -1.
    8880023    1    1    2    0    0 -0.35228870354E+03 -0.48209162123E+03 -0.22525080505E+04  0.24215950087E+04  0.65864270000E+03 0.  0.
    8880022    1    1    2    0    0  0.35228870354E+03  0.48209162123E+03  0.10927777818E+04  0.12546212955E+04  0.15294330000E+03 0.  0.
<mgrwt>
<rscale>  0 0.81121958E+03</rscale>
<asrwt>0</asrwt>
<pdfrwt beam="1">  1        2 0.37199589E+00 0.88900499E+03</pdfrwt>
<pdfrwt beam="2">  1       -2 0.19357585E+00 0.88900499E+03</pdfrwt>
<totfact> 0.58359146E-01</totfact>
</mgrwt>
</event>
<event>
 4    5  0.6615028E-008  0.2232874E+04  0.7818608E-02  0.8514681E-01
          2   -1    0    0  501    0  0.00000000000E+00  0.00000000000E+00  0.20658715249E+04  0.20658715249E+04  0.25500000000E-02 0. -1.
         -2   -1    0    0    0  501 -0.00000000000E+00 -0.00000000000E+00 -0.26535236253E+04  0.26535236253E+04  0.25500000000E-02 0.  1.
    8880023    1    1    2    0    0  0.20035547536E+04 -0.73326893660E+03 -0.11444995194E+04  0.25091042904E+04  0.65864270000E+03 0.  0.
    8880022    1    1    2    0    0 -0.20035547536E+04  0.73326893660E+03  0.55684741898E+03  0.22102908598E+04  0.15294330000E+03 0.  0.
<mgrwt>
<rscale>  0 0.22090251E+04</rscale>
<asrwt>0</asrwt>
<pdfrwt beam="1">  1        2 0.31782639E+00 0.22328738E+04</pdfrwt>
<pdfrwt beam="2">  1       -2 0.40823441E+00 0.22328738E+04</pdfrwt>
<totfact> 0.34813975E-02</totfact>
</mgrwt>
</event>
<event>
 4    5  0.6615028E-008  0.7220984E+03  0.7818608E-02  0.9915549E-01
          2   -1    0    0  501    0  0.00000000000E+00  0.00000000000E+00  0.22694933328E+04  0.22694933328E+04  0.25500000000E-02 0. -1.
         -2   -1    0    0    0  501 -0.00000000000E+00 -0.00000000000E+00 -0.50935692540E+03  0.50935692541E+03  0.25500000000E-02 0.  1.
    8880023    1    1    2    0    0  0.27620365477E+03 -0.10643048139E+03  0.21488237365E+04  0.22669074889E+04  0.65864270000E+03 0. -1.
    8880022    1    1    2    0    0 -0.27620365477E+03  0.10643048139E+03 -0.38868732910E+03  0.51194276935E+03  0.15294330000E+03 0.  0.
<mgrwt>
<rscale>  0 0.59513619E+03</rscale>
<asrwt>0</asrwt>
<pdfrwt beam="1">  1        2 0.34915281E+00 0.72209841E+03</pdfrwt>
<pdfrwt beam="2">  1       -2 0.78362605E-01 0.72209841E+03</pdfrwt>
<totfact> 0.71570543E+00</totfact>
</mgrwt>
</event>
<event>
 4    5  0.6615028E-008  0.6623772E+03  0.7818608E-02  0.1021843E+00
         -2   -1    0    0    0  501 -0.00000000000E+00  0.00000000000E+00  0.19759798546E+03  0.19759798548E+03  0.25500000000E-02 0.  1.
          2   -1    0    0  501    0  0.00000000000E+00 -0.00000000000E+00 -0.15634734165E+04  0.15634734165E+04  0.25500000000E-02 0. -1.
    8880023    1    1    2    0    0  0.69621858163E+02 -0.92822810253E+01 -0.14339358017E+04  0.15795301369E+04  0.65864270000E+03 0. -1.
    8880022    1    1    2    0    0 -0.69621858163E+02  0.92822810253E+01  0.68060370592E+02  0.18154126510E+03  0.15294330000E+03 0.  0.
<mgrwt>
<rscale>  0 0.47027329E+03</rscale>
<asrwt>0</asrwt>
<pdfrwt beam="1">  1        2 0.24053436E+00 0.66237721E+03</pdfrwt>
<pdfrwt beam="2">  1       -2 0.30399691E-01 0.66237721E+03</pdfrwt>
<totfact> 0.12002341E+02</totfact>
</mgrwt>
</event>
<event>
 4    5  0.6615028E-008  0.9916814E+03  0.7818608E-02  0.9392523E-01
         -2   -1    0    0    0  501 -0.00000000000E+00  0.00000000000E+00  0.11964201189E+04  0.11964201189E+04  0.25500000000E-02 0.  1.
          2   -1    0    0  501    0  0.00000000000E+00 -0.00000000000E+00 -0.64588884680E+03  0.64588884681E+03  0.25500000000E-02 0. -1.
    8880023    1    1    2    0    0  0.91737996763E+02  0.73566701367E+03  0.21718426721E+03  0.10151852182E+04  0.65864270000E+03 0.  0.
    8880022    1    1    2    0    0 -0.91737996763E+02 -0.73566701367E+03  0.33334700492E+03  0.82712374754E+03  0.15294330000E+03 0. -1.
<mgrwt>
<rscale>  0 0.92693597E+03</rscale>
<asrwt>0</asrwt>
<pdfrwt beam="1">  1        2 0.99367516E-01 0.99168141E+03</pdfrwt>
<pdfrwt beam="2">  1       -2 0.18406463E+00 0.99168141E+03</pdfrwt>
<totfact> 0.76586336E+00</totfact>
</mgrwt>
</event>
<event>
 4    5  0.6615028E-008  0.9635395E+03  0.7818608E-02  0.9430896E-01
          2   -1    0    0  501    0  0.00000000000E+00  0.00000000000E+00  0.64093912336E+03  0.64093912336E+03  0.25500000000E-02 0. -1.
         -2   -1    0    0    0  501 -0.00000000000E+00 -0.00000000000E+00 -0.23794300580E+04  0.23794300580E+04  0.25500000000E-02 0.  1.
    8880023    1    1    2    0    0  0.66644219502E+03  0.22461746943E+03  0.17203485626E+03  0.97877699447E+03  0.65864270000E+03 0. -1.
    8880022    1    1    2    0    0 -0.66644219502E+03 -0.22461746943E+03 -0.19105257909E+04  0.20415921869E+04  0.15294330000E+03 0.  0.
<mgrwt>
<rscale>  0 0.89576132E+03</rscale>
<asrwt>0</asrwt>
<pdfrwt beam="1">  1        2 0.98606020E-01 0.96353952E+03</pdfrwt>
<pdfrwt beam="2">  1       -2 0.36606616E+00 0.96353952E+03</pdfrwt>
<totfact> 0.57455719E-01</totfact>
</mgrwt>
</event>
<event>
 4    5  0.6615028E-008  0.1086145E+04  0.7818608E-02  0.9276641E-01
          2   -1    0    0  501    0  0.00000000000E+00  0.00000000000E+00  0.10853107863E+04  0.10853107863E+04  0.25500000000E-02 0. -1.
         -2   -1    0    0    0  501 -0.00000000000E+00 -0.00000000000E+00 -0.10235538789E+04  0.10235538789E+04  0.25500000000E-02 0.  1.
    8880023    1    1    2    0    0 -0.86357572391E+03 -0.11725314445E+02  0.41579695311E+03  0.11630123931E+04  0.65864270000E+03 0.  0.
    8880022    1    1    2    0    0  0.86357572391E+03  0.11725314445E+02 -0.35404004571E+03  0.94585227224E+03  0.15294330000E+03 0.  0.
<mgrwt>
<rscale>  0 0.10296206E+04</rscale>
<asrwt>0</asrwt>
<pdfrwt beam="1">  1        2 0.16697089E+00 0.10861449E+04</pdfrwt>
<pdfrwt beam="2">  1       -2 0.15746983E+00 0.10861449E+04</pdfrwt>
<totfact> 0.57525188E+00</totfact>
</mgrwt>
</event>
<event>
 4    5  0.6615028E-008  0.1134523E+04  0.7818608E-02  0.9223559E-01
          2   -1    0    0  501    0  0.00000000000E+00  0.00000000000E+00  0.26611627012E+04  0.26611627012E+04  0.25500000000E-02 0. -1.
         -2   -1    0    0    0  501 -0.00000000000E+00 -0.00000000000E+00 -0.89240233111E+03  0.89240233112E+03  0.25500000000E-02 0.  1.
    8880023    1    1    2    0    0  0.78068731823E+03 -0.49382057276E+03  0.22358271278E+04  0.25072025444E+04  0.65864270000E+03 0. -1.
    8880022    1    1    2    0    0 -0.78068731823E+03  0.49382057276E+03 -0.46706675773E+03  0.10463624879E+04  0.15294330000E+03 0.  0.
<mgrwt>
<rscale>  0 0.10813535E+04</rscale>
<asrwt>0</asrwt>
<pdfrwt beam="1">  1        2 0.40940964E+00 0.11345227E+04</pdfrwt>
<pdfrwt beam="2">  1       -2 0.13729267E+00 0.11345227E+04</pdfrwt>
<totfact> 0.10470425E+00</totfact>
</mgrwt>
</event>
<event>
 4    5  0.6615028E-008  0.1532615E+04  0.7818608E-02  0.8886942E-01
         -2   -1    0    0    0  501 -0.00000000000E+00  0.00000000000E+00  0.11448467647E+04  0.11448467647E+04  0.25500000000E-02 0.  1.
          2   -1    0    0  501    0  0.00000000000E+00 -0.00000000000E+00 -0.23446334870E+04  0.23446334870E+04  0.25500000000E-02 0. -1.
    8880023    1    1    2    0    0 -0.50941036447E+03 -0.12867006590E+04 -0.14086140140E+04  0.20816102306E+04  0.65864270000E+03 0. -1.
    8880022    1    1    2    0    0  0.50941036447E+03  0.12867006590E+04  0.20882729171E+03  0.14078700211E+04  0.15294330000E+03 0.  0.
<mgrwt>
<rscale>  0 0.14962620E+04</rscale>
<asrwt>0</asrwt>
<pdfrwt beam="1">  1        2 0.36071284E+00 0.15326147E+04</pdfrwt>
<pdfrwt beam="2">  1       -2 0.17613027E+00 0.15326147E+04</pdfrwt>
<totfact> 0.77395984E-01</totfact>
</mgrwt>
</event>
<event>
 4    5  0.6615028E-008  0.1082247E+04  0.7818608E-02  0.9281084E-01
         -2   -1    0    0    0  501 -0.00000000000E+00  0.00000000000E+00  0.79901621424E+03  0.79901621424E+03  0.25500000000E-02 0.  1.
          2   -1    0    0  501    0  0.00000000000E+00 -0.00000000000E+00 -0.28978503519E+04  0.28978503519E+04  0.25500000000E-02 0. -1.
    8880023    1    1    2    0    0  0.35240799388E+03  0.78310707430E+03 -0.25093872967E+04  0.27328159277E+04  0.65864270000E+03 0.  0.
    8880022    1    1    2    0    0 -0.35240799388E+03 -0.78310707430E+03  0.41055315902E+03  0.96405063838E+03  0.15294330000E+03 0.  0.
<mgrwt>
<rscale>  0 0.10254309E+04</rscale>
<asrwt>0</asrwt>
<pdfrwt beam="1">  1        2 0.44582313E+00 0.10822469E+04</pdfrwt>
<pdfrwt beam="2">  1       -2 0.12292557E+00 0.10822469E+04</pdfrwt>
<totfact> 0.10101123E+00</totfact>
</mgrwt>
</event>
<event>
 4    5  0.6615028E-008  0.1196066E+04  0.7818608E-02  0.9160956E-01
          2   -1    0    0  501    0  0.00000000000E+00  0.00000000000E+00  0.18526481283E+04  0.18526481283E+04  0.25500000000E-02 0. -1.
         -2   -1    0    0    0  501 -0.00000000000E+00 -0.00000000000E+00 -0.77653134480E+03  0.77653134480E+03  0.25500000000E-02 0.  1.
    8880023    1    1    2    0    0 -0.75352061560E+03  0.65495913606E+03  0.10911975696E+04  0.16190389526E+04  0.65864270000E+03 0.  0.
    8880022    1    1    2    0    0  0.75352061560E+03 -0.65495913606E+03 -0.15080786039E+02  0.10101405205E+04  0.15294330000E+03 0.  0.
<mgrwt>
<rscale>  0 0.11465680E+04</rscale>
<asrwt>0</asrwt>
<pdfrwt beam="1">  1        2 0.28502279E+00 0.11960665E+04</pdfrwt>
<pdfrwt beam="2">  1       -2 0.11946636E+00 0.11960665E+04</pdfrwt>
<totfact> 0.42276408E+00</totfact>
</mgrwt>
</event>
<event>
 4    5  0.6615028E-008  0.7859247E+03  0.7818608E-02  0.9742099E-01
          2   -1    0    0  501    0  0.00000000000E+00  0.00000000000E+00  0.34409795994E+04  0.34409795994E+04  0.25500000000E-02 0. -1.
         -2   -1    0    0    0  501 -0.00000000000E+00 -0.00000000000E+00 -0.17584060319E+03  0.17584060321E+03  0.25500000000E-02 0.  1.
    8880023    1    1    2    0    0 -0.35911048077E+03  0.23432258625E+03  0.29747855223E+04  0.30768533474E+04  0.65864270000E+03 0. -1.
    8880022    1    1    2    0    0  0.35911048077E+03 -0.23432258625E+03  0.29035347391E+03  0.53996685515E+03  0.15294330000E+03 0.  0.
<mgrwt>
<rscale>  0 0.68564591E+03</rscale>
<asrwt>0</asrwt>
<pdfrwt beam="1">  1        2 0.52938147E+00 0.78592469E+03</pdfrwt>
<pdfrwt beam="2">  1       -2 0.27052401E-01 0.78592469E+03</pdfrwt>
<totfact> 0.11865931E+01</totfact>
</mgrwt>
</event>
<event>
 4    5  0.6615028E-008  0.1596029E+04  0.7818608E-02  0.8844643E-01
         -2   -1    0    0    0  501 -0.00000000000E+00  0.00000000000E+00  0.18876396577E+04  0.18876396577E+04  0.25500000000E-02 0.  1.
          2   -1    0    0  501    0  0.00000000000E+00 -0.00000000000E+00 -0.28571704913E+04  0.28571704913E+04  0.25500000000E-02 0. -1.
    8880023    1    1    2    0    0  0.14518265911E+04 -0.75487740543E+02 -0.22789788445E+04  0.27822749019E+04  0.65864270000E+03 0.  0.
    8880022    1    1    2    0    0 -0.14518265911E+04  0.75487740543E+02  0.13094480109E+04  0.19625352471E+04  0.15294330000E+03 0.  0.
<mgrwt>
<rscale>  0 0.15613613E+04</rscale>
<asrwt>0</asrwt>
<pdfrwt beam="1">  1        2 0.43956469E+00 0.15960292E+04</pdfrwt>
<pdfrwt beam="2">  1       -2 0.29040610E+00 0.15960292E+04</pdfrwt>
<totfact> 0.72046486E-02</totfact>
</mgrwt>
</event>
<event>
 4    5  0.6615028E-008  0.1138198E+04  0.7818608E-02  0.9219673E-01
         -2   -1    0    0    0  501 -0.00000000000E+00  0.00000000000E+00  0.14340200640E+04  0.14340200640E+04  0.25500000000E-02 0.  1.
          2   -1    0    0  501    0  0.00000000000E+00 -0.00000000000E+00 -0.10106830398E+04  0.10106830398E+04  0.25500000000E-02 0. -1.
    8880023    1    1    2    0    0  0.87764608100E+03 -0.30236088101E+03 -0.38787236369E+03  0.12024724207E+04  0.65864270000E+03 0.  0.
    8880022    1    1    2    0    0 -0.87764608100E+03  0.30236088101E+03  0.81120938788E+03  0.12422306830E+04  0.15294330000E+03 0.  0.
<mgrwt>
<rscale>  0 0.10852655E+04</rscale>
<asrwt>0</asrwt>
<pdfrwt beam="1">  1        2 0.15548970E+00 0.11381981E+04</pdfrwt>
<pdfrwt beam="2">  1       -2 0.22061847E+00 0.11381981E+04</pdfrwt>
<totfact> 0.23770174E+00</totfact>
</mgrwt>
</event>
<event>
 4    5  0.6615028E-008  0.7402938E+03  0.7818608E-02  0.9859092E-01
         -2   -1    0    0    0  501 -0.00000000000E+00  0.00000000000E+00  0.31200533668E+03  0.31200533669E+03  0.25500000000E-02 0.  1.
          2   -1    0    0  501    0  0.00000000000E+00 -0.00000000000E+00 -0.14984310421E+04  0.14984310421E+04  0.25500000000E-02 0. -1.
    8880023    1    1    2    0    0 -0.42648061204E+02  0.33526974412E+03 -0.12313570551E+04  0.14367585260E+04  0.65864270000E+03 0. -1.
    8880022    1    1    2    0    0  0.42648061204E+02 -0.33526974412E+03  0.44931349759E+02  0.37367785277E+03  0.15294330000E+03 0.  0.
<mgrwt>
<rscale>  0 0.62285479E+03</rscale>
<asrwt>0</asrwt>
<pdfrwt beam="1">  1        2 0.23052785E+00 0.74029377E+03</pdfrwt>
<pdfrwt beam="2">  1       -2 0.48000822E-01 0.74029377E+03</pdfrwt>
<totfact> 0.53477009E+01</totfact>
</mgrwt>
</event>
<event>
 4    5  0.6615028E-008  0.7019522E+03  0.7818608E-02  0.9989197E-01
          2   -1    0    0  501    0  0.00000000000E+00  0.00000000000E+00  0.11631658469E+04  0.11631658469E+04  0.25500000000E-02 0. -1.
         -2   -1    0    0    0  501 -0.00000000000E+00 -0.00000000000E+00 -0.57045616805E+03  0.57045616806E+03  0.25500000000E-02 0.  1.
    8880023    1    1    2    0    0  0.24183092595E+03 -0.21083499686E+02  0.10083210792E+04  0.12285960751E+04  0.65864270000E+03 0. -1.
    8880022    1    1    2    0    0 -0.24183092595E+03  0.21083499686E+02 -0.41561140042E+03  0.50502593981E+03  0.15294330000E+03 0.  0.
<mgrwt>
<rscale>  0 0.56126473E+03</rscale>
<asrwt>0</asrwt>
<pdfrwt beam="1">  1        2 0.17894859E+00 0.70195222E+03</pdfrwt>
<pdfrwt beam="2">  1       -2 0.87762489E-01 0.70195222E+03</pdfrwt>
<totfact> 0.22856940E+01</totfact>
</mgrwt>
</event>
<event>
 4    5  0.6615028E-008  0.1111125E+04  0.7818608E-02  0.9248770E-01
         -2   -1    0    0    0  501 -0.00000000000E+00  0.00000000000E+00  0.13518102859E+04  0.13518102859E+04  0.25500000000E-02 0.  1.
          2   -1    0    0  501    0  0.00000000000E+00 -0.00000000000E+00 -0.22135134340E+04  0.22135134340E+04  0.25500000000E-02 0. -1.
    8880023    1    1    2    0    0  0.89379659809E+03 -0.43777988322E+02 -0.18907445088E+04  0.21930603902E+04  0.65864270000E+03 0.  0.
    8880022    1    1    2    0    0 -0.89379659809E+03  0.43777988322E+02  0.10290413608E+04  0.13722633298E+04  0.15294330000E+03 0.  0.
<mgrwt>
<rscale>  0 0.10563918E+04</rscale>
<asrwt>0</asrwt>
<pdfrwt beam="1">  1        2 0.34054053E+00 0.11111251E+04</pdfrwt>
<pdfrwt beam="2">  1       -2 0.20797081E+00 0.11111251E+04</pdfrwt>
<totfact> 0.58991890E-01</totfact>
</mgrwt>
</event>
<event>
 4    5  0.6615028E-008  0.8818395E+03  0.7818608E-02  0.9555837E-01
          2   -1    0    0  501    0  0.00000000000E+00  0.00000000000E+00  0.16478557595E+04  0.16478557595E+04  0.25500000000E-02 0. -1.
         -2   -1    0    0    0  501 -0.00000000000E+00 -0.00000000000E+00 -0.19171718698E+04  0.19171718698E+04  0.25500000000E-02 0.  1.
    8880023    1    1    2    0    0  0.41990972265E+03 -0.40927563194E+03  0.14749666261E+04  0.17184782432E+04  0.65864270000E+03 0. -1.
    8880022    1    1    2    0    0 -0.41990972265E+03  0.40927563194E+03 -0.17442827364E+04  0.18465493861E+04  0.15294330000E+03 0.  0.
<mgrwt>
<rscale>  0 0.80289417E+03</rscale>
<asrwt>0</asrwt>
<pdfrwt beam="1">  1        2 0.25351627E+00 0.88183951E+03</pdfrwt>
<pdfrwt beam="2">  1       -2 0.29494952E+00 0.88183951E+03</pdfrwt>
<totfact> 0.36768027E-01</totfact>
</mgrwt>
</event>
<event>
 4    5  0.6615028E-008  0.7250701E+03  0.7818608E-02  0.9905789E-01
          2   -1    0    0  501    0  0.00000000000E+00  0.00000000000E+00  0.14437017222E+04  0.14437017222E+04  0.25500000000E-02 0. -1.
         -2   -1    0    0    0  501 -0.00000000000E+00 -0.00000000000E+00 -0.73655897877E+03  0.73655897878E+03  0.25500000000E-02 0.  1.
    8880023    1    1    2    0    0 -0.21697727648E+03 -0.21174836711E+03  0.13048843192E+04  0.14927993175E+04  0.65864270000E+03 0. -1.
    8880022    1    1    2    0    0  0.21697727648E+03  0.21174836711E+03 -0.59774157574E+03  0.68746138354E+03  0.15294330000E+03 0.  0.
<mgrwt>
<rscale>  0 0.59981528E+03</rscale>
<asrwt>0</asrwt>
<pdfrwt beam="1">  1        2 0.22210795E+00 0.72507015E+03</pdfrwt>
<pdfrwt beam="2">  1       -2 0.11331677E+00 0.72507015E+03</pdfrwt>
<totfact> 0.85798749E+00</totfact>
</mgrwt>
</event>
<event>
 4    5  0.6615028E-008  0.1220539E+04  0.7818608E-02  0.9137411E-01
          2   -1    0    0  501    0  0.00000000000E+00  0.00000000000E+00  0.37711472556E+04  0.37711472556E+04  0.25500000000E-02 0. -1.
         -2   -1    0    0    0  501 -0.00000000000E+00 -0.00000000000E+00 -0.37852063797E+03  0.37852063798E+03  0.25500000000E-02 0.  1.
    8880023    1    1    2    0    0  0.58110609395E+03 -0.84747883957E+03  0.24915604153E+04  0.27744527723E+04  0.65864270000E+03 0. -1.
    8880022    1    1    2    0    0 -0.58110609395E+03  0.84747883957E+03  0.90106620224E+03  0.13752151213E+04  0.15294330000E+03 0.  0.
<mgrwt>
<rscale>  0 0.11723473E+04</rscale>
<asrwt>0</asrwt>
<pdfrwt beam="1">  1        2 0.58017650E+00 0.12205388E+04</pdfrwt>
<pdfrwt beam="2">  1       -2 0.58233944E-01 0.12205388E+04</pdfrwt>
<totfact> 0.14397485E+00</totfact>
</mgrwt>
</event>
<event>
 4    5  0.1785942E-007  0.1729283E+04  0.7818608E-02  0.8762697E-01
         -2   -1    0    0    0  501 -0.00000000000E+00  0.00000000000E+00  0.47855068456E+04  0.47855068456E+04  0.25500000000E-02 0.  1.
          2   -1    0    0  501    0  0.00000000000E+00 -0.00000000000E+00 -0.25482308985E+04  0.25482308985E+04  0.25500000000E-02 0. -1.
    8880023    1    1    2    0    0 -0.72107119315E+03 -0.14271184291E+04 -0.20931083596E+04  0.27150549695E+04  0.65864270000E+03 0.  0.
    8880022    1    1    2    0    0  0.72107119315E+03  0.14271184291E+04  0.43303843067E+04  0.46186827747E+04  0.15294330000E+03 0.  0.
<mgrwt>
<rscale>  0 0.16976655E+04</rscale>
<asrwt>0</asrwt>
<pdfrwt beam="1">  1        2 0.39203552E+00 0.17292833E+04</pdfrwt>
<pdfrwt beam="2">  1       -2 0.73623182E+00 0.17292833E+04</pdfrwt>
<totfact> 0.48543875E-04</totfact>
</mgrwt>
</event>
<event>
 4    5  0.6615028E-008  0.6710343E+03  0.7818608E-02  0.1014932E+00
          2   -1    0    0  501    0  0.00000000000E+00  0.00000000000E+00  0.99432307682E+03  0.99432307683E+03  0.25500000000E-02 0. -1.
         -2   -1    0    0    0  501 -0.00000000000E+00 -0.00000000000E+00 -0.27296896645E+03  0.27296896647E+03  0.25500000000E-02 0.  1.
    8880023    1    1    2    0    0  0.11044589165E+03 -0.65410327360E+02  0.80741848036E+03  0.10498626646E+04  0.65864270000E+03 0. -1.
    8880022    1    1    2    0    0 -0.11044589165E+03  0.65410327360E+02 -0.86064369986E+02  0.21742937866E+03  0.15294330000E+03 0.  0.
<mgrwt>
<rscale>  0 0.49560675E+03</rscale>
<asrwt>0</asrwt>
<pdfrwt beam="1">  1        2 0.15297278E+00 0.67103429E+03</pdfrwt>
<pdfrwt beam="2">  1       -2 0.41995225E-01 0.67103429E+03</pdfrwt>
<totfact> 0.13891400E+02</totfact>
</mgrwt>
</event>
<event>
 4    5  0.6615028E-008  0.7441787E+03  0.7818608E-02  0.9847938E-01
          2   -1    0    0  501    0  0.00000000000E+00  0.00000000000E+00  0.39743077512E+04  0.39743077512E+04  0.25500000000E-02 0. -1.
         -2   -1    0    0    0  501 -0.00000000000E+00 -0.00000000000E+00 -0.20866529709E+03  0.20866529711E+03  0.25500000000E-02 0.  1.
    8880023    1    1    2    0    0 -0.33386013815E+03  0.92353296761E+02  0.37290148822E+04  0.38025457158E+04  0.65864270000E+03 0. -1.
    8880022    1    1    2    0    0  0.33386013815E+03 -0.92353296761E+02  0.36627571959E+02  0.38042733250E+03  0.15294330000E+03 0.  0.
<mgrwt>
<rscale>  0 0.62852170E+03</rscale>
<asrwt>0</asrwt>
<pdfrwt beam="1">  1        2 0.61143198E+00 0.74417869E+03</pdfrwt>
<pdfrwt beam="2">  1       -2 0.32102352E-01 0.74417869E+03</pdfrwt>
<totfact> 0.35847027E+00</totfact>
</mgrwt>
</event>
<event>
 4    5  0.6615028E-008  0.6670826E+03  0.7818608E-02  0.1017847E+00
         -2   -1    0    0    0  501 -0.00000000000E+00  0.00000000000E+00  0.78693610275E+03  0.78693610275E+03  0.25500000000E-02 0.  1.
          2   -1    0    0  501    0  0.00000000000E+00 -0.00000000000E+00 -0.93142316967E+03  0.93142316968E+03  0.25500000000E-02 0. -1.
    8880023    1    1    2    0    0 -0.34320610989E+02  0.10005557898E+03 -0.79730939729E+03  0.10395679413E+04  0.65864270000E+03 0. -1.
    8880022    1    1    2    0    0  0.34320610989E+02 -0.10005557898E+03  0.65282233037E+03  0.67879133117E+03  0.15294330000E+03 0.  0.
<mgrwt>
<rscale>  0 0.48471773E+03</rscale>
<asrwt>0</asrwt>
<pdfrwt beam="1">  1        2 0.14329587E+00 0.66708263E+03</pdfrwt>
<pdfrwt beam="2">  1       -2 0.12106709E+00 0.66708263E+03</pdfrwt>
<totfact> 0.14883245E+01</totfact>
</mgrwt>
</event>
<event>
 4    5  0.6615028E-008  0.7995739E+03  0.7818608E-02  0.9711718E-01
         -2   -1    0    0    0  501 -0.00000000000E+00  0.00000000000E+00  0.57432488594E+03  0.57432488594E+03  0.25500000000E-02 0.  1.
          2   -1    0    0  501    0  0.00000000000E+00 -0.00000000000E+00 -0.23819194024E+04  0.23819194024E+04  0.25500000000E-02 0. -1.
    8880023    1    1    2    0    0 -0.86989746545E+02  0.44490569616E+03 -0.21978862959E+04  0.23388079593E+04  0.65864270000E+03 0. -1.
    8880022    1    1    2    0    0  0.86989746545E+02 -0.44490569616E+03  0.39029177936E+03  0.61743632913E+03  0.15294330000E+03 0.  0.
<mgrwt>
<rscale>  0 0.70323372E+03</rscale>
<asrwt>0</asrwt>
<pdfrwt beam="1">  1        2 0.36644913E+00 0.79957395E+03</pdfrwt>
<pdfrwt beam="2">  1       -2 0.88357676E-01 0.79957395E+03</pdfrwt>
<totfact> 0.46579552E+00</totfact>
</mgrwt>
</event>
<event>
 4    5  0.6615028E-008  0.1144467E+04  0.7818608E-02  0.9213091E-01
         -2   -1    0    0    0  501 -0.00000000000E+00  0.00000000000E+00  0.69038594836E+03  0.69038594837E+03  0.25500000000E-02 0.  1.
          2   -1    0    0  501    0  0.00000000000E+00 -0.00000000000E+00 -0.22076867652E+04  0.22076867652E+04  0.25500000000E-02 0. -1.
    8880023    1    1    2    0    0  0.25359918782E+03 -0.90093383704E+03 -0.15762142239E+04  0.19478849588E+04  0.65864270000E+03 0. -1.
    8880022    1    1    2    0    0 -0.25359918782E+03  0.90093383704E+03  0.58913407061E+02  0.95018775478E+03  0.15294330000E+03 0.  0.
<mgrwt>
<rscale>  0 0.10919323E+04</rscale>
<asrwt>0</asrwt>
<pdfrwt beam="1">  1        2 0.33964412E+00 0.11444669E+04</pdfrwt>
<pdfrwt beam="2">  1       -2 0.10621322E+00 0.11444669E+04</pdfrwt>
<totfact> 0.36031524E+00</totfact>
</mgrwt>
</event>
<event>
 4    5  0.6615028E-008  0.1381672E+04  0.7818608E-02  0.8998057E-01
         -2   -1    0    0    0  501 -0.00000000000E+00  0.00000000000E+00  0.65864152577E+03  0.65864152577E+03  0.25500000000E-02 0.  1.
          2   -1    0    0  501    0  0.00000000000E+00 -0.00000000000E+00 -0.35285959744E+04  0.35285959744E+04  0.25500000000E-02 0. -1.
    8880023    1    1    2    0    0 -0.53735775631E+03  0.10892440630E+04 -0.25838636087E+04  0.29300797500E+04  0.65864270000E+03 0.  0.
    8880022    1    1    2    0    0  0.53735775631E+03 -0.10892440630E+04 -0.28609083993E+03  0.12571577501E+04  0.15294330000E+03 0.  0.
<mgrwt>
<rscale>  0 0.13404920E+04</rscale>
<asrwt>0</asrwt>
<pdfrwt beam="1">  1        2 0.54286091E+00 0.13816715E+04</pdfrwt>
<pdfrwt beam="2">  1       -2 0.10132947E+00 0.13816715E+04</pdfrwt>
<totfact> 0.60652318E-01</totfact>
</mgrwt>
</event>
<event>
 4    5  0.6615028E-008  0.7851741E+03  0.7818608E-02  0.9743820E-01
         -2   -1    0    0    0  501 -0.00000000000E+00  0.00000000000E+00  0.85766652146E+03  0.85766652146E+03  0.25500000000E-02 0.  1.
          2   -1    0    0  501    0  0.00000000000E+00 -0.00000000000E+00 -0.73120275000E+03  0.73120275000E+03  0.25500000000E-02 0. -1.
    8880023    1    1    2    0    0  0.24201268476E+03 -0.35230385645E+03 -0.41027118818E+03  0.88590112370E+03  0.65864270000E+03 0. -1.
    8880022    1    1    2    0    0 -0.24201268476E+03  0.35230385645E+03  0.53673495964E+03  0.70296814776E+03  0.15294330000E+03 0.  1.
<mgrwt>
<rscale>  0 0.68466622E+03</rscale>
<asrwt>0</asrwt>
<pdfrwt beam="1">  1        2 0.11249273E+00 0.78517409E+03</pdfrwt>
<pdfrwt beam="2">  1       -2 0.13194870E+00 0.78517409E+03</pdfrwt>
<totfact> 0.16384876E+01</totfact>
</mgrwt>
</event>
<event>
 4    5  0.6615028E-008  0.8348590E+03  0.7818608E-02  0.9639951E-01
          2   -1    0    0  501    0  0.00000000000E+00  0.00000000000E+00  0.17904958371E+04  0.17904958371E+04  0.25500000000E-02 0. -1.
         -2   -1    0    0    0  501 -0.00000000000E+00 -0.00000000000E+00 -0.29099603070E+03  0.29099603071E+03  0.25500000000E-02 0.  1.
    8880023    1    1    2    0    0  0.24557545361E+03  0.45041311083E+03  0.12180302186E+04  0.14766811076E+04  0.65864270000E+03 0. -1.
    8880022    1    1    2    0    0 -0.24557545361E+03 -0.45041311083E+03  0.28146958780E+03  0.60481076023E+03  0.15294330000E+03 0.  0.
<mgrwt>
<rscale>  0 0.74707439E+03</rscale>
<asrwt>0</asrwt>
<pdfrwt beam="1">  1        2 0.27546090E+00 0.83485896E+03</pdfrwt>
<pdfrwt beam="2">  1       -2 0.44768620E-01 0.83485896E+03</pdfrwt>
<totfact> 0.42049369E+01</totfact>
</mgrwt>
</event>
<event>
 4    5  0.6615028E-008  0.1489973E+04  0.7818608E-02  0.8916749E-01
         -2   -1    0    0    0  501 -0.00000000000E+00  0.00000000000E+00  0.14989560478E+04  0.14989560478E+04  0.25500000000E-02 0.  1.
          2   -1    0    0  501    0  0.00000000000E+00 -0.00000000000E+00 -0.27431202692E+04  0.27431202692E+04  0.25500000000E-02 0. -1.
    8880023    1    1    2    0    0  0.13361734343E+04 -0.29151392135E+02 -0.21532467218E+04  0.26184901950E+04  0.65864270000E+03 0.  0.
    8880022    1    1    2    0    0 -0.13361734343E+04  0.29151392135E+02  0.90908250041E+03  0.16235861221E+04  0.15294330000E+03 0.  0.
<mgrwt>
<rscale>  0 0.14523846E+04</rscale>
<asrwt>0</asrwt>
<pdfrwt beam="1">  1        2 0.42201850E+00 0.14899730E+04</pdfrwt>
<pdfrwt beam="2">  1       -2 0.23060862E+00 0.14899730E+04</pdfrwt>
<totfact> 0.19945807E-01</totfact>
</mgrwt>
</event>
<event>
 4    5  0.6615028E-008  0.8778704E+03  0.7818608E-02  0.9562533E-01
          2   -1    0    0  501    0  0.00000000000E+00  0.00000000000E+00  0.29204318461E+03  0.29204318462E+03  0.25500000000E-02 0. -1.
         -2   -1    0    0    0  501 -0.00000000000E+00 -0.00000000000E+00 -0.32564786554E+04  0.32564786554E+04  0.25500000000E-02 0.  1.
    8880023    1    1    2    0    0 -0.40158970706E+03 -0.41901311660E+03 -0.49628465235E+03  0.10084418412E+04  0.65864270000E+03 0.  0.
    8880022    1    1    2    0    0  0.40158970706E+03  0.41901311660E+03 -0.24681508184E+04  0.25400799988E+04  0.15294330000E+03 0.  0.
<mgrwt>
<rscale>  0 0.79826391E+03</rscale>
<asrwt>0</asrwt>
<pdfrwt beam="1">  1        2 0.44929723E-01 0.87787043E+03</pdfrwt>
<pdfrwt beam="2">  1       -2 0.50099669E+00 0.87787043E+03</pdfrwt>
<totfact> 0.19007679E-01</totfact>
</mgrwt>
</event>
<event>
 4    5  0.6615028E-008  0.8936307E+03  0.7818608E-02  0.9536335E-01
         -2   -1    0    0    0  501 -0.00000000000E+00  0.00000000000E+00  0.84275241342E+03  0.84275241342E+03  0.25500000000E-02 0.  1.
          2   -1    0    0  501    0  0.00000000000E+00 -0.00000000000E+00 -0.19722539640E+04  0.19722539640E+04  0.25500000000E-02 0. -1.
    8880023    1    1    2    0    0 -0.59675398430E+03  0.93007003876E+02 -0.17315972502E+04  0.19485904813E+04  0.65864270000E+03 0.  0.
    8880022    1    1    2    0    0  0.59675398430E+03 -0.93007003876E+02  0.60209569963E+03  0.86641589614E+03  0.15294330000E+03 0.  0.
<mgrwt>
<rscale>  0 0.81657208E+03</rscale>
<asrwt>0</asrwt>
<pdfrwt beam="1">  1        2 0.30342369E+00 0.89363070E+03</pdfrwt>
<pdfrwt beam="2">  1       -2 0.12965422E+00 0.89363070E+03</pdfrwt>
<totfact> 0.30655212E+00</totfact>
</mgrwt>
</event>
<event>
 4    5  0.6615028E-008  0.1059021E+04  0.7818608E-02  0.9308115E-01
          2   -1    0    0  501    0  0.00000000000E+00  0.00000000000E+00  0.13910780295E+04  0.13910780295E+04  0.25500000000E-02 0. -1.
         -2   -1    0    0    0  501 -0.00000000000E+00 -0.00000000000E+00 -0.12552350562E+04  0.12552350562E+04  0.25500000000E-02 0.  1.
    8880023    1    1    2    0    0 -0.82737010885E+03  0.56331752271E+02  0.98736438380E+03  0.14478995808E+04  0.65864270000E+03 0.  0.
    8880022    1    1    2    0    0  0.82737010885E+03 -0.56331752271E+02 -0.85152141046E+03  0.11984135049E+04  0.15294330000E+03 0.  0.
<mgrwt>
<rscale>  0 0.10003918E+04</rscale>
<asrwt>0</asrwt>
<pdfrwt beam="1">  1        2 0.21401200E+00 0.10590207E+04</pdfrwt>
<pdfrwt beam="2">  1       -2 0.19311309E+00 0.10590207E+04</pdfrwt>
<totfact> 0.21317612E+00</totfact>
</mgrwt>
</event>
<event>
 4    5  0.6615028E-008  0.7717804E+03  0.7818608E-02  0.9775512E-01
         -2   -1    0    0    0  501 -0.00000000000E+00  0.00000000000E+00  0.95005083824E+03  0.95005083824E+03  0.25500000000E-02 0.  1.
          2   -1    0    0  501    0  0.00000000000E+00 -0.00000000000E+00 -0.15547462871E+04  0.15547462871E+04  0.25500000000E-02 0. -1.
    8880023    1    1    2    0    0 -0.39225342110E+03  0.89286079725E+02 -0.14010659667E+04  0.15995720676E+04  0.65864270000E+03 0. -1.
    8880022    1    1    2    0    0  0.39225342110E+03 -0.89286079725E+02  0.79637051781E+03  0.90522505768E+03  0.15294330000E+03 0.  0.
<mgrwt>
<rscale>  0 0.66693447E+03</rscale>
<asrwt>0</asrwt>
<pdfrwt beam="1">  1        2 0.23919174E+00 0.77178038E+03</pdfrwt>
<pdfrwt beam="2">  1       -2 0.14616167E+00 0.77178038E+03</pdfrwt>
<totfact> 0.38846543E+00</totfact>
</mgrwt>
</event>
<event>
 4    5  0.6615028E-008  0.1035147E+04  0.7818608E-02  0.9336953E-01
          2   -1    0    0  501    0  0.00000000000E+00  0.00000000000E+00  0.26140843743E+04  0.26140843744E+04  0.25500000000E-02 0. -1.
         -2   -1    0    0    0  501 -0.00000000000E+00 -0.00000000000E+00 -0.44725932259E+03  0.44725932260E+03  0.25500000000E-02 0.  1.
    8880023    1    1    2    0    0  0.31561369821E+03 -0.73355805710E+03  0.19690253622E+04  0.22245427649E+04  0.65864270000E+03 0.  0.
    8880022    1    1    2    0    0 -0.31561369821E+03  0.73355805710E+03  0.19779968952E+03  0.83680093202E+03  0.15294330000E+03 0.  0.
<mgrwt>
<rscale>  0 0.97450905E+03</rscale>
<asrwt>0</asrwt>
<pdfrwt beam="1">  1        2 0.40216684E+00 0.10351472E+04</pdfrwt>
<pdfrwt beam="2">  1       -2 0.68809124E-01 0.10351472E+04</pdfrwt>
<totfact> 0.58125650E+00</totfact>
</mgrwt>
</event>
<event>
 4    5  0.6615028E-008  0.7018339E+03  0.7818608E-02  0.9989677E-01
          2   -1    0    0  501    0  0.00000000000E+00  0.00000000000E+00  0.28226314889E+04  0.28226314889E+04  0.25500000000E-02 0. -1.
         -2   -1    0    0    0  501 -0.00000000000E+00 -0.00000000000E+00 -0.87999450492E+02  0.87999450529E+02  0.25500000000E-02 0.  1.
    8880023    1    1    2    0    0  0.24094532144E+03  0.26569520542E+02  0.21026995015E+04  0.22167354347E+04  0.65864270000E+03 0. -1.
    8880022    1    1    2    0    0 -0.24094532144E+03 -0.26569520542E+02  0.63193253692E+03  0.69389550479E+03  0.15294330000E+03 0.  0.
<mgrwt>
<rscale>  0 0.56105208E+03</rscale>
<asrwt>0</asrwt>
<pdfrwt beam="1">  1        2 0.43425102E+00 0.70183388E+03</pdfrwt>
<pdfrwt beam="2">  1       -2 0.13538376E-01 0.70183388E+03</pdfrwt>
<totfact> 0.98426242E+01</totfact>
</mgrwt>
</event>
<event>
 4    5  0.6615028E-008  0.7411062E+03  0.7818608E-02  0.9856737E-01
         -2   -1    0    0    0  501 -0.00000000000E+00  0.00000000000E+00  0.41857041268E+03  0.41857041269E+03  0.25500000000E-02 0.  1.
          2   -1    0    0  501    0  0.00000000000E+00 -0.00000000000E+00 -0.83615169626E+03  0.83615169626E+03  0.25500000000E-02 0. -1.
    8880023    1    1    2    0    0 -0.31516898482E+03 -0.12687261255E+03 -0.47131766815E+03  0.87828167428E+03  0.65864270000E+03 0.  0.
    8880022    1    1    2    0    0  0.31516898482E+03  0.12687261255E+03  0.53736384575E+02  0.37644043466E+03  0.15294330000E+03 0.  0.
<mgrwt>
<rscale>  0 0.62404621E+03</rscale>
<asrwt>0</asrwt>
<pdfrwt beam="1">  1        2 0.12863872E+00 0.74110617E+03</pdfrwt>
<pdfrwt beam="2">  1       -2 0.64395448E-01 0.74110617E+03</pdfrwt>
<totfact> 0.73308610E+01</totfact>
</mgrwt>
</event>
<event>
 4    5  0.6615028E-008  0.1252528E+04  0.7818608E-02  0.9107679E-01
          2   -1    0    0  501    0  0.00000000000E+00  0.00000000000E+00  0.21587613409E+04  0.21587613409E+04  0.25500000000E-02 0. -1.
         -2   -1    0    0    0  501 -0.00000000000E+00 -0.00000000000E+00 -0.70131704634E+03  0.70131704635E+03  0.25500000000E-02 0.  1.
    8880023    1    1    2    0    0 -0.78778325368E+03 -0.71722565029E+03  0.12390779546E+04  0.17618568251E+04  0.65864270000E+03 0.  0.
    8880022    1    1    2    0    0  0.78778325368E+03  0.71722565029E+03  0.21836633996E+03  0.10982215622E+04  0.15294330000E+03 0.  0.
<mgrwt>
<rscale>  0 0.12059328E+04</rscale>
<asrwt>0</asrwt>
<pdfrwt beam="1">  1        2 0.33211713E+00 0.12525276E+04</pdfrwt>
<pdfrwt beam="2">  1       -2 0.10789493E+00 0.12525276E+04</pdfrwt>
<totfact> 0.36509001E+00</totfact>
</mgrwt>
</event>
<event>
 4    5  0.6615028E-008  0.7092236E+03  0.7818608E-02  0.9960895E-01
         -2   -1    0    0    0  501 -0.00000000000E+00  0.00000000000E+00  0.76651394059E+03  0.76651394059E+03  0.25500000000E-02 0.  1.
          2   -1    0    0  501    0  0.00000000000E+00 -0.00000000000E+00 -0.10878618038E+04  0.10878618038E+04  0.25500000000E-02 0. -1.
    8880023    1    1    2    0    0  0.17943721858E+03 -0.19232840739E+03 -0.93256491805E+03  0.11716123353E+04  0.65864270000E+03 0. -1.
    8880022    1    1    2    0    0 -0.17943721858E+03  0.19232840739E+03  0.61121705480E+03  0.68276340909E+03  0.15294330000E+03 0.  0.
<mgrwt>
<rscale>  0 0.57398665E+03</rscale>
<asrwt>0</asrwt>
<pdfrwt beam="1">  1        2 0.16736335E+00 0.70922362E+03</pdfrwt>
<pdfrwt beam="2">  1       -2 0.11792522E+00 0.70922362E+03</pdfrwt>
<totfact> 0.12573958E+01</totfact>
</mgrwt>
</event>
<event>
 4    5  0.6615028E-008  0.1054338E+04  0.7818608E-02  0.9313685E-01
          2   -1    0    0  501    0  0.00000000000E+00  0.00000000000E+00  0.90797078668E+03  0.90797078668E+03  0.25500000000E-02 0. -1.
         -2   -1    0    0    0  501 -0.00000000000E+00 -0.00000000000E+00 -0.14778913362E+04  0.14778913362E+04  0.25500000000E-02 0.  1.
    8880023    1    1    2    0    0 -0.80720692694E+03  0.16197330520E+03  0.37891436259E+03  0.11203591723E+04  0.65864270000E+03 0.  0.
    8880022    1    1    2    0    0  0.80720692694E+03 -0.16197330520E+03 -0.94883491211E+03  0.12655029506E+04  0.15294330000E+03 0.  0.
<mgrwt>
<rscale>  0 0.99532727E+03</rscale>
<asrwt>0</asrwt>
<pdfrwt beam="1">  1        2 0.13968781E+00 0.10543380E+04</pdfrwt>
<pdfrwt beam="2">  1       -2 0.22736790E+00 0.10543380E+04</pdfrwt>
<totfact> 0.25423778E+00</totfact>
</mgrwt>
</event>
<event>
 4    5  0.6615028E-008  0.7431563E+03  0.7818608E-02  0.9850847E-01
         -2   -1    0    0    0  501 -0.00000000000E+00  0.00000000000E+00  0.29962303222E+03  0.29962303223E+03  0.25500000000E-02 0.  1.
          2   -1    0    0  501    0  0.00000000000E+00 -0.00000000000E+00 -0.21022552320E+04  0.21022552320E+04  0.25500000000E-02 0. -1.
    8880023    1    1    2    0    0 -0.31954719527E+03  0.12790876996E+03 -0.18762832383E+04  0.20180981294E+04  0.65864270000E+03 0. -1.
    8880022    1    1    2    0    0  0.31954719527E+03 -0.12790876996E+03  0.73651038444E+02  0.38378013487E+03  0.15294330000E+03 0.  0.
<mgrwt>
<rscale>  0 0.62703770E+03</rscale>
<asrwt>0</asrwt>
<pdfrwt beam="1">  1        2 0.32342387E+00 0.74315629E+03</pdfrwt>
<pdfrwt beam="2">  1       -2 0.46095853E-01 0.74315629E+03</pdfrwt>
<totfact> 0.27087086E+01</totfact>
</mgrwt>
</event>
<event>
 4    5  0.6615028E-008  0.1046904E+04  0.7818608E-02  0.9322612E-01
          2   -1    0    0  501    0  0.00000000000E+00  0.00000000000E+00  0.10901099950E+04  0.10901099950E+04  0.25500000000E-02 0. -1.
         -2   -1    0    0    0  501 -0.00000000000E+00 -0.00000000000E+00 -0.18126461971E+04  0.18126461971E+04  0.25500000000E-02 0.  1.
    8880023    1    1    2    0    0 -0.49227515843E+03 -0.64796893070E+03  0.69818464503E+03  0.12583602710E+04  0.65864270000E+03 0.  0.
    8880022    1    1    2    0    0  0.49227515843E+03  0.64796893070E+03 -0.14207208471E+04  0.16443959211E+04  0.15294330000E+03 0.  0.
<mgrwt>
<rscale>  0 0.98727545E+03</rscale>
<asrwt>0</asrwt>
<pdfrwt beam="1">  1        2 0.16770923E+00 0.10469044E+04</pdfrwt>
<pdfrwt beam="2">  1       -2 0.27886864E+00 0.10469044E+04</pdfrwt>
<totfact> 0.93992336E-01</totfact>
</mgrwt>
</event>
<event>
 4    5  0.6615028E-008  0.7442012E+03  0.7818608E-02  0.9847874E-01
         -2   -1    0    0    0  501 -0.00000000000E+00  0.00000000000E+00  0.50115592090E+03  0.50115592091E+03  0.25500000000E-02 0.  1.
          2   -1    0    0  501    0  0.00000000000E+00 -0.00000000000E+00 -0.35468122472E+04  0.35468122472E+04  0.25500000000E-02 0. -1.
    8880023    1    1    2    0    0 -0.30720028661E+03  0.16016595467E+03 -0.34291662092E+04  0.35089907731E+04  0.65864270000E+03 0.  0.
    8880022    1    1    2    0    0  0.30720028661E+03 -0.16016595467E+03  0.38350988285E+03  0.53897739506E+03  0.15294330000E+03 0.  0.
<mgrwt>
<rscale>  0 0.62855424E+03</rscale>
<asrwt>0</asrwt>
<pdfrwt beam="1">  1        2 0.54566341E+00 0.74420115E+03</pdfrwt>
<pdfrwt beam="2">  1       -2 0.77100913E-01 0.74420115E+03</pdfrwt>
<totfact> 0.12352700E+00</totfact>
</mgrwt>
</event>
<event>
 4    5  0.6615028E-008  0.7884342E+03  0.7818608E-02  0.9736385E-01
          2   -1    0    0  501    0  0.00000000000E+00  0.00000000000E+00  0.40037930707E+03  0.40037930708E+03  0.25500000000E-02 0. -1.
         -2   -1    0    0    0  501 -0.00000000000E+00 -0.00000000000E+00 -0.15689357837E+04  0.15689357837E+04  0.25500000000E-02 0.  1.
    8880023    1    1    2    0    0  0.24114527788E+03 -0.36009333427E+03 -0.12735941833E+04  0.14978887156E+04  0.65864270000E+03 0.  1.
    8880022    1    1    2    0    0 -0.24114527788E+03  0.36009333427E+03  0.10503770660E+03  0.47142637522E+03  0.15294330000E+03 0.  0.
<mgrwt>
<rscale>  0 0.68891140E+03</rscale>
<asrwt>0</asrwt>
<pdfrwt beam="1">  1        2 0.61596817E-01 0.78843418E+03</pdfrwt>
<pdfrwt beam="2">  1       -2 0.24137473E+00 0.78843418E+03</pdfrwt>
<totfact> 0.58958756E+00</totfact>
</mgrwt>
</event>
<event>
 4    5  0.6615028E-008  0.1089187E+04  0.7818608E-02  0.9273191E-01
          2   -1    0    0  501    0  0.00000000000E+00  0.00000000000E+00  0.10547170934E+04  0.10547170934E+04  0.25500000000E-02 0. -1.
         -2   -1    0    0    0  501 -0.00000000000E+00 -0.00000000000E+00 -0.15980524722E+04  0.15980524722E+04  0.25500000000E-02 0.  1.
    8880023    1    1    2    0    0  0.78426864686E+03 -0.37073055065E+03  0.57303554523E+03  0.12307308373E+04  0.65864270000E+03 0. -1.
    8880022    1    1    2    0    0 -0.78426864686E+03  0.37073055065E+03 -0.11163709241E+04  0.14220387283E+04  0.15294330000E+03 0.  0.
<mgrwt>
<rscale>  0 0.10328882E+04</rscale>
<asrwt>0</asrwt>
<pdfrwt beam="1">  1        2 0.16226417E+00 0.10891872E+04</pdfrwt>
<pdfrwt beam="2">  1       -2 0.24585423E+00 0.10891872E+04</pdfrwt>
<totfact> 0.15615585E+00</totfact>
</mgrwt>
</event>
<event>
 4    5  0.6615028E-008  0.8850184E+03  0.7818608E-02  0.9550523E-01
         -2   -1    0    0    0  501 -0.00000000000E+00  0.00000000000E+00  0.31458954417E+03  0.31458954418E+03  0.25500000000E-02 0.  1.
          2   -1    0    0  501    0  0.00000000000E+00 -0.00000000000E+00 -0.28178489931E+04  0.28178489931E+04  0.25500000000E-02 0. -1.
    8880023    1    1    2    0    0 -0.28686472047E+02 -0.59044425885E+03 -0.23379471492E+04  0.24998508786E+04  0.65864270000E+03 0. -1.
    8880022    1    1    2    0    0  0.28686472047E+02  0.59044425885E+03 -0.16531229974E+03  0.63258765870E+03  0.15294330000E+03 0.  0.
<mgrwt>
<rscale>  0 0.80659288E+03</rscale>
<asrwt>0</asrwt>
<pdfrwt beam="1">  1        2 0.43351521E+00 0.88501839E+03</pdfrwt>
<pdfrwt beam="2">  1       -2 0.48398393E-01 0.88501839E+03</pdfrwt>
<totfact> 0.94408101E+00</totfact>
</mgrwt>
</event>
<event>
 4    5  0.6615028E-008  0.7655435E+03  0.7818608E-02  0.9790962E-01
          2   -1    0    0  501    0  0.00000000000E+00  0.00000000000E+00  0.30450851045E+04  0.30450851045E+04  0.25500000000E-02 0. -1.
         -2   -1    0    0    0  501 -0.00000000000E+00 -0.00000000000E+00 -0.39985143292E+03  0.39985143293E+03  0.25500000000E-02 0.  1.
    8880023    1    1    2    0    0  0.11400551278E+03 -0.37316141675E+03  0.28693250934E+04  0.29696941590E+04  0.65864270000E+03 0. -1.
    8880022    1    1    2    0    0 -0.11400551278E+03  0.37316141675E+03 -0.22409142186E+03  0.47524237844E+03  0.15294330000E+03 0.  0.
<mgrwt>
<rscale>  0 0.65849858E+03</rscale>
<asrwt>0</asrwt>
<pdfrwt beam="1">  1        2 0.46847462E+00 0.76554354E+03</pdfrwt>
<pdfrwt beam="2">  1       -2 0.61515606E-01 0.76554354E+03</pdfrwt>
<totfact> 0.42656103E+00</totfact>
</mgrwt>
</event>
<event>
 4    5  0.6615028E-008  0.9172951E+03  0.7818608E-02  0.9498819E-01
         -2   -1    0    0    0  501 -0.00000000000E+00  0.00000000000E+00  0.19864569426E+03  0.19864569427E+03  0.25500000000E-02 0.  1.
          2   -1    0    0  501    0  0.00000000000E+00 -0.00000000000E+00 -0.35893554296E+04  0.35893554296E+04  0.25500000000E-02 0. -1.
    8880023    1    1    2    0    0  0.23528784727E+03  0.59351468491E+03 -0.26180122917E+04  0.27740617545E+04  0.65864270000E+03 0. -1.
    8880022    1    1    2    0    0 -0.23528784727E+03 -0.59351468491E+03 -0.77269744368E+03  0.10139393694E+04  0.15294330000E+03 0.  0.
<mgrwt>
<rscale>  0 0.84370948E+03</rscale>
<asrwt>0</asrwt>
<pdfrwt beam="1">  1        2 0.55220848E+00 0.91729508E+03</pdfrwt>
<pdfrwt beam="2">  1       -2 0.30560879E-01 0.91729508E+03</pdfrwt>
<totfact> 0.73252171E+00</totfact>
</mgrwt>
</event>
<event>
 4    5  0.6615028E-008  0.7353567E+03  0.7818608E-02  0.9873685E-01
         -2   -1    0    0    0  501 -0.00000000000E+00  0.00000000000E+00  0.81887983209E+03  0.81887983209E+03  0.25500000000E-02 0.  1.
          2   -1    0    0  501    0  0.00000000000E+00 -0.00000000000E+00 -0.28033524274E+04  0.28033524274E+04  0.25500000000E-02 0. -1.
    8880023    1    1    2    0    0 -0.12857776739E+03 -0.30067770158E+03 -0.27120700090E+04  0.28099952424E+04  0.65864270000E+03 0. -1.
    8880022    1    1    2    0    0  0.12857776739E+03  0.30067770158E+03  0.72759741368E+03  0.81223701707E+03  0.15294330000E+03 0.  0.
<mgrwt>
<rscale>  0 0.61553749E+03</rscale>
<asrwt>0</asrwt>
<pdfrwt beam="1">  1        2 0.43128498E+00 0.73535674E+03</pdfrwt>
<pdfrwt beam="2">  1       -2 0.12598151E+00 0.73535674E+03</pdfrwt>
<totfact> 0.11520653E+00</totfact>
</mgrwt>
</event>
<event>
 4    5  0.6615028E-008  0.7201489E+03  0.7818608E-02  0.9922083E-01
         -2   -1    0    0    0  501 -0.00000000000E+00  0.00000000000E+00  0.11753854868E+04  0.11753854868E+04  0.25500000000E-02 0.  1.
          2   -1    0    0  501    0  0.00000000000E+00 -0.00000000000E+00 -0.14884251810E+04  0.14884251810E+04  0.25500000000E-02 0. -1.
    8880023    1    1    2    0    0 -0.28184688191E+03  0.73256392665E+02 -0.13749472271E+04  0.15521257190E+04  0.65864270000E+03 0. -1.
    8880022    1    1    2    0    0  0.28184688191E+03 -0.73256392665E+02  0.10619075329E+04  0.11116849488E+04  0.15294330000E+03 0.  0.
<mgrwt>
<rscale>  0 0.59202904E+03</rscale>
<asrwt>0</asrwt>
<pdfrwt beam="1">  1        2 0.22898849E+00 0.72014885E+03</pdfrwt>
<pdfrwt beam="2">  1       -2 0.18082854E+00 0.72014885E+03</pdfrwt>
<totfact> 0.23861795E+00</totfact>
</mgrwt>
</event>
<event>
 4    5  0.6615028E-008  0.7965875E+03  0.7818608E-02  0.9718224E-01
         -2   -1    0    0    0  501 -0.00000000000E+00  0.00000000000E+00  0.37444767317E+03  0.37444767318E+03  0.25500000000E-02 0.  1.
          2   -1    0    0  501    0  0.00000000000E+00 -0.00000000000E+00 -0.16724145118E+04  0.16724145118E+04  0.25500000000E-02 0. -1.
    8880023    1    1    2    0    0  0.93483729848E+02 -0.43818059146E+03 -0.15746349373E+03  0.81200147574E+03  0.65864270000E+03 0.  0.
    8880022    1    1    2    0    0 -0.93483729848E+02  0.43818059146E+03 -0.11405033449E+04  0.12348607093E+04  0.15294330000E+03 0.  0.
<mgrwt>
<rscale>  0 0.69942051E+03</rscale>
<asrwt>0</asrwt>
<pdfrwt beam="1">  1        2 0.25729454E+00 0.79658750E+03</pdfrwt>
<pdfrwt beam="2">  1       -2 0.57607335E-01 0.79658750E+03</pdfrwt>
<totfact> 0.29266896E+01</totfact>
</mgrwt>
</event>
<event>
 4    5  0.6615028E-008  0.1102375E+04  0.7818608E-02  0.9258416E-01
          2   -1    0    0  501    0  0.00000000000E+00  0.00000000000E+00  0.14748864630E+04  0.14748864630E+04  0.25500000000E-02 0. -1.
         -2   -1    0    0    0  501 -0.00000000000E+00 -0.00000000000E+00 -0.84232030785E+03  0.84232030785E+03  0.25500000000E-02 0.  1.
    8880023    1    1    2    0    0  0.42599107531E+03  0.77456577784E+03  0.85247144149E+03  0.13935344650E+04  0.65864270000E+03 0.  0.
    8880022    1    1    2    0    0 -0.42599107531E+03 -0.77456577784E+03 -0.21990528638E+03  0.92367230577E+03  0.15294330000E+03 0.  0.
<mgrwt>
<rscale>  0 0.10470293E+04</rscale>
<asrwt>0</asrwt>
<pdfrwt beam="1">  1        2 0.22690561E+00 0.11023750E+04</pdfrwt>
<pdfrwt beam="2">  1       -2 0.12958774E+00 0.11023750E+04</pdfrwt>
<totfact> 0.56442335E+00</totfact>
</mgrwt>
</event>
<event>
 4    5  0.6615028E-008  0.8743567E+03  0.7818608E-02  0.9568519E-01
         -2   -1    0    0    0  501 -0.00000000000E+00  0.00000000000E+00  0.13065003002E+04  0.13065003002E+04  0.25500000000E-02 0.  1.
          2   -1    0    0  501    0  0.00000000000E+00 -0.00000000000E+00 -0.13062711945E+04  0.13062711945E+04  0.25500000000E-02 0. -1.
    8880023    1    1    2    0    0 -0.40104947821E+02  0.57365579641E+03 -0.10739000085E+04  0.13848324137E+04  0.65864270000E+03 0. -1.
    8880022    1    1    2    0    0  0.40104947821E+02 -0.57365579641E+03  0.10741291142E+04  0.12279390810E+04  0.15294330000E+03 0.  0.
<mgrwt>
<rscale>  0 0.79415322E+03</rscale>
<asrwt>0</asrwt>
<pdfrwt beam="1">  1        2 0.20096480E+00 0.87435667E+03</pdfrwt>
<pdfrwt beam="2">  1       -2 0.20100005E+00 0.87435667E+03</pdfrwt>
<totfact> 0.21675743E+00</totfact>
</mgrwt>
</event>
<event>
 4    5  0.6615028E-008  0.6936385E+03  0.7818608E-02  0.1002469E+00
         -2   -1    0    0    0  501 -0.00000000000E+00  0.00000000000E+00  0.74786315154E+02  0.74786315198E+02  0.25500000000E-02 0.  1.
          2   -1    0    0  501    0  0.00000000000E+00 -0.00000000000E+00 -0.30814426365E+04  0.30814426365E+04  0.25500000000E-02 0. -1.
    8880023    1    1    2    0    0 -0.73597987169E+02  0.20471317521E+03 -0.21252541159E+04  0.22355848030E+04  0.65864270000E+03 0. -1.
    8880022    1    1    2    0    0  0.73597987169E+02 -0.20471317521E+03 -0.88140220538E+03  0.92064414867E+03  0.15294330000E+03 0.  1.
<mgrwt>
<rscale>  0 0.54580743E+03</rscale>
<asrwt>0</asrwt>
<pdfrwt beam="1">  1        2 0.47406800E+00 0.69363849E+03</pdfrwt>
<pdfrwt beam="2">  1       -2 0.11505589E-01 0.69363849E+03</pdfrwt>
<totfact> 0.89967254E+01</totfact>
</mgrwt>
</event>
<event>
 4    5  0.6615028E-008  0.1272417E+04  0.7818608E-02  0.9089753E-01
         -2   -1    0    0    0  501 -0.00000000000E+00  0.00000000000E+00  0.44796354768E+03  0.44796354768E+03  0.25500000000E-02 0.  1.
          2   -1    0    0  501    0  0.00000000000E+00 -0.00000000000E+00 -0.33598599235E+04  0.33598599235E+04  0.25500000000E-02 0. -1.
    8880023    1    1    2    0    0 -0.95129639194E+03 -0.52940445521E+03 -0.20416560666E+04  0.24057023098E+04  0.65864270000E+03 0. -1.
    8880022    1    1    2    0    0  0.95129639194E+03  0.52940445521E+03 -0.87024030916E+03  0.14021211614E+04  0.15294330000E+03 0.  0.
<mgrwt>
<rscale>  0 0.12267568E+04</rscale>
<asrwt>0</asrwt>
<pdfrwt beam="1">  1        2 0.51690151E+00 0.12724166E+04</pdfrwt>
<pdfrwt beam="2">  1       -2 0.68917471E-01 0.12724166E+04</pdfrwt>
<totfact> 0.19383572E+00</totfact>
</mgrwt>
</event>
<event>
 4    5  0.6615028E-008  0.7709957E+03  0.7818608E-02  0.9777430E-01
         -2   -1    0    0    0  501 -0.00000000000E+00  0.00000000000E+00  0.18317041460E+03  0.18317041462E+03  0.25500000000E-02 0.  1.
          2   -1    0    0  501    0  0.00000000000E+00 -0.00000000000E+00 -0.26735818719E+04  0.26735818719E+04  0.25500000000E-02 0. -1.
    8880023    1    1    2    0    0  0.18133654786E+03 -0.35740902539E+03 -0.22190094704E+04  0.23491354561E+04  0.65864270000E+03 0. -1.
    8880022    1    1    2    0    0 -0.18133654786E+03  0.35740902539E+03 -0.27140198684E+03  0.50761683039E+03  0.15294330000E+03 0.  0.
<mgrwt>
<rscale>  0 0.66587982E+03</rscale>
<asrwt>0</asrwt>
<pdfrwt beam="1">  1        2 0.41132026E+00 0.77099569E+03</pdfrwt>
<pdfrwt beam="2">  1       -2 0.28180066E-01 0.77099569E+03</pdfrwt>
<totfact> 0.33103979E+01</totfact>
</mgrwt>
</event>
<event>
 4    5  0.6615028E-008  0.1636114E+04  0.7818608E-02  0.8819058E-01
         -2   -1    0    0    0  501 -0.00000000000E+00  0.00000000000E+00  0.19986490443E+04  0.19986490443E+04  0.25500000000E-02 0.  1.
          2   -1    0    0  501    0  0.00000000000E+00 -0.00000000000E+00 -0.12785562636E+04  0.12785562636E+04  0.25500000000E-02 0. -1.
    8880023    1    1    2    0    0  0.87229129116E+02  0.14951418118E+04  0.67831647186E+03  0.17711525627E+04  0.65864270000E+03 0.  0.
    8880022    1    1    2    0    0 -0.87229129116E+02 -0.14951418118E+04  0.41776308790E+02  0.15060527452E+04  0.15294330000E+03 0.  0.
<mgrwt>
<rscale>  0 0.16024275E+04</rscale>
<asrwt>0</asrwt>
<pdfrwt beam="1">  1        2 0.19670096E+00 0.16361137E+04</pdfrwt>
<pdfrwt beam="2">  1       -2 0.30748447E+00 0.16361137E+04</pdfrwt>
<totfact> 0.45308612E-01</totfact>
</mgrwt>
</event>
<event>
 4    5  0.6615028E-008  0.1190811E+04  0.7818608E-02  0.9166107E-01
         -2   -1    0    0    0  501 -0.00000000000E+00  0.00000000000E+00  0.22279276266E+04  0.22279276266E+04  0.25500000000E-02 0.  1.
          2   -1    0    0  501    0  0.00000000000E+00 -0.00000000000E+00 -0.14713955518E+04  0.14713955518E+04  0.25500000000E-02 0. -1.
    8880023    1    1    2    0    0  0.58151805666E+03 -0.80377697200E+03 -0.10791938811E+04  0.16070750792E+04  0.65864270000E+03 0.  0.
    8880022    1    1    2    0    0 -0.58151805666E+03  0.80377697200E+03  0.18357259558E+04  0.20922480993E+04  0.15294330000E+03 0.  0.
<mgrwt>
<rscale>  0 0.11410215E+04</rscale>
<asrwt>0</asrwt>
<pdfrwt beam="1">  1        2 0.22636855E+00 0.11908110E+04</pdfrwt>
<pdfrwt beam="2">  1       -2 0.34275809E+00 0.11908110E+04</pdfrwt>
<totfact> 0.22333146E-01</totfact>
</mgrwt>
</event>
<event>
 4    5  0.7491594E-008  0.8475271E+03  0.7818608E-02  0.9616147E-01
         -2   -1    0    0    0  501 -0.00000000000E+00  0.00000000000E+00  0.16230590295E+04  0.16230590295E+04  0.25500000000E-02 0.  1.
          2   -1    0    0  501    0  0.00000000000E+00 -0.00000000000E+00 -0.20564082784E+04  0.20564082784E+04  0.25500000000E-02 0. -1.
    8880023    1    1    2    0    0 -0.27958546059E+03  0.45422890851E+03 -0.19167074145E+04  0.20957264731E+04  0.65864270000E+03 0. -1.
    8880022    1    1    2    0    0  0.27958546059E+03 -0.45422890851E+03  0.14833581656E+04  0.15837408347E+04  0.15294330000E+03 0.  0.
<mgrwt>
<rscale>  0 0.76236597E+03</rscale>
<asrwt>0</asrwt>
<pdfrwt beam="1">  1        2 0.31637051E+00 0.84752707E+03</pdfrwt>
<pdfrwt beam="2">  1       -2 0.24970139E+00 0.84752707E+03</pdfrwt>
<totfact> 0.41431434E-01</totfact>
</mgrwt>
</event>
<event>
 4    5  0.6615028E-008  0.7397340E+03  0.7818608E-02  0.9860723E-01
          2   -1    0    0  501    0  0.00000000000E+00  0.00000000000E+00  0.19560834221E+04  0.19560834221E+04  0.25500000000E-02 0. -1.
         -2   -1    0    0    0  501 -0.00000000000E+00 -0.00000000000E+00 -0.23094147284E+03  0.23094147285E+03  0.25500000000E-02 0.  1.
    8880023    1    1    2    0    0 -0.30393620332E+03 -0.14497934268E+03  0.16519378354E+04  0.18100013933E+04  0.65864270000E+03 0.  0.
    8880022    1    1    2    0    0  0.30393620332E+03  0.14497934268E+03  0.73204113872E+02  0.37702350165E+03  0.15294330000E+03 0.  0.
<mgrwt>
<rscale>  0 0.62203189E+03</rscale>
<asrwt>0</asrwt>
<pdfrwt beam="1">  1        2 0.30093592E+00 0.73973403E+03</pdfrwt>
<pdfrwt beam="2">  1       -2 0.35529457E-01 0.73973403E+03</pdfrwt>
<totfact> 0.54178083E+01</totfact>
</mgrwt>
</event>
<event>
 4    5  0.6615028E-008  0.1038897E+04  0.7818608E-02  0.9332350E-01
          2   -1    0    0  501    0  0.00000000000E+00  0.00000000000E+00  0.15972051697E+04  0.15972051697E+04  0.25500000000E-02 0. -1.
         -2   -1    0    0    0  501 -0.00000000000E+00 -0.00000000000E+00 -0.80136615924E+03  0.80136615924E+03  0.25500000000E-02 0.  1.
    8880023    1    1    2    0    0 -0.53634895755E+03  0.59818523482E+03  0.11119463377E+04  0.15217524909E+04  0.65864270000E+03 0.  0.
    8880022    1    1    2    0    0  0.53634895755E+03 -0.59818523482E+03 -0.31610732721E+03  0.87681883804E+03  0.15294330000E+03 0.  0.
<mgrwt>
<rscale>  0 0.97858454E+03</rscale>
<asrwt>0</asrwt>
<pdfrwt beam="1">  1        2 0.24572387E+00 0.10388965E+04</pdfrwt>
<pdfrwt beam="2">  1       -2 0.12328710E+00 0.10388965E+04</pdfrwt>
<totfact> 0.55014573E+00</totfact>
</mgrwt>
</event>
<event>
 4    5  0.6615028E-008  0.7302494E+03  0.7818608E-02  0.9889318E-01
         -2   -1    0    0    0  501 -0.00000000000E+00  0.00000000000E+00  0.10675197553E+04  0.10675197553E+04  0.25500000000E-02 0.  1.
          2   -1    0    0  501    0  0.00000000000E+00 -0.00000000000E+00 -0.61692637423E+03  0.61692637424E+03  0.25500000000E-02 0. -1.
    8880023    1    1    2    0    0  0.11635813066E+03 -0.29311229697E+03 -0.35051869452E+03  0.81001703357E+03  0.65864270000E+03 0. -1.
    8880022    1    1    2    0    0 -0.11635813066E+03  0.29311229697E+03  0.80111207563E+03  0.87442909600E+03  0.15294330000E+03 0.  0.
<mgrwt>
<rscale>  0 0.60781780E+03</rscale>
<asrwt>0</asrwt>
<pdfrwt beam="1">  1        2 0.94911750E-01 0.73024944E+03</pdfrwt>
<pdfrwt beam="2">  1       -2 0.16423381E+00 0.73024944E+03</pdfrwt>
<totfact> 0.11444494E+01</totfact>
</mgrwt>
</event>
<event>
 4    5  0.6615028E-008  0.7214369E+03  0.7818608E-02  0.9917754E-01
         -2   -1    0    0    0  501 -0.00000000000E+00  0.00000000000E+00  0.95118652662E+03  0.95118652662E+03  0.25500000000E-02 0.  1.
          2   -1    0    0  501    0  0.00000000000E+00 -0.00000000000E+00 -0.11023600207E+04  0.11023600207E+04  0.25500000000E-02 0. -1.
    8880023    1    1    2    0    0  0.24965411334E+03  0.15599308216E+03 -0.94749379472E+03  0.11908886242E+04  0.65864270000E+03 0. -1.
    8880022    1    1    2    0    0 -0.24965411334E+03 -0.15599308216E+03  0.79632030066E+03  0.86265792308E+03  0.15294330000E+03 0.  0.
<mgrwt>
<rscale>  0 0.59408535E+03</rscale>
<asrwt>0</asrwt>
<pdfrwt beam="1">  1        2 0.16959385E+00 0.72143692E+03</pdfrwt>
<pdfrwt beam="2">  1       -2 0.14633639E+00 0.72143692E+03</pdfrwt>
<totfact> 0.71081694E+00</totfact>
</mgrwt>
</event>
<event>
 4    5  0.6615028E-008  0.8529906E+03  0.7818608E-02  0.9606156E-01
          2   -1    0    0  501    0  0.00000000000E+00  0.00000000000E+00  0.14854993676E+04  0.14854993676E+04  0.25500000000E-02 0. -1.
         -2   -1    0    0    0  501 -0.00000000000E+00 -0.00000000000E+00 -0.96136053297E+03  0.96136053298E+03  0.25500000000E-02 0.  1.
    8880023    1    1    2    0    0 -0.44419455936E+03 -0.31060252900E+03  0.12591625769E+04  0.15208824212E+04  0.65864270000E+03 0. -1.
    8880022    1    1    2    0    0  0.44419455936E+03  0.31060252900E+03 -0.73502374232E+03  0.92597747941E+03  0.15294330000E+03 0.  0.
<mgrwt>
<rscale>  0 0.76890103E+03</rscale>
<asrwt>0</asrwt>
<pdfrwt beam="1">  1        2 0.22853836E+00 0.85299059E+03</pdfrwt>
<pdfrwt beam="2">  1       -2 0.14790162E+00 0.85299059E+03</pdfrwt>
<totfact> 0.40673152E+00</totfact>
</mgrwt>
</event>
<event>
 4    5  0.6615028E-008  0.9244115E+03  0.7818608E-02  0.9487928E-01
         -2   -1    0    0    0  501 -0.00000000000E+00  0.00000000000E+00  0.59015999420E+03  0.59015999420E+03  0.25500000000E-02 0.  1.
          2   -1    0    0  501    0  0.00000000000E+00 -0.00000000000E+00 -0.10807055002E+04  0.10807055002E+04  0.25500000000E-02 0. -1.
    8880023    1    1    2    0    0 -0.36394208769E+03  0.53691012516E+03 -0.21099434974E+03  0.94818518633E+03  0.65864270000E+03 0.  0.
    8880022    1    1    2    0    0  0.36394208769E+03 -0.53691012516E+03 -0.27955115625E+03  0.72268030806E+03  0.15294330000E+03 0.  0.
<mgrwt>
<rscale>  0 0.85179734E+03</rscale>
<asrwt>0</asrwt>
<pdfrwt beam="1">  1        2 0.16626238E+00 0.92441145E+03</pdfrwt>
<pdfrwt beam="2">  1       -2 0.90793845E-01 0.92441145E+03</pdfrwt>
<totfact> 0.23211449E+01</totfact>
</mgrwt>
</event>
<event>
 4    5  0.6615028E-008  0.9472935E+03  0.7818608E-02  0.9454019E-01
         -2   -1    0    0    0  501 -0.00000000000E+00  0.00000000000E+00  0.12193440170E+04  0.12193440170E+04  0.25500000000E-02 0.  1.
          2   -1    0    0  501    0  0.00000000000E+00 -0.00000000000E+00 -0.14701633409E+04  0.14701633409E+04  0.25500000000E-02 0. -1.
    8880023    1    1    2    0    0 -0.26445765636E+03  0.62738890915E+03 -0.11890244182E+04  0.15202447068E+04  0.65864270000E+03 0. -1.
    8880022    1    1    2    0    0  0.26445765636E+03 -0.62738890915E+03  0.93820509422E+03  0.11692626511E+04  0.15294330000E+03 0.  0.
<mgrwt>
<rscale>  0 0.87760390E+03</rscale>
<asrwt>0</asrwt>
<pdfrwt beam="1">  1        2 0.22617898E+00 0.94729346E+03</pdfrwt>
<pdfrwt beam="2">  1       -2 0.18759139E+00 0.94729346E+03</pdfrwt>
<totfact> 0.21228259E+00</totfact>
</mgrwt>
</event>
<event>
 4    5  0.6615028E-008  0.8403609E+03  0.7818608E-02  0.9629500E-01
         -2   -1    0    0    0  501 -0.00000000000E+00  0.00000000000E+00  0.51917502874E+03  0.51917502875E+03  0.25500000000E-02 0.  1.
          2   -1    0    0  501    0  0.00000000000E+00 -0.00000000000E+00 -0.15038224463E+04  0.15038224463E+04  0.25500000000E-02 0. -1.
    8880023    1    1    2    0    0  0.51406526844E+03 -0.90183585484E+02 -0.11769181325E+04  0.14461475292E+04  0.65864270000E+03 0. -1.
    8880022    1    1    2    0    0 -0.51406526844E+03  0.90183585484E+02  0.19227071487E+03  0.57684994593E+03  0.15294330000E+03 0.  0.
<mgrwt>
<rscale>  0 0.75374059E+03</rscale>
<asrwt>0</asrwt>
<pdfrwt beam="1">  1        2 0.23135730E+00 0.84036087E+03</pdfrwt>
<pdfrwt beam="2">  1       -2 0.79873082E-01 0.84036087E+03</pdfrwt>
<totfact> 0.17756243E+01</totfact>
</mgrwt>
</event>
<event>
 4    5  0.6615028E-008  0.8096853E+03  0.7818608E-02  0.9690233E-01
          2   -1    0    0  501    0  0.00000000000E+00  0.00000000000E+00  0.84577823490E+03  0.84577823490E+03  0.25500000000E-02 0. -1.
         -2   -1    0    0    0  501 -0.00000000000E+00 -0.00000000000E+00 -0.50627187044E+03  0.50627187045E+03  0.25500000000E-02 0.  1.
    8880023    1    1    2    0    0  0.46514076465E+03 -0.73648744698E+02  0.26103125207E+03  0.85072180491E+03  0.65864270000E+03 0. -1.
    8880022    1    1    2    0    0 -0.46514076465E+03  0.73648744698E+02  0.78475112387E+02  0.50132830043E+03  0.15294330000E+03 0.  1.
<mgrwt>
<rscale>  0 0.71601313E+03</rscale>
<asrwt>0</asrwt>
<pdfrwt beam="1">  1        2 0.13011973E+00 0.80968529E+03</pdfrwt>
<pdfrwt beam="2">  1       -2 0.77887980E-01 0.80968529E+03</pdfrwt>
<totfact> 0.47343824E+01</totfact>
</mgrwt>
</event>
<event>
 4    5  0.6615028E-008  0.1027514E+04  0.7818608E-02  0.9346414E-01
          2   -1    0    0  501    0  0.00000000000E+00  0.00000000000E+00  0.76301544736E+03  0.76301544736E+03  0.25500000000E-02 0. -1.
         -2   -1    0    0    0  501 -0.00000000000E+00 -0.00000000000E+00 -0.11671131165E+04  0.11671131165E+04  0.25500000000E-02 0.  1.
    8880023    1    1    2    0    0 -0.78409828887E+03  0.84642796876E+02 -0.45801957252E+03  0.11249740729E+04  0.65864270000E+03 0.  1.
    8880022    1    1    2    0    0  0.78409828887E+03 -0.84642796876E+02  0.53921903342E+02  0.80515449098E+03  0.15294330000E+03 0. -1.
<mgrwt>
<rscale>  0 0.96619891E+03</rscale>
<asrwt>0</asrwt>
<pdfrwt beam="1">  1        2 0.11738699E+00 0.10275139E+04</pdfrwt>
<pdfrwt beam="2">  1       -2 0.17955586E+00 0.10275139E+04</pdfrwt>
<totfact> 0.66276487E+00</totfact>
</mgrwt>
</event>
<event>
 4    5  0.6615028E-008  0.8096053E+03  0.7818608E-02  0.9690400E-01
         -2   -1    0    0    0  501 -0.00000000000E+00  0.00000000000E+00  0.23458285891E+03  0.23458285893E+03  0.25500000000E-02 0.  1.
          2   -1    0    0  501    0  0.00000000000E+00 -0.00000000000E+00 -0.19428732400E+04  0.19428732400E+04  0.25500000000E-02 0. -1.
    8880023    1    1    2    0    0 -0.37687641053E+03  0.28216069958E+03 -0.13192240578E+04  0.15478413388E+04  0.65864270000E+03 0. -1.
    8880022    1    1    2    0    0  0.37687641053E+03 -0.28216069958E+03 -0.38906632322E+03  0.62961476006E+03  0.15294330000E+03 0.  1.
<mgrwt>
<rscale>  0 0.71591274E+03</rscale>
<asrwt>0</asrwt>
<pdfrwt beam="1">  1        2 0.29890357E+00 0.80960527E+03</pdfrwt>
<pdfrwt beam="2">  1       -2 0.36089672E-01 0.80960527E+03</pdfrwt>
<totfact> 0.53041158E+01</totfact>
</mgrwt>
</event>
<event>
 4    5  0.6615028E-008  0.8452770E+03  0.7818608E-02  0.9620309E-01
          2   -1    0    0  501    0  0.00000000000E+00  0.00000000000E+00  0.38963858057E+03  0.38963858058E+03  0.25500000000E-02 0. -1.
         -2   -1    0    0    0  501 -0.00000000000E+00 -0.00000000000E+00 -0.17463594113E+04  0.17463594113E+04  0.25500000000E-02 0.  1.
    8880023    1    1    2    0    0 -0.41878165022E+03 -0.32450713693E+03 -0.22131545614E+03  0.87376981515E+03  0.65864270000E+03 0. -1.
    8880022    1    1    2    0    0  0.41878165022E+03  0.32450713693E+03 -0.11354053746E+04  0.12622281767E+04  0.15294330000E+03 0.  1.
<mgrwt>
<rscale>  0 0.75966444E+03</rscale>
<asrwt>0</asrwt>
<pdfrwt beam="1">  1        2 0.59944398E-01 0.84527697E+03</pdfrwt>
<pdfrwt beam="2">  1       -2 0.26867068E+00 0.84527697E+03</pdfrwt>
<totfact> 0.41279629E+00</totfact>
</mgrwt>
</event>
<event>
 4    5  0.6615028E-008  0.6905686E+03  0.7818608E-02  0.1003884E+00
          2   -1    0    0  501    0  0.00000000000E+00  0.00000000000E+00  0.91916655278E+03  0.91916655279E+03  0.25500000000E-02 0. -1.
         -2   -1    0    0    0  501 -0.00000000000E+00 -0.00000000000E+00 -0.37677681697E+03  0.37677681697E+03  0.25500000000E-02 0.  1.
    8880023    1    1    2    0    0  0.20753317147E+03  0.21696906892E+01  0.70840526506E+03  0.98930427607E+03  0.65864270000E+03 0. -1.
    8880022    1    1    2    0    0 -0.20753317147E+03 -0.21696906892E+01 -0.16601552924E+03  0.30663909370E+03  0.15294330000E+03 0.  0.
<mgrwt>
<rscale>  0 0.53979686E+03</rscale>
<asrwt>0</asrwt>
<pdfrwt beam="1">  1        2 0.14141024E+00 0.69056856E+03</pdfrwt>
<pdfrwt beam="2">  1       -2 0.57965664E-01 0.69056856E+03</pdfrwt>
<totfact> 0.80737116E+01</totfact>
</mgrwt>
</event>
<event>
 4    5  0.6615028E-008  0.7268783E+03  0.7818608E-02  0.9899964E-01
          2   -1    0    0  501    0  0.00000000000E+00  0.00000000000E+00  0.10262774084E+04  0.10262774084E+04  0.25500000000E-02 0. -1.
         -2   -1    0    0    0  501 -0.00000000000E+00 -0.00000000000E+00 -0.10924032234E+04  0.10924032234E+04  0.25500000000E-02 0.  1.
    8880023    1    1    2    0    0 -0.28495489678E+02  0.30615333684E+03  0.86287924643E+03  0.11282343102E+04  0.65864270000E+03 0. -1.
    8880022    1    1    2    0    0  0.28495489678E+02 -0.30615333684E+03 -0.92900506148E+03  0.99044632154E+03  0.15294330000E+03 0.  0.
<mgrwt>
<rscale>  0 0.60263026E+03</rscale>
<asrwt>0</asrwt>
<pdfrwt beam="1">  1        2 0.15788883E+00 0.72687830E+03</pdfrwt>
<pdfrwt beam="2">  1       -2 0.16806203E+00 0.72687830E+03</pdfrwt>
<totfact> 0.54578163E+00</totfact>
</mgrwt>
</event>
<event>
 4    5  0.6615028E-008  0.6955991E+03  0.7818608E-02  0.1001597E+00
         -2   -1    0    0    0  501 -0.00000000000E+00  0.00000000000E+00  0.72624516019E+03  0.72624516019E+03  0.25500000000E-02 0.  1.
          2   -1    0    0  501    0  0.00000000000E+00 -0.00000000000E+00 -0.17156476742E+04  0.17156476742E+04  0.25500000000E-02 0. -1.
    8880023    1    1    2    0    0 -0.21694745337E+03  0.54604427230E+02 -0.16159202992E+04  0.17592772551E+04  0.65864270000E+03 0. -1.
    8880022    1    1    2    0    0  0.21694745337E+03 -0.54604427230E+02  0.62651778511E+03  0.68261557928E+03  0.15294330000E+03 0.  0.
<mgrwt>
<rscale>  0 0.54955409E+03</rscale>
<asrwt>0</asrwt>
<pdfrwt beam="1">  1        2 0.26394580E+00 0.69559906E+03</pdfrwt>
<pdfrwt beam="2">  1       -2 0.11173002E+00 0.69559906E+03</pdfrwt>
<totfact> 0.63135819E+00</totfact>
</mgrwt>
</event>
<event>
 4    5  0.6615028E-008  0.7184008E+03  0.7818608E-02  0.9928035E-01
         -2   -1    0    0    0  501 -0.00000000000E+00  0.00000000000E+00  0.57156596060E+03  0.57156596061E+03  0.25500000000E-02 0.  1.
          2   -1    0    0  501    0  0.00000000000E+00 -0.00000000000E+00 -0.97185874660E+03  0.97185874660E+03  0.25500000000E-02 0. -1.
    8880023    1    1    2    0    0  0.28531575038E+03  0.29738727048E+02 -0.76866927049E+03  0.10521179226E+04  0.65864270000E+03 0.  0.
    8880022    1    1    2    0    0 -0.28531575038E+03 -0.29738727048E+02  0.36837648450E+03  0.49130678466E+03  0.15294330000E+03 0.  0.
<mgrwt>
<rscale>  0 0.58921633E+03</rscale>
<asrwt>0</asrwt>
<pdfrwt beam="1">  1        2 0.14951673E+00 0.71840078E+03</pdfrwt>
<pdfrwt beam="2">  1       -2 0.87933225E-01 0.71840078E+03</pdfrwt>
<totfact> 0.29842365E+01</totfact>
</mgrwt>
</event>
<event>
 4    5  0.6615028E-008  0.9114207E+03  0.7818608E-02  0.9507941E-01
          2   -1    0    0  501    0  0.00000000000E+00  0.00000000000E+00  0.36191058145E+04  0.36191058145E+04  0.25500000000E-02 0. -1.
         -2   -1    0    0    0  501 -0.00000000000E+00 -0.00000000000E+00 -0.42494507231E+03  0.42494507232E+03  0.25500000000E-02 0.  1.
    8880023    1    1    2    0    0  0.62375977426E+03 -0.88324357057E+02  0.32669430474E+04  0.33916964088E+04  0.65864270000E+03 0. -1.
    8880022    1    1    2    0    0 -0.62375977426E+03  0.88324357057E+02 -0.72782305242E+02  0.65235447803E+03  0.15294330000E+03 0.  0.
<mgrwt>
<rscale>  0 0.83700893E+03</rscale>
<asrwt>0</asrwt>
<pdfrwt beam="1">  1        2 0.55678549E+00 0.91142068E+03</pdfrwt>
<pdfrwt beam="2">  1       -2 0.65376168E-01 0.91142068E+03</pdfrwt>
<totfact> 0.15241927E+00</totfact>
</mgrwt>
</event>
<event>
 4    5  0.6615028E-008  0.6725724E+03  0.7818608E-02  0.1013882E+00
          2   -1    0    0  501    0  0.00000000000E+00  0.00000000000E+00  0.31922433945E+04  0.31922433945E+04  0.25500000000E-02 0. -1.
         -2   -1    0    0    0  501 -0.00000000000E+00 -0.00000000000E+00 -0.79891119998E+02  0.79891120039E+02  0.25500000000E-02 0.  1.
    8880023    1    1    2    0    0  0.54785072275E+02 -0.12466744446E+03  0.29006200728E+04  0.29775745816E+04  0.65864270000E+03 0. -1.
    8880022    1    1    2    0    0 -0.54785072275E+02  0.12466744446E+03  0.21173220168E+03  0.29455993294E+03  0.15294330000E+03 0.  0.
<mgrwt>
<rscale>  0 0.49960455E+03</rscale>
<asrwt>0</asrwt>
<pdfrwt beam="1">  1        2 0.49111441E+00 0.67257236E+03</pdfrwt>
<pdfrwt beam="2">  1       -2 0.12290940E-01 0.67257236E+03</pdfrwt>
<totfact> 0.68980376E+01</totfact>
</mgrwt>
</event>
<event>
 4    5  0.6615028E-008  0.1664278E+04  0.7818608E-02  0.8801579E-01
         -2   -1    0    0    0  501 -0.00000000000E+00  0.00000000000E+00  0.20230696717E+04  0.20230696717E+04  0.25500000000E-02 0.  1.
          2   -1    0    0  501    0  0.00000000000E+00 -0.00000000000E+00 -0.30139904708E+04  0.30139904708E+04  0.25500000000E-02 0. -1.
    8880023    1    1    2    0    0 -0.16765728319E+02  0.15283090782E+04  0.14137345972E+04  0.21836816264E+04  0.65864270000E+03 0.  0.
    8880022    1    1    2    0    0  0.16765728319E+02 -0.15283090782E+04 -0.24046553963E+04  0.28533785161E+04  0.15294330000E+03 0.  0.
<mgrwt>
<rscale>  0 0.16312464E+04</rscale>
<asrwt>0</asrwt>
<pdfrwt beam="1">  1        2 0.46369084E+00 0.16642776E+04</pdfrwt>
<pdfrwt beam="2">  1       -2 0.31124149E+00 0.16642776E+04</pdfrwt>
<totfact> 0.42574486E-02</totfact>
</mgrwt>
</event>
<event>
 4    5  0.8472210E-008  0.1132065E+04  0.7818608E-02  0.9226168E-01
         -2   -1    0    0    0  501 -0.00000000000E+00  0.00000000000E+00  0.25298561130E+04  0.25298561130E+04  0.25500000000E-02 0.  1.
          2   -1    0    0  501    0  0.00000000000E+00 -0.00000000000E+00 -0.14302537155E+04  0.14302537155E+04  0.25500000000E-02 0. -1.
    8880023    1    1    2    0    0 -0.17869382844E+03 -0.90323258448E+03 -0.10951766441E+04  0.15751135432E+04  0.65864270000E+03 0.  0.
    8880022    1    1    2    0    0  0.17869382844E+03  0.90323258448E+03  0.21947790417E+04  0.23849962853E+04  0.15294330000E+03 0.  0.
<mgrwt>
<rscale>  0 0.10787361E+04</rscale>
<asrwt>0</asrwt>
<pdfrwt beam="1">  1        2 0.22003904E+00 0.11320648E+04</pdfrwt>
<pdfrwt beam="2">  1       -2 0.38920863E+00 0.11320648E+04</pdfrwt>
<totfact> 0.12060553E-01</totfact>
</mgrwt>
</event>
<event>
 4    5  0.6615028E-008  0.7984158E+03  0.7818608E-02  0.9714232E-01
         -2   -1    0    0    0  501 -0.00000000000E+00  0.00000000000E+00  0.96308604178E+03  0.96308604178E+03  0.25500000000E-02 0.  1.
          2   -1    0    0  501    0  0.00000000000E+00 -0.00000000000E+00 -0.15052491372E+04  0.15052491372E+04  0.25500000000E-02 0. -1.
    8880023    1    1    2    0    0 -0.34375051223E+03 -0.29239214856E+03 -0.13278757350E+04  0.15494262671E+04  0.65864270000E+03 0. -1.
    8880022    1    1    2    0    0  0.34375051223E+03  0.29239214856E+03  0.78571263964E+03  0.91890891186E+03  0.15294330000E+03 0.  0.
<mgrwt>
<rscale>  0 0.70175715E+03</rscale>
<asrwt>0</asrwt>
<pdfrwt beam="1">  1        2 0.23157679E+00 0.79841580E+03</pdfrwt>
<pdfrwt beam="2">  1       -2 0.14816708E+00 0.79841580E+03</pdfrwt>
<totfact> 0.39770495E+00</totfact>
</mgrwt>
</event>
<event>
 4    5  0.6615028E-008  0.1424187E+04  0.7818608E-02  0.8965113E-01
         -2   -1    0    0    0  501 -0.00000000000E+00  0.00000000000E+00  0.85166908912E+03  0.85166908913E+03  0.25500000000E-02 0.  1.
          2   -1    0    0  501    0  0.00000000000E+00 -0.00000000000E+00 -0.29625626679E+04  0.29625626679E+04  0.25500000000E-02 0. -1.
    8880023    1    1    2    0    0 -0.11931733320E+04 -0.41332285171E+03 -0.21058897130E+04  0.25422588518E+04  0.65864270000E+03 0.  0.
    8880022    1    1    2    0    0  0.11931733320E+04  0.41332285171E+03 -0.50038657836E+01  0.12719729052E+04  0.15294330000E+03 0.  0.
<mgrwt>
<rscale>  0 0.13845030E+04</rscale>
<asrwt>0</asrwt>
<pdfrwt beam="1">  1        2 0.45577887E+00 0.14241870E+04</pdfrwt>
<pdfrwt beam="2">  1       -2 0.13102602E+00 0.14241870E+04</pdfrwt>
<totfact> 0.74988968E-01</totfact>
</mgrwt>
</event>
<event>
 4    5  0.6615028E-008  0.7692213E+03  0.7818608E-02  0.9781794E-01
         -2   -1    0    0    0  501 -0.00000000000E+00  0.00000000000E+00  0.59823696387E+03  0.59823696388E+03  0.25500000000E-02 0.  1.
          2   -1    0    0  501    0  0.00000000000E+00 -0.00000000000E+00 -0.75755856019E+03  0.75755856019E+03  0.25500000000E-02 0. -1.
    8880023    1    1    2    0    0  0.38506607146E+03  0.98057418183E+02 -0.39968370775E+03  0.86686123985E+03  0.65864270000E+03 0.  0.
    8880022    1    1    2    0    0 -0.38506607146E+03 -0.98057418183E+02  0.24036211144E+03  0.48893428422E+03  0.15294330000E+03 0.  1.
<mgrwt>
<rscale>  0 0.66348794E+03</rscale>
<asrwt>0</asrwt>
<pdfrwt beam="1">  1        2 0.11654747E+00 0.76922126E+03</pdfrwt>
<pdfrwt beam="2">  1       -2 0.92036455E-01 0.76922126E+03</pdfrwt>
<totfact> 0.37587665E+01</totfact>
</mgrwt>
</event>
<event>
 4    5  0.6615028E-008  0.1196440E+04  0.7818608E-02  0.9160591E-01
         -2   -1    0    0    0  501 -0.00000000000E+00  0.00000000000E+00  0.15159912513E+04  0.15159912513E+04  0.25500000000E-02 0.  1.
          2   -1    0    0  501    0  0.00000000000E+00 -0.00000000000E+00 -0.13761972588E+04  0.13761972588E+04  0.25500000000E-02 0. -1.
    8880023    1    1    2    0    0 -0.46821380030E+02 -0.99772999485E+03 -0.85785643034E+03  0.14722042133E+04  0.65864270000E+03 0.  0.
    8880022    1    1    2    0    0  0.46821380030E+02  0.99772999485E+03  0.99765042282E+03  0.14199842969E+04  0.15294330000E+03 0.  0.
<mgrwt>
<rscale>  0 0.11469616E+04</rscale>
<asrwt>0</asrwt>
<pdfrwt beam="1">  1        2 0.21172265E+00 0.11964395E+04</pdfrwt>
<pdfrwt beam="2">  1       -2 0.23322942E+00 0.11964395E+04</pdfrwt>
<totfact> 0.11839714E+00</totfact>
</mgrwt>
</event>
<event>
 4    5  0.6615028E-008  0.1410248E+04  0.7818608E-02  0.8975761E-01
          2   -1    0    0  501    0  0.00000000000E+00  0.00000000000E+00  0.29410772420E+04  0.29410772420E+04  0.25500000000E-02 0. -1.
         -2   -1    0    0    0  501 -0.00000000000E+00 -0.00000000000E+00 -0.70304835023E+03  0.70304835024E+03  0.25500000000E-02 0.  1.
    8880023    1    1    2    0    0 -0.11733502583E+04 -0.42218196938E+03  0.18559905759E+04  0.23309868442E+04  0.65864270000E+03 0.  0.
    8880022    1    1    2    0    0  0.11733502583E+04  0.42218196938E+03  0.38203831590E+03  0.13131387481E+04  0.15294330000E+03 0.  0.
<mgrwt>
<rscale>  0 0.13700866E+04</rscale>
<asrwt>0</asrwt>
<pdfrwt beam="1">  1        2 0.45247341E+00 0.14102477E+04</pdfrwt>
<pdfrwt beam="2">  1       -2 0.10816129E+00 0.14102477E+04</pdfrwt>
<totfact> 0.12498349E+00</totfact>
</mgrwt>
</event>
<event>
 4    5  0.6615028E-008  0.2038341E+04  0.7818608E-02  0.8601025E-01
         -2   -1    0    0    0  501 -0.00000000000E+00  0.00000000000E+00  0.19072627865E+04  0.19072627865E+04  0.25500000000E-02 0.  1.
          2   -1    0    0  501    0  0.00000000000E+00 -0.00000000000E+00 -0.23961868053E+04  0.23961868053E+04  0.25500000000E-02 0. -1.
    8880023    1    1    2    0    0 -0.36478204002E+03 -0.18941909548E+04  0.54439192137E+03  0.21097862642E+04  0.65864270000E+03 0.  0.
    8880022    1    1    2    0    0  0.36478204002E+03  0.18941909548E+04 -0.10333159402E+04  0.21936633277E+04  0.15294330000E+03 0.  0.
<mgrwt>
<rscale>  0 0.20120127E+04</rscale>
<asrwt>0</asrwt>
<pdfrwt beam="1">  1        2 0.36864412E+00 0.20383414E+04</pdfrwt>
<pdfrwt beam="2">  1       -2 0.29342504E+00 0.20383414E+04</pdfrwt>
<totfact> 0.12322223E-01</totfact>
</mgrwt>
</event>
<event>
 4    5  0.6615028E-008  0.9084552E+03  0.7818608E-02  0.9512592E-01
          2   -1    0    0  501    0  0.00000000000E+00  0.00000000000E+00  0.17080149770E+04  0.17080149770E+04  0.25500000000E-02 0. -1.
         -2   -1    0    0    0  501 -0.00000000000E+00 -0.00000000000E+00 -0.15233457560E+04  0.15233457560E+04  0.25500000000E-02 0.  1.
    8880023    1    1    2    0    0 -0.48461120919E+03 -0.39576828030E+03  0.15074888569E+04  0.17600606284E+04  0.65864270000E+03 0. -1.
    8880022    1    1    2    0    0  0.48461120919E+03  0.39576828030E+03 -0.13228196358E+04  0.14713001046E+04  0.15294330000E+03 0.  0.
<mgrwt>
<rscale>  0 0.83361767E+03</rscale>
<asrwt>0</asrwt>
<pdfrwt beam="1">  1        2 0.26277153E+00 0.90845515E+03</pdfrwt>
<pdfrwt beam="2">  1       -2 0.23436089E+00 0.90845515E+03</pdfrwt>
<totfact> 0.78949700E-01</totfact>
</mgrwt>
</event>
<event>
 4    5  0.6694820E-008  0.8619911E+03  0.7818608E-02  0.9590031E-01
          2   -1    0    0  501    0  0.00000000000E+00  0.00000000000E+00  0.20529424004E+04  0.20529424004E+04  0.25500000000E-02 0. -1.
         -2   -1    0    0    0  501 -0.00000000000E+00 -0.00000000000E+00 -0.10072808347E+04  0.10072808347E+04  0.25500000000E-02 0.  1.
    8880023    1    1    2    0    0 -0.21277061265E+03  0.51375784055E+03  0.18671399683E+04  0.20565116872E+04  0.65864270000E+03 0.  0.
    8880022    1    1    2    0    0  0.21277061265E+03 -0.51375784055E+03 -0.82147840258E+03  0.10037115478E+04  0.15294330000E+03 0.  0.
<mgrwt>
<rscale>  0 0.77959495E+03</rscale>
<asrwt>0</asrwt>
<pdfrwt beam="1">  1        2 0.31583729E+00 0.86199110E+03</pdfrwt>
<pdfrwt beam="2">  1       -2 0.15496629E+00 0.86199110E+03</pdfrwt>
<totfact> 0.17479210E+00</totfact>
</mgrwt>
</event>
<event>
 4    5  0.6615028E-008  0.6753801E+03  0.7818608E-02  0.1012068E+00
         -2   -1    0    0    0  501 -0.00000000000E+00  0.00000000000E+00  0.73462060418E+03  0.73462060418E+03  0.25500000000E-02 0.  1.
          2   -1    0    0  501    0  0.00000000000E+00 -0.00000000000E+00 -0.21913708250E+04  0.21913708250E+04  0.25500000000E-02 0. -1.
    8880023    1    1    2    0    0  0.14827117873E+03 -0.18539460684E+02 -0.21221769179E+04  0.22270548110E+04  0.65864270000E+03 0. -1.
    8880022    1    1    2    0    0 -0.14827117873E+03  0.18539460684E+02  0.66542669708E+03  0.69893661819E+03  0.15294330000E+03 0.  0.
<mgrwt>
<rscale>  0 0.50661042E+03</rscale>
<asrwt>0</asrwt>
<pdfrwt beam="1">  1        2 0.33713397E+00 0.67538009E+03</pdfrwt>
<pdfrwt beam="2">  1       -2 0.11301856E+00 0.67538009E+03</pdfrwt>
<totfact> 0.33931165E+00</totfact>
</mgrwt>
</event>
<event>
 4    5  0.6615028E-008  0.7143939E+03  0.7818608E-02  0.9942033E-01
         -2   -1    0    0    0  501 -0.00000000000E+00  0.00000000000E+00  0.10267853357E+04  0.10267853357E+04  0.25500000000E-02 0.  1.
          2   -1    0    0  501    0  0.00000000000E+00 -0.00000000000E+00 -0.13785780092E+04  0.13785780092E+04  0.25500000000E-02 0. -1.
    8880023    1    1    2    0    0  0.24684106724E+03 -0.12497159310E+03 -0.12573952264E+04  0.14461678233E+04  0.65864270000E+03 0. -1.
    8880022    1    1    2    0    0 -0.24684106724E+03  0.12497159310E+03  0.90560255298E+03  0.95919552153E+03  0.15294330000E+03 0.  0.
<mgrwt>
<rscale>  0 0.58266744E+03</rscale>
<asrwt>0</asrwt>
<pdfrwt beam="1">  1        2 0.21208892E+00 0.71439388E+03</pdfrwt>
<pdfrwt beam="2">  1       -2 0.15796697E+00 0.71439388E+03</pdfrwt>
<totfact> 0.40014396E+00</totfact>
</mgrwt>
</event>
<event>
 4    5  0.6615028E-008  0.7678327E+03  0.7818608E-02  0.9785236E-01
          2   -1    0    0  501    0  0.00000000000E+00  0.00000000000E+00  0.13859292907E+04  0.13859292907E+04  0.25500000000E-02 0. -1.
         -2   -1    0    0    0  501 -0.00000000000E+00 -0.00000000000E+00 -0.50650783768E+03  0.50650783768E+03  0.25500000000E-02 0.  1.
    8880023    1    1    2    0    0 -0.37053550708E+03  0.13586849158E+03  0.11553152361E+04  0.13871987277E+04  0.65864270000E+03 0.  0.
    8880022    1    1    2    0    0  0.37053550708E+03 -0.13586849158E+03 -0.27589378307E+03  0.50523840072E+03  0.15294330000E+03 0.  0.
<mgrwt>
<rscale>  0 0.66160926E+03</rscale>
<asrwt>0</asrwt>
<pdfrwt beam="1">  1        2 0.21321989E+00 0.76783267E+03</pdfrwt>
<pdfrwt beam="2">  1       -2 0.77924283E-01 0.76783267E+03</pdfrwt>
<totfact> 0.22044523E+01</totfact>
</mgrwt>
</event>
<event>
 4    5  0.6615028E-008  0.1182349E+04  0.7818608E-02  0.9174474E-01
          2   -1    0    0  501    0  0.00000000000E+00  0.00000000000E+00  0.39600958187E+04  0.39600958187E+04  0.25500000000E-02 0. -1.
         -2   -1    0    0    0  501 -0.00000000000E+00 -0.00000000000E+00 -0.34043450768E+03  0.34043450769E+03  0.25500000000E-02 0.  1.
    8880023    1    1    2    0    0 -0.95483304265E+03  0.22898407071E+03  0.26957609559E+04  0.29436503158E+04  0.65864270000E+03 0.  0.
    8880022    1    1    2    0    0  0.95483304265E+03 -0.22898407071E+03  0.92390035512E+03  0.13568800106E+04  0.15294330000E+03 0.  0.
<mgrwt>
<rscale>  0 0.11320829E+04</rscale>
<asrwt>0</asrwt>
<pdfrwt beam="1">  1        2 0.60924550E+00 0.11823494E+04</pdfrwt>
<pdfrwt beam="2">  1       -2 0.52374541E-01 0.11823494E+04</pdfrwt>
<totfact> 0.12957438E+00</totfact>
</mgrwt>
</event>
<event>
 4    5  0.6615028E-008  0.1702991E+04  0.7818608E-02  0.8778186E-01
          2   -1    0    0  501    0  0.00000000000E+00  0.00000000000E+00  0.29857657525E+04  0.29857657525E+04  0.25500000000E-02 0. -1.
         -2   -1    0    0    0  501 -0.00000000000E+00 -0.00000000000E+00 -0.13804498019E+04  0.13804498019E+04  0.25500000000E-02 0.  1.
    8880023    1    1    2    0    0  0.13908661224E+04  0.72928725906E+03  0.21082109978E+04  0.27101166569E+04  0.65864270000E+03 0. -1.
    8880022    1    1    2    0    0 -0.13908661224E+04 -0.72928725906E+03 -0.50289504715E+03  0.16560988975E+04  0.15294330000E+03 0.  0.
<mgrwt>
<rscale>  0 0.16708173E+04</rscale>
<asrwt>0</asrwt>
<pdfrwt beam="1">  1        2 0.45934857E+00 0.17029911E+04</pdfrwt>
<pdfrwt beam="2">  1       -2 0.21237689E+00 0.17029911E+04</pdfrwt>
<totfact> 0.18065076E-01</totfact>
</mgrwt>
</event>
<event>
 4    5  0.6615028E-008  0.1120094E+04  0.7818608E-02  0.9239007E-01
         -2   -1    0    0    0  501 -0.00000000000E+00  0.00000000000E+00  0.12414347788E+04  0.12414347788E+04  0.25500000000E-02 0.  1.
          2   -1    0    0  501    0  0.00000000000E+00 -0.00000000000E+00 -0.89941120868E+03  0.89941120868E+03  0.25500000000E-02 0. -1.
    8880023    1    1    2    0    0  0.67854042831E+03 -0.60032000047E+03 -0.93617558129E+02  0.11239998529E+04  0.65864270000E+03 0.  0.
    8880022    1    1    2    0    0 -0.67854042831E+03  0.60032000047E+03  0.43564112827E+03  0.10168461346E+04  0.15294330000E+03 0.  0.
<mgrwt>
<rscale>  0 0.10659729E+04</rscale>
<asrwt>0</asrwt>
<pdfrwt beam="1">  1        2 0.13837095E+00 0.11200944E+04</pdfrwt>
<pdfrwt beam="2">  1       -2 0.19098997E+00 0.11200944E+04</pdfrwt>
<totfact> 0.43931622E+00</totfact>
</mgrwt>
</event>
<event>
 4    5  0.6615028E-008  0.9187307E+03  0.7818608E-02  0.9496608E-01
         -2   -1    0    0    0  501 -0.00000000000E+00  0.00000000000E+00  0.12447266244E+04  0.12447266244E+04  0.25500000000E-02 0.  1.
          2   -1    0    0  501    0  0.00000000000E+00 -0.00000000000E+00 -0.85743722510E+03  0.85743722511E+03  0.25500000000E-02 0. -1.
    8880023    1    1    2    0    0 -0.28986924109E+03 -0.57116699094E+03 -0.46129739212E+03  0.10280376446E+04  0.65864270000E+03 0. -1.
    8880022    1    1    2    0    0  0.28986924109E+03  0.57116699094E+03  0.84858679139E+03  0.10741262049E+04  0.15294330000E+03 0.  0.
<mgrwt>
<rscale>  0 0.84534364E+03</rscale>
<asrwt>0</asrwt>
<pdfrwt beam="1">  1        2 0.13191342E+00 0.91873071E+03</pdfrwt>
<pdfrwt beam="2">  1       -2 0.19149640E+00 0.91873071E+03</pdfrwt>
<totfact> 0.47530016E+00</totfact>
</mgrwt>
</event>
<event>
 4    5  0.6615028E-008  0.9712603E+03  0.7818608E-02  0.9420163E-01
         -2   -1    0    0    0  501 -0.00000000000E+00  0.00000000000E+00  0.38366145471E+03  0.38366145472E+03  0.25500000000E-02 0.  1.
          2   -1    0    0  501    0  0.00000000000E+00 -0.00000000000E+00 -0.24611127660E+04  0.24611127660E+04  0.25500000000E-02 0. -1.
    8880023    1    1    2    0    0 -0.51530608847E+03  0.49395952630E+03 -0.18338647908E+04  0.20751883422E+04  0.65864270000E+03 0.  1.
    8880022    1    1    2    0    0  0.51530608847E+03 -0.49395952630E+03 -0.24358652050E+03  0.76958587852E+03  0.15294330000E+03 0.  0.
<mgrwt>
<rscale>  0 0.90434741E+03</rscale>
<asrwt>0</asrwt>
<pdfrwt beam="1">  1        2 0.37863272E+00 0.97126031E+03</pdfrwt>
<pdfrwt beam="2">  1       -2 0.59024841E-01 0.97126031E+03</pdfrwt>
<totfact> 0.99745244E+00</totfact>
</mgrwt>
</event>
<event>
 4    5  0.6615028E-008  0.1193650E+04  0.7818608E-02  0.9163320E-01
          2   -1    0    0  501    0  0.00000000000E+00  0.00000000000E+00  0.11347441191E+04  0.11347441191E+04  0.25500000000E-02 0. -1.
         -2   -1    0    0    0  501 -0.00000000000E+00 -0.00000000000E+00 -0.16917280582E+04  0.16917280583E+04  0.25500000000E-02 0.  1.
    8880023    1    1    2    0    0 -0.96853096139E+03  0.23008204059E+03  0.56340634248E+03  0.13199344232E+04  0.65864270000E+03 0.  0.
    8880022    1    1    2    0    0  0.96853096139E+03 -0.23008204059E+03 -0.11203902816E+04  0.15065377542E+04  0.15294330000E+03 0.  0.
<mgrwt>
<rscale>  0 0.11440181E+04</rscale>
<asrwt>0</asrwt>
<pdfrwt beam="1">  1        2 0.17457602E+00 0.11936499E+04</pdfrwt>
<pdfrwt beam="2">  1       -2 0.26026586E+00 0.11936499E+04</pdfrwt>
<totfact> 0.11234706E+00</totfact>
</mgrwt>
</event>
<event>
 4    5  0.6615028E-008  0.1075823E+04  0.7818608E-02  0.9288464E-01
         -2   -1    0    0    0  501 -0.00000000000E+00  0.00000000000E+00  0.36651340068E+03  0.36651340068E+03  0.25500000000E-02 0.  1.
          2   -1    0    0  501    0  0.00000000000E+00 -0.00000000000E+00 -0.39733150992E+04  0.39733150992E+04  0.25500000000E-02 0. -1.
    8880023    1    1    2    0    0 -0.78281409711E+03 -0.33284660040E+03 -0.32162415182E+04  0.33914015509E+04  0.65864270000E+03 0.  0.
    8880022    1    1    2    0    0  0.78281409711E+03  0.33284660040E+03 -0.39056018033E+03  0.94842694896E+03  0.15294330000E+03 0.  0.
<mgrwt>
<rscale>  0 0.10185186E+04</rscale>
<asrwt>0</asrwt>
<pdfrwt beam="1">  1        2 0.61127922E+00 0.10758229E+04</pdfrwt>
<pdfrwt beam="2">  1       -2 0.56386680E-01 0.10758229E+04</pdfrwt>
<totfact> 0.11031842E+00</totfact>
</mgrwt>
</event>
<event>
 4    5  0.6615028E-008  0.1574246E+04  0.7818608E-02  0.8858912E-01
         -2   -1    0    0    0  501 -0.00000000000E+00  0.00000000000E+00  0.20928188895E+04  0.20928188895E+04  0.25500000000E-02 0.  1.
          2   -1    0    0  501    0  0.00000000000E+00 -0.00000000000E+00 -0.17109746731E+04  0.17109746731E+04  0.25500000000E-02 0. -1.
    8880023    1    1    2    0    0  0.14396047088E+02 -0.14297671921E+04 -0.95425910165E+03  0.18408862292E+04  0.65864270000E+03 0.  0.
    8880022    1    1    2    0    0 -0.14396047088E+02  0.14297671921E+04  0.13361033181E+04  0.19629073333E+04  0.15294330000E+03 0.  0.
<mgrwt>
<rscale>  0 0.15390189E+04</rscale>
<asrwt>0</asrwt>
<pdfrwt beam="1">  1        2 0.26322687E+00 0.15742464E+04</pdfrwt>
<pdfrwt beam="2">  1       -2 0.32197214E+00 0.15742464E+04</pdfrwt>
<totfact> 0.20978919E-01</totfact>
</mgrwt>
</event>
<event>
 4    5  0.6615028E-008  0.8603818E+03  0.7818608E-02  0.9592885E-01
          2   -1    0    0  501    0  0.00000000000E+00  0.00000000000E+00  0.36264774918E+04  0.36264774918E+04  0.25500000000E-02 0. -1.
         -2   -1    0    0    0  501 -0.00000000000E+00 -0.00000000000E+00 -0.32111420600E+03  0.32111420601E+03  0.25500000000E-02 0.  1.
    8880023    1    1    2    0    0  0.51408799475E+03  0.20532961179E+03  0.32598447165E+04  0.33714751220E+04  0.65864270000E+03 0. -1.
    8880022    1    1    2    0    0 -0.51408799475E+03 -0.20532961179E+03  0.45518569275E+02  0.57611657587E+03  0.15294330000E+03 0.  0.
<mgrwt>
<rscale>  0 0.77768921E+03</rscale>
<asrwt>0</asrwt>
<pdfrwt beam="1">  1        2 0.55791957E+00 0.86038185E+03</pdfrwt>
<pdfrwt beam="2">  1       -2 0.49402189E-01 0.86038185E+03</pdfrwt>
<totfact> 0.27341900E+00</totfact>
</mgrwt>
</event>
<event>
 4    5  0.6615028E-008  0.1405503E+04  0.7818608E-02  0.8979418E-01
         -2   -1    0    0    0  501 -0.00000000000E+00  0.00000000000E+00  0.31789896200E+04  0.31789896200E+04  0.25500000000E-02 0.  1.
          2   -1    0    0  501    0  0.00000000000E+00 -0.00000000000E+00 -0.13948962223E+04  0.13948962223E+04  0.25500000000E-02 0. -1.
    8880023    1    1    2    0    0 -0.11046681436E+04  0.56686661381E+03 -0.86073005539E+03  0.16481188974E+04  0.65864270000E+03 0.  0.
    8880022    1    1    2    0    0  0.11046681436E+04 -0.56686661381E+03  0.26448234530E+04  0.29257669450E+04  0.15294330000E+03 0.  0.
<mgrwt>
<rscale>  0 0.13651769E+04</rscale>
<asrwt>0</asrwt>
<pdfrwt beam="1">  1        2 0.21459942E+00 0.14055034E+04</pdfrwt>
<pdfrwt beam="2">  1       -2 0.48907532E+00 0.14055034E+04</pdfrwt>
<totfact> 0.26693948E-02</totfact>
</mgrwt>
</event>
<event>
 4    5  0.7061124E-008  0.6805613E+03  0.7818608E-02  0.1009008E+00
         -2   -1    0    0    0  501 -0.00000000000E+00  0.00000000000E+00  0.20821840679E+04  0.20821840679E+04  0.25500000000E-02 0.  1.
          2   -1    0    0  501    0  0.00000000000E+00 -0.00000000000E+00 -0.16741445164E+04  0.16741445164E+04  0.25500000000E-02 0. -1.
    8880023    1    1    2    0    0  0.94941499509E+02 -0.14261684975E+03 -0.15981571860E+04  0.17370290877E+04  0.65864270000E+03 0. -1.
    8880022    1    1    2    0    0 -0.94941499509E+02  0.14261684975E+03  0.20061967375E+04  0.20192994966E+04  0.15294330000E+03 0.  0.
<mgrwt>
<rscale>  0 0.51870830E+03</rscale>
<asrwt>0</asrwt>
<pdfrwt beam="1">  1        2 0.25756070E+00 0.68056128E+03</pdfrwt>
<pdfrwt beam="2">  1       -2 0.32033601E+00 0.68056128E+03</pdfrwt>
<totfact> 0.26162875E-01</totfact>
</mgrwt>
</event>
<event>
 4    5  0.6615028E-008  0.7938596E+03  0.7818608E-02  0.9724233E-01
          2   -1    0    0  501    0  0.00000000000E+00  0.00000000000E+00  0.10056438515E+04  0.10056438515E+04  0.25500000000E-02 0. -1.
         -2   -1    0    0    0  501 -0.00000000000E+00 -0.00000000000E+00 -0.39846900938E+03  0.39846900939E+03  0.25500000000E-02 0.  1.
    8880023    1    1    2    0    0 -0.46944887007E+02  0.44068026923E+03  0.43074839386E+03  0.90319284053E+03  0.65864270000E+03 0.  0.
    8880022    1    1    2    0    0  0.46944887007E+02 -0.44068026923E+03  0.17642644821E+03  0.50092002031E+03  0.15294330000E+03 0. -1.
<mgrwt>
<rscale>  0 0.69592095E+03</rscale>
<asrwt>0</asrwt>
<pdfrwt beam="1">  1        2 0.15471444E+00 0.79385964E+03</pdfrwt>
<pdfrwt beam="2">  1       -2 0.61302926E-01 0.79385964E+03</pdfrwt>
<totfact> 0.62520869E+01</totfact>
</mgrwt>
</event>
<event>
 4    5  0.6615028E-008  0.1496954E+04  0.7818608E-02  0.8911789E-01
         -2   -1    0    0    0  501 -0.00000000000E+00  0.00000000000E+00  0.19635960923E+04  0.19635960923E+04  0.25500000000E-02 0.  1.
          2   -1    0    0  501    0  0.00000000000E+00 -0.00000000000E+00 -0.20556400161E+04  0.20556400161E+04  0.25500000000E-02 0. -1.
    8880023    1    1    2    0    0 -0.13285822709E+04  0.20477205068E+03 -0.14629752493E+04  0.20931242748E+04  0.65864270000E+03 0.  0.
    8880022    1    1    2    0    0  0.13285822709E+04 -0.20477205068E+03  0.13709313255E+04  0.19261118336E+04  0.15294330000E+03 0.  0.
<mgrwt>
<rscale>  0 0.14595746E+04</rscale>
<asrwt>0</asrwt>
<pdfrwt beam="1">  1        2 0.31625231E+00 0.14969545E+04</pdfrwt>
<pdfrwt beam="2">  1       -2 0.30209171E+00 0.14969545E+04</pdfrwt>
<totfact> 0.18012528E-01</totfact>
</mgrwt>
</event>
<event>
 4    5  0.6615028E-008  0.8506869E+03  0.7818608E-02  0.9610349E-01
         -2   -1    0    0    0  501 -0.00000000000E+00  0.00000000000E+00  0.15413365164E+03  0.15413365167E+03  0.25500000000E-02 0.  1.
          2   -1    0    0  501    0  0.00000000000E+00 -0.00000000000E+00 -0.34090462667E+04  0.34090462667E+04  0.25500000000E-02 0. -1.
    8880023    1    1    2    0    0  0.89460823870E+02 -0.53089997439E+03 -0.23492949147E+04  0.24985705562E+04  0.65864270000E+03 0. -1.
    8880022    1    1    2    0    0 -0.89460823870E+02  0.53089997439E+03 -0.90561770043E+03  0.10646093622E+04  0.15294330000E+03 0.  0.
<mgrwt>
<rscale>  0 0.76614971E+03</rscale>
<asrwt>0</asrwt>
<pdfrwt beam="1">  1        2 0.52446860E+00 0.85068692E+03</pdfrwt>
<pdfrwt beam="2">  1       -2 0.23712872E-01 0.85068692E+03</pdfrwt>
<totfact> 0.15653367E+01</totfact>
</mgrwt>
</event>
<event>
 4    5  0.6615028E-008  0.2641883E+04  0.7818608E-02  0.8360785E-01
          2   -1    0    0  501    0  0.00000000000E+00  0.00000000000E+00  0.40537022429E+04  0.40537022429E+04  0.25500000000E-02 0. -1.
         -2   -1    0    0    0  501 -0.00000000000E+00 -0.00000000000E+00 -0.29905460511E+04  0.29905460511E+04  0.25500000000E-02 0.  1.
    8880023    1    1    2    0    0 -0.11861924208E+04  0.22668667274E+04 -0.18035814780E+04  0.31988206534E+04  0.65864270000E+03 0.  0.
    8880022    1    1    2    0    0  0.11861924208E+04 -0.22668667274E+04  0.28667376698E+04  0.38454276406E+04  0.15294330000E+03 0.  0.
<mgrwt>
<rscale>  0 0.26219457E+04</rscale>
<asrwt>0</asrwt>
<pdfrwt beam="1">  1        2 0.62364650E+00 0.26418833E+04</pdfrwt>
<pdfrwt beam="2">  1       -2 0.46008401E+00 0.26418833E+04</pdfrwt>
<totfact> 0.74720814E-04</totfact>
</mgrwt>
</event>
<event>
 4    5  0.6615028E-008  0.7706915E+03  0.7818608E-02  0.9778175E-01
         -2   -1    0    0    0  501 -0.00000000000E+00  0.00000000000E+00  0.72219662898E+03  0.72219662898E+03  0.25500000000E-02 0.  1.
          2   -1    0    0  501    0  0.00000000000E+00 -0.00000000000E+00 -0.15174623521E+04  0.15174623521E+04  0.25500000000E-02 0. -1.
    8880023    1    1    2    0    0 -0.33764588781E+03 -0.21482639576E+03 -0.13404918923E+04  0.15462483130E+04  0.65864270000E+03 0. -1.
    8880022    1    1    2    0    0  0.33764588781E+03  0.21482639576E+03  0.54522616925E+03  0.69341066802E+03  0.15294330000E+03 0.  0.
<mgrwt>
<rscale>  0 0.66547042E+03</rscale>
<asrwt>0</asrwt>
<pdfrwt beam="1">  1        2 0.23345575E+00 0.77069146E+03</pdfrwt>
<pdfrwt beam="2">  1       -2 0.11110717E+00 0.77069146E+03</pdfrwt>
<totfact> 0.81345054E+00</totfact>
</mgrwt>
</event>
<event>
 4    5  0.6615028E-008  0.6892490E+03  0.7818608E-02  0.1004512E+00
          2   -1    0    0  501    0  0.00000000000E+00  0.00000000000E+00  0.74000733152E+03  0.74000733152E+03  0.25500000000E-02 0. -1.
         -2   -1    0    0    0  501 -0.00000000000E+00 -0.00000000000E+00 -0.67452697256E+03  0.67452697256E+03  0.25500000000E-02 0.  1.
    8880023    1    1    2    0    0 -0.86957597701E+02 -0.18355492113E+03  0.54039800282E+03  0.87583916365E+03  0.65864270000E+03 0.  0.
    8880022    1    1    2    0    0  0.86957597701E+02  0.18355492113E+03 -0.47491764385E+03  0.53869514043E+03  0.15294330000E+03 0.  0.
<mgrwt>
<rscale>  0 0.53715494E+03</rscale>
<asrwt>0</asrwt>
<pdfrwt beam="1">  1        2 0.11384728E+00 0.68924904E+03</pdfrwt>
<pdfrwt beam="2">  1       -2 0.10377338E+00 0.68924904E+03</pdfrwt>
<totfact> 0.29409457E+01</totfact>
</mgrwt>
</event>
<event>
 4    5  0.6615028E-008  0.7443932E+03  0.7818608E-02  0.9847330E-01
          2   -1    0    0  501    0  0.00000000000E+00  0.00000000000E+00  0.83557194016E+03  0.83557194016E+03  0.25500000000E-02 0. -1.
         -2   -1    0    0    0  501 -0.00000000000E+00 -0.00000000000E+00 -0.20924240777E+04  0.20924240777E+04  0.25500000000E-02 0.  1.
    8880023    1    1    2    0    0  0.34231983431E+03 -0.55929750547E+02  0.64730538496E+03  0.98647122290E+03  0.65864270000E+03 0.  0.
    8880022    1    1    2    0    0 -0.34231983431E+03  0.55929750547E+02 -0.19041575225E+04  0.19415247950E+04  0.15294330000E+03 0.  0.
<mgrwt>
<rscale>  0 0.62883237E+03</rscale>
<asrwt>0</asrwt>
<pdfrwt beam="1">  1        2 0.12854953E+00 0.74439318E+03</pdfrwt>
<pdfrwt beam="2">  1       -2 0.32191139E+00 0.74439318E+03</pdfrwt>
<totfact> 0.79579152E-01</totfact>
</mgrwt>
</event>
<event>
 4    5  0.6615028E-008  0.1215725E+04  0.7818608E-02  0.9141986E-01
         -2   -1    0    0    0  501 -0.00000000000E+00  0.00000000000E+00  0.13360630376E+04  0.13360630376E+04  0.25500000000E-02 0.  1.
          2   -1    0    0  501    0  0.00000000000E+00 -0.00000000000E+00 -0.12272053926E+04  0.12272053926E+04  0.25500000000E-02 0. -1.
    8880023    1    1    2    0    0 -0.98982007323E+03  0.25383841763E+03 -0.55367174262E+03  0.13358668813E+04  0.65864270000E+03 0. -1.
    8880022    1    1    2    0    0  0.98982007323E+03 -0.25383841763E+03  0.66252938764E+03  0.12274015489E+04  0.15294330000E+03 0.  0.
<mgrwt>
<rscale>  0 0.11672828E+04</rscale>
<asrwt>0</asrwt>
<pdfrwt beam="1">  1        2 0.18880083E+00 0.12157253E+04</pdfrwt>
<pdfrwt beam="2">  1       -2 0.20554816E+00 0.12157253E+04</pdfrwt>
<totfact> 0.21641892E+00</totfact>
</mgrwt>
</event>
<event>
 4    5  0.6615028E-008  0.7639025E+03  0.7818608E-02  0.9795107E-01
          2   -1    0    0  501    0  0.00000000000E+00  0.00000000000E+00  0.26681509114E+04  0.26681509114E+04  0.25500000000E-02 0. -1.
         -2   -1    0    0    0  501 -0.00000000000E+00 -0.00000000000E+00 -0.39638095072E+03  0.39638095073E+03  0.25500000000E-02 0.  1.
    8880023    1    1    2    0    0 -0.38451438377E+03 -0.43423206835E+02  0.24830328865E+04  0.25978836402E+04  0.65864270000E+03 0. -1.
    8880022    1    1    2    0    0  0.38451438377E+03  0.43423206835E+02 -0.21126292581E+03  0.46664822196E+03  0.15294330000E+03 0.  0.
<mgrwt>
<rscale>  0 0.65625791E+03</rscale>
<asrwt>0</asrwt>
<pdfrwt beam="1">  1        2 0.41048476E+00 0.76390254E+03</pdfrwt>
<pdfrwt beam="2">  1       -2 0.60981684E-01 0.76390254E+03</pdfrwt>
<totfact> 0.73003515E+00</totfact>
</mgrwt>
</event>
<event>
 4    5  0.6615028E-008  0.1097313E+04  0.7818608E-02  0.9264053E-01
         -2   -1    0    0    0  501 -0.00000000000E+00  0.00000000000E+00  0.70028832969E+03  0.70028832970E+03  0.25500000000E-02 0.  1.
          2   -1    0    0  501    0  0.00000000000E+00 -0.00000000000E+00 -0.16052087297E+04  0.16052087297E+04  0.25500000000E-02 0. -1.
    8880023    1    1    2    0    0 -0.62719171635E+03 -0.61393539083E+03 -0.89263007711E+03  0.14145263426E+04  0.65864270000E+03 0.  0.
    8880022    1    1    2    0    0  0.62719171635E+03  0.61393539083E+03 -0.12290322940E+02  0.89097071681E+03  0.15294330000E+03 0.  0.
<mgrwt>
<rscale>  0 0.10416060E+04</rscale>
<asrwt>0</asrwt>
<pdfrwt beam="1">  1        2 0.24695519E+00 0.10973132E+04</pdfrwt>
<pdfrwt beam="2">  1       -2 0.10773667E+00 0.10973132E+04</pdfrwt>
<totfact> 0.75452834E+00</totfact>
</mgrwt>
</event>
<event>
 4    5  0.6615028E-008  0.1037784E+04  0.7818608E-02  0.9333713E-01
         -2   -1    0    0    0  501 -0.00000000000E+00  0.00000000000E+00  0.44613969461E+03  0.44613969462E+03  0.25500000000E-02 0.  1.
          2   -1    0    0  501    0  0.00000000000E+00 -0.00000000000E+00 -0.36506378384E+04  0.36506378384E+04  0.25500000000E-02 0. -1.
    8880023    1    1    2    0    0  0.49800059604E+03 -0.62863346256E+03 -0.31055522231E+04  0.32743624480E+04  0.65864270000E+03 0.  0.
    8880022    1    1    2    0    0 -0.49800059604E+03  0.62863346256E+03 -0.98945920685E+02  0.82241508506E+03  0.15294330000E+03 0.  0.
<mgrwt>
<rscale>  0 0.97737525E+03</rscale>
<asrwt>0</asrwt>
<pdfrwt beam="1">  1        2 0.56163657E+00 0.10377836E+04</pdfrwt>
<pdfrwt beam="2">  1       -2 0.68636879E-01 0.10377836E+04</pdfrwt>
<totfact> 0.12734115E+00</totfact>
</mgrwt>
</event>
<event>
 4    5  0.6615028E-008  0.8872012E+03  0.7818608E-02  0.9546898E-01
         -2   -1    0    0    0  501 -0.00000000000E+00  0.00000000000E+00  0.20472465390E+03  0.20472465391E+03  0.25500000000E-02 0.  1.
          2   -1    0    0  501    0  0.00000000000E+00 -0.00000000000E+00 -0.35395804803E+04  0.35395804803E+04  0.25500000000E-02 0. -1.
    8880023    1    1    2    0    0  0.24863584978E+03  0.53990367925E+03 -0.27756470000E+04  0.29139907761E+04  0.65864270000E+03 0. -1.
    8880022    1    1    2    0    0 -0.24863584978E+03 -0.53990367925E+03 -0.55920882642E+03  0.83031435807E+03  0.15294330000E+03 0.  0.
<mgrwt>
<rscale>  0 0.80912778E+03</rscale>
<asrwt>0</asrwt>
<pdfrwt beam="1">  1        2 0.54455080E+00 0.88720120E+03</pdfrwt>
<pdfrwt beam="2">  1       -2 0.31496103E-01 0.88720120E+03</pdfrwt>
<totfact> 0.75357013E+00</totfact>
</mgrwt>
</event>
<event>
 4    5  0.6615028E-008  0.1526256E+04  0.7818608E-02  0.8891315E-01
          2   -1    0    0  501    0  0.00000000000E+00  0.00000000000E+00  0.23689684933E+04  0.23689684933E+04  0.25500000000E-02 0. -1.
         -2   -1    0    0    0  501 -0.00000000000E+00 -0.00000000000E+00 -0.10965199724E+04  0.10965199724E+04  0.25500000000E-02 0.  1.
    8880023    1    1    2    0    0 -0.21964626417E+03  0.13591917659E+04 -0.81492909098E+02  0.15284299259E+04  0.65864270000E+03 0.  0.
    8880022    1    1    2    0    0  0.21964626417E+03 -0.13591917659E+04  0.13539414299E+04  0.19370585398E+04  0.15294330000E+03 0.  0.
<mgrwt>
<rscale>  0 0.14897245E+04</rscale>
<asrwt>0</asrwt>
<pdfrwt beam="1">  1        2 0.36445669E+00 0.15262559E+04</pdfrwt>
<pdfrwt beam="2">  1       -2 0.16869538E+00 0.15262559E+04</pdfrwt>
<totfact> 0.84737595E-01</totfact>
</mgrwt>
</event>
<event>
 4    5  0.6615028E-008  0.7728321E+03  0.7818608E-02  0.9772952E-01
         -2   -1    0    0    0  501 -0.00000000000E+00  0.00000000000E+00  0.32481614530E+03  0.32481614531E+03  0.25500000000E-02 0.  1.
          2   -1    0    0  501    0  0.00000000000E+00 -0.00000000000E+00 -0.21433652337E+04  0.21433652337E+04  0.25500000000E-02 0. -1.
    8880023    1    1    2    0    0  0.36733974967E+03  0.16888101102E+03 -0.18789871301E+04  0.20317140864E+04  0.65864270000E+03 0.  0.
    8880022    1    1    2    0    0 -0.36733974967E+03 -0.16888101102E+03  0.60438041748E+02  0.43646729256E+03  0.15294330000E+03 0.  0.
<mgrwt>
<rscale>  0 0.66834513E+03</rscale>
<asrwt>0</asrwt>
<pdfrwt beam="1">  1        2 0.32974849E+00 0.77283213E+03</pdfrwt>
<pdfrwt beam="2">  1       -2 0.49971716E-01 0.77283213E+03</pdfrwt>
<totfact> 0.21759180E+01</totfact>
</mgrwt>
</event>
<event>
 4    5  0.6615028E-008  0.1521515E+04  0.7818608E-02  0.8894591E-01
         -2   -1    0    0    0  501 -0.00000000000E+00  0.00000000000E+00  0.10655042478E+04  0.10655042478E+04  0.25500000000E-02 0.  1.
          2   -1    0    0  501    0  0.00000000000E+00 -0.00000000000E+00 -0.21417338165E+04  0.21417338165E+04  0.25500000000E-02 0. -1.
    8880023    1    1    2    0    0 -0.33866270941E+03 -0.13290991155E+04 -0.11589992201E+03  0.15259226349E+04  0.65864270000E+03 0.  0.
    8880022    1    1    2    0    0  0.33866270941E+03  0.13290991155E+04 -0.96032964668E+03  0.16813154293E+04  0.15294330000E+03 0.  0.
<mgrwt>
<rscale>  0 0.14848489E+04</rscale>
<asrwt>0</asrwt>
<pdfrwt beam="1">  1        2 0.32949751E+00 0.15215147E+04</pdfrwt>
<pdfrwt beam="2">  1       -2 0.16392373E+00 0.15215147E+04</pdfrwt>
<totfact> 0.12346137E+00</totfact>
</mgrwt>
</event>
<event>
 4    5  0.6615028E-008  0.1010444E+04  0.7818608E-02  0.9368020E-01
          2   -1    0    0  501    0  0.00000000000E+00  0.00000000000E+00  0.88186448946E+03  0.88186448947E+03  0.25500000000E-02 0. -1.
         -2   -1    0    0    0  501 -0.00000000000E+00 -0.00000000000E+00 -0.13187889351E+04  0.13187889351E+04  0.25500000000E-02 0.  1.
    8880023    1    1    2    0    0  0.55198889287E+03 -0.53150248134E+03  0.37126122283E+03  0.10764904678E+04  0.65864270000E+03 0.  0.
    8880022    1    1    2    0    0 -0.55198889287E+03  0.53150248134E+03 -0.80818566848E+03  0.11241629567E+04  0.15294330000E+03 0.  0.
<mgrwt>
<rscale>  0 0.94754930E+03</rscale>
<asrwt>0</asrwt>
<pdfrwt beam="1">  1        2 0.13567146E+00 0.10104439E+04</pdfrwt>
<pdfrwt beam="2">  1       -2 0.20289061E+00 0.10104439E+04</pdfrwt>
<totfact> 0.38087940E+00</totfact>
</mgrwt>
</event>
<event>
 4    5  0.6615028E-008  0.7010125E+03  0.7818608E-02  0.9993026E-01
         -2   -1    0    0    0  501 -0.00000000000E+00  0.00000000000E+00  0.33522155323E+03  0.33522155324E+03  0.25500000000E-02 0.  1.
          2   -1    0    0  501    0  0.00000000000E+00 -0.00000000000E+00 -0.11930252074E+04  0.11930252074E+04  0.25500000000E-02 0. -1.
    8880023    1    1    2    0    0  0.15357290523E+03  0.18445521697E+03 -0.99111092596E+03  0.12139684667E+04  0.65864270000E+03 0. -1.
    8880022    1    1    2    0    0 -0.15357290523E+03 -0.18445521697E+03  0.13330727182E+03  0.31427829391E+03  0.15294330000E+03 0.  0.
<mgrwt>
<rscale>  0 0.55957071E+03</rscale>
<asrwt>0</asrwt>
<pdfrwt beam="1">  1        2 0.18354234E+00 0.70101253E+03</pdfrwt>
<pdfrwt beam="2">  1       -2 0.51572547E-01 0.70101253E+03</pdfrwt>
<totfact> 0.69357150E+01</totfact>
</mgrwt>
</event>
<event>
 4    5  0.6615028E-008  0.1217246E+04  0.7818608E-02  0.9140538E-01
         -2   -1    0    0    0  501 -0.00000000000E+00  0.00000000000E+00  0.54316540000E+03  0.54316540001E+03  0.25500000000E-02 0.  1.
          2   -1    0    0  501    0  0.00000000000E+00 -0.00000000000E+00 -0.41120308376E+04  0.41120308376E+04  0.25500000000E-02 0. -1.
    8880023    1    1    2    0    0 -0.97968803228E+03 -0.29679672091E+03 -0.33937781825E+04  0.36054704953E+04  0.65864270000E+03 0.  0.
    8880022    1    1    2    0    0  0.97968803228E+03  0.29679672091E+03 -0.17508725507E+03  0.10497257423E+04  0.15294330000E+03 0.  0.
<mgrwt>
<rscale>  0 0.11688829E+04</rscale>
<asrwt>0</asrwt>
<pdfrwt beam="1">  1        2 0.63262011E+00 0.12172457E+04</pdfrwt>
<pdfrwt beam="2">  1       -2 0.83563911E-01 0.12172457E+04</pdfrwt>
<totfact> 0.35203675E-01</totfact>
</mgrwt>
</event>
<event>
 4    5  0.6615028E-008  0.2147328E+04  0.7818608E-02  0.8551417E-01
         -2   -1    0    0    0  501 -0.00000000000E+00  0.00000000000E+00  0.19643583011E+04  0.19643583011E+04  0.25500000000E-02 0.  1.
          2   -1    0    0  501    0  0.00000000000E+00 -0.00000000000E+00 -0.26911176844E+04  0.26911176844E+04  0.25500000000E-02 0. -1.
    8880023    1    1    2    0    0  0.27659887648E+03  0.20250189768E+04  0.58064288989E+03  0.22244471598E+04  0.65864270000E+03 0.  0.
    8880022    1    1    2    0    0 -0.27659887648E+03 -0.20250189768E+04 -0.13074022732E+04  0.24310288258E+04  0.15294330000E+03 0.  0.
<mgrwt>
<rscale>  0 0.21224514E+04</rscale>
<asrwt>0</asrwt>
<pdfrwt beam="1">  1        2 0.41401811E+00 0.21473283E+04</pdfrwt>
<pdfrwt beam="2">  1       -2 0.30220897E+00 0.21473283E+04</pdfrwt>
<totfact> 0.72278863E-02</totfact>
</mgrwt>
</event>
<event>
 4    5  0.6615028E-008  0.1221303E+04  0.7818608E-02  0.9136687E-01
         -2   -1    0    0    0  501 -0.00000000000E+00  0.00000000000E+00  0.39303766896E+03  0.39303766897E+03  0.25500000000E-02 0.  1.
          2   -1    0    0  501    0  0.00000000000E+00 -0.00000000000E+00 -0.45204218693E+04  0.45204218693E+04  0.25500000000E-02 0. -1.
    8880023    1    1    2    0    0 -0.85711593487E+03  0.56843915164E+03 -0.34812483464E+04  0.36892642966E+04  0.65864270000E+03 0. -1.
    8880022    1    1    2    0    0  0.85711593487E+03 -0.56843915164E+03 -0.64613585400E+03  0.12241952417E+04  0.15294330000E+03 0.  0.
<mgrwt>
<rscale>  0 0.11731511E+04</rscale>
<asrwt>0</asrwt>
<pdfrwt beam="1">  1        2 0.69544948E+00 0.12213030E+04</pdfrwt>
<pdfrwt beam="2">  1       -2 0.60467337E-01 0.12213030E+04</pdfrwt>
<totfact> 0.30925746E-01</totfact>
</mgrwt>
</event>
<event>
 4    5  0.6615028E-008  0.8451600E+03  0.7818608E-02  0.9620526E-01
         -2   -1    0    0    0  501 -0.00000000000E+00  0.00000000000E+00  0.19603478522E+04  0.19603478522E+04  0.25500000000E-02 0.  1.
          2   -1    0    0  501    0  0.00000000000E+00 -0.00000000000E+00 -0.11077353647E+04  0.11077353647E+04  0.25500000000E-02 0. -1.
    8880023    1    1    2    0    0  0.52262204801E+03 -0.85740831299E+02 -0.89774057716E+03  0.12329775527E+04  0.65864270000E+03 0. -1.
    8880022    1    1    2    0    0 -0.52262204801E+03  0.85740831299E+02  0.17503530646E+04  0.18351056643E+04  0.15294330000E+03 0.  0.
<mgrwt>
<rscale>  0 0.75952389E+03</rscale>
<asrwt>0</asrwt>
<pdfrwt beam="1">  1        2 0.17042083E+00 0.84516004E+03</pdfrwt>
<pdfrwt beam="2">  1       -2 0.30159197E+00 0.84516004E+03</pdfrwt>
<totfact> 0.68949987E-01</totfact>
</mgrwt>
</event>
<event>
 4    5  0.6615028E-008  0.1037867E+04  0.7818608E-02  0.9333611E-01
          2   -1    0    0  501    0  0.00000000000E+00  0.00000000000E+00  0.18386033987E+04  0.18386033987E+04  0.25500000000E-02 0. -1.
         -2   -1    0    0    0  501 -0.00000000000E+00 -0.00000000000E+00 -0.11112886563E+04  0.11112886563E+04  0.25500000000E-02 0.  1.
    8880023    1    1    2    0    0  0.45120221386E+03  0.66315478650E+03  0.15010956536E+04  0.18249537189E+04  0.65864270000E+03 0.  0.
    8880022    1    1    2    0    0 -0.45120221386E+03 -0.66315478650E+03 -0.77378091113E+03  0.11249383361E+04  0.15294330000E+03 0.  0.
<mgrwt>
<rscale>  0 0.97746588E+03</rscale>
<asrwt>0</asrwt>
<pdfrwt beam="1">  1        2 0.28286206E+00 0.10378670E+04</pdfrwt>
<pdfrwt beam="2">  1       -2 0.17096749E+00 0.10378670E+04</pdfrwt>
<totfact> 0.17067780E+00</totfact>
</mgrwt>
</event>
<event>
 4    5  0.6615028E-008  0.1042222E+04  0.7818608E-02  0.9328291E-01
          2   -1    0    0  501    0  0.00000000000E+00  0.00000000000E+00  0.12684085317E+04  0.12684085317E+04  0.25500000000E-02 0. -1.
         -2   -1    0    0    0  501 -0.00000000000E+00 -0.00000000000E+00 -0.15770424238E+04  0.15770424238E+04  0.25500000000E-02 0.  1.
    8880023    1    1    2    0    0  0.66919943131E+03 -0.45231433271E+03  0.90452336879E+03  0.13799959657E+04  0.65864270000E+03 0. -1.
    8880022    1    1    2    0    0 -0.66919943131E+03  0.45231433271E+03 -0.12131572609E+04  0.14654549898E+04  0.15294330000E+03 0.  0.
<mgrwt>
<rscale>  0 0.98219569E+03</rscale>
<asrwt>0</asrwt>
<pdfrwt beam="1">  1        2 0.19513977E+00 0.10422218E+04</pdfrwt>
<pdfrwt beam="2">  1       -2 0.24262191E+00 0.10422218E+04</pdfrwt>
<totfact> 0.12194476E+00</totfact>
</mgrwt>
</event>
<event>
 4    5  0.6615028E-008  0.1274516E+04  0.7818608E-02  0.9087885E-01
          2   -1    0    0  501    0  0.00000000000E+00  0.00000000000E+00  0.17589853784E+04  0.17589853784E+04  0.25500000000E-02 0. -1.
         -2   -1    0    0    0  501 -0.00000000000E+00 -0.00000000000E+00 -0.11692972285E+04  0.11692972285E+04  0.25500000000E-02 0.  1.
    8880023    1    1    2    0    0 -0.10172912140E+03 -0.10863850771E+04  0.11280136467E+04  0.17020006884E+04  0.65864270000E+03 0.  0.
    8880022    1    1    2    0    0  0.10172912140E+03  0.10863850771E+04 -0.53832549680E+03  0.12262819184E+04  0.15294330000E+03 0.  0.
<mgrwt>
<rscale>  0 0.12289526E+04</rscale>
<asrwt>0</asrwt>
<pdfrwt beam="1">  1        2 0.27061313E+00 0.12745162E+04</pdfrwt>
<pdfrwt beam="2">  1       -2 0.17989188E+00 0.12745162E+04</pdfrwt>
<totfact> 0.15902582E+00</totfact>
</mgrwt>
</event>
<event>
 4    5  0.6615028E-008  0.1076897E+04  0.7818608E-02  0.9287225E-01
          2   -1    0    0  501    0  0.00000000000E+00  0.00000000000E+00  0.11894485778E+04  0.11894485778E+04  0.25500000000E-02 0. -1.
         -2   -1    0    0    0  501 -0.00000000000E+00 -0.00000000000E+00 -0.92281515998E+03  0.92281515999E+03  0.25500000000E-02 0.  1.
    8880023    1    1    2    0    0  0.54162126121E+03  0.65768021091E+03  0.53974294291E+03  0.12045868591E+04  0.65864270000E+03 0. -1.
    8880022    1    1    2    0    0 -0.54162126121E+03 -0.65768021091E+03 -0.27310952508E+03  0.90767687870E+03  0.15294330000E+03 0.  0.
<mgrwt>
<rscale>  0 0.10196749E+04</rscale>
<asrwt>0</asrwt>
<pdfrwt beam="1">  1        2 0.18299209E+00 0.10768970E+04</pdfrwt>
<pdfrwt beam="2">  1       -2 0.14197156E+00 0.10768970E+04</pdfrwt>
<totfact> 0.65509289E+00</totfact>
</mgrwt>
</event>
<event>
 4    5  0.6615028E-008  0.7002673E+03  0.7818608E-02  0.9996094E-01
         -2   -1    0    0    0  501 -0.00000000000E+00  0.00000000000E+00  0.12059562131E+04  0.12059562131E+04  0.25500000000E-02 0.  1.
          2   -1    0    0  501    0  0.00000000000E+00 -0.00000000000E+00 -0.44374828701E+03  0.44374828702E+03  0.25500000000E-02 0. -1.
    8880023    1    1    2    0    0 -0.13787748111E+03 -0.19378837375E+03 -0.13134483430E+03  0.71247863502E+03  0.65864270000E+03 0. -1.
    8880022    1    1    2    0    0  0.13787748111E+03  0.19378837375E+03  0.89355276041E+03  0.93722586512E+03  0.15294330000E+03 0.  0.
<mgrwt>
<rscale>  0 0.55821839E+03</rscale>
<asrwt>0</asrwt>
<pdfrwt beam="1">  1        2 0.68268967E-01 0.70026733E+03</pdfrwt>
<pdfrwt beam="2">  1       -2 0.18553173E+00 0.70026733E+03</pdfrwt>
<totfact> 0.12001612E+01</totfact>
</mgrwt>
</event>
<event>
 4    5  0.6615028E-008  0.7796822E+03  0.7818608E-02  0.9756584E-01
          2   -1    0    0  501    0  0.00000000000E+00  0.00000000000E+00  0.14224787355E+04  0.14224787355E+04  0.25500000000E-02 0. -1.
         -2   -1    0    0    0  501 -0.00000000000E+00 -0.00000000000E+00 -0.58060987333E+03  0.58060987333E+03  0.25500000000E-02 0.  1.
    8880023    1    1    2    0    0 -0.24239771048E+03  0.33961369083E+03  0.12008856919E+04  0.14317928482E+04  0.65864270000E+03 0.  0.
    8880022    1    1    2    0    0  0.24239771048E+03 -0.33961369083E+03 -0.35901682971E+03  0.57129576059E+03  0.15294330000E+03 0.  0.
<mgrwt>
<rscale>  0 0.67745458E+03</rscale>
<asrwt>0</asrwt>
<pdfrwt beam="1">  1        2 0.21884288E+00 0.77968219E+03</pdfrwt>
<pdfrwt beam="2">  1       -2 0.89324596E-01 0.77968219E+03</pdfrwt>
<totfact> 0.15396780E+01</totfact>
</mgrwt>
</event>
<event>
 4    5  0.6615028E-008  0.6790496E+03  0.7818608E-02  0.1009866E+00
         -2   -1    0    0    0  501 -0.00000000000E+00  0.00000000000E+00  0.35672740347E+03  0.35672740348E+03  0.25500000000E-02 0.  1.
          2   -1    0    0  501    0  0.00000000000E+00 -0.00000000000E+00 -0.37264228708E+04  0.37264228708E+04  0.25500000000E-02 0. -1.
    8880023    1    1    2    0    0 -0.10828405461E+03  0.12479081106E+03 -0.36562247821E+04  0.37187481828E+04  0.65864270000E+03 0. -1.
    8880022    1    1    2    0    0  0.10828405461E+03 -0.12479081106E+03  0.28652931484E+03  0.36440209150E+03  0.15294330000E+03 0.  0.
<mgrwt>
<rscale>  0 0.51527758E+03</rscale>
<asrwt>0</asrwt>
<pdfrwt beam="1">  1        2 0.57329580E+00 0.67904962E+03</pdfrwt>
<pdfrwt beam="2">  1       -2 0.54881142E-01 0.67904962E+03</pdfrwt>
<totfact> 0.19455588E+00</totfact>
</mgrwt>
</event>
<event>
 4    5  0.6615028E-008  0.7545020E+03  0.7818608E-02  0.9819555E-01
         -2   -1    0    0    0  501 -0.00000000000E+00  0.00000000000E+00  0.15408270085E+04  0.15408270085E+04  0.25500000000E-02 0.  1.
          2   -1    0    0  501    0  0.00000000000E+00 -0.00000000000E+00 -0.50088060441E+03  0.50088060442E+03  0.25500000000E-02 0. -1.
    8880023    1    1    2    0    0  0.36776715963E+03 -0.14505218465E+02 -0.16519008958E+03  0.77237365117E+03  0.65864270000E+03 0.  0.
    8880022    1    1    2    0    0 -0.36776715963E+03  0.14505218465E+02  0.12051364937E+04  0.12693339618E+04  0.15294330000E+03 0.  0.
<mgrwt>
<rscale>  0 0.64323597E+03</rscale>
<asrwt>0</asrwt>
<pdfrwt beam="1">  1        2 0.77058555E-01 0.75450202E+03</pdfrwt>
<pdfrwt beam="2">  1       -2 0.23705031E+00 0.75450202E+03</pdfrwt>
<totfact> 0.48703533E+00</totfact>
</mgrwt>
</event>
<event>
 4    5  0.6615028E-008  0.1124340E+04  0.7818608E-02  0.9234429E-01
          2   -1    0    0  501    0  0.00000000000E+00  0.00000000000E+00  0.22502740766E+04  0.22502740766E+04  0.25500000000E-02 0. -1.
         -2   -1    0    0    0  501 -0.00000000000E+00 -0.00000000000E+00 -0.12797196371E+04  0.12797196371E+04  0.25500000000E-02 0.  1.
    8880023    1    1    2    0    0  0.83728322845E+03  0.35956372724E+03  0.19074316110E+04  0.22141442671E+04  0.65864270000E+03 0. -1.
    8880022    1    1    2    0    0 -0.83728322845E+03 -0.35956372724E+03 -0.93687717148E+03  0.13158494466E+04  0.15294330000E+03 0.  0.
<mgrwt>
<rscale>  0 0.10705023E+04</rscale>
<asrwt>0</asrwt>
<pdfrwt beam="1">  1        2 0.34619601E+00 0.11243396E+04</pdfrwt>
<pdfrwt beam="2">  1       -2 0.19687995E+00 0.11243396E+04</pdfrwt>
<totfact> 0.66342489E-01</totfact>
</mgrwt>
</event>
<event>
 4    5  0.1120267E-007  0.2098379E+04  0.7818608E-02  0.8573289E-01
          2   -1    0    0  501    0  0.00000000000E+00  0.00000000000E+00  0.29300952244E+04  0.29300952244E+04  0.25500000000E-02 0. -1.
         -2   -1    0    0    0  501 -0.00000000000E+00 -0.00000000000E+00 -0.24659921175E+04  0.24659921175E+04  0.25500000000E-02 0.  1.
    8880023    1    1    2    0    0  0.19915108384E+04  0.57171853579E+02  0.19822404034E+04  0.28866020272E+04  0.65864270000E+03 0.  0.
    8880022    1    1    2    0    0 -0.19915108384E+04 -0.57171853579E+02 -0.15181372965E+04  0.25094853147E+04  0.15294330000E+03 0.  0.
<mgrwt>
<rscale>  0 0.20728711E+04</rscale>
<asrwt>0</asrwt>
<pdfrwt beam="1">  1        2 0.45078388E+00 0.20983790E+04</pdfrwt>
<pdfrwt beam="2">  1       -2 0.37938341E+00 0.20983790E+04</pdfrwt>
<totfact> 0.16946281E-02</totfact>
</mgrwt>
</event>
<event>
 4    5  0.6615028E-008  0.6903443E+03  0.7818608E-02  0.1003989E+00
         -2   -1    0    0    0  501 -0.00000000000E+00  0.00000000000E+00  0.15048627330E+03  0.15048627332E+03  0.25500000000E-02 0.  1.
          2   -1    0    0  501    0  0.00000000000E+00 -0.00000000000E+00 -0.24102210302E+04  0.24102210302E+04  0.25500000000E-02 0. -1.
    8880023    1    1    2    0    0  0.19297397952E+03 -0.74337485225E+02 -0.21870615220E+04  0.22934282909E+04  0.65864270000E+03 0.  0.
    8880022    1    1    2    0    0 -0.19297397952E+03  0.74337485225E+02 -0.72673234925E+02  0.26727901259E+03  0.15294330000E+03 0.  0.
<mgrwt>
<rscale>  0 0.53935040E+03</rscale>
<asrwt>0</asrwt>
<pdfrwt beam="1">  1        2 0.37080320E+00 0.69034428E+03</pdfrwt>
<pdfrwt beam="2">  1       -2 0.23151736E-01 0.69034428E+03</pdfrwt>
<totfact> 0.67488327E+01</totfact>
</mgrwt>
</event>
<event>
 4    5  0.6615028E-008  0.1494149E+04  0.7818608E-02  0.8913778E-01
          2   -1    0    0  501    0  0.00000000000E+00  0.00000000000E+00  0.13794368351E+04  0.13794368351E+04  0.25500000000E-02 0. -1.
         -2   -1    0    0    0  501 -0.00000000000E+00 -0.00000000000E+00 -0.35073886504E+04  0.35073886504E+04  0.25500000000E-02 0.  1.
    8880023    1    1    2    0    0  0.69145476266E+03 -0.11491572880E+04  0.77661279114E+03  0.16839268972E+04  0.65864270000E+03 0. -1.
    8880022    1    1    2    0    0 -0.69145476266E+03  0.11491572880E+04 -0.29045646065E+04  0.32028985884E+04  0.15294330000E+03 0.  0.
<mgrwt>
<rscale>  0 0.14566861E+04</rscale>
<asrwt>0</asrwt>
<pdfrwt beam="1">  1        2 0.21222105E+00 0.14941494E+04</pdfrwt>
<pdfrwt beam="2">  1       -2 0.53959825E+00 0.14941494E+04</pdfrwt>
<totfact> 0.13333617E-02</totfact>
</mgrwt>
</event>
<event>
 4    5  0.6615028E-008  0.9668300E+03  0.7818608E-02  0.9426302E-01
         -2   -1    0    0    0  501 -0.00000000000E+00  0.00000000000E+00  0.12354197525E+04  0.12354197525E+04  0.25500000000E-02 0.  1.
          2   -1    0    0  501    0  0.00000000000E+00 -0.00000000000E+00 -0.12242300554E+04  0.12242300554E+04  0.25500000000E-02 0. -1.
    8880023    1    1    2    0    0  0.43122186151E+03  0.56124655386E+03 -0.88276862607E+03  0.13092137494E+04  0.65864270000E+03 0.  0.
    8880022    1    1    2    0    0 -0.43122186151E+03 -0.56124655386E+03  0.89395832318E+03  0.11504360585E+04  0.15294330000E+03 0.  0.
<mgrwt>
<rscale>  0 0.89942379E+03</rscale>
<asrwt>0</asrwt>
<pdfrwt beam="1">  1        2 0.18834309E+00 0.96682997E+03</pdfrwt>
<pdfrwt beam="2">  1       -2 0.19006458E+00 0.96682997E+03</pdfrwt>
<totfact> 0.28248862E+00</totfact>
</mgrwt>
</event>
<event>
 4    5  0.6615028E-008  0.7020381E+03  0.7818608E-02  0.9988849E-01
         -2   -1    0    0    0  501 -0.00000000000E+00  0.00000000000E+00  0.55171499494E+03  0.55171499495E+03  0.25500000000E-02 0.  1.
          2   -1    0    0  501    0  0.00000000000E+00 -0.00000000000E+00 -0.56334197453E+03  0.56334197454E+03  0.25500000000E-02 0. -1.
    8880023    1    1    2    0    0  0.17745158208E+03  0.16600661629E+03 -0.24655209031E+03  0.74407351797E+03  0.65864270000E+03 0. -1.
    8880022    1    1    2    0    0 -0.17745158208E+03 -0.16600661629E+03  0.23492511072E+03  0.37098345152E+03  0.15294330000E+03 0. -1.
<mgrwt>
<rscale>  0 0.56141891E+03</rscale>
<asrwt>0</asrwt>
<pdfrwt beam="1">  1        2 0.86667996E-01 0.70203808E+03</pdfrwt>
<pdfrwt beam="2">  1       -2 0.84879230E-01 0.70203808E+03</pdfrwt>
<totfact> 0.65647776E+01</totfact>
</mgrwt>
</event>
<event>
 4    5  0.6615028E-008  0.8768432E+03  0.7818608E-02  0.9564278E-01
          2   -1    0    0  501    0  0.00000000000E+00  0.00000000000E+00  0.10063407647E+04  0.10063407647E+04  0.25500000000E-02 0. -1.
         -2   -1    0    0    0  501 -0.00000000000E+00 -0.00000000000E+00 -0.72253903920E+03  0.72253903920E+03  0.25500000000E-02 0.  1.
    8880023    1    1    2    0    0  0.12407532372E+03 -0.56537517904E+03  0.58957218285E+03  0.10566216655E+04  0.65864270000E+03 0.  0.
    8880022    1    1    2    0    0 -0.12407532372E+03  0.56537517904E+03 -0.30577045733E+03  0.67225813838E+03  0.15294330000E+03 0.  0.
<mgrwt>
<rscale>  0 0.79706331E+03</rscale>
<asrwt>0</asrwt>
<pdfrwt beam="1">  1        2 0.15482166E+00 0.87684319E+03</pdfrwt>
<pdfrwt beam="2">  1       -2 0.11115985E+00 0.87684319E+03</pdfrwt>
<totfact> 0.16045057E+01</totfact>
</mgrwt>
</event>
<event>
 4    5  0.6615028E-008  0.7936940E+03  0.7818608E-02  0.9724600E-01
         -2   -1    0    0    0  501 -0.00000000000E+00  0.00000000000E+00  0.20931372488E+04  0.20931372488E+04  0.25500000000E-02 0.  1.
          2   -1    0    0  501    0  0.00000000000E+00 -0.00000000000E+00 -0.13754790939E+04  0.13754790939E+04  0.25500000000E-02 0. -1.
    8880023    1    1    2    0    0 -0.11563472116E+03 -0.42751442356E+03 -0.12308524897E+04  0.14645641088E+04  0.65864270000E+03 0. -1.
    8880022    1    1    2    0    0  0.11563472116E+03  0.42751442356E+03  0.19485106446E+04  0.20040522339E+04  0.15294330000E+03 0.  0.
<mgrwt>
<rscale>  0 0.69570794E+03</rscale>
<asrwt>0</asrwt>
<pdfrwt beam="1">  1        2 0.21161217E+00 0.79369401E+03</pdfrwt>
<pdfrwt beam="2">  1       -2 0.32202112E+00 0.79369401E+03</pdfrwt>
<totfact> 0.36444211E-01</totfact>
</mgrwt>
</event>
<event>
 4    5  0.6615028E-008  0.6982653E+03  0.7818608E-02  0.1000447E+00
          2   -1    0    0  501    0  0.00000000000E+00  0.00000000000E+00  0.11263066078E+04  0.11263066078E+04  0.25500000000E-02 0. -1.
         -2   -1    0    0    0  501 -0.00000000000E+00 -0.00000000000E+00 -0.93075889642E+03  0.93075889642E+03  0.25500000000E-02 0.  1.
    8880023    1    1    2    0    0  0.12464920917E+02 -0.23153597853E+03  0.99225792401E+03  0.12133220008E+04  0.65864270000E+03 0. -1.
    8880022    1    1    2    0    0 -0.12464920917E+02  0.23153597853E+03 -0.79671021264E+03  0.84374350341E+03  0.15294330000E+03 0.  0.
<mgrwt>
<rscale>  0 0.55454467E+03</rscale>
<asrwt>0</asrwt>
<pdfrwt beam="1">  1        2 0.17327794E+00 0.69826534E+03</pdfrwt>
<pdfrwt beam="2">  1       -2 0.14319368E+00 0.69826534E+03</pdfrwt>
<totfact> 0.72989666E+00</totfact>
</mgrwt>
</event>
<event>
 4    5  0.6615028E-008  0.1607652E+04  0.7818608E-02  0.8837137E-01
          2   -1    0    0  501    0  0.00000000000E+00  0.00000000000E+00  0.23997040793E+04  0.23997040793E+04  0.25500000000E-02 0. -1.
         -2   -1    0    0    0  501 -0.00000000000E+00 -0.00000000000E+00 -0.15967820639E+04  0.15967820639E+04  0.25500000000E-02 0.  1.
    8880023    1    1    2    0    0 -0.42930354602E+03 -0.14022953439E+04  0.16436433168E+04  0.22991536107E+04  0.65864270000E+03 0.  0.
    8880022    1    1    2    0    0  0.42930354602E+03  0.14022953439E+04 -0.84072130146E+03  0.16973325325E+04  0.15294330000E+03 0.  0.
<mgrwt>
<rscale>  0 0.15732747E+04</rscale>
<asrwt>0</asrwt>
<pdfrwt beam="1">  1        2 0.36918524E+00 0.16076517E+04</pdfrwt>
<pdfrwt beam="2">  1       -2 0.24565878E+00 0.16076517E+04</pdfrwt>
<totfact> 0.25173441E-01</totfact>
</mgrwt>
</event>
<event>
 4    5  0.6615028E-008  0.6931357E+03  0.7818608E-02  0.1002696E+00
         -2   -1    0    0    0  501 -0.00000000000E+00  0.00000000000E+00  0.52107520872E+03  0.52107520873E+03  0.25500000000E-02 0.  1.
          2   -1    0    0  501    0  0.00000000000E+00 -0.00000000000E+00 -0.68973192444E+03  0.68973192444E+03  0.25500000000E-02 0. -1.
    8880023    1    1    2    0    0  0.19632148069E+03 -0.89915521230E+02 -0.44856727528E+03  0.82562081578E+03  0.65864270000E+03 0. -1.
    8880022    1    1    2    0    0 -0.19632148069E+03  0.89915521230E+02  0.27991055956E+03  0.38518631739E+03  0.15294330000E+03 0.  0.
<mgrwt>
<rscale>  0 0.54483547E+03</rscale>
<asrwt>0</asrwt>
<pdfrwt beam="1">  1        2 0.10611260E+00 0.69313572E+03</pdfrwt>
<pdfrwt beam="2">  1       -2 0.80165417E-01 0.69313572E+03</pdfrwt>
<totfact> 0.58414402E+01</totfact>
</mgrwt>
</event>
<event>
 4    5  0.6615028E-008  0.1002386E+04  0.7818608E-02  0.9378443E-01
          2   -1    0    0  501    0  0.00000000000E+00  0.00000000000E+00  0.33742993000E+04  0.33742993000E+04  0.25500000000E-02 0. -1.
         -2   -1    0    0    0  501 -0.00000000000E+00 -0.00000000000E+00 -0.55433521755E+03  0.55433521756E+03  0.25500000000E-02 0.  1.
    8880023    1    1    2    0    0 -0.63577224922E+03  0.40836330630E+03  0.29775490645E+04  0.31417472178E+04  0.65864270000E+03 0.  0.
    8880022    1    1    2    0    0  0.63577224922E+03 -0.40836330630E+03 -0.15758498212E+03  0.78688729969E+03  0.15294330000E+03 0.  0.
<mgrwt>
<rscale>  0 0.93871169E+03</rscale>
<asrwt>0</asrwt>
<pdfrwt beam="1">  1        2 0.51912296E+00 0.10023857E+04</pdfrwt>
<pdfrwt beam="2">  1       -2 0.85282343E-01 0.10023857E+04</pdfrwt>
<totfact> 0.12232495E+00</totfact>
</mgrwt>
</event>
<event>
 4    5  0.6615028E-008  0.9028170E+03  0.7818608E-02  0.9521524E-01
         -2   -1    0    0    0  501 -0.00000000000E+00  0.00000000000E+00  0.43870746726E+04  0.43870746726E+04  0.25500000000E-02 0.  1.
          2   -1    0    0  501    0  0.00000000000E+00 -0.00000000000E+00 -0.57602249292E+03  0.57602249292E+03  0.25500000000E-02 0. -1.
    8880023    1    1    2    0    0 -0.47801128366E+03  0.39086256949E+03 -0.18091340974E+03  0.92076500999E+03  0.65864270000E+03 0.  0.
    8880022    1    1    2    0    0  0.47801128366E+03 -0.39086256949E+03  0.39919655894E+04  0.40423321555E+04  0.15294330000E+03 0.  0.
<mgrwt>
<rscale>  0 0.82715344E+03</rscale>
<asrwt>0</asrwt>
<pdfrwt beam="1">  1        2 0.88618842E-01 0.90281700E+03</pdfrwt>
<pdfrwt beam="2">  1       -2 0.67493459E+00 0.90281700E+03</pdfrwt>
<totfact> 0.14666816E-02</totfact>
</mgrwt>
</event>
<event>
 4    5  0.6615028E-008  0.2097716E+04  0.7818608E-02  0.8573590E-01
         -2   -1    0    0    0  501 -0.00000000000E+00  0.00000000000E+00  0.15486876403E+04  0.15486876403E+04  0.25500000000E-02 0.  1.
          2   -1    0    0  501    0  0.00000000000E+00 -0.00000000000E+00 -0.30194218073E+04  0.30194218073E+04  0.25500000000E-02 0. -1.
    8880023    1    1    2    0    0  0.17242800922E+04  0.99672446031E+03 -0.14857150801E+04  0.25705565529E+04  0.65864270000E+03 0.  0.
    8880022    1    1    2    0    0 -0.17242800922E+04 -0.99672446031E+03  0.14980913177E+02  0.19975528947E+04  0.15294330000E+03 0.  0.
<mgrwt>
<rscale>  0 0.20721992E+04</rscale>
<asrwt>0</asrwt>
<pdfrwt beam="1">  1        2 0.46452643E+00 0.20977158E+04</pdfrwt>
<pdfrwt beam="2">  1       -2 0.23825964E+00 0.20977158E+04</pdfrwt>
<totfact> 0.11325777E-01</totfact>
</mgrwt>
</event>
<event>
 4    5  0.6615028E-008  0.8841793E+03  0.7818608E-02  0.9551921E-01
         -2   -1    0    0    0  501 -0.00000000000E+00  0.00000000000E+00  0.70887337538E+03  0.70887337538E+03  0.25500000000E-02 0.  1.
          2   -1    0    0  501    0  0.00000000000E+00 -0.00000000000E+00 -0.22596156149E+04  0.22596156149E+04  0.25500000000E-02 0. -1.
    8880023    1    1    2    0    0 -0.44836363810E+03  0.38331835408E+03 -0.20162793519E+04  0.22016256593E+04  0.65864270000E+03 0.  0.
    8880022    1    1    2    0    0  0.44836363810E+03 -0.38331835408E+03  0.46553711231E+03  0.76686333104E+03  0.15294330000E+03 0.  0.
<mgrwt>
<rscale>  0 0.80561746E+03</rscale>
<asrwt>0</asrwt>
<pdfrwt beam="1">  1        2 0.34763317E+00 0.88417935E+03</pdfrwt>
<pdfrwt beam="2">  1       -2 0.10905744E+00 0.88417935E+03</pdfrwt>
<totfact> 0.32710819E+00</totfact>
</mgrwt>
</event>
<event>
 4    5  0.6615028E-008  0.1253160E+04  0.7818608E-02  0.9107103E-01
         -2   -1    0    0    0  501 -0.00000000000E+00  0.00000000000E+00  0.10056398380E+04  0.10056398380E+04  0.25500000000E-02 0.  1.
          2   -1    0    0  501    0  0.00000000000E+00 -0.00000000000E+00 -0.16808024133E+04  0.16808024133E+04  0.25500000000E-02 0. -1.
    8880023    1    1    2    0    0  0.52531266440E+03  0.92770964699E+03 -0.95275661431E+03  0.15742153464E+04  0.65864270000E+03 0. -1.
    8880022    1    1    2    0    0 -0.52531266440E+03 -0.92770964699E+03  0.27759403906E+03  0.11122269049E+04  0.15294330000E+03 0.  0.
<mgrwt>
<rscale>  0 0.12065951E+04</rscale>
<asrwt>0</asrwt>
<pdfrwt beam="1">  1        2 0.25858499E+00 0.12531595E+04</pdfrwt>
<pdfrwt beam="2">  1       -2 0.15471382E+00 0.12531595E+04</pdfrwt>
<totfact> 0.26802421E+00</totfact>
</mgrwt>
</event>
<event>
 4    5  0.6615028E-008  0.9942702E+03  0.7818608E-02  0.9389093E-01
         -2   -1    0    0    0  501 -0.00000000000E+00  0.00000000000E+00  0.67401598333E+03  0.67401598334E+03  0.25500000000E-02 0.  1.
          2   -1    0    0  501    0  0.00000000000E+00 -0.00000000000E+00 -0.14787974281E+04  0.14787974281E+04  0.25500000000E-02 0. -1.
    8880023    1    1    2    0    0 -0.71824552508E+01  0.74478956531E+03 -0.95401778878E+03  0.13779416649E+04  0.65864270000E+03 0.  0.
    8880022    1    1    2    0    0  0.71824552508E+01 -0.74478956531E+03  0.14923634399E+03  0.77487174658E+03  0.15294330000E+03 0.  0.
<mgrwt>
<rscale>  0 0.92978779E+03</rscale>
<asrwt>0</asrwt>
<pdfrwt beam="1">  1        2 0.22750730E+00 0.99427023E+03</pdfrwt>
<pdfrwt beam="2">  1       -2 0.10369477E+00 0.99427023E+03</pdfrwt>
<totfact> 0.98415786E+00</totfact>
</mgrwt>
</event>
<event>
 4    5  0.6615028E-008  0.7678363E+03  0.7818608E-02  0.9785227E-01
         -2   -1    0    0    0  501 -0.00000000000E+00  0.00000000000E+00  0.60438973009E+03  0.60438973009E+03  0.25500000000E-02 0.  1.
          2   -1    0    0  501    0  0.00000000000E+00 -0.00000000000E+00 -0.24157205278E+04  0.24157205278E+04  0.25500000000E-02 0. -1.
    8880023    1    1    2    0    0 -0.35781128230E+03 -0.16653379122E+03 -0.22697859711E+04  0.23961429378E+04  0.65864270000E+03 0. -1.
    8880022    1    1    2    0    0  0.35781128230E+03  0.16653379122E+03  0.45845517348E+03  0.62396732003E+03  0.15294330000E+03 0.  0.
<mgrwt>
<rscale>  0 0.66161421E+03</rscale>
<asrwt>0</asrwt>
<pdfrwt beam="1">  1        2 0.37164931E+00 0.76783633E+03</pdfrwt>
<pdfrwt beam="2">  1       -2 0.92983036E-01 0.76783633E+03</pdfrwt>
<totfact> 0.39840649E+00</totfact>
</mgrwt>
</event>
<event>
 4    5  0.6615028E-008  0.8557303E+03  0.7818608E-02  0.9601204E-01
          2   -1    0    0  501    0  0.00000000000E+00  0.00000000000E+00  0.36356453950E+04  0.36356453950E+04  0.25500000000E-02 0. -1.
         -2   -1    0    0    0  501 -0.00000000000E+00 -0.00000000000E+00 -0.26112712602E+03  0.26112712603E+03  0.25500000000E-02 0.  1.
    8880023    1    1    2    0    0 -0.47003729014E+03  0.27844039906E+03  0.31860427553E+04  0.32989608598E+04  0.65864270000E+03 0. -1.
    8880022    1    1    2    0    0  0.47003729014E+03 -0.27844039906E+03  0.18847551366E+03  0.59781166116E+03  0.15294330000E+03 0.  0.
<mgrwt>
<rscale>  0 0.77216540E+03</rscale>
<asrwt>0</asrwt>
<pdfrwt beam="1">  1        2 0.55933002E+00 0.85573028E+03</pdfrwt>
<pdfrwt beam="2">  1       -2 0.40173407E-01 0.85573028E+03</pdfrwt>
<totfact> 0.40723569E+00</totfact>
</mgrwt>
</event>
<event>
 4    5  0.6615028E-008  0.1057680E+04  0.7818608E-02  0.9309706E-01
         -2   -1    0    0    0  501 -0.00000000000E+00  0.00000000000E+00  0.60778177290E+03  0.60778177291E+03  0.25500000000E-02 0.  1.
          2   -1    0    0  501    0  0.00000000000E+00 -0.00000000000E+00 -0.24541516180E+04  0.24541516180E+04  0.25500000000E-02 0. -1.
    8880023    1    1    2    0    0 -0.56193084880E+03  0.60754437690E+03 -0.19456088535E+04  0.22145158536E+04  0.65864270000E+03 0.  0.
    8880022    1    1    2    0    0  0.56193084880E+03 -0.60754437690E+03  0.99239008405E+02  0.84741753731E+03  0.15294330000E+03 0.  0.
<mgrwt>
<rscale>  0 0.99894225E+03</rscale>
<asrwt>0</asrwt>
<pdfrwt beam="1">  1        2 0.37756178E+00 0.10576798E+04</pdfrwt>
<pdfrwt beam="2">  1       -2 0.93504889E-01 0.10576798E+04</pdfrwt>
<totfact> 0.35810124E+00</totfact>
</mgrwt>
</event>
<event>
 4    5  0.6615028E-008  0.1245892E+04  0.7818608E-02  0.9113754E-01
         -2   -1    0    0    0  501 -0.00000000000E+00  0.00000000000E+00  0.13243151616E+04  0.13243151616E+04  0.25500000000E-02 0.  1.
          2   -1    0    0  501    0  0.00000000000E+00 -0.00000000000E+00 -0.28174943714E+04  0.28174943714E+04  0.25500000000E-02 0. -1.
    8880023    1    1    2    0    0  0.28917563730E+02  0.10571661240E+04 -0.24235086653E+04  0.27250029167E+04  0.65864270000E+03 0.  0.
    8880022    1    1    2    0    0 -0.28917563730E+02 -0.10571661240E+04  0.93032945540E+03  0.14168066163E+04  0.15294330000E+03 0.  0.
<mgrwt>
<rscale>  0 0.11989757E+04</rscale>
<asrwt>0</asrwt>
<pdfrwt beam="1">  1        2 0.43346067E+00 0.12458919E+04</pdfrwt>
<pdfrwt beam="2">  1       -2 0.20374080E+00 0.12458919E+04</pdfrwt>
<totfact> 0.27608787E-01</totfact>
</mgrwt>
</event>
<event>
 4    5  0.6615028E-008  0.6695980E+03  0.7818608E-02  0.1015953E+00
          2   -1    0    0  501    0  0.00000000000E+00  0.00000000000E+00  0.30303375418E+04  0.30303375418E+04  0.25500000000E-02 0. -1.
         -2   -1    0    0    0  501 -0.00000000000E+00 -0.00000000000E+00 -0.15876357411E+04  0.15876357411E+04  0.25500000000E-02 0.  1.
    8880023    1    1    2    0    0 -0.96835707341E+02 -0.71931738594E+02  0.29871557317E+04  0.30612841915E+04  0.65864270000E+03 0. -1.
    8880022    1    1    2    0    0  0.96835707341E+02  0.71931738594E+02 -0.15444539310E+04  0.15566890914E+04  0.15294330000E+03 0.  0.
<mgrwt>
<rscale>  0 0.49175871E+03</rscale>
<asrwt>0</asrwt>
<pdfrwt beam="1">  1        2 0.46620577E+00 0.66959804E+03</pdfrwt>
<pdfrwt beam="2">  1       -2 0.24425165E+00 0.66959804E+03</pdfrwt>
<totfact> 0.12927139E-01</totfact>
</mgrwt>
</event>
<event>
 4    5  0.6615028E-008  0.7937434E+03  0.7818608E-02  0.9724491E-01
         -2   -1    0    0    0  501 -0.00000000000E+00  0.00000000000E+00  0.20111575642E+03  0.20111575644E+03  0.25500000000E-02 0.  1.
          2   -1    0    0  501    0  0.00000000000E+00 -0.00000000000E+00 -0.20213565153E+04  0.20213565153E+04  0.25500000000E-02 0. -1.
    8880023    1    1    2    0    0 -0.11817352477E+03  0.42691152703E+03 -0.12918076465E+04  0.15161779697E+04  0.65864270000E+03 0. -1.
    8880022    1    1    2    0    0  0.11817352477E+03 -0.42691152703E+03 -0.52843311233E+03  0.70629430204E+03  0.15294330000E+03 0.  1.
<mgrwt>
<rscale>  0 0.69577152E+03</rscale>
<asrwt>0</asrwt>
<pdfrwt beam="1">  1        2 0.31097791E+00 0.79374343E+03</pdfrwt>
<pdfrwt beam="2">  1       -2 0.30940887E-01 0.79374343E+03</pdfrwt>
<totfact> 0.64402253E+01</totfact>
</mgrwt>
</event>
<event>
 4    5  0.6615028E-008  0.8327701E+03  0.7818608E-02  0.9643967E-01
          2   -1    0    0  501    0  0.00000000000E+00  0.00000000000E+00  0.29085712396E+04  0.29085712396E+04  0.25500000000E-02 0. -1.
         -2   -1    0    0    0  501 -0.00000000000E+00 -0.00000000000E+00 -0.30522873587E+03  0.30522873588E+03  0.25500000000E-02 0.  1.
    8880023    1    1    2    0    0  0.23266614486E+03 -0.45338978680E+03  0.25459099196E+04  0.26786495401E+04  0.65864270000E+03 0. -1.
    8880022    1    1    2    0    0 -0.23266614486E+03  0.45338978680E+03  0.57432584115E+02  0.53515043536E+03  0.15294330000E+03 0.  0.
<mgrwt>
<rscale>  0 0.74453296E+03</rscale>
<asrwt>0</asrwt>
<pdfrwt beam="1">  1        2 0.44747251E+00 0.83277010E+03</pdfrwt>
<pdfrwt beam="2">  1       -2 0.46958266E-01 0.83277010E+03</pdfrwt>
<totfact> 0.89253765E+00</totfact>
</mgrwt>
</event>
<event>
 4    5  0.6615028E-008  0.9934100E+03  0.7818608E-02  0.9390231E-01
         -2   -1    0    0    0  501 -0.00000000000E+00  0.00000000000E+00  0.10952672807E+04  0.10952672807E+04  0.25500000000E-02 0.  1.
          2   -1    0    0  501    0  0.00000000000E+00 -0.00000000000E+00 -0.21360709409E+04  0.21360709409E+04  0.25500000000E-02 0. -1.
    8880023    1    1    2    0    0 -0.41560060544E+03 -0.61670845258E+03 -0.18635551374E+04  0.21118004487E+04  0.65864270000E+03 0.  0.
    8880022    1    1    2    0    0  0.41560060544E+03  0.61670845258E+03  0.82275147714E+03  0.11195377729E+04  0.15294330000E+03 0.  0.
<mgrwt>
<rscale>  0 0.92884042E+03</rscale>
<asrwt>0</asrwt>
<pdfrwt beam="1">  1        2 0.32862630E+00 0.99340998E+03</pdfrwt>
<pdfrwt beam="2">  1       -2 0.16850266E+00 0.99340998E+03</pdfrwt>
<totfact> 0.12258273E+00</totfact>
</mgrwt>
</event>
<event>
 4    5  0.6615028E-008  0.8882858E+03  0.7818608E-02  0.9545104E-01
         -2   -1    0    0    0  501 -0.00000000000E+00  0.00000000000E+00  0.50363151345E+03  0.50363151345E+03  0.25500000000E-02 0.  1.
          2   -1    0    0  501    0  0.00000000000E+00 -0.00000000000E+00 -0.15823785140E+04  0.15823785140E+04  0.25500000000E-02 0. -1.
    8880023    1    1    2    0    0 -0.57699047747E+03 -0.14941028908E+03 -0.11646197081E+04  0.14647152339E+04  0.65864270000E+03 0.  0.
    8880022    1    1    2    0    0  0.57699047747E+03  0.14941028908E+03  0.85872707572E+02  0.62129479356E+03  0.15294330000E+03 0.  0.
<mgrwt>
<rscale>  0 0.81038587E+03</rscale>
<asrwt>0</asrwt>
<pdfrwt beam="1">  1        2 0.24344285E+00 0.88828579E+03</pdfrwt>
<pdfrwt beam="2">  1       -2 0.77481772E-01 0.88828579E+03</pdfrwt>
<totfact> 0.17098867E+01</totfact>
</mgrwt>
</event>
<event>
 4    5  0.6615028E-008  0.1021826E+04  0.7818608E-02  0.9353543E-01
          2   -1    0    0  501    0  0.00000000000E+00  0.00000000000E+00  0.89008570936E+03  0.89008570936E+03  0.25500000000E-02 0. -1.
         -2   -1    0    0    0  501 -0.00000000000E+00 -0.00000000000E+00 -0.21758920948E+04  0.21758920948E+04  0.25500000000E-02 0.  1.
    8880023    1    1    2    0    0 -0.58255255261E+03 -0.52052996250E+03  0.48005642103E+03  0.11289744426E+04  0.65864270000E+03 0.  0.
    8880022    1    1    2    0    0  0.58255255261E+03  0.52052996250E+03 -0.17658628064E+04  0.19370033615E+04  0.15294330000E+03 0.  0.
<mgrwt>
<rscale>  0 0.95999550E+03</rscale>
<asrwt>0</asrwt>
<pdfrwt beam="1">  1        2 0.13693626E+00 0.10218264E+04</pdfrwt>
<pdfrwt beam="2">  1       -2 0.33475263E+00 0.10218264E+04</pdfrwt>
<totfact> 0.58104269E-01</totfact>
</mgrwt>
</event>
<event>
 4    5  0.6615028E-008  0.9592897E+03  0.7818608E-02  0.9436872E-01
         -2   -1    0    0    0  501 -0.00000000000E+00  0.00000000000E+00  0.44205032528E+03  0.44205032528E+03  0.25500000000E-02 0.  1.
          2   -1    0    0  501    0  0.00000000000E+00 -0.00000000000E+00 -0.20103281556E+04  0.20103281556E+04  0.25500000000E-02 0. -1.
    8880023    1    1    2    0    0 -0.25750187058E+03 -0.64816605450E+03 -0.14348749501E+04  0.17260077567E+04  0.65864270000E+03 0. -1.
    8880022    1    1    2    0    0  0.25750187058E+03  0.64816605450E+03 -0.13340288031E+03  0.72637072425E+03  0.15294330000E+03 0.  0.
<mgrwt>
<rscale>  0 0.89102365E+03</rscale>
<asrwt>0</asrwt>
<pdfrwt beam="1">  1        2 0.30928125E+00 0.95928966E+03</pdfrwt>
<pdfrwt beam="2">  1       -2 0.68007744E-01 0.95928966E+03</pdfrwt>
<totfact> 0.13154411E+01</totfact>
</mgrwt>
</event>
<event>
 4    5  0.6615028E-008  0.1101216E+04  0.7818608E-02  0.9259703E-01
         -2   -1    0    0    0  501 -0.00000000000E+00  0.00000000000E+00  0.90618822441E+03  0.90618822442E+03  0.25500000000E-02 0.  1.
          2   -1    0    0  501    0  0.00000000000E+00 -0.00000000000E+00 -0.20205332215E+04  0.20205332215E+04  0.25500000000E-02 0. -1.
    8880023    1    1    2    0    0  0.82376689860E+03  0.31666176873E+03 -0.15732134476E+04  0.19203326110E+04  0.65864270000E+03 0.  0.
    8880022    1    1    2    0    0 -0.82376689860E+03 -0.31666176873E+03  0.45886845055E+03  0.10063888349E+04  0.15294330000E+03 0.  0.
<mgrwt>
<rscale>  0 0.10457880E+04</rscale>
<asrwt>0</asrwt>
<pdfrwt beam="1">  1        2 0.31085126E+00 0.11012160E+04</pdfrwt>
<pdfrwt beam="2">  1       -2 0.13941357E+00 0.11012160E+04</pdfrwt>
<totfact> 0.23287744E+00</totfact>
</mgrwt>
</event>
<event>
 4    5  0.6615028E-008  0.1242886E+04  0.7818608E-02  0.9116521E-01
          2   -1    0    0  501    0  0.00000000000E+00  0.00000000000E+00  0.21936760680E+04  0.21936760680E+04  0.25500000000E-02 0. -1.
         -2   -1    0    0    0  501 -0.00000000000E+00 -0.00000000000E+00 -0.86472586721E+03  0.86472586721E+03  0.25500000000E-02 0.  1.
    8880023    1    1    2    0    0 -0.10409463021E+04  0.16549136693E+03 -0.13261753043E+03  0.12499416834E+04  0.65864270000E+03 0.  0.
    8880022    1    1    2    0    0  0.10409463021E+04 -0.16549136693E+03  0.14615677312E+04  0.18084602518E+04  0.15294330000E+03 0.  0.
<mgrwt>
<rscale>  0 0.11958230E+04</rscale>
<asrwt>0</asrwt>
<pdfrwt beam="1">  1        2 0.33748863E+00 0.12428865E+04</pdfrwt>
<pdfrwt beam="2">  1       -2 0.13303475E+00 0.12428865E+04</pdfrwt>
<totfact> 0.20715755E+00</totfact>
</mgrwt>
</event>
<event>
 4    5  0.6615028E-008  0.1022960E+04  0.7818608E-02  0.9352117E-01
          2   -1    0    0  501    0  0.00000000000E+00  0.00000000000E+00  0.16073264530E+04  0.16073264530E+04  0.25500000000E-02 0. -1.
         -2   -1    0    0    0  501 -0.00000000000E+00 -0.00000000000E+00 -0.80089589310E+03  0.80089589310E+03  0.25500000000E-02 0.  1.
    8880023    1    1    2    0    0  0.73892882313E+03 -0.25811047707E+03  0.11506235072E+04  0.15396043276E+04  0.65864270000E+03 0.  0.
    8880022    1    1    2    0    0 -0.73892882313E+03  0.25811047707E+03 -0.34419294731E+03  0.86861801848E+03  0.15294330000E+03 0.  0.
<mgrwt>
<rscale>  0 0.96123270E+03</rscale>
<asrwt>0</asrwt>
<pdfrwt beam="1">  1        2 0.24728099E+00 0.10229599E+04</pdfrwt>
<pdfrwt beam="2">  1       -2 0.12321475E+00 0.10229599E+04</pdfrwt>
<totfact> 0.54479955E+00</totfact>
</mgrwt>
</event>
<event>
 4    5  0.6615028E-008  0.7210143E+03  0.7818608E-02  0.9919169E-01
          2   -1    0    0  501    0  0.00000000000E+00  0.00000000000E+00  0.12565465664E+04  0.12565465664E+04  0.25500000000E-02 0. -1.
         -2   -1    0    0    0  501 -0.00000000000E+00 -0.00000000000E+00 -0.34114820388E+03  0.34114820389E+03  0.25500000000E-02 0.  1.
    8880023    1    1    2    0    0  0.24295110388E+03 -0.16439656043E+03  0.10214511833E+04  0.12502896441E+04  0.65864270000E+03 0.  0.
    8880022    1    1    2    0    0 -0.24295110388E+03  0.16439656043E+03 -0.10605282072E+03  0.34740512626E+03  0.15294330000E+03 0.  0.
<mgrwt>
<rscale>  0 0.59341222E+03</rscale>
<asrwt>0</asrwt>
<pdfrwt beam="1">  1        2 0.19331486E+00 0.72101434E+03</pdfrwt>
<pdfrwt beam="2">  1       -2 0.52484339E-01 0.72101434E+03</pdfrwt>
<totfact> 0.61289817E+01</totfact>
</mgrwt>
</event>
<event>
 4    5  0.6615028E-008  0.1057958E+04  0.7818608E-02  0.9309376E-01
         -2   -1    0    0    0  501 -0.00000000000E+00  0.00000000000E+00  0.36876227095E+03  0.36876227096E+03  0.25500000000E-02 0.  1.
          2   -1    0    0  501    0  0.00000000000E+00 -0.00000000000E+00 -0.33540219555E+04  0.33540219555E+04  0.25500000000E-02 0. -1.
    8880023    1    1    2    0    0  0.82486616469E+03  0.71131842706E+02 -0.25797990830E+04  0.27883036857E+04  0.65864270000E+03 0.  0.
    8880022    1    1    2    0    0 -0.82486616469E+03 -0.71131842706E+02 -0.40546060160E+03  0.93448054082E+03  0.15294330000E+03 0.  0.
<mgrwt>
<rscale>  0 0.99924250E+03</rscale>
<asrwt>0</asrwt>
<pdfrwt beam="1">  1        2 0.51600336E+00 0.10579575E+04</pdfrwt>
<pdfrwt beam="2">  1       -2 0.56732659E-01 0.10579575E+04</pdfrwt>
<totfact> 0.30554458E+00</totfact>
</mgrwt>
</event>
<event>
 4    5  0.6615028E-008  0.7159852E+03  0.7818608E-02  0.9936412E-01
         -2   -1    0    0    0  501 -0.00000000000E+00  0.00000000000E+00  0.57705883564E+03  0.57705883565E+03  0.25500000000E-02 0.  1.
          2   -1    0    0  501    0  0.00000000000E+00 -0.00000000000E+00 -0.52972593689E+03  0.52972593689E+03  0.25500000000E-02 0. -1.
    8880023    1    1    2    0    0  0.27874643392E+03 -0.33541540269E+02 -0.14937970307E+03  0.73140215429E+03  0.65864270000E+03 0. -1.
    8880022    1    1    2    0    0 -0.27874643392E+03  0.33541540269E+02  0.19671260183E+03  0.37538261825E+03  0.15294330000E+03 0.  0.
<mgrwt>
<rscale>  0 0.58528587E+03</rscale>
<asrwt>0</asrwt>
<pdfrwt beam="1">  1        2 0.81496298E-01 0.71598521E+03</pdfrwt>
<pdfrwt beam="2">  1       -2 0.88778282E-01 0.71598521E+03</pdfrwt>
<totfact> 0.63640780E+01</totfact>
</mgrwt>
</event>
<event>
 4    5  0.6615028E-008  0.1191461E+04  0.7818608E-02  0.9165468E-01
         -2   -1    0    0    0  501 -0.00000000000E+00  0.00000000000E+00  0.32083248116E+04  0.32083248116E+04  0.25500000000E-02 0.  1.
          2   -1    0    0  501    0  0.00000000000E+00 -0.00000000000E+00 -0.54041153869E+03  0.54041153870E+03  0.25500000000E-02 0. -1.
    8880023    1    1    2    0    0 -0.35861067262E+03 -0.92583282305E+03  0.38097459601E+03  0.12508876368E+04  0.65864270000E+03 0.  0.
    8880022    1    1    2    0    0  0.35861067262E+03  0.92583282305E+03  0.22869386769E+04  0.24978487135E+04  0.15294330000E+03 0.  0.
<mgrwt>
<rscale>  0 0.11417072E+04</rscale>
<asrwt>0</asrwt>
<pdfrwt beam="1">  1        2 0.83140238E-01 0.11914605E+04</pdfrwt>
<pdfrwt beam="2">  1       -2 0.49358843E+00 0.11914605E+04</pdfrwt>
<totfact> 0.10038659E-01</totfact>
</mgrwt>
</event>
<event>
 4    5  0.6615028E-008  0.6835997E+03  0.7818608E-02  0.1007357E+00
          2   -1    0    0  501    0  0.00000000000E+00  0.00000000000E+00  0.40192167278E+04  0.40192167278E+04  0.25500000000E-02 0. -1.
         -2   -1    0    0    0  501 -0.00000000000E+00 -0.00000000000E+00 -0.72764031689E+03  0.72764031689E+03  0.25500000000E-02 0.  1.
    8880023    1    1    2    0    0 -0.60841115278E+02 -0.17261729952E+03  0.39696378840E+04  0.40280682107E+04  0.65864270000E+03 0. -1.
    8880022    1    1    2    0    0  0.60841115278E+02  0.17261729952E+03 -0.67806147317E+03  0.71878883395E+03  0.15294330000E+03 0.  0.
<mgrwt>
<rscale>  0 0.52538894E+03</rscale>
<asrwt>0</asrwt>
<pdfrwt beam="1">  1        2 0.61834103E+00 0.68359972E+03</pdfrwt>
<pdfrwt beam="2">  1       -2 0.11194467E+00 0.68359972E+03</pdfrwt>
<totfact> 0.23643734E-01</totfact>
</mgrwt>
</event>
<event>
 4    5  0.6615028E-008  0.8500488E+03  0.7818608E-02  0.9611516E-01
          2   -1    0    0  501    0  0.00000000000E+00  0.00000000000E+00  0.50614630814E+04  0.50614630814E+04  0.25500000000E-02 0. -1.
         -2   -1    0    0    0  501 -0.00000000000E+00 -0.00000000000E+00 -0.13406127136E+03  0.13406127139E+03  0.25500000000E-02 0.  1.
    8880023    1    1    2    0    0  0.42769160398E+03 -0.32534997074E+03  0.41618440056E+04  0.42477674660E+04  0.65864270000E+03 0.  0.
    8880022    1    1    2    0    0 -0.42769160398E+03  0.32534997074E+03  0.76555780438E+03  0.94775688678E+03  0.15294330000E+03 0.  0.
<mgrwt>
<rscale>  0 0.76538650E+03</rscale>
<asrwt>0</asrwt>
<pdfrwt beam="1">  1        2 0.77868657E+00 0.85004877E+03</pdfrwt>
<pdfrwt beam="2">  1       -2 0.20624812E-01 0.85004877E+03</pdfrwt>
<totfact> 0.66364469E-01</totfact>
</mgrwt>
</event>
<event>
 4    5  0.6615028E-008  0.1354005E+04  0.7818608E-02  0.9020272E-01
          2   -1    0    0  501    0  0.00000000000E+00  0.00000000000E+00  0.37564478704E+04  0.37564478704E+04  0.25500000000E-02 0. -1.
         -2   -1    0    0    0  501 -0.00000000000E+00 -0.00000000000E+00 -0.62651293960E+03  0.62651293961E+03  0.25500000000E-02 0.  1.
    8880023    1    1    2    0    0  0.11042741575E+04  0.42438083332E+03  0.28535623622E+04  0.31585042137E+04  0.65864270000E+03 0. -1.
    8880022    1    1    2    0    0 -0.11042741575E+04 -0.42438083332E+03  0.27637256864E+03  0.12244565964E+04  0.15294330000E+03 0.  0.
<mgrwt>
<rscale>  0 0.13117847E+04</rscale>
<asrwt>0</asrwt>
<pdfrwt beam="1">  1        2 0.57791506E+00 0.13540054E+04</pdfrwt>
<pdfrwt beam="2">  1       -2 0.96386606E-01 0.13540054E+04</pdfrwt>
<totfact> 0.47014696E-01</totfact>
</mgrwt>
</event>
<event>
 4    5  0.6615028E-008  0.9587962E+03  0.7818608E-02  0.9437570E-01
         -2   -1    0    0    0  501 -0.00000000000E+00  0.00000000000E+00  0.12329202669E+04  0.12329202669E+04  0.25500000000E-02 0.  1.
          2   -1    0    0  501    0  0.00000000000E+00 -0.00000000000E+00 -0.20951404158E+04  0.20951404158E+04  0.25500000000E-02 0. -1.
    8880023    1    1    2    0    0  0.69155140137E+03 -0.85068557855E+02 -0.18652405011E+04  0.20972392171E+04  0.65864270000E+03 0. -1.
    8880022    1    1    2    0    0 -0.69155140137E+03  0.85068557855E+02  0.10030203522E+04  0.12308214656E+04  0.15294330000E+03 0.  0.
<mgrwt>
<rscale>  0 0.89047303E+03</rscale>
<asrwt>0</asrwt>
<pdfrwt beam="1">  1        2 0.32232929E+00 0.95879623E+03</pdfrwt>
<pdfrwt beam="2">  1       -2 0.18968004E+00 0.95879623E+03</pdfrwt>
<totfact> 0.92646412E-01</totfact>
</mgrwt>
</event>
<event>
 4    5  0.6615028E-008  0.6627191E+03  0.7818608E-02  0.1021529E+00
         -2   -1    0    0    0  501 -0.00000000000E+00  0.00000000000E+00  0.41530655739E+03  0.41530655740E+03  0.25500000000E-02 0.  1.
          2   -1    0    0  501    0  0.00000000000E+00 -0.00000000000E+00 -0.19997995568E+04  0.19997995568E+04  0.25500000000E-02 0. -1.
    8880023    1    1    2    0    0  0.69755524899E+02 -0.22815481884E+02 -0.19243467765E+04  0.20352658554E+04  0.65864270000E+03 0. -1.
    8880022    1    1    2    0    0 -0.69755524899E+02  0.22815481884E+02  0.33985377706E+03  0.37984025888E+03  0.15294330000E+03 0.  0.
<mgrwt>
<rscale>  0 0.47138933E+03</rscale>
<asrwt>0</asrwt>
<pdfrwt beam="1">  1        2 0.30766146E+00 0.66271909E+03</pdfrwt>
<pdfrwt beam="2">  1       -2 0.63893318E-01 0.66271909E+03</pdfrwt>
<totfact> 0.15872931E+01</totfact>
</mgrwt>
</event>
<event>
 4    5  0.6615028E-008  0.9909264E+03  0.7818608E-02  0.9393526E-01
          2   -1    0    0  501    0  0.00000000000E+00  0.00000000000E+00  0.12196446268E+04  0.12196446268E+04  0.25500000000E-02 0. -1.
         -2   -1    0    0    0  501 -0.00000000000E+00 -0.00000000000E+00 -0.10361665365E+04  0.10361665365E+04  0.25500000000E-02 0.  1.
    8880023    1    1    2    0    0  0.42062492567E+03 -0.60926150112E+03  0.80534492041E+03  0.12769164232E+04  0.65864270000E+03 0.  0.
    8880022    1    1    2    0    0 -0.42062492567E+03  0.60926150112E+03 -0.62186683006E+03  0.97889474010E+03  0.15294330000E+03 0.  0.
<mgrwt>
<rscale>  0 0.92610376E+03</rscale>
<asrwt>0</asrwt>
<pdfrwt beam="1">  1        2 0.18763764E+00 0.99092639E+03</pdfrwt>
<pdfrwt beam="2">  1       -2 0.15941024E+00 0.99092639E+03</pdfrwt>
<totfact> 0.46545744E+00</totfact>
</mgrwt>
</event>
<event>
 4    5  0.6615028E-008  0.7699356E+03  0.7818608E-02  0.9780032E-01
         -2   -1    0    0    0  501 -0.00000000000E+00  0.00000000000E+00  0.19709812308E+03  0.19709812310E+03  0.25500000000E-02 0.  1.
          2   -1    0    0  501    0  0.00000000000E+00 -0.00000000000E+00 -0.30089478271E+04  0.30089478271E+04  0.25500000000E-02 0. -1.
    8880023    1    1    2    0    0 -0.23345637834E+03 -0.32324729271E+03 -0.26326208883E+04  0.27428987660E+04  0.65864270000E+03 0. -1.
    8880022    1    1    2    0    0  0.23345637834E+03  0.32324729271E+03 -0.17922881574E+03  0.46314718421E+03  0.15294330000E+03 0.  0.
<mgrwt>
<rscale>  0 0.66445209E+03</rscale>
<asrwt>0</asrwt>
<pdfrwt beam="1">  1        2 0.46291502E+00 0.76993565E+03</pdfrwt>
<pdfrwt beam="2">  1       -2 0.30322790E-01 0.76993565E+03</pdfrwt>
<totfact> 0.18248561E+01</totfact>
</mgrwt>
</event>
<event>
 4    5  0.6615028E-008  0.9966510E+03  0.7818608E-02  0.9385952E-01
          2   -1    0    0  501    0  0.00000000000E+00  0.00000000000E+00  0.10156255940E+04  0.10156255940E+04  0.25500000000E-02 0. -1.
         -2   -1    0    0    0  501 -0.00000000000E+00 -0.00000000000E+00 -0.10095392028E+04  0.10095392028E+04  0.25500000000E-02 0.  1.
    8880023    1    1    2    0    0  0.29424374509E+03 -0.68769439675E+03  0.50082133764E+03  0.11154080793E+04  0.65864270000E+03 0. -1.
    8880022    1    1    2    0    0 -0.29424374509E+03  0.68769439675E+03 -0.49473494647E+03  0.90975671754E+03  0.15294330000E+03 0.  0.
<mgrwt>
<rscale>  0 0.93240819E+03</rscale>
<asrwt>0</asrwt>
<pdfrwt beam="1">  1        2 0.15625009E+00 0.99665098E+03</pdfrwt>
<pdfrwt beam="2">  1       -2 0.15531372E+00 0.99665098E+03</pdfrwt>
<totfact> 0.66632896E+00</totfact>
</mgrwt>
</event>
<event>
 4    5  0.6615028E-008  0.8221199E+03  0.7818608E-02  0.9664864E-01
         -2   -1    0    0    0  501 -0.00000000000E+00  0.00000000000E+00  0.11834548293E+04  0.11834548293E+04  0.25500000000E-02 0.  1.
          2   -1    0    0  501    0  0.00000000000E+00 -0.00000000000E+00 -0.10172140969E+04  0.10172140969E+04  0.25500000000E-02 0. -1.
    8880023    1    1    2    0    0 -0.38662402846E+03 -0.30429063558E+03 -0.77359959946E+03  0.11288655708E+04  0.65864270000E+03 0. -1.
    8880022    1    1    2    0    0  0.38662402846E+03  0.30429063558E+03  0.93984033190E+03  0.10718033555E+04  0.15294330000E+03 0.  0.
<mgrwt>
<rscale>  0 0.73147887E+03</rscale>
<asrwt>0</asrwt>
<pdfrwt beam="1">  1        2 0.15649448E+00 0.82211990E+03</pdfrwt>
<pdfrwt beam="2">  1       -2 0.18206997E+00 0.82211990E+03</pdfrwt>
<totfact> 0.43605493E+00</totfact>
</mgrwt>
</event>
<event>
 4    5  0.6615028E-008  0.9939415E+03  0.7818608E-02  0.9389527E-01
         -2   -1    0    0    0  501 -0.00000000000E+00  0.00000000000E+00  0.45930585818E+03  0.45930585819E+03  0.25500000000E-02 0.  1.
          2   -1    0    0  501    0  0.00000000000E+00 -0.00000000000E+00 -0.22258638373E+04  0.22258638373E+04  0.25500000000E-02 0. -1.
    8880023    1    1    2    0    0  0.64463176905E+03 -0.37223558412E+03 -0.16357590890E+04  0.19140604617E+04  0.65864270000E+03 0.  0.
    8880022    1    1    2    0    0 -0.64463176905E+03  0.37223558412E+03 -0.13079889017E+03  0.77110923379E+03  0.15294330000E+03 0.  0.
<mgrwt>
<rscale>  0 0.92942577E+03</rscale>
<asrwt>0</asrwt>
<pdfrwt beam="1">  1        2 0.34244058E+00 0.99394147E+03</pdfrwt>
<pdfrwt beam="2">  1       -2 0.70662441E-01 0.99394147E+03</pdfrwt>
<totfact> 0.91559820E+00</totfact>
</mgrwt>
</event>
<event>
 4    5  0.6615028E-008  0.7936949E+03  0.7818608E-02  0.9724599E-01
         -2   -1    0    0    0  501 -0.00000000000E+00  0.00000000000E+00  0.14244692387E+04  0.14244692387E+04  0.25500000000E-02 0.  1.
          2   -1    0    0  501    0  0.00000000000E+00 -0.00000000000E+00 -0.57635740452E+03  0.57635740453E+03  0.25500000000E-02 0. -1.
    8880023    1    1    2    0    0 -0.17231234404E+03 -0.40798258761E+03 -0.22912438522E+03  0.82610503319E+03  0.65864270000E+03 0. -1.
    8880022    1    1    2    0    0  0.17231234404E+03  0.40798258761E+03  0.10772362194E+04  0.11747216100E+04  0.15294330000E+03 0.  0.
<mgrwt>
<rscale>  0 0.69570905E+03</rscale>
<asrwt>0</asrwt>
<pdfrwt beam="1">  1        2 0.88670370E-01 0.79369487E+03</pdfrwt>
<pdfrwt beam="2">  1       -2 0.21914911E+00 0.79369487E+03</pdfrwt>
<totfact> 0.53027002E+00</totfact>
</mgrwt>
</event>
<event>
 4    5  0.6615028E-008  0.7679363E+03  0.7818608E-02  0.9784978E-01
         -2   -1    0    0    0  501 -0.00000000000E+00  0.00000000000E+00  0.42171943151E+03  0.42171943152E+03  0.25500000000E-02 0.  1.
          2   -1    0    0  501    0  0.00000000000E+00 -0.00000000000E+00 -0.11962221083E+04  0.11962221083E+04  0.25500000000E-02 0. -1.
    8880023    1    1    2    0    0  0.10524069383E+03 -0.38057902595E+03 -0.89343038656E+03  0.11781103771E+04  0.65864270000E+03 0. -1.
    8880022    1    1    2    0    0 -0.10524069383E+03  0.38057902595E+03  0.11892770973E+03  0.43983116282E+03  0.15294330000E+03 0.  0.
<mgrwt>
<rscale>  0 0.66174971E+03</rscale>
<asrwt>0</asrwt>
<pdfrwt beam="1">  1        2 0.18403417E+00 0.76793633E+03</pdfrwt>
<pdfrwt beam="2">  1       -2 0.64879913E-01 0.76793633E+03</pdfrwt>
<totfact> 0.42412317E+01</totfact>
</mgrwt>
</event>
<event>
 4    5  0.6615028E-008  0.7552600E+03  0.7818608E-02  0.9817537E-01
         -2   -1    0    0    0  501 -0.00000000000E+00  0.00000000000E+00  0.26093756130E+03  0.26093756131E+03  0.25500000000E-02 0.  1.
          2   -1    0    0  501    0  0.00000000000E+00 -0.00000000000E+00 -0.14274510424E+04  0.14274510424E+04  0.25500000000E-02 0. -1.
    8880023    1    1    2    0    0  0.35955052856E+03 -0.85620205925E+02 -0.48318927423E+03  0.89659884187E+03  0.65864270000E+03 0. -1.
    8880022    1    1    2    0    0 -0.35955052856E+03  0.85620205925E+02 -0.68332420691E+03  0.79178976188E+03  0.15294330000E+03 0.  1.
<mgrwt>
<rscale>  0 0.64429836E+03</rscale>
<asrwt>0</asrwt>
<pdfrwt beam="1">  1        2 0.21960785E+00 0.75525996E+03</pdfrwt>
<pdfrwt beam="2">  1       -2 0.40144241E-01 0.75525996E+03</pdfrwt>
<totfact> 0.83431591E+01</totfact>
</mgrwt>
</event>
<event>
 4    5  0.6615028E-008  0.9664286E+03  0.7818608E-02  0.9426861E-01
         -2   -1    0    0    0  501 -0.00000000000E+00  0.00000000000E+00  0.29001308625E+03  0.29001308626E+03  0.25500000000E-02 0.  1.
          2   -1    0    0  501    0  0.00000000000E+00 -0.00000000000E+00 -0.29771073017E+04  0.29771073017E+04  0.25500000000E-02 0. -1.
    8880023    1    1    2    0    0 -0.14406374714E+03  0.69240144743E+03 -0.21768380399E+04  0.23817237846E+04  0.65864270000E+03 0. -1.
    8880022    1    1    2    0    0  0.14406374714E+03 -0.69240144743E+03 -0.51025617555E+03  0.88539660342E+03  0.15294330000E+03 0.  0.
<mgrwt>
<rscale>  0 0.89897736E+03</rscale>
<asrwt>0</asrwt>
<pdfrwt beam="1">  1        2 0.45801649E+00 0.96642865E+03</pdfrwt>
<pdfrwt beam="2">  1       -2 0.44617400E-01 0.96642865E+03</pdfrwt>
<totfact> 0.88069999E+00</totfact>
</mgrwt>
</event>
<event>
 4    5  0.6615028E-008  0.8412363E+03  0.7818608E-02  0.9627853E-01
          2   -1    0    0  501    0  0.00000000000E+00  0.00000000000E+00  0.24831494743E+04  0.24831494743E+04  0.25500000000E-02 0. -1.
         -2   -1    0    0    0  501 -0.00000000000E+00 -0.00000000000E+00 -0.19578986878E+03  0.19578986879E+03  0.25500000000E-02 0.  1.
    8880023    1    1    2    0    0 -0.59729388303E+02  0.51990454671E+03  0.12443988670E+04  0.15020676030E+04  0.65864270000E+03 0. -1.
    8880022    1    1    2    0    0  0.59729388303E+02 -0.51990454671E+03  0.10429607385E+04  0.11768717401E+04  0.15294330000E+03 0.  0.
<mgrwt>
<rscale>  0 0.75479770E+03</rscale>
<asrwt>0</asrwt>
<pdfrwt beam="1">  1        2 0.38202294E+00 0.84123632E+03</pdfrwt>
<pdfrwt beam="2">  1       -2 0.30121523E-01 0.84123632E+03</pdfrwt>
<totfact> 0.37289827E+01</totfact>
</mgrwt>
</event>
<event>
 4    5  0.6615028E-008  0.1093970E+04  0.7818608E-02  0.9267800E-01
          2   -1    0    0  501    0  0.00000000000E+00  0.00000000000E+00  0.18398982419E+04  0.18398982419E+04  0.25500000000E-02 0. -1.
         -2   -1    0    0    0  501 -0.00000000000E+00 -0.00000000000E+00 -0.16725442625E+04  0.16725442625E+04  0.25500000000E-02 0.  1.
    8880023    1    1    2    0    0  0.87282637597E+03 -0.33669458465E+02  0.15335071912E+04  0.18837234475E+04  0.65864270000E+03 0.  0.
    8880022    1    1    2    0    0 -0.87282637597E+03  0.33669458465E+02 -0.13661532118E+04  0.16287190568E+04  0.15294330000E+03 0.  0.
<mgrwt>
<rscale>  0 0.10380208E+04</rscale>
<asrwt>0</asrwt>
<pdfrwt beam="1">  1        2 0.28306127E+00 0.10939697E+04</pdfrwt>
<pdfrwt beam="2">  1       -2 0.25731450E+00 0.10939697E+04</pdfrwt>
<totfact> 0.46922106E-01</totfact>
</mgrwt>
</event>
<event>
 4    5  0.6615028E-008  0.6650398E+03  0.7818608E-02  0.1019500E+00
          2   -1    0    0  501    0  0.00000000000E+00  0.00000000000E+00  0.69766151416E+03  0.69766151416E+03  0.25500000000E-02 0. -1.
         -2   -1    0    0    0  501 -0.00000000000E+00 -0.00000000000E+00 -0.22139220899E+04  0.22139220899E+04  0.25500000000E-02 0.  1.
    8880023    1    1    2    0    0  0.91756755437E+02 -0.69599646292E+01  0.53441338697E+03  0.85315626805E+03  0.65864270000E+03 0. -1.
    8880022    1    1    2    0    0 -0.91756755437E+02  0.69599646292E+01 -0.20506739627E+04  0.20584273360E+04  0.15294330000E+03 0.  0.
<mgrwt>
<rscale>  0 0.47867465E+03</rscale>
<asrwt>0</asrwt>
<pdfrwt beam="1">  1        2 0.10733254E+00 0.66503981E+03</pdfrwt>
<pdfrwt beam="2">  1       -2 0.34060340E+00 0.66503981E+03</pdfrwt>
<totfact> 0.78610385E-01</totfact>
</mgrwt>
</event>
<event>
 4    5  0.6615028E-008  0.1301391E+04  0.7818608E-02  0.9064359E-01
          2   -1    0    0  501    0  0.00000000000E+00  0.00000000000E+00  0.27732398314E+04  0.27732398314E+04  0.25500000000E-02 0. -1.
         -2   -1    0    0    0  501 -0.00000000000E+00 -0.00000000000E+00 -0.83513152127E+03  0.83513152127E+03  0.25500000000E-02 0.  1.
    8880023    1    1    2    0    0 -0.17245594268E+03 -0.11090843868E+04  0.20934499251E+04  0.24649851976E+04  0.65864270000E+03 0.  0.
    8880022    1    1    2    0    0  0.17245594268E+03  0.11090843868E+04 -0.15534161504E+03  0.11433861550E+04  0.15294330000E+03 0.  0.
<mgrwt>
<rscale>  0 0.12570217E+04</rscale>
<asrwt>0</asrwt>
<pdfrwt beam="1">  1        2 0.42665228E+00 0.13013913E+04</pdfrwt>
<pdfrwt beam="2">  1       -2 0.12848177E+00 0.13013913E+04</pdfrwt>
<totfact> 0.10425508E+00</totfact>
</mgrwt>
</event>
<event>
 4    5  0.6615028E-008  0.6687319E+03  0.7818608E-02  0.1016589E+00
          2   -1    0    0  501    0  0.00000000000E+00  0.00000000000E+00  0.23488283285E+04  0.23488283285E+04  0.25500000000E-02 0. -1.
         -2   -1    0    0    0  501 -0.00000000000E+00 -0.00000000000E+00 -0.26020312515E+03  0.26020312516E+03  0.25500000000E-02 0.  1.
    8880023    1    1    2    0    0 -0.25098178514E+02 -0.11296994785E+03  0.22568960973E+04  0.23538866429E+04  0.65864270000E+03 0. -1.
    8880022    1    1    2    0    0  0.25098178514E+02  0.11296994785E+03 -0.16827089392E+03  0.25514481072E+03  0.15294330000E+03 0.  0.
<mgrwt>
<rscale>  0 0.48937983E+03</rscale>
<asrwt>0</asrwt>
<pdfrwt beam="1">  1        2 0.36135819E+00 0.66873188E+03</pdfrwt>
<pdfrwt beam="2">  1       -2 0.40031251E-01 0.66873188E+03</pdfrwt>
<totfact> 0.26459886E+01</totfact>
</mgrwt>
</event>
<event>
 4    5  0.6615028E-008  0.7920156E+03  0.7818608E-02  0.9728333E-01
          2   -1    0    0  501    0  0.00000000000E+00  0.00000000000E+00  0.43383262492E+03  0.43383262493E+03  0.25500000000E-02 0. -1.
         -2   -1    0    0    0  501 -0.00000000000E+00 -0.00000000000E+00 -0.16177244358E+04  0.16177244358E+04  0.25500000000E-02 0.  1.
    8880023    1    1    2    0    0 -0.40393351238E+03  0.17411572662E+03 -0.13731764049E+02  0.79213467055E+03  0.65864270000E+03 0.  0.
    8880022    1    1    2    0    0  0.40393351238E+03 -0.17411572662E+03 -0.11701600468E+04  0.12594223902E+04  0.15294330000E+03 0.  0.
<mgrwt>
<rscale>  0 0.69354606E+03</rscale>
<asrwt>0</asrwt>
<pdfrwt beam="1">  1        2 0.66743481E-01 0.79201564E+03</pdfrwt>
<pdfrwt beam="2">  1       -2 0.24888068E+00 0.79201564E+03</pdfrwt>
<totfact> 0.48440186E+00</totfact>
</mgrwt>
</event>
<event>
 4    5  0.6615028E-008  0.1844690E+04  0.7818608E-02  0.8698210E-01
         -2   -1    0    0    0  501 -0.00000000000E+00  0.00000000000E+00  0.20272597167E+04  0.20272597167E+04  0.25500000000E-02 0.  1.
          2   -1    0    0  501    0  0.00000000000E+00 -0.00000000000E+00 -0.22008314575E+04  0.22008314575E+04  0.25500000000E-02 0. -1.
    8880023    1    1    2    0    0 -0.14660630754E+04  0.90538961286E+03 -0.12150507748E+04  0.22088978889E+04  0.65864270000E+03 0.  0.
    8880022    1    1    2    0    0  0.14660630754E+04 -0.90538961286E+03  0.10414790339E+04  0.20191932853E+04  0.15294330000E+03 0.  0.
<mgrwt>
<rscale>  0 0.18152906E+04</rscale>
<asrwt>0</asrwt>
<pdfrwt beam="1">  1        2 0.33858945E+00 0.18446901E+04</pdfrwt>
<pdfrwt beam="2">  1       -2 0.31188611E+00 0.18446901E+04</pdfrwt>
<totfact> 0.12497832E-01</totfact>
</mgrwt>
</event>
<event>
 4    5  0.6615028E-008  0.7050938E+03  0.7818608E-02  0.9976692E-01
         -2   -1    0    0    0  501 -0.00000000000E+00  0.00000000000E+00  0.49754221519E+03  0.49754221520E+03  0.25500000000E-02 0.  1.
          2   -1    0    0  501    0  0.00000000000E+00 -0.00000000000E+00 -0.10655937820E+04  0.10655937820E+04  0.25500000000E-02 0. -1.
    8880023    1    1    2    0    0  0.24627281271E+03 -0.51930169871E+02 -0.88429721060E+03  0.11309901873E+04  0.65864270000E+03 0.  0.
    8880022    1    1    2    0    0 -0.24627281271E+03  0.51930169871E+02  0.31624564377E+03  0.43214580993E+03  0.15294330000E+03 0.  0.
<mgrwt>
<rscale>  0 0.56684168E+03</rscale>
<asrwt>0</asrwt>
<pdfrwt beam="1">  1        2 0.16393750E+00 0.70509379E+03</pdfrwt>
<pdfrwt beam="2">  1       -2 0.76544956E-01 0.70509379E+03</pdfrwt>
<totfact> 0.35666558E+01</totfact>
</mgrwt>
</event>
<event>
 4    5  0.6615028E-008  0.1013779E+04  0.7818608E-02  0.9363749E-01
         -2   -1    0    0    0  501 -0.00000000000E+00  0.00000000000E+00  0.60258737758E+03  0.60258737759E+03  0.25500000000E-02 0.  1.
          2   -1    0    0  501    0  0.00000000000E+00 -0.00000000000E+00 -0.21110295434E+04  0.21110295434E+04  0.25500000000E-02 0. -1.
    8880023    1    1    2    0    0  0.76169752254E+03  0.11727706251E+03 -0.16290244712E+04  0.19187151845E+04  0.65864270000E+03 0.  0.
    8880022    1    1    2    0    0 -0.76169752254E+03 -0.11727706251E+03  0.12058230541E+03  0.79490173646E+03  0.15294330000E+03 0.  0.
<mgrwt>
<rscale>  0 0.95120018E+03</rscale>
<asrwt>0</asrwt>
<pdfrwt beam="1">  1        2 0.32477377E+00 0.10137787E+04</pdfrwt>
<pdfrwt beam="2">  1       -2 0.92705751E-01 0.10137787E+04</pdfrwt>
<totfact> 0.57213782E+00</totfact>
</mgrwt>
</event>
<event>
 4    5  0.6615028E-008  0.9357967E+03  0.7818608E-02  0.9470851E-01
          2   -1    0    0  501    0  0.00000000000E+00  0.00000000000E+00  0.12223179557E+04  0.12223179557E+04  0.25500000000E-02 0. -1.
         -2   -1    0    0    0  501 -0.00000000000E+00 -0.00000000000E+00 -0.61522371682E+03  0.61522371682E+03  0.25500000000E-02 0.  1.
    8880023    1    1    2    0    0 -0.12615134845E+03 -0.65267995108E+03  0.67236713025E+03  0.11522990260E+04  0.65864270000E+03 0.  0.
    8880022    1    1    2    0    0  0.12615134845E+03  0.65267995108E+03 -0.65272891346E+02  0.68524264653E+03  0.15294330000E+03 0.  0.
<mgrwt>
<rscale>  0 0.86467402E+03</rscale>
<asrwt>0</asrwt>
<pdfrwt beam="1">  1        2 0.18804892E+00 0.93579671E+03</pdfrwt>
<pdfrwt beam="2">  1       -2 0.94649802E-01 0.93579671E+03</pdfrwt>
<totfact> 0.17273706E+01</totfact>
</mgrwt>
</event>
<event>
 4    5  0.6615028E-008  0.1268493E+04  0.7818608E-02  0.9093257E-01
         -2   -1    0    0    0  501 -0.00000000000E+00  0.00000000000E+00  0.12378796432E+04  0.12378796432E+04  0.25500000000E-02 0.  1.
          2   -1    0    0  501    0  0.00000000000E+00 -0.00000000000E+00 -0.22888760247E+04  0.22888760247E+04  0.25500000000E-02 0. -1.
    8880023    1    1    2    0    0  0.14956641247E+03 -0.10737289746E+04 -0.17986767288E+04  0.22009798281E+04  0.65864270000E+03 0.  0.
    8880022    1    1    2    0    0 -0.14956641247E+03  0.10737289746E+04  0.74768034730E+03  0.13257758398E+04  0.15294330000E+03 0.  0.
<mgrwt>
<rscale>  0 0.12226519E+04</rscale>
<asrwt>0</asrwt>
<pdfrwt beam="1">  1        2 0.35213477E+00 0.12684929E+04</pdfrwt>
<pdfrwt beam="2">  1       -2 0.19044302E+00 0.12684929E+04</pdfrwt>
<totfact> 0.68338287E-01</totfact>
</mgrwt>
</event>
<event>
 4    5  0.6615028E-008  0.7967447E+03  0.7818608E-02  0.9717879E-01
         -2   -1    0    0    0  501 -0.00000000000E+00  0.00000000000E+00  0.56687143524E+03  0.56687143525E+03  0.25500000000E-02 0.  1.
          2   -1    0    0  501    0  0.00000000000E+00 -0.00000000000E+00 -0.26473401994E+04  0.26473401994E+04  0.25500000000E-02 0. -1.
    8880023    1    1    2    0    0  0.10641448034E+03  0.43550881679E+03 -0.24735273739E+04  0.25986804049E+04  0.65864270000E+03 0. -1.
    8880022    1    1    2    0    0 -0.10641448034E+03 -0.43550881679E+03  0.39305860972E+03  0.61553122977E+03  0.15294330000E+03 0.  0.
<mgrwt>
<rscale>  0 0.69962174E+03</rscale>
<asrwt>0</asrwt>
<pdfrwt beam="1">  1        2 0.40728310E+00 0.79674474E+03</pdfrwt>
<pdfrwt beam="2">  1       -2 0.87210992E-01 0.79674474E+03</pdfrwt>
<totfact> 0.33910094E+00</totfact>
</mgrwt>
</event>
<event>
 4    5  0.6615028E-008  0.1996718E+04  0.7818608E-02  0.8620878E-01
         -2   -1    0    0    0  501 -0.00000000000E+00  0.00000000000E+00  0.21589550795E+04  0.21589550795E+04  0.25500000000E-02 0.  1.
          2   -1    0    0  501    0  0.00000000000E+00 -0.00000000000E+00 -0.25139441684E+04  0.25139441684E+04  0.25500000000E-02 0. -1.
    8880023    1    1    2    0    0 -0.97506200186E+03 -0.16131731468E+04  0.11065203080E+04  0.22828208225E+04  0.65864270000E+03 0.  0.
    8880022    1    1    2    0    0  0.97506200186E+03  0.16131731468E+04 -0.14615093969E+04  0.23900784254E+04  0.15294330000E+03 0.  0.
<mgrwt>
<rscale>  0 0.19697873E+04</rscale>
<asrwt>0</asrwt>
<pdfrwt beam="1">  1        2 0.38676064E+00 0.19967182E+04</pdfrwt>
<pdfrwt beam="2">  1       -2 0.33214694E+00 0.19967182E+04</pdfrwt>
<totfact> 0.60883661E-02</totfact>
</mgrwt>
</event>
<event>
 4    5  0.6615028E-008  0.6974028E+03  0.7818608E-02  0.1000815E+00
         -2   -1    0    0    0  501 -0.00000000000E+00  0.00000000000E+00  0.24545502337E+03  0.24545502338E+03  0.25500000000E-02 0.  1.
          2   -1    0    0  501    0  0.00000000000E+00 -0.00000000000E+00 -0.17065589920E+04  0.17065589920E+04  0.25500000000E-02 0. -1.
    8880023    1    1    2    0    0  0.16647464032E+02  0.22865541766E+03 -0.15180638517E+04  0.16705952538E+04  0.65864270000E+03 0. -1.
    8880022    1    1    2    0    0 -0.16647464032E+02 -0.22865541766E+03  0.56959883016E+02  0.28141876159E+03  0.15294330000E+03 0.  0.
<mgrwt>
<rscale>  0 0.55294282E+03</rscale>
<asrwt>0</asrwt>
<pdfrwt beam="1">  1        2 0.26254753E+00 0.69740278E+03</pdfrwt>
<pdfrwt beam="2">  1       -2 0.37762312E-01 0.69740278E+03</pdfrwt>
<totfact> 0.66236204E+01</totfact>
</mgrwt>
</event>
<event>
 4    5  0.6615028E-008  0.8342531E+03  0.7818608E-02  0.9641113E-01
          2   -1    0    0  501    0  0.00000000000E+00  0.00000000000E+00  0.31231119934E+04  0.31231119934E+04  0.25500000000E-02 0. -1.
         -2   -1    0    0    0  501 -0.00000000000E+00 -0.00000000000E+00 -0.67550891336E+03  0.67550891336E+03  0.25500000000E-02 0.  1.
    8880023    1    1    2    0    0  0.19258827341E+03  0.47442371513E+03  0.29496769596E+04  0.30653829250E+04  0.65864270000E+03 0.  0.
    8880022    1    1    2    0    0 -0.19258827341E+03 -0.47442371513E+03 -0.50207387949E+03  0.73323798184E+03  0.15294330000E+03 0.  0.
<mgrwt>
<rscale>  0 0.74633793E+03</rscale>
<asrwt>0</asrwt>
<pdfrwt beam="1">  1        2 0.48047877E+00 0.83425315E+03</pdfrwt>
<pdfrwt beam="2">  1       -2 0.10392445E+00 0.83425315E+03</pdfrwt>
<totfact> 0.11546600E+00</totfact>
</mgrwt>
</event>
<event>
 4    5  0.6615028E-008  0.8588164E+03  0.7818608E-02  0.9595672E-01
         -2   -1    0    0    0  501 -0.00000000000E+00  0.00000000000E+00  0.81191367474E+03  0.81191367475E+03  0.25500000000E-02 0.  1.
          2   -1    0    0  501    0  0.00000000000E+00 -0.00000000000E+00 -0.77045701933E+03  0.77045701933E+03  0.25500000000E-02 0. -1.
    8880023    1    1    2    0    0  0.37409435453E+02 -0.54986903050E+03 -0.30767510222E+03  0.91226618449E+03  0.65864270000E+03 0.  0.
    8880022    1    1    2    0    0 -0.37409435453E+02  0.54986903050E+03  0.34913175764E+03  0.67010450959E+03  0.15294330000E+03 0.  0.
<mgrwt>
<rscale>  0 0.77583279E+03</rscale>
<asrwt>0</asrwt>
<pdfrwt beam="1">  1        2 0.11853185E+00 0.85881641E+03</pdfrwt>
<pdfrwt beam="2">  1       -2 0.12490980E+00 0.85881641E+03</pdfrwt>
<totfact> 0.17467579E+01</totfact>
</mgrwt>
</event>
