<event>
 4    5  0.8511149E-008  0.1015156E+04  0.7818608E-02  0.9361992E-01
          2   -1    0    0  501    0  0.00000000000E+00  0.00000000000E+00  0.26001691494E+04  0.26001691494E+04  0.25500000000E-02 0. -1.
         -2   -1    0    0    0  501 -0.00000000000E+00 -0.00000000000E+00 -0.10697173388E+04  0.10697173388E+04  0.25500000000E-02 0.  1.
    8880023    1    1    2    0    0  0.67580611425E+03 -0.37419013226E+03 -0.74684119657E+03  0.12602833564E+04  0.65864270000E+03 0.  1.
    8880022    1    1    2    0    0 -0.67580611425E+03  0.37419013226E+03  0.22772930072E+04  0.24096031318E+04  0.15294330000E+03 0.  0.
<mgrwt>
<rscale>  0 0.95270730E+03</rscale>
<asrwt>0</asrwt>
<pdfrwt beam="1">  1        2 0.40002602E+00 0.10151563E+04</pdfrwt>
<pdfrwt beam="2">  1       -2 0.16457190E+00 0.10151563E+04</pdfrwt>
<totfact> 0.71308510E-01</totfact>
</mgrwt>
</event>
<event>
 4    5  0.8511149E-008  0.1509132E+04  0.7818608E-02  0.8903214E-01
          2   -1    0    0  501    0  0.00000000000E+00  0.00000000000E+00  0.27675896252E+04  0.27675896252E+04  0.25500000000E-02 0. -1.
         -2   -1    0    0    0  501 -0.00000000000E+00 -0.00000000000E+00 -0.17451654719E+04  0.17451654720E+04  0.25500000000E-02 0.  1.
    8880023    1    1    2    0    0  0.11817470176E+04  0.66868739474E+03 -0.11835481933E+04  0.19178804388E+04  0.65864270000E+03 0.  0.
    8880022    1    1    2    0    0 -0.11817470176E+04 -0.66868739474E+03  0.22059723465E+04  0.25948746583E+04  0.15294330000E+03 0.  0.
<mgrwt>
<rscale>  0 0.14721098E+04</rscale>
<asrwt>0</asrwt>
<pdfrwt beam="1">  1        2 0.42578302E+00 0.15091319E+04</pdfrwt>
<pdfrwt beam="2">  1       -2 0.26848700E+00 0.15091319E+04</pdfrwt>
<totfact> 0.11232448E-01</totfact>
</mgrwt>
</event>
<event>
 4    5  0.8511149E-008  0.1636514E+04  0.7818608E-02  0.8818807E-01
         -2   -1    0    0    0  501 -0.00000000000E+00  0.00000000000E+00  0.18382886813E+04  0.18382886813E+04  0.25500000000E-02 0.  1.
          2   -1    0    0  501    0  0.00000000000E+00 -0.00000000000E+00 -0.24600893601E+04  0.24600893601E+04  0.25500000000E-02 0. -1.
    8880023    1    1    2    0    0 -0.67290524461E+03 -0.13384946379E+04 -0.17655606349E+04  0.24073603647E+04  0.65864270000E+03 0.  0.
    8880022    1    1    2    0    0  0.67290524461E+03  0.13384946379E+04  0.11437599560E+04  0.18910176767E+04  0.15294330000E+03 0.  0.
<mgrwt>
<rscale>  0 0.16028377E+04</rscale>
<asrwt>0</asrwt>
<pdfrwt beam="1">  1        2 0.37847529E+00 0.16365145E+04</pdfrwt>
<pdfrwt beam="2">  1       -2 0.28281364E+00 0.16365145E+04</pdfrwt>
<totfact> 0.13707400E-01</totfact>
</mgrwt>
</event>
<event>
 4    5  0.8511149E-008  0.1082714E+04  0.7818608E-02  0.9280551E-01
          2   -1    0    0  501    0  0.00000000000E+00  0.00000000000E+00  0.25335470414E+04  0.25335470414E+04  0.25500000000E-02 0. -1.
         -2   -1    0    0    0  501 -0.00000000000E+00 -0.00000000000E+00 -0.11921825285E+04  0.11921825285E+04  0.25500000000E-02 0.  1.
    8880023    1    1    2    0    0 -0.14488275614E+03  0.84703447536E+03 -0.84380270809E+03  0.13726877401E+04  0.65864270000E+03 0.  1.
    8880022    1    1    2    0    0  0.14488275614E+03 -0.84703447536E+03  0.21851672210E+04  0.23530418297E+04  0.15294330000E+03 0.  0.
<mgrwt>
<rscale>  0 0.10259327E+04</rscale>
<asrwt>0</asrwt>
<pdfrwt beam="1">  1        2 0.38977647E+00 0.10827135E+04</pdfrwt>
<pdfrwt beam="2">  1       -2 0.18341270E+00 0.10827135E+04</pdfrwt>
<totfact> 0.56789947E-01</totfact>
</mgrwt>
</event>
<event>
 4    5  0.8511149E-008  0.8439019E+03  0.7818608E-02  0.9622866E-01
         -2   -1    0    0    0  501 -0.00000000000E+00  0.00000000000E+00  0.58698968932E+03  0.58698968933E+03  0.25500000000E-02 0.  1.
          2   -1    0    0  501    0  0.00000000000E+00 -0.00000000000E+00 -0.14319672181E+04  0.14319672181E+04  0.25500000000E-02 0. -1.
    8880023    1    1    2    0    0  0.30530526098E+03  0.43028939893E+03 -0.11218369387E+04  0.14038121642E+04  0.65864270000E+03 0. -1.
    8880022    1    1    2    0    0 -0.30530526098E+03 -0.43028939893E+03  0.27685940990E+03  0.61514474320E+03  0.15294330000E+03 0.  0.
<mgrwt>
<rscale>  0 0.75801054E+03</rscale>
<asrwt>0</asrwt>
<pdfrwt beam="1">  1        2 0.22030265E+00 0.84390193E+03</pdfrwt>
<pdfrwt beam="2">  1       -2 0.90306106E-01 0.84390193E+03</pdfrwt>
<totfact> 0.14719451E+01</totfact>
</mgrwt>
</event>
<event>
 4    5  0.8511149E-008  0.1028832E+04  0.7818608E-02  0.9344772E-01
          2   -1    0    0  501    0  0.00000000000E+00  0.00000000000E+00  0.18184264156E+04  0.18184264156E+04  0.25500000000E-02 0. -1.
         -2   -1    0    0    0  501 -0.00000000000E+00 -0.00000000000E+00 -0.51280290513E+03  0.51280290514E+03  0.25500000000E-02 0.  1.
    8880023    1    1    2    0    0  0.62916433832E+03  0.47836925669E+03  0.10877639499E+04  0.14972393019E+04  0.65864270000E+03 0. -1.
    8880022    1    1    2    0    0 -0.62916433832E+03 -0.47836925669E+03  0.21785956064E+03  0.83399001885E+03  0.15294330000E+03 0.  0.
<mgrwt>
<rscale>  0 0.96763510E+03</rscale>
<asrwt>0</asrwt>
<pdfrwt beam="1">  1        2 0.27975791E+00 0.10288319E+04</pdfrwt>
<pdfrwt beam="2">  1       -2 0.78892755E-01 0.10288319E+04</pdfrwt>
<totfact> 0.11985090E+01</totfact>
</mgrwt>
</event>
<event>
 4    5  0.8511149E-008  0.7186783E+03  0.7818608E-02  0.9927084E-01
         -2   -1    0    0    0  501 -0.00000000000E+00  0.00000000000E+00  0.36999400290E+03  0.36999400291E+03  0.25500000000E-02 0.  1.
          2   -1    0    0  501    0  0.00000000000E+00 -0.00000000000E+00 -0.32404783693E+04  0.32404783693E+04  0.25500000000E-02 0. -1.
    8880023    1    1    2    0    0 -0.57963898451E+02  0.28165319916E+03  0.29036784557E+01  0.71868419750E+03  0.65864270000E+03 0.  1.
    8880022    1    1    2    0    0  0.57963898451E+02 -0.28165319916E+03 -0.28733880449E+04  0.28917881747E+04  0.15294330000E+03 0.  0.
<mgrwt>
<rscale>  0 0.58966466E+03</rscale>
<asrwt>0</asrwt>
<pdfrwt beam="1">  1        2 0.49853512E+00 0.71867833E+03</pdfrwt>
<pdfrwt beam="2">  1       -2 0.56922156E-01 0.71867833E+03</pdfrwt>
<totfact> 0.38207079E+00</totfact>
</mgrwt>
</event>
<event>
 4    5  0.8511149E-008  0.1437249E+04  0.7818608E-02  0.8955267E-01
         -2   -1    0    0    0  501 -0.00000000000E+00  0.00000000000E+00  0.12628512204E+04  0.12628512204E+04  0.25500000000E-02 0.  1.
          2   -1    0    0  501    0  0.00000000000E+00 -0.00000000000E+00 -0.18955329584E+04  0.18955329584E+04  0.25500000000E-02 0. -1.
    8880023    1    1    2    0    0 -0.11304207186E+04  0.59499833292E+03  0.41854989388E+03  0.14969529843E+04  0.65864270000E+03 0.  0.
    8880022    1    1    2    0    0  0.11304207186E+04 -0.59499833292E+03 -0.10512316319E+04  0.16614311945E+04  0.15294330000E+03 0.  0.
<mgrwt>
<rscale>  0 0.13980009E+04</rscale>
<asrwt>0</asrwt>
<pdfrwt beam="1">  1        2 0.29162046E+00 0.14372488E+04</pdfrwt>
<pdfrwt beam="2">  1       -2 0.19428480E+00 0.14372488E+04</pdfrwt>
<totfact> 0.10482284E+00</totfact>
</mgrwt>
</event>
<event>
 4    5  0.8511149E-008  0.1146877E+04  0.7818608E-02  0.9210575E-01
         -2   -1    0    0    0  501 -0.00000000000E+00  0.00000000000E+00  0.79092332949E+03  0.79092332949E+03  0.25500000000E-02 0.  1.
          2   -1    0    0  501    0  0.00000000000E+00 -0.00000000000E+00 -0.28564809818E+04  0.28564809818E+04  0.25500000000E-02 0. -1.
    8880023    1    1    2    0    0 -0.23806183800E+03  0.90820894692E+03  0.22359273232E+03  0.11684694460E+04  0.65864270000E+03 0.  0.
    8880022    1    1    2    0    0  0.23806183800E+03 -0.90820894692E+03 -0.22891503846E+04  0.24789348653E+04  0.15294330000E+03 0.  0.
<mgrwt>
<rscale>  0 0.10944937E+04</rscale>
<asrwt>0</asrwt>
<pdfrwt beam="1">  1        2 0.43945861E+00 0.11468771E+04</pdfrwt>
<pdfrwt beam="2">  1       -2 0.12168051E+00 0.11468771E+04</pdfrwt>
<totfact> 0.10876532E+00</totfact>
</mgrwt>
</event>
<event>
 4    5  0.8511149E-008  0.1803582E+04  0.7818608E-02  0.8720558E-01
          2   -1    0    0  501    0  0.00000000000E+00  0.00000000000E+00  0.16867348203E+04  0.16867348203E+04  0.25500000000E-02 0. -1.
         -2   -1    0    0    0  501 -0.00000000000E+00 -0.00000000000E+00 -0.24194222341E+04  0.24194222341E+04  0.25500000000E-02 0.  1.
    8880023    1    1    2    0    0 -0.15123020211E+03 -0.16721921962E+04 -0.14098993860E+04  0.22892627197E+04  0.65864270000E+03 0.  0.
    8880022    1    1    2    0    0  0.15123020211E+03  0.16721921962E+04  0.67721197220E+03  0.18168943346E+04  0.15294330000E+03 0.  0.
<mgrwt>
<rscale>  0 0.17734308E+04</rscale>
<asrwt>0</asrwt>
<pdfrwt beam="1">  1        2 0.25949767E+00 0.18035819E+04</pdfrwt>
<pdfrwt beam="2">  1       -2 0.37221880E+00 0.18035819E+04</pdfrwt>
<totfact> 0.10190113E-01</totfact>
</mgrwt>
</event>
<event>
 4    5  0.9688664E-008  0.1177061E+04  0.7818608E-02  0.9179749E-01
         -2   -1    0    0    0  501 -0.00000000000E+00  0.00000000000E+00  0.17942463413E+04  0.17942463414E+04  0.25500000000E-02 0.  1.
          2   -1    0    0  501    0  0.00000000000E+00 -0.00000000000E+00 -0.24586570626E+04  0.24586570626E+04  0.25500000000E-02 0. -1.
    8880023    1    1    2    0    0 -0.77491255080E+03 -0.59259916254E+03  0.14806316813E+04  0.18914924295E+04  0.65864270000E+03 0.  0.
    8880022    1    1    2    0    0  0.77491255080E+03  0.59259916254E+03 -0.21450424026E+04  0.23614109745E+04  0.15294330000E+03 0.  0.
<mgrwt>
<rscale>  0 0.11264916E+04</rscale>
<asrwt>0</asrwt>
<pdfrwt beam="1">  1        2 0.37825493E+00 0.11770614E+04</pdfrwt>
<pdfrwt beam="2">  1       -2 0.27603790E+00 0.11770614E+04</pdfrwt>
<totfact> 0.16089962E-01</totfact>
</mgrwt>
</event>
<event>
 4    5  0.8511149E-008  0.9277051E+03  0.7818608E-02  0.9482944E-01
         -2   -1    0    0    0  501 -0.00000000000E+00  0.00000000000E+00  0.35029470301E+03  0.35029470302E+03  0.25500000000E-02 0.  1.
          2   -1    0    0  501    0  0.00000000000E+00 -0.00000000000E+00 -0.23538082363E+04  0.23538082363E+04  0.25500000000E-02 0. -1.
    8880023    1    1    2    0    0  0.50122602968E+03 -0.41904532664E+03 -0.49142411712E+03  0.10498258845E+04  0.65864270000E+03 0.  0.
    8880022    1    1    2    0    0 -0.50122602968E+03  0.41904532664E+03 -0.15120894162E+04  0.16542770548E+04  0.15294330000E+03 0.  0.
<mgrwt>
<rscale>  0 0.85553017E+03</rscale>
<asrwt>0</asrwt>
<pdfrwt beam="1">  1        2 0.36212433E+00 0.92770509E+03</pdfrwt>
<pdfrwt beam="2">  1       -2 0.53891494E-01 0.92770509E+03</pdfrwt>
<totfact> 0.13951056E+01</totfact>
</mgrwt>
</event>
<event>
 4    5  0.8511149E-008  0.7049676E+03  0.7818608E-02  0.9977186E-01
          2   -1    0    0  501    0  0.00000000000E+00  0.00000000000E+00  0.13254264755E+04  0.13254264755E+04  0.25500000000E-02 0. -1.
         -2   -1    0    0    0  501 -0.00000000000E+00 -0.00000000000E+00 -0.59784958047E+03  0.59784958048E+03  0.25500000000E-02 0.  1.
    8880023    1    1    2    0    0 -0.21604463359E+03 -0.12842825613E+03 -0.36354358440E+03  0.79318550460E+03  0.65864270000E+03 0.  1.
    8880022    1    1    2    0    0  0.21604463359E+03  0.12842825613E+03  0.10911204795E+04  0.11300905514E+04  0.15294330000E+03 0.  0.
<mgrwt>
<rscale>  0 0.56662012E+03</rscale>
<asrwt>0</asrwt>
<pdfrwt beam="1">  1        2 0.20391176E+00 0.70496759E+03</pdfrwt>
<pdfrwt beam="2">  1       -2 0.91976860E-01 0.70496759E+03</pdfrwt>
<totfact> 0.16488634E+01</totfact>
</mgrwt>
</event>
<event>
 4    5  0.1216951E-007  0.9381838E+03  0.7818608E-02  0.9467323E-01
          2   -1    0    0  501    0  0.00000000000E+00  0.00000000000E+00  0.35594411159E+04  0.35594411159E+04  0.25500000000E-02 0. -1.
         -2   -1    0    0    0  501 -0.00000000000E+00 -0.00000000000E+00 -0.16021403321E+04  0.16021403321E+04  0.25500000000E-02 0.  1.
    8880023    1    1    2    0    0 -0.58301316466E+03  0.32630401187E+03 -0.14274362959E+04  0.17081461423E+04  0.65864270000E+03 0.  1.
    8880022    1    1    2    0    0  0.58301316466E+03 -0.32630401187E+03  0.33847370797E+04  0.34534353057E+04  0.15294330000E+03 0.  0.
<mgrwt>
<rscale>  0 0.86736451E+03</rscale>
<asrwt>0</asrwt>
<pdfrwt beam="1">  1        2 0.54760632E+00 0.93818381E+03</pdfrwt>
<pdfrwt beam="2">  1       -2 0.24648313E+00 0.93818381E+03</pdfrwt>
<totfact> 0.52513035E-02</totfact>
</mgrwt>
</event>
<event>
 4    5  0.8511149E-008  0.9406132E+03  0.7818608E-02  0.9463750E-01
         -2   -1    0    0    0  501 -0.00000000000E+00  0.00000000000E+00  0.87032571054E+03  0.87032571055E+03  0.25500000000E-02 0.  1.
          2   -1    0    0  501    0  0.00000000000E+00 -0.00000000000E+00 -0.12875066842E+04  0.12875066842E+04  0.25500000000E-02 0. -1.
    8880023    1    1    2    0    0  0.66482083645E+03 -0.94637174442E+02  0.45633459792E+03  0.10454637301E+04  0.65864270000E+03 0.  0.
    8880022    1    1    2    0    0 -0.66482083645E+03  0.94637174442E+02 -0.87351557155E+03  0.11123686647E+04  0.15294330000E+03 0.  0.
<mgrwt>
<rscale>  0 0.87009945E+03</rscale>
<asrwt>0</asrwt>
<pdfrwt beam="1">  1        2 0.19807795E+00 0.94061318E+03</pdfrwt>
<pdfrwt beam="2">  1       -2 0.13389626E+00 0.94061318E+03</pdfrwt>
<totfact> 0.67621238E+00</totfact>
</mgrwt>
</event>
<event>
 4    5  0.8511149E-008  0.8637351E+03  0.7818608E-02  0.9586954E-01
          2   -1    0    0  501    0  0.00000000000E+00  0.00000000000E+00  0.48262146140E+04  0.48262146140E+04  0.25500000000E-02 0. -1.
         -2   -1    0    0    0  501 -0.00000000000E+00 -0.00000000000E+00 -0.32327250026E+03  0.32327250027E+03  0.25500000000E-02 0.  1.
    8880023    1    1    2    0    0  0.76766349162E+01  0.55872099914E+03  0.31148561412E+03  0.91818384851E+03  0.65864270000E+03 0.  0.
    8880022    1    1    2    0    0 -0.76766349162E+01 -0.55872099914E+03  0.41914564996E+04  0.42313032657E+04  0.15294330000E+03 0.  0.
<mgrwt>
<rscale>  0 0.78165724E+03</rscale>
<asrwt>0</asrwt>
<pdfrwt beam="1">  1        2 0.74249451E+00 0.86373508E+03</pdfrwt>
<pdfrwt beam="2">  1       -2 0.49734234E-01 0.86373508E+03</pdfrwt>
<totfact> 0.24027105E-01</totfact>
</mgrwt>
</event>
<event>
 4    5  0.8511149E-008  0.8813890E+03  0.7818608E-02  0.9556594E-01
          2   -1    0    0  501    0  0.00000000000E+00  0.00000000000E+00  0.11041217377E+04  0.11041217377E+04  0.25500000000E-02 0. -1.
         -2   -1    0    0    0  501 -0.00000000000E+00 -0.00000000000E+00 -0.11357672032E+04  0.11357672032E+04  0.25500000000E-02 0.  1.
    8880023    1    1    2    0    0 -0.17966804888E+01 -0.58569034639E+03 -0.84833390950E+03  0.12233221318E+04  0.65864270000E+03 0.  1.
    8880022    1    1    2    0    0  0.17966804888E+01  0.58569034639E+03  0.81668844397E+03  0.10165668091E+04  0.15294330000E+03 0.  0.
<mgrwt>
<rscale>  0 0.80236933E+03</rscale>
<asrwt>0</asrwt>
<pdfrwt beam="1">  1        2 0.16986488E+00 0.88138903E+03</pdfrwt>
<pdfrwt beam="2">  1       -2 0.17473342E+00 0.88138903E+03</pdfrwt>
<totfact> 0.42935863E+00</totfact>
</mgrwt>
</event>
<event>
 4    5  0.8511149E-008  0.8607661E+03  0.7818608E-02  0.9592202E-01
          2   -1    0    0  501    0  0.00000000000E+00  0.00000000000E+00  0.23581264501E+04  0.23581264502E+04  0.25500000000E-02 0. -1.
         -2   -1    0    0    0  501 -0.00000000000E+00 -0.00000000000E+00 -0.25911242230E+03  0.25911242232E+03  0.25500000000E-02 0.  1.
    8880023    1    1    2    0    0 -0.27715077038E+03 -0.47989120134E+03  0.71646970422E+03  0.11199317649E+04  0.65864270000E+03 0.  1.
    8880022    1    1    2    0    0  0.27715077038E+03  0.47989120134E+03  0.13825443236E+04  0.14973071076E+04  0.15294330000E+03 0.  0.
<mgrwt>
<rscale>  0 0.77814453E+03</rscale>
<asrwt>0</asrwt>
<pdfrwt beam="1">  1        2 0.36278869E+00 0.86076612E+03</pdfrwt>
<pdfrwt beam="2">  1       -2 0.39863449E-01 0.86076612E+03</pdfrwt>
<totfact> 0.25654577E+01</totfact>
</mgrwt>
</event>
<event>
 4    5  0.8511149E-008  0.1044416E+04  0.7818608E-02  0.9325624E-01
          2   -1    0    0  501    0  0.00000000000E+00  0.00000000000E+00  0.36669037747E+04  0.36669037747E+04  0.25500000000E-02 0. -1.
         -2   -1    0    0    0  501 -0.00000000000E+00 -0.00000000000E+00 -0.32645485057E+03  0.32645485058E+03  0.25500000000E-02 0.  1.
    8880023    1    1    2    0    0  0.24675071520E+02 -0.81017656058E+03  0.78059846204E+03  0.13038938161E+04  0.65864270000E+03 0.  1.
    8880022    1    1    2    0    0 -0.24675071520E+02  0.81017656058E+03  0.25598504621E+04  0.26894648092E+04  0.15294330000E+03 0.  0.
<mgrwt>
<rscale>  0 0.98457693E+03</rscale>
<asrwt>0</asrwt>
<pdfrwt beam="1">  1        2 0.56413905E+00 0.10444162E+04</pdfrwt>
<pdfrwt beam="2">  1       -2 0.50223822E-01 0.10444162E+04</pdfrwt>
<totfact> 0.23961924E+00</totfact>
</mgrwt>
</event>
<event>
 4    5  0.8511149E-008  0.1426967E+04  0.7818608E-02  0.8963007E-01
          2   -1    0    0  501    0  0.00000000000E+00  0.00000000000E+00  0.31502861609E+04  0.31502861609E+04  0.25500000000E-02 0. -1.
         -2   -1    0    0    0  501 -0.00000000000E+00 -0.00000000000E+00 -0.10575825059E+04  0.10575825059E+04  0.25500000000E-02 0.  1.
    8880023    1    1    2    0    0 -0.22710890312E+03  0.12453297718E+04 -0.33493197875E+03  0.14657470215E+04  0.65864270000E+03 0.  0.
    8880022    1    1    2    0    0  0.22710890312E+03 -0.12453297718E+04  0.24276356337E+04  0.27421216453E+04  0.15294330000E+03 0.  0.
<mgrwt>
<rscale>  0 0.13873767E+04</rscale>
<asrwt>0</asrwt>
<pdfrwt beam="1">  1        2 0.48465940E+00 0.14269670E+04</pdfrwt>
<pdfrwt beam="2">  1       -2 0.16270500E+00 0.14269670E+04</pdfrwt>
<totfact> 0.32134358E-01</totfact>
</mgrwt>
</event>
<event>
 4    5  0.8511149E-008  0.1700554E+04  0.7818608E-02  0.8779637E-01
          2   -1    0    0  501    0  0.00000000000E+00  0.00000000000E+00  0.13136855524E+04  0.13136855524E+04  0.25500000000E-02 0. -1.
         -2   -1    0    0    0  501 -0.00000000000E+00 -0.00000000000E+00 -0.29047365185E+04  0.29047365185E+04  0.25500000000E-02 0.  1.
    8880023    1    1    2    0    0  0.13541490683E+04 -0.79016110768E+03 -0.19657123880E+04  0.25992132798E+04  0.65864270000E+03 0.  0.
    8880022    1    1    2    0    0 -0.13541490683E+04  0.79016110768E+03  0.37466142194E+03  0.16192087911E+04  0.15294330000E+03 0.  0.
<mgrwt>
<rscale>  0 0.16683278E+04</rscale>
<asrwt>0</asrwt>
<pdfrwt beam="1">  1        2 0.20210547E+00 0.17005542E+04</pdfrwt>
<pdfrwt beam="2">  1       -2 0.44688254E+00 0.17005542E+04</pdfrwt>
<totfact> 0.54429561E-02</totfact>
</mgrwt>
</event>
<event>
 4    5  0.8511149E-008  0.7509871E+03  0.7818608E-02  0.9829026E-01
         -2   -1    0    0    0  501 -0.00000000000E+00  0.00000000000E+00  0.11030749396E+04  0.11030749396E+04  0.25500000000E-02 0.  1.
          2   -1    0    0  501    0  0.00000000000E+00 -0.00000000000E+00 -0.12508671317E+04  0.12508671317E+04  0.25500000000E-02 0. -1.
    8880023    1    1    2    0    0 -0.18273069514E+03  0.31109638783E+03  0.93684141553E+03  0.12006887663E+04  0.65864270000E+03 0.  0.
    8880022    1    1    2    0    0  0.18273069514E+03 -0.31109638783E+03 -0.10846336076E+04  0.11532533049E+04  0.15294330000E+03 0.  0.
<mgrwt>
<rscale>  0 0.63827853E+03</rscale>
<asrwt>0</asrwt>
<pdfrwt beam="1">  1        2 0.19244110E+00 0.75098713E+03</pdfrwt>
<pdfrwt beam="2">  1       -2 0.16970384E+00 0.75098713E+03</pdfrwt>
<totfact> 0.38734873E+00</totfact>
</mgrwt>
</event>
<event>
 4    5  0.8511149E-008  0.8484650E+03  0.7818608E-02  0.9614421E-01
         -2   -1    0    0    0  501 -0.00000000000E+00  0.00000000000E+00  0.21135410393E+04  0.21135410393E+04  0.25500000000E-02 0.  1.
          2   -1    0    0  501    0  0.00000000000E+00 -0.00000000000E+00 -0.49297475810E+03  0.49297475811E+03  0.25500000000E-02 0. -1.
    8880023    1    1    2    0    0 -0.52699642557E+03  0.91418979948E+02  0.18259961982E+04  0.20134932294E+04  0.65864270000E+03 0.  1.
    8880022    1    1    2    0    0  0.52699642557E+03 -0.91418979948E+02 -0.20542991699E+03  0.59302256810E+03  0.15294330000E+03 0.  0.
<mgrwt>
<rscale>  0 0.76349031E+03</rscale>
<asrwt>0</asrwt>
<pdfrwt beam="1">  1        2 0.75842268E-01 0.84846501E+03</pdfrwt>
<pdfrwt beam="2">  1       -2 0.32516017E+00 0.84846501E+03</pdfrwt>
<totfact> 0.14370048E+00</totfact>
</mgrwt>
</event>
<event>
 4    5  0.8511149E-008  0.1832455E+04  0.7818608E-02  0.8704793E-01
          2   -1    0    0  501    0  0.00000000000E+00  0.00000000000E+00  0.14037952701E+04  0.14037952701E+04  0.25500000000E-02 0. -1.
         -2   -1    0    0    0  501 -0.00000000000E+00 -0.00000000000E+00 -0.30663668424E+04  0.30663668424E+04  0.25500000000E-02 0.  1.
    8880023    1    1    2    0    0 -0.16448109390E+04  0.46762879083E+03 -0.20085226420E+04  0.27188330439E+04  0.65864270000E+03 0.  0.
    8880022    1    1    2    0    0  0.16448109390E+04 -0.46762879083E+03  0.34595106975E+03  0.17513290686E+04  0.15294330000E+03 0.  0.
<mgrwt>
<rscale>  0 0.18028356E+04</rscale>
<asrwt>0</asrwt>
<pdfrwt beam="1">  1        2 0.21596850E+00 0.18324546E+04</pdfrwt>
<pdfrwt beam="2">  1       -2 0.47174875E+00 0.18324546E+04</pdfrwt>
<totfact> 0.32523724E-02</totfact>
</mgrwt>
</event>
<event>
 4    5  0.8511149E-008  0.1436755E+04  0.7818608E-02  0.8955637E-01
         -2   -1    0    0    0  501 -0.00000000000E+00  0.00000000000E+00  0.13510620868E+04  0.13510620868E+04  0.25500000000E-02 0.  1.
          2   -1    0    0  501    0  0.00000000000E+00 -0.00000000000E+00 -0.27228153545E+04  0.27228153545E+04  0.25500000000E-02 0. -1.
    8880023    1    1    2    0    0  0.12087406723E+04  0.41158244252E+03  0.72871502406E+03  0.16109903515E+04  0.65864270000E+03 0.  1.
    8880022    1    1    2    0    0 -0.12087406723E+04 -0.41158244252E+03 -0.21004682918E+04  0.24628870899E+04  0.15294330000E+03 0.  0.
<mgrwt>
<rscale>  0 0.13974905E+04</rscale>
<asrwt>0</asrwt>
<pdfrwt beam="1">  1        2 0.41889467E+00 0.14367548E+04</pdfrwt>
<pdfrwt beam="2">  1       -2 0.20785571E+00 0.14367548E+04</pdfrwt>
<totfact> 0.28824406E-01</totfact>
</mgrwt>
</event>
<event>
 4    5  0.8511149E-008  0.8781094E+03  0.7818608E-02  0.9562128E-01
          2   -1    0    0  501    0  0.00000000000E+00  0.00000000000E+00  0.99370664958E+03  0.99370664959E+03  0.25500000000E-02 0. -1.
         -2   -1    0    0    0  501 -0.00000000000E+00 -0.00000000000E+00 -0.94195033948E+03  0.94195033948E+03  0.25500000000E-02 0.  1.
    8880023    1    1    2    0    0 -0.58059852841E+03 -0.13086059074E+02 -0.58908417949E+03  0.10574007154E+04  0.65864270000E+03 0.  1.
    8880022    1    1    2    0    0  0.58059852841E+03  0.13086059074E+02  0.64084048959E+03  0.87825627367E+03  0.15294330000E+03 0.  0.
<mgrwt>
<rscale>  0 0.79854307E+03</rscale>
<asrwt>0</asrwt>
<pdfrwt beam="1">  1        2 0.15287795E+00 0.87810939E+03</pdfrwt>
<pdfrwt beam="2">  1       -2 0.14491544E+00 0.87810939E+03</pdfrwt>
<totfact> 0.83716237E+00</totfact>
</mgrwt>
</event>
<event>
 4    5  0.8511149E-008  0.1156358E+04  0.7818608E-02  0.9200759E-01
         -2   -1    0    0    0  501 -0.00000000000E+00  0.00000000000E+00  0.11617613670E+04  0.11617613670E+04  0.25500000000E-02 0.  1.
          2   -1    0    0  501    0  0.00000000000E+00 -0.00000000000E+00 -0.13074030350E+04  0.13074030350E+04  0.25500000000E-02 0. -1.
    8880023    1    1    2    0    0 -0.94819973449E+03  0.65344685347E+02  0.55094351789E+03  0.12808987589E+04  0.65864270000E+03 0.  0.
    8880022    1    1    2    0    0  0.94819973449E+03 -0.65344685347E+02 -0.69658518590E+03  0.11882656431E+04  0.15294330000E+03 0.  0.
<mgrwt>
<rscale>  0 0.11045595E+04</rscale>
<asrwt>0</asrwt>
<pdfrwt beam="1">  1        2 0.20113893E+00 0.11563576E+04</pdfrwt>
<pdfrwt beam="2">  1       -2 0.17873252E+00 0.11563576E+04</pdfrwt>
<totfact> 0.29531810E+00</totfact>
</mgrwt>
</event>
<event>
 4    5  0.1146903E-007  0.1010297E+04  0.7818608E-02  0.9368209E-01
          2   -1    0    0  501    0  0.00000000000E+00  0.00000000000E+00  0.18851104468E+04  0.18851104468E+04  0.25500000000E-02 0. -1.
         -2   -1    0    0    0  501 -0.00000000000E+00 -0.00000000000E+00 -0.24935054804E+04  0.24935054804E+04  0.25500000000E-02 0.  1.
    8880023    1    1    2    0    0 -0.63422111526E+03  0.42971236795E+03 -0.23017693416E+04  0.25137305843E+04  0.65864270000E+03 0.  0.
    8880022    1    1    2    0    0  0.63422111526E+03 -0.42971236795E+03  0.16933743080E+04  0.18648853429E+04  0.15294330000E+03 0.  0.
<mgrwt>
<rscale>  0 0.94738805E+03</rscale>
<asrwt>0</asrwt>
<pdfrwt beam="1">  1        2 0.29001699E+00 0.10102967E+04</pdfrwt>
<pdfrwt beam="2">  1       -2 0.38361623E+00 0.10102967E+04</pdfrwt>
<totfact> 0.74783505E-02</totfact>
</mgrwt>
</event>
<event>
 4    5  0.8511149E-008  0.7435170E+03  0.7818608E-02  0.9849818E-01
          2   -1    0    0  501    0  0.00000000000E+00  0.00000000000E+00  0.18136043430E+04  0.18136043430E+04  0.25500000000E-02 0. -1.
         -2   -1    0    0    0  501 -0.00000000000E+00 -0.00000000000E+00 -0.22171714911E+03  0.22171714913E+03  0.25500000000E-02 0.  1.
    8880023    1    1    2    0    0  0.34396322594E+03 -0.26394943604E+02  0.54319907650E+03  0.92080553692E+03  0.65864270000E+03 0.  0.
    8880022    1    1    2    0    0 -0.34396322594E+03  0.26394943604E+02  0.10486881174E+04  0.11145159552E+04  0.15294330000E+03 0.  0.
<mgrwt>
<rscale>  0 0.62756192E+03</rscale>
<asrwt>0</asrwt>
<pdfrwt beam="1">  1        2 0.27901605E+00 0.74351705E+03</pdfrwt>
<pdfrwt beam="2">  1       -2 0.34110330E-01 0.74351705E+03</pdfrwt>
<totfact> 0.69974719E+01</totfact>
</mgrwt>
</event>
<event>
 4    5  0.8511149E-008  0.1271258E+04  0.7818608E-02  0.9090787E-01
         -2   -1    0    0    0  501 -0.00000000000E+00  0.00000000000E+00  0.29801997047E+04  0.29801997047E+04  0.25500000000E-02 0.  1.
          2   -1    0    0  501    0  0.00000000000E+00 -0.00000000000E+00 -0.70592283286E+03  0.70592283286E+03  0.25500000000E-02 0. -1.
    8880023    1    1    2    0    0  0.96093823691E+03  0.50880606930E+03  0.22541413534E+04  0.25879044338E+04  0.65864270000E+03 0.  1.
    8880022    1    1    2    0    0 -0.96093823691E+03 -0.50880606930E+03  0.20135518477E+02  0.10982181038E+04  0.15294330000E+03 0.  0.
<mgrwt>
<rscale>  0 0.12255445E+04</rscale>
<asrwt>0</asrwt>
<pdfrwt beam="1">  1        2 0.10860351E+00 0.12712577E+04</pdfrwt>
<pdfrwt beam="2">  1       -2 0.45849227E+00 0.12712577E+04</pdfrwt>
<totfact> 0.12108949E-01</totfact>
</mgrwt>
</event>
<event>
 4    5  0.8511149E-008  0.7258792E+03  0.7818608E-02  0.9903173E-01
         -2   -1    0    0    0  501 -0.00000000000E+00  0.00000000000E+00  0.62901322443E+03  0.62901322444E+03  0.25500000000E-02 0.  1.
          2   -1    0    0  501    0  0.00000000000E+00 -0.00000000000E+00 -0.15419816373E+04  0.15419816373E+04  0.25500000000E-02 0. -1.
    8880023    1    1    2    0    0  0.30437138649E+03  0.21176509070E+02  0.39003767919E+03  0.82403275596E+03  0.65864270000E+03 0.  1.
    8880022    1    1    2    0    0 -0.30437138649E+03 -0.21176509070E+02 -0.13030060921E+04  0.13469621058E+04  0.15294330000E+03 0.  0.
<mgrwt>
<rscale>  0 0.60107772E+03</rscale>
<asrwt>0</asrwt>
<pdfrwt beam="1">  1        2 0.23722794E+00 0.72587919E+03</pdfrwt>
<pdfrwt beam="2">  1       -2 0.96771266E-01 0.72587919E+03</pdfrwt>
<totfact> 0.11036656E+01</totfact>
</mgrwt>
</event>
<event>
 4    5  0.8511149E-008  0.7458238E+03  0.7818608E-02  0.9843296E-01
          2   -1    0    0  501    0  0.00000000000E+00  0.00000000000E+00  0.62759988915E+03  0.62759988916E+03  0.25500000000E-02 0. -1.
         -2   -1    0    0    0  501 -0.00000000000E+00 -0.00000000000E+00 -0.81009718116E+03  0.81009718116E+03  0.25500000000E-02 0.  1.
    8880023    1    1    2    0    0 -0.28857176445E+03 -0.19791243979E+03  0.31577279382E+03  0.80991707023E+03  0.65864270000E+03 0. -1.
    8880022    1    1    2    0    0  0.28857176445E+03  0.19791243979E+03 -0.49827008583E+03  0.62778000009E+03  0.15294330000E+03 0.  0.
<mgrwt>
<rscale>  0 0.63089892E+03</rscale>
<asrwt>0</asrwt>
<pdfrwt beam="1">  1        2 0.96553829E-01 0.74582384E+03</pdfrwt>
<pdfrwt beam="2">  1       -2 0.12463034E+00 0.74582384E+03</pdfrwt>
<totfact> 0.22989837E+01</totfact>
</mgrwt>
</event>
<event>
 4    5  0.8511149E-008  0.9553880E+03  0.7818608E-02  0.9442404E-01
         -2   -1    0    0    0  501 -0.00000000000E+00  0.00000000000E+00  0.10828762409E+04  0.10828762409E+04  0.25500000000E-02 0.  1.
          2   -1    0    0  501    0  0.00000000000E+00 -0.00000000000E+00 -0.44296072786E+04  0.44296072786E+04  0.25500000000E-02 0. -1.
    8880023    1    1    2    0    0 -0.67841193923E+03  0.13679618654E+03  0.83637378116E+03  0.12697587424E+04  0.65864270000E+03 0.  0.
    8880022    1    1    2    0    0  0.67841193923E+03 -0.13679618654E+03 -0.41831048188E+04  0.42427247771E+04  0.15294330000E+03 0.  0.
<mgrwt>
<rscale>  0 0.88666664E+03</rscale>
<asrwt>0</asrwt>
<pdfrwt beam="1">  1        2 0.68147803E+00 0.95538796E+03</pdfrwt>
<pdfrwt beam="2">  1       -2 0.16659635E+00 0.95538796E+03</pdfrwt>
<totfact> 0.34978526E-02</totfact>
</mgrwt>
</event>
<event>
 4    5  0.8511149E-008  0.9669520E+03  0.7818608E-02  0.9426132E-01
          2   -1    0    0  501    0  0.00000000000E+00  0.00000000000E+00  0.11491462513E+04  0.11491462513E+04  0.25500000000E-02 0. -1.
         -2   -1    0    0    0  501 -0.00000000000E+00 -0.00000000000E+00 -0.11897322580E+04  0.11897322580E+04  0.25500000000E-02 0.  1.
    8880023    1    1    2    0    0  0.58436225882E+03 -0.39963310758E+03 -0.82511180235E+03  0.12711434077E+04  0.65864270000E+03 0.  0.
    8880022    1    1    2    0    0 -0.58436225882E+03  0.39963310758E+03  0.78452579570E+03  0.10677351017E+04  0.15294330000E+03 0.  0.
<mgrwt>
<rscale>  0 0.89955947E+03</rscale>
<asrwt>0</asrwt>
<pdfrwt beam="1">  1        2 0.17679173E+00 0.96695195E+03</pdfrwt>
<pdfrwt beam="2">  1       -2 0.18303573E+00 0.96695195E+03</pdfrwt>
<totfact> 0.34956559E+00</totfact>
</mgrwt>
</event>
<event>
 4    5  0.8511149E-008  0.1153770E+04  0.7818608E-02  0.9203426E-01
          2   -1    0    0  501    0  0.00000000000E+00  0.00000000000E+00  0.10358984164E+04  0.10358984164E+04  0.25500000000E-02 0. -1.
         -2   -1    0    0    0  501 -0.00000000000E+00 -0.00000000000E+00 -0.16792390747E+04  0.16792390747E+04  0.25500000000E-02 0.  1.
    8880023    1    1    2    0    0  0.93207242020E+03 -0.16916039200E+03 -0.11508620525E+04  0.16296220129E+04  0.65864270000E+03 0.  0.
    8880022    1    1    2    0    0 -0.93207242020E+03  0.16916039200E+03  0.50752139423E+03  0.10855154782E+04  0.15294330000E+03 0. -1.
<mgrwt>
<rscale>  0 0.11018132E+04</rscale>
<asrwt>0</asrwt>
<pdfrwt beam="1">  1        2 0.15936899E+00 0.11537697E+04</pdfrwt>
<pdfrwt beam="2">  1       -2 0.25834447E+00 0.11537697E+04</pdfrwt>
<totfact> 0.13365004E+00</totfact>
</mgrwt>
</event>
<event>
 4    5  0.8511149E-008  0.1110365E+04  0.7818608E-02  0.9249603E-01
         -2   -1    0    0    0  501 -0.00000000000E+00  0.00000000000E+00  0.10415923429E+04  0.10415923429E+04  0.25500000000E-02 0.  1.
          2   -1    0    0  501    0  0.00000000000E+00 -0.00000000000E+00 -0.20023973688E+04  0.20023973688E+04  0.25500000000E-02 0. -1.
    8880023    1    1    2    0    0  0.37143127613E+03 -0.81310395829E+03  0.58254433093E+03  0.12539008508E+04  0.65864270000E+03 0.  0.
    8880022    1    1    2    0    0 -0.37143127613E+03  0.81310395829E+03 -0.15433493568E+04  0.17900888609E+04  0.15294330000E+03 0.  0.
<mgrwt>
<rscale>  0 0.10555786E+04</rscale>
<asrwt>0</asrwt>
<pdfrwt beam="1">  1        2 0.30806113E+00 0.11103646E+04</pdfrwt>
<pdfrwt beam="2">  1       -2 0.16024498E+00 0.11103646E+04</pdfrwt>
<totfact> 0.16426873E+00</totfact>
</mgrwt>
</event>
<event>
 4    5  0.8511149E-008  0.7550225E+03  0.7818608E-02  0.9818168E-01
         -2   -1    0    0    0  501 -0.00000000000E+00  0.00000000000E+00  0.90236443665E+03  0.90236443665E+03  0.25500000000E-02 0.  1.
          2   -1    0    0  501    0  0.00000000000E+00 -0.00000000000E+00 -0.40191184405E+03  0.40191184406E+03  0.25500000000E-02 0. -1.
    8880023    1    1    2    0    0 -0.33516772451E+03 -0.15463307670E+03  0.49845871821E+03  0.90472100229E+03  0.65864270000E+03 0.  1.
    8880022    1    1    2    0    0  0.33516772451E+03  0.15463307670E+03  0.19938743873E+01  0.39955527842E+03  0.15294330000E+03 0.  0.
<mgrwt>
<rscale>  0 0.64396579E+03</rscale>
<asrwt>0</asrwt>
<pdfrwt beam="1">  1        2 0.61832592E-01 0.75502252E+03</pdfrwt>
<pdfrwt beam="2">  1       -2 0.13882530E+00 0.75502252E+03</pdfrwt>
<totfact> 0.29377655E+01</totfact>
</mgrwt>
</event>
<event>
 4    5  0.8511149E-008  0.6606273E+03  0.7818608E-02  0.1023523E+00
         -2   -1    0    0    0  501 -0.00000000000E+00  0.00000000000E+00  0.12043389762E+04  0.12043389762E+04  0.25500000000E-02 0.  1.
          2   -1    0    0  501    0  0.00000000000E+00 -0.00000000000E+00 -0.11782662584E+04  0.11782662584E+04  0.25500000000E-02 0. -1.
    8880023    1    1    2    0    0  0.44558510943E+02 -0.25155117926E+02  0.11073109804E+04  0.12894053104E+04  0.65864270000E+03 0.  1.
    8880022    1    1    2    0    0 -0.44558510943E+02  0.25155117926E+02 -0.10812382625E+04  0.10931999242E+04  0.15294330000E+03 0.  0.
<mgrwt>
<rscale>  0 0.46436525E+03</rscale>
<asrwt>0</asrwt>
<pdfrwt beam="1">  1        2 0.18127173E+00 0.66062731E+03</pdfrwt>
<pdfrwt beam="2">  1       -2 0.18528292E+00 0.66062731E+03</pdfrwt>
<totfact> 0.33849739E+00</totfact>
</mgrwt>
</event>
<event>
 4    5  0.8511149E-008  0.1146381E+04  0.7818608E-02  0.9211093E-01
         -2   -1    0    0    0  501 -0.00000000000E+00  0.00000000000E+00  0.81024429327E+03  0.81024429327E+03  0.25500000000E-02 0.  1.
          2   -1    0    0  501    0  0.00000000000E+00 -0.00000000000E+00 -0.21564655115E+04  0.21564655115E+04  0.25500000000E-02 0. -1.
    8880023    1    1    2    0    0  0.91812433233E+03 -0.19345938846E+03  0.18813049734E+03  0.11617151608E+04  0.65864270000E+03 0.  0.
    8880022    1    1    2    0    0 -0.91812433233E+03  0.19345938846E+03 -0.15343517156E+04  0.18049946440E+04  0.15294330000E+03 0.  0.
<mgrwt>
<rscale>  0 0.10939663E+04</rscale>
<asrwt>0</asrwt>
<pdfrwt beam="1">  1        2 0.33176392E+00 0.11463808E+04</pdfrwt>
<pdfrwt beam="2">  1       -2 0.12465297E+00 0.11463808E+04</pdfrwt>
<totfact> 0.25925385E+00</totfact>
</mgrwt>
</event>
<event>
 4    5  0.8511149E-008  0.6979481E+03  0.7818608E-02  0.1000582E+00
         -2   -1    0    0    0  501 -0.00000000000E+00  0.00000000000E+00  0.76430035853E+03  0.76430035853E+03  0.25500000000E-02 0.  1.
          2   -1    0    0  501    0  0.00000000000E+00 -0.00000000000E+00 -0.97891708657E+03  0.97891708658E+03  0.25500000000E-02 0. -1.
    8880023    1    1    2    0    0 -0.60741987465E+02  0.22278171857E+03  0.57635094791E+03  0.90515849695E+03  0.65864270000E+03 0.  0.
    8880022    1    1    2    0    0  0.60741987465E+02 -0.22278171857E+03 -0.79096767596E+03  0.83805894816E+03  0.15294330000E+03 0.  0.
<mgrwt>
<rscale>  0 0.55395681E+03</rscale>
<asrwt>0</asrwt>
<pdfrwt beam="1">  1        2 0.15060263E+00 0.69794806E+03</pdfrwt>
<pdfrwt beam="2">  1       -2 0.11758467E+00 0.69794806E+03</pdfrwt>
<totfact> 0.14842935E+01</totfact>
</mgrwt>
</event>
<event>
 4    5  0.8511149E-008  0.1051986E+04  0.7818608E-02  0.9316498E-01
         -2   -1    0    0    0  501 -0.00000000000E+00  0.00000000000E+00  0.71923479065E+03  0.71923479065E+03  0.25500000000E-02 0.  1.
          2   -1    0    0  501    0  0.00000000000E+00 -0.00000000000E+00 -0.16696157118E+04  0.16696157118E+04  0.25500000000E-02 0. -1.
    8880023    1    1    2    0    0 -0.47670339283E+03  0.66754645584E+03  0.89262112106E+02  0.10557662271E+04  0.65864270000E+03 0.  0.
    8880022    1    1    2    0    0  0.47670339283E+03 -0.66754645584E+03 -0.10396430332E+04  0.13330842753E+04  0.15294330000E+03 0.  0.
<mgrwt>
<rscale>  0 0.99278133E+03</rscale>
<asrwt>0</asrwt>
<pdfrwt beam="1">  1        2 0.25686395E+00 0.10519860E+04</pdfrwt>
<pdfrwt beam="2">  1       -2 0.11065151E+00 0.10519860E+04</pdfrwt>
<totfact> 0.65409495E+00</totfact>
</mgrwt>
</event>
<event>
 4    5  0.8511149E-008  0.1057356E+04  0.7818608E-02  0.9310091E-01
          2   -1    0    0  501    0  0.00000000000E+00  0.00000000000E+00  0.12452795192E+04  0.12452795192E+04  0.25500000000E-02 0. -1.
         -2   -1    0    0    0  501 -0.00000000000E+00 -0.00000000000E+00 -0.10639064753E+04  0.10639064753E+04  0.25500000000E-02 0.  1.
    8880023    1    1    2    0    0  0.81801157967E+03  0.12267116442E+03 -0.55238432833E+03  0.11929500457E+04  0.65864270000E+03 0.  1.
    8880022    1    1    2    0    0 -0.81801157967E+03 -0.12267116442E+03  0.73375737219E+03  0.11162359488E+04  0.15294330000E+03 0.  0.
<mgrwt>
<rscale>  0 0.99859189E+03</rscale>
<asrwt>0</asrwt>
<pdfrwt beam="1">  1        2 0.19158146E+00 0.10573558E+04</pdfrwt>
<pdfrwt beam="2">  1       -2 0.16367792E+00 0.10573558E+04</pdfrwt>
<totfact> 0.41517650E+00</totfact>
</mgrwt>
</event>
<event>
 4    5  0.8511149E-008  0.1028965E+04  0.7818608E-02  0.9344607E-01
          2   -1    0    0  501    0  0.00000000000E+00  0.00000000000E+00  0.17300932485E+04  0.17300932485E+04  0.25500000000E-02 0. -1.
         -2   -1    0    0    0  501 -0.00000000000E+00 -0.00000000000E+00 -0.81446079394E+03  0.81446079394E+03  0.25500000000E-02 0.  1.
    8880023    1    1    2    0    0  0.15673519016E+03  0.77484972397E+03 -0.31305491584E+03  0.10755331706E+04  0.65864270000E+03 0.  0.
    8880022    1    1    2    0    0 -0.15673519016E+03 -0.77484972397E+03  0.12286873704E+04  0.14690208718E+04  0.15294330000E+03 0.  0.
<mgrwt>
<rscale>  0 0.96777968E+03</rscale>
<asrwt>0</asrwt>
<pdfrwt beam="1">  1        2 0.26616819E+00 0.10289646E+04</pdfrwt>
<pdfrwt beam="2">  1       -2 0.12530166E+00 0.10289646E+04</pdfrwt>
<totfact> 0.44622312E+00</totfact>
</mgrwt>
</event>
<event>
 4    5  0.8511149E-008  0.6825901E+03  0.7818608E-02  0.1007895E+00
         -2   -1    0    0    0  501 -0.00000000000E+00  0.00000000000E+00  0.92802907788E+03  0.92802907788E+03  0.25500000000E-02 0.  1.
          2   -1    0    0  501    0  0.00000000000E+00 -0.00000000000E+00 -0.31097294819E+03  0.31097294820E+03  0.25500000000E-02 0. -1.
    8880023    1    1    2    0    0  0.16659147915E+03  0.66078050324E+02  0.71075678901E+03  0.98544631972E+03  0.65864270000E+03 0.  1.
    8880022    1    1    2    0    0 -0.16659147915E+03 -0.66078050324E+02 -0.93700659320E+02  0.25355570637E+03  0.15294330000E+03 0.  0.
<mgrwt>
<rscale>  0 0.52319918E+03</rscale>
<asrwt>0</asrwt>
<pdfrwt beam="1">  1        2 0.47841993E-01 0.68259009E+03</pdfrwt>
<pdfrwt beam="2">  1       -2 0.14277370E+00 0.68259009E+03</pdfrwt>
<totfact> 0.36574977E+01</totfact>
</mgrwt>
</event>
<event>
 4    5  0.8511149E-008  0.9648934E+03  0.7818608E-02  0.9429002E-01
         -2   -1    0    0    0  501 -0.00000000000E+00  0.00000000000E+00  0.53124901733E+03  0.53124901733E+03  0.25500000000E-02 0.  1.
          2   -1    0    0  501    0  0.00000000000E+00 -0.00000000000E+00 -0.21519760888E+04  0.21519760888E+04  0.25500000000E-02 0. -1.
    8880023    1    1    2    0    0 -0.20132068635E+03  0.67578037835E+03 -0.63521440417E+02  0.96698206714E+03  0.65864270000E+03 0.  1.
    8880022    1    1    2    0    0  0.20132068635E+03 -0.67578037835E+03 -0.15572056311E+04  0.17162430390E+04  0.15294330000E+03 0.  0.
<mgrwt>
<rscale>  0 0.89726890E+03</rscale>
<asrwt>0</asrwt>
<pdfrwt beam="1">  1        2 0.33107324E+00 0.96489344E+03</pdfrwt>
<pdfrwt beam="2">  1       -2 0.81730619E-01 0.96489344E+03</pdfrwt>
<totfact> 0.72988636E+00</totfact>
</mgrwt>
</event>
<event>
 4    5  0.8511149E-008  0.1305164E+04  0.7818608E-02  0.9061113E-01
         -2   -1    0    0    0  501 -0.00000000000E+00  0.00000000000E+00  0.47920874610E+03  0.47920874611E+03  0.25500000000E-02 0.  1.
          2   -1    0    0  501    0  0.00000000000E+00 -0.00000000000E+00 -0.49422121762E+04  0.49422121762E+04  0.25500000000E-02 0. -1.
    8880023    1    1    2    0    0 -0.43567340081E+03  0.10391496970E+04 -0.68095259923E+03  0.14721243336E+04  0.65864270000E+03 0.  1.
    8880022    1    1    2    0    0  0.43567340081E+03 -0.10391496970E+04 -0.37820508308E+04  0.39492965887E+04  0.15294330000E+03 0.  0.
<mgrwt>
<rscale>  0 0.12609566E+04</rscale>
<asrwt>0</asrwt>
<pdfrwt beam="1">  1        2 0.76034030E+00 0.13051642E+04</pdfrwt>
<pdfrwt beam="2">  1       -2 0.73724426E-01 0.13051642E+04</pdfrwt>
<totfact> 0.69356268E-02</totfact>
</mgrwt>
</event>
<event>
 4    5  0.8511149E-008  0.9384067E+03  0.7818608E-02  0.9466994E-01
         -2   -1    0    0    0  501 -0.00000000000E+00  0.00000000000E+00  0.70515235467E+03  0.70515235467E+03  0.25500000000E-02 0.  1.
          2   -1    0    0  501    0  0.00000000000E+00 -0.00000000000E+00 -0.16067006894E+04  0.16067006894E+04  0.25500000000E-02 0. -1.
    8880023    1    1    2    0    0  0.24240425204E+03  0.62292626899E+03  0.25042320352E+03  0.97124607857E+03  0.65864270000E+03 0.  1.
    8880022    1    1    2    0    0 -0.24240425204E+03 -0.62292626899E+03 -0.11519715383E+04  0.13406069655E+04  0.15294330000E+03 0.  0.
<mgrwt>
<rscale>  0 0.86761558E+03</rscale>
<asrwt>0</asrwt>
<pdfrwt beam="1">  1        2 0.24718472E+00 0.93840672E+03</pdfrwt>
<pdfrwt beam="2">  1       -2 0.10848498E+00 0.93840672E+03</pdfrwt>
<totfact> 0.75304516E+00</totfact>
</mgrwt>
</event>
<event>
 4    5  0.8511149E-008  0.7194609E+03  0.7818608E-02  0.9924414E-01
         -2   -1    0    0    0  501 -0.00000000000E+00  0.00000000000E+00  0.12617296027E+03  0.12617296029E+03  0.25500000000E-02 0.  1.
          2   -1    0    0  501    0  0.00000000000E+00 -0.00000000000E+00 -0.22755446378E+04  0.22755446378E+04  0.25500000000E-02 0. -1.
    8880023    1    1    2    0    0  0.25624411447E+03 -0.13473191456E+03 -0.12198234782E+04  0.14161896975E+04  0.65864270000E+03 0.  0.
    8880022    1    1    2    0    0 -0.25624411447E+03  0.13473191456E+03 -0.92954819931E+03  0.98552790060E+03  0.15294330000E+03 0.  0.
<mgrwt>
<rscale>  0 0.59092513E+03</rscale>
<asrwt>0</asrwt>
<pdfrwt beam="1">  1        2 0.35008376E+00 0.71946087E+03</pdfrwt>
<pdfrwt beam="2">  1       -2 0.19411226E-01 0.71946087E+03</pdfrwt>
<totfact> 0.10900386E+02</totfact>
</mgrwt>
</event>
<event>
 4    5  0.8511149E-008  0.1116020E+04  0.7818608E-02  0.9243426E-01
          2   -1    0    0  501    0  0.00000000000E+00  0.00000000000E+00  0.35216963072E+04  0.35216963072E+04  0.25500000000E-02 0. -1.
         -2   -1    0    0    0  501 -0.00000000000E+00 -0.00000000000E+00 -0.81097056561E+03  0.81097056561E+03  0.25500000000E-02 0.  1.
    8880023    1    1    2    0    0  0.70302442646E+03 -0.56342457923E+03 -0.32500124921E+03  0.11623797224E+04  0.65864270000E+03 0.  1.
    8880022    1    1    2    0    0 -0.70302442646E+03  0.56342457923E+03  0.30357269908E+04  0.31702871505E+04  0.15294330000E+03 0.  0.
<mgrwt>
<rscale>  0 0.10616226E+04</rscale>
<asrwt>0</asrwt>
<pdfrwt beam="1">  1        2 0.54179943E+00 0.11160201E+04</pdfrwt>
<pdfrwt beam="2">  1       -2 0.12476470E+00 0.11160201E+04</pdfrwt>
<totfact> 0.38244377E-01</totfact>
</mgrwt>
</event>
<event>
 4    5  0.8511149E-008  0.7718128E+03  0.7818608E-02  0.9775433E-01
          2   -1    0    0  501    0  0.00000000000E+00  0.00000000000E+00  0.12590756197E+04  0.12590756198E+04  0.25500000000E-02 0. -1.
         -2   -1    0    0    0  501 -0.00000000000E+00 -0.00000000000E+00 -0.33068706920E+03  0.33068706921E+03  0.25500000000E-02 0.  1.
    8880023    1    1    2    0    0 -0.35952244926E+03 -0.18063332176E+03  0.29995506660E+03  0.82805074524E+03  0.65864270000E+03 0.  0.
    8880022    1    1    2    0    0  0.35952244926E+03  0.18063332176E+03  0.62843348395E+03  0.76171194372E+03  0.15294330000E+03 0.  0.
<mgrwt>
<rscale>  0 0.66697800E+03</rscale>
<asrwt>0</asrwt>
<pdfrwt beam="1">  1        2 0.19370394E+00 0.77181280E+03</pdfrwt>
<pdfrwt beam="2">  1       -2 0.50874934E-01 0.77181280E+03</pdfrwt>
<totfact> 0.64803704E+01</totfact>
</mgrwt>
</event>
<event>
 4    5  0.8511149E-008  0.7224831E+03  0.7818608E-02  0.9914272E-01
         -2   -1    0    0    0  501 -0.00000000000E+00  0.00000000000E+00  0.47834702319E+03  0.47834702320E+03  0.25500000000E-02 0.  1.
          2   -1    0    0  501    0  0.00000000000E+00 -0.00000000000E+00 -0.21063745911E+04  0.21063745911E+04  0.25500000000E-02 0. -1.
    8880023    1    1    2    0    0  0.18946319141E+03  0.22863803464E+03  0.18125003191E+03  0.74487141985E+03  0.65864270000E+03 0.  1.
    8880022    1    1    2    0    0 -0.18946319141E+03 -0.22863803464E+03 -0.18092775998E+04  0.18398501944E+04  0.15294330000E+03 0.  0.
<mgrwt>
<rscale>  0 0.59574575E+03</rscale>
<asrwt>0</asrwt>
<pdfrwt beam="1">  1        2 0.32405762E+00 0.72248312E+03</pdfrwt>
<pdfrwt beam="2">  1       -2 0.73591851E-01 0.72248312E+03</pdfrwt>
<totfact> 0.10117258E+01</totfact>
</mgrwt>
</event>
<event>
 4    5  0.8511149E-008  0.8235972E+03  0.7818608E-02  0.9661921E-01
         -2   -1    0    0    0  501 -0.00000000000E+00  0.00000000000E+00  0.11878601181E+04  0.11878601181E+04  0.25500000000E-02 0.  1.
          2   -1    0    0  501    0  0.00000000000E+00 -0.00000000000E+00 -0.72348602519E+03  0.72348602519E+03  0.25500000000E-02 0. -1.
    8880023    1    1    2    0    0  0.49375019608E+03  0.26698673974E+02  0.91071407271E+03  0.12278894103E+04  0.65864270000E+03 0.  0.
    8880022    1    1    2    0    0 -0.49375019608E+03 -0.26698673974E+02 -0.44633997982E+03  0.68345673302E+03  0.15294330000E+03 0.  0.
<mgrwt>
<rscale>  0 0.73329960E+03</rscale>
<asrwt>0</asrwt>
<pdfrwt beam="1">  1        2 0.11130554E+00 0.82359716E+03</pdfrwt>
<pdfrwt beam="2">  1       -2 0.18274771E+00 0.82359716E+03</pdfrwt>
<totfact> 0.68885822E+00</totfact>
</mgrwt>
</event>
<event>
 4    5  0.8511149E-008  0.9225960E+03  0.7818608E-02  0.9490690E-01
          2   -1    0    0  501    0  0.00000000000E+00  0.00000000000E+00  0.92036446793E+03  0.92036446794E+03  0.25500000000E-02 0. -1.
         -2   -1    0    0    0  501 -0.00000000000E+00 -0.00000000000E+00 -0.71952252872E+03  0.71952252873E+03  0.25500000000E-02 0.  1.
    8880023    1    1    2    0    0  0.64070150022E+03  0.82914010906E+02 -0.64674076287E+02  0.92486003697E+03  0.65864270000E+03 0. -1.
    8880022    1    1    2    0    0 -0.64070150022E+03 -0.82914010906E+02  0.26551601549E+03  0.71502695969E+03  0.15294330000E+03 0.  0.
<mgrwt>
<rscale>  0 0.84973701E+03</rscale>
<asrwt>0</asrwt>
<pdfrwt beam="1">  1        2 0.14159453E+00 0.92259599E+03</pdfrwt>
<pdfrwt beam="2">  1       -2 0.11069577E+00 0.92259599E+03</pdfrwt>
<totfact> 0.18375439E+01</totfact>
</mgrwt>
</event>
<event>
 4    5  0.8511149E-008  0.1058928E+04  0.7818608E-02  0.9308225E-01
          2   -1    0    0  501    0  0.00000000000E+00  0.00000000000E+00  0.23447659031E+04  0.23447659031E+04  0.25500000000E-02 0. -1.
         -2   -1    0    0    0  501 -0.00000000000E+00 -0.00000000000E+00 -0.49147456097E+03  0.49147456097E+03  0.25500000000E-02 0.  1.
    8880023    1    1    2    0    0 -0.82852515990E+03 -0.32634650616E+02  0.35472920750E+03  0.11167640655E+04  0.65864270000E+03 0.  0.
    8880022    1    1    2    0    0  0.82852515990E+03  0.32634650616E+02  0.14985621347E+04  0.17194763986E+04  0.15294330000E+03 0.  0.
<mgrwt>
<rscale>  0 0.10002920E+04</rscale>
<asrwt>0</asrwt>
<pdfrwt beam="1">  1        2 0.36073322E+00 0.10589283E+04</pdfrwt>
<pdfrwt beam="2">  1       -2 0.75611471E-01 0.10589283E+04</pdfrwt>
<totfact> 0.67089601E+00</totfact>
</mgrwt>
</event>
<event>
 4    5  0.8511149E-008  0.1262130E+04  0.7818608E-02  0.9098973E-01
          2   -1    0    0  501    0  0.00000000000E+00  0.00000000000E+00  0.12126733945E+04  0.12126733945E+04  0.25500000000E-02 0. -1.
         -2   -1    0    0    0  501 -0.00000000000E+00 -0.00000000000E+00 -0.17510620629E+04  0.17510620629E+04  0.25500000000E-02 0.  1.
    8880023    1    1    2    0    0 -0.12878874419E+03 -0.10689125950E+04 -0.11573807565E+04  0.17124546996E+04  0.65864270000E+03 0.  0.
    8880022    1    1    2    0    0  0.12878874419E+03  0.10689125950E+04  0.61899208808E+03  0.12512807577E+04  0.15294330000E+03 0.  0.
<mgrwt>
<rscale>  0 0.12159913E+04</rscale>
<asrwt>0</asrwt>
<pdfrwt beam="1">  1        2 0.18656514E+00 0.12621295E+04</pdfrwt>
<pdfrwt beam="2">  1       -2 0.26939416E+00 0.12621295E+04</pdfrwt>
<totfact> 0.87981255E-01</totfact>
</mgrwt>
</event>
<event>
 4    5  0.8511149E-008  0.7777848E+03  0.7818608E-02  0.9761066E-01
          2   -1    0    0  501    0  0.00000000000E+00  0.00000000000E+00  0.26642389594E+04  0.26642389594E+04  0.25500000000E-02 0. -1.
         -2   -1    0    0    0  501 -0.00000000000E+00 -0.00000000000E+00 -0.22443963063E+03  0.22443963065E+03  0.25500000000E-02 0.  1.
    8880023    1    1    2    0    0 -0.14818839478E+03  0.38623730817E+03  0.56149139145E+03  0.95928194370E+03  0.65864270000E+03 0.  0.
    8880022    1    1    2    0    0  0.14818839478E+03 -0.38623730817E+03  0.18783079373E+04  0.19293966463E+04  0.15294330000E+03 0.  0.
<mgrwt>
<rscale>  0 0.67494460E+03</rscale>
<asrwt>0</asrwt>
<pdfrwt beam="1">  1        2 0.40988290E+00 0.77778484E+03</pdfrwt>
<pdfrwt beam="2">  1       -2 0.34529175E-01 0.77778484E+03</pdfrwt>
<totfact> 0.22904537E+01</totfact>
</mgrwt>
</event>
<event>
 4    5  0.8511149E-008  0.1172962E+04  0.7818608E-02  0.9183864E-01
          2   -1    0    0  501    0  0.00000000000E+00  0.00000000000E+00  0.35261509201E+04  0.35261509201E+04  0.25500000000E-02 0. -1.
         -2   -1    0    0    0  501 -0.00000000000E+00 -0.00000000000E+00 -0.35248587857E+03  0.35248587858E+03  0.25500000000E-02 0.  1.
    8880023    1    1    2    0    0  0.62369103774E+03  0.74366538541E+03  0.12234908290E+04  0.16949244027E+04  0.65864270000E+03 0. -1.
    8880022    1    1    2    0    0 -0.62369103774E+03 -0.74366538541E+03  0.19501742125E+04  0.21837123959E+04  0.15294330000E+03 0.  0.
<mgrwt>
<rscale>  0 0.11221539E+04</rscale>
<asrwt>0</asrwt>
<pdfrwt beam="1">  1        2 0.54248476E+00 0.11729616E+04</pdfrwt>
<pdfrwt beam="2">  1       -2 0.54228597E-01 0.11729616E+04</pdfrwt>
<totfact> 0.25240465E+00</totfact>
</mgrwt>
</event>
<event>
 4    5  0.8511149E-008  0.6985996E+03  0.7818608E-02  0.1000306E+00
          2   -1    0    0  501    0  0.00000000000E+00  0.00000000000E+00  0.91476343322E+03  0.91476343322E+03  0.25500000000E-02 0. -1.
         -2   -1    0    0    0  501 -0.00000000000E+00 -0.00000000000E+00 -0.45656468083E+03  0.45656468084E+03  0.25500000000E-02 0.  1.
    8880023    1    1    2    0    0  0.54752500597E+02 -0.22634776994E+03 -0.13903938139E+03  0.71230141451E+03  0.65864270000E+03 0.  1.
    8880022    1    1    2    0    0 -0.54752500597E+02  0.22634776994E+03  0.59723813377E+03  0.65902669955E+03  0.15294330000E+03 0.  0.
<mgrwt>
<rscale>  0 0.55516221E+03</rscale>
<asrwt>0</asrwt>
<pdfrwt beam="1">  1        2 0.14073284E+00 0.69859957E+03</pdfrwt>
<pdfrwt beam="2">  1       -2 0.70240720E-01 0.69859957E+03</pdfrwt>
<totfact> 0.53875487E+01</totfact>
</mgrwt>
</event>
<event>
 4    5  0.8511149E-008  0.7371007E+03  0.7818608E-02  0.9868474E-01
          2   -1    0    0  501    0  0.00000000000E+00  0.00000000000E+00  0.87484484407E+03  0.87484484407E+03  0.25500000000E-02 0. -1.
         -2   -1    0    0    0  501 -0.00000000000E+00 -0.00000000000E+00 -0.78673775849E+03  0.78673775850E+03  0.25500000000E-02 0.  1.
    8880023    1    1    2    0    0 -0.12572005438E+03  0.30610742955E+03 -0.55476462492E+03  0.92254066893E+03  0.65864270000E+03 0.  1.
    8880022    1    1    2    0    0  0.12572005438E+03 -0.30610742955E+03  0.64287171050E+03  0.73904193364E+03  0.15294330000E+03 0.  0.
<mgrwt>
<rscale>  0 0.61813783E+03</rscale>
<asrwt>0</asrwt>
<pdfrwt beam="1">  1        2 0.13459151E+00 0.73710074E+03</pdfrwt>
<pdfrwt beam="2">  1       -2 0.12103658E+00 0.73710074E+03</pdfrwt>
<totfact> 0.16122016E+01</totfact>
</mgrwt>
</event>
<event>
 4    5  0.8511149E-008  0.8993382E+03  0.7818608E-02  0.9527095E-01
         -2   -1    0    0    0  501 -0.00000000000E+00  0.00000000000E+00  0.44812448934E+03  0.44812448935E+03  0.25500000000E-02 0.  1.
          2   -1    0    0  501    0  0.00000000000E+00 -0.00000000000E+00 -0.15125684405E+04  0.15125684405E+04  0.25500000000E-02 0. -1.
    8880023    1    1    2    0    0  0.55975785967E+03 -0.24833471394E+03 -0.96951874140E+03  0.13224128659E+04  0.65864270000E+03 0.  0.
    8880022    1    1    2    0    0 -0.55975785967E+03  0.24833471394E+03 -0.94925209742E+02  0.63828006397E+03  0.15294330000E+03 0. -1.
<mgrwt>
<rscale>  0 0.82315368E+03</rscale>
<asrwt>0</asrwt>
<pdfrwt beam="1">  1        2 0.23270283E+00 0.89933820E+03</pdfrwt>
<pdfrwt beam="2">  1       -2 0.68942230E-01 0.89933820E+03</pdfrwt>
<totfact> 0.24178574E+01</totfact>
</mgrwt>
</event>
<event>
 4    5  0.8511149E-008  0.1122217E+04  0.7818608E-02  0.9236715E-01
          2   -1    0    0  501    0  0.00000000000E+00  0.00000000000E+00  0.10817912310E+04  0.10817912311E+04  0.25500000000E-02 0. -1.
         -2   -1    0    0    0  501 -0.00000000000E+00 -0.00000000000E+00 -0.19294680930E+04  0.19294680930E+04  0.25500000000E-02 0.  1.
    8880023    1    1    2    0    0 -0.56102297405E+03 -0.71471214258E+03 -0.15065169642E+04  0.18785536441E+04  0.65864270000E+03 0.  0.
    8880022    1    1    2    0    0  0.56102297405E+03  0.71471214258E+03  0.65884010220E+03  0.11327056800E+04  0.15294330000E+03 0.  0.
<mgrwt>
<rscale>  0 0.10682378E+04</rscale>
<asrwt>0</asrwt>
<pdfrwt beam="1">  1        2 0.16642942E+00 0.11222167E+04</pdfrwt>
<pdfrwt beam="2">  1       -2 0.29684124E+00 0.11222167E+04</pdfrwt>
<totfact> 0.73313746E-01</totfact>
</mgrwt>
</event>
<event>
 4    5  0.8511149E-008  0.7372107E+03  0.7818608E-02  0.9868148E-01
          2   -1    0    0  501    0  0.00000000000E+00  0.00000000000E+00  0.18724974121E+04  0.18724974121E+04  0.25500000000E-02 0. -1.
         -2   -1    0    0    0  501 -0.00000000000E+00 -0.00000000000E+00 -0.41881653428E+03  0.41881653429E+03  0.25500000000E-02 0.  1.
    8880023    1    1    2    0    0  0.23312721357E+03 -0.23520443341E+03 -0.54905755577E+02  0.73925250859E+03  0.65864270000E+03 0.  1.
    8880022    1    1    2    0    0 -0.23312721357E+03  0.23520443341E+03  0.15085866334E+04  0.15520614378E+04  0.15294330000E+03 0.  0.
<mgrwt>
<rscale>  0 0.61830122E+03</rscale>
<asrwt>0</asrwt>
<pdfrwt beam="1">  1        2 0.28807653E+00 0.73721071E+03</pdfrwt>
<pdfrwt beam="2">  1       -2 0.64433312E-01 0.73721071E+03</pdfrwt>
<totfact> 0.18080145E+01</totfact>
</mgrwt>
</event>
<event>
 4    5  0.8511149E-008  0.1347421E+04  0.7818608E-02  0.9025654E-01
         -2   -1    0    0    0  501 -0.00000000000E+00  0.00000000000E+00  0.57306093304E+03  0.57306093305E+03  0.25500000000E-02 0.  1.
          2   -1    0    0  501    0  0.00000000000E+00 -0.00000000000E+00 -0.34224463583E+04  0.34224463583E+04  0.25500000000E-02 0. -1.
    8880023    1    1    2    0    0  0.51649688751E+03  0.10559182832E+04 -0.64772737124E+03  0.14950228792E+04  0.65864270000E+03 0.  0.
    8880022    1    1    2    0    0 -0.51649688751E+03 -0.10559182832E+04 -0.22016580540E+04  0.25004844122E+04  0.15294330000E+03 0. -1.
<mgrwt>
<rscale>  0 0.13049436E+04</rscale>
<asrwt>0</asrwt>
<pdfrwt beam="1">  1        2 0.52653020E+00 0.13474207E+04</pdfrwt>
<pdfrwt beam="2">  1       -2 0.88163222E-01 0.13474207E+04</pdfrwt>
<totfact> 0.10005328E+00</totfact>
</mgrwt>
</event>
<event>
 4    5  0.8511149E-008  0.1118775E+04  0.7818608E-02  0.9240435E-01
         -2   -1    0    0    0  501 -0.00000000000E+00  0.00000000000E+00  0.90857828688E+03  0.90857828688E+03  0.25500000000E-02 0.  1.
          2   -1    0    0  501    0  0.00000000000E+00 -0.00000000000E+00 -0.12742446089E+04  0.12742446089E+04  0.25500000000E-02 0. -1.
    8880023    1    1    2    0    0  0.81489418859E+03 -0.39216658732E+03  0.15291845077E+03  0.11291773243E+04  0.65864270000E+03 0.  1.
    8880022    1    1    2    0    0 -0.81489418859E+03  0.39216658732E+03 -0.51858477281E+03  0.10536455715E+04  0.15294330000E+03 0.  0.
<mgrwt>
<rscale>  0 0.10645645E+04</rscale>
<asrwt>0</asrwt>
<pdfrwt beam="1">  1        2 0.19603763E+00 0.11187749E+04</pdfrwt>
<pdfrwt beam="2">  1       -2 0.13978128E+00 0.11187749E+04</pdfrwt>
<totfact> 0.60520913E+00</totfact>
</mgrwt>
</event>
<event>
 4    5  0.8511149E-008  0.1437603E+04  0.7818608E-02  0.8955002E-01
         -2   -1    0    0    0  501 -0.00000000000E+00  0.00000000000E+00  0.75013182477E+03  0.75013182477E+03  0.25500000000E-02 0.  1.
          2   -1    0    0  501    0  0.00000000000E+00 -0.00000000000E+00 -0.29159068541E+04  0.29159068542E+04  0.25500000000E-02 0. -1.
    8880023    1    1    2    0    0 -0.12501477874E+04  0.26461847799E+03 -0.42101977500E+03  0.14979854093E+04  0.65864270000E+03 0.  1.
    8880022    1    1    2    0    0  0.12501477874E+04 -0.26461847799E+03 -0.17447552544E+04  0.21680532696E+04  0.15294330000E+03 0. -1.
<mgrwt>
<rscale>  0 0.13983668E+04</rscale>
<asrwt>0</asrwt>
<pdfrwt beam="1">  1        2 0.44860105E+00 0.14376031E+04</pdfrwt>
<pdfrwt beam="2">  1       -2 0.11540490E+00 0.14376031E+04</pdfrwt>
<totfact> 0.11015136E+00</totfact>
</mgrwt>
</event>
<event>
 4    5  0.8511149E-008  0.1447092E+04  0.7818608E-02  0.8947929E-01
         -2   -1    0    0    0  501 -0.00000000000E+00  0.00000000000E+00  0.12828868543E+04  0.12828868543E+04  0.25500000000E-02 0.  1.
          2   -1    0    0  501    0  0.00000000000E+00 -0.00000000000E+00 -0.29133977449E+04  0.29133977449E+04  0.25500000000E-02 0. -1.
    8880023    1    1    2    0    0  0.11968476566E+04  0.47730668557E+03  0.63910324614E+03  0.15819384156E+04  0.65864270000E+03 0.  0.
    8880022    1    1    2    0    0 -0.11968476566E+04 -0.47730668557E+03 -0.22696141368E+04  0.26143461836E+04  0.15294330000E+03 0.  0.
<mgrwt>
<rscale>  0 0.14081662E+04</rscale>
<asrwt>0</asrwt>
<pdfrwt beam="1">  1        2 0.44821504E+00 0.14470923E+04</pdfrwt>
<pdfrwt beam="2">  1       -2 0.19736721E+00 0.14470923E+04</pdfrwt>
<totfact> 0.25875490E-01</totfact>
</mgrwt>
</event>
<event>
 4    5  0.1052103E-007  0.8954325E+03  0.7818608E-02  0.9533404E-01
         -2   -1    0    0    0  501 -0.00000000000E+00  0.00000000000E+00  0.12582137724E+04  0.12582137724E+04  0.25500000000E-02 0.  1.
          2   -1    0    0  501    0  0.00000000000E+00 -0.00000000000E+00 -0.24005875119E+04  0.24005875119E+04  0.25500000000E-02 0. -1.
    8880023    1    1    2    0    0 -0.44209653436E+03  0.41537918098E+03  0.10493909690E+04  0.13795002072E+04  0.65864270000E+03 0.  1.
    8880022    1    1    2    0    0  0.44209653436E+03 -0.41537918098E+03 -0.21917647085E+04  0.22793010771E+04  0.15294330000E+03 0.  0.
<mgrwt>
<rscale>  0 0.81865251E+03</rscale>
<asrwt>0</asrwt>
<pdfrwt beam="1">  1        2 0.36932116E+00 0.89543253E+03</pdfrwt>
<pdfrwt beam="2">  1       -2 0.19357135E+00 0.89543253E+03</pdfrwt>
<totfact> 0.59625309E-01</totfact>
</mgrwt>
</event>
<event>
 4    5  0.8511149E-008  0.8208384E+03  0.7818608E-02  0.9667428E-01
         -2   -1    0    0    0  501 -0.00000000000E+00  0.00000000000E+00  0.19971336501E+03  0.19971336502E+03  0.25500000000E-02 0.  1.
          2   -1    0    0  501    0  0.00000000000E+00 -0.00000000000E+00 -0.35679373704E+04  0.35679373704E+04  0.25500000000E-02 0. -1.
    8880023    1    1    2    0    0 -0.33898768475E+03 -0.35362813724E+03 -0.30618531386E+04  0.31699716653E+04  0.65864270000E+03 0.  0.
    8880022    1    1    2    0    0  0.33898768475E+03  0.35362813724E+03 -0.30637086673E+03  0.59767907012E+03  0.15294330000E+03 0.  0.
<mgrwt>
<rscale>  0 0.72989670E+03</rscale>
<asrwt>0</asrwt>
<pdfrwt beam="1">  1        2 0.54891340E+00 0.82083842E+03</pdfrwt>
<pdfrwt beam="2">  1       -2 0.30725136E-01 0.82083842E+03</pdfrwt>
<totfact> 0.76311684E+00</totfact>
</mgrwt>
</event>
<event>
 4    5  0.8511149E-008  0.1083176E+04  0.7818608E-02  0.9280023E-01
          2   -1    0    0  501    0  0.00000000000E+00  0.00000000000E+00  0.34423167537E+04  0.34423167537E+04  0.25500000000E-02 0. -1.
         -2   -1    0    0    0  501 -0.00000000000E+00 -0.00000000000E+00 -0.44042771880E+03  0.44042771881E+03  0.25500000000E-02 0.  1.
    8880023    1    1    2    0    0 -0.59559323785E+03  0.62026482218E+03  0.42794352383E+03  0.11646482819E+04  0.65864270000E+03 0.  1.
    8880022    1    1    2    0    0  0.59559323785E+03 -0.62026482218E+03  0.25739455110E+04  0.27180961906E+04  0.15294330000E+03 0.  0.
<mgrwt>
<rscale>  0 0.10264297E+04</rscale>
<asrwt>0</asrwt>
<pdfrwt beam="1">  1        2 0.52958719E+00 0.10831759E+04</pdfrwt>
<pdfrwt beam="2">  1       -2 0.67758111E-01 0.10831759E+04</pdfrwt>
<totfact> 0.18166370E+00</totfact>
</mgrwt>
</event>
<event>
 4    5  0.8511149E-008  0.6827153E+03  0.7818608E-02  0.1007828E+00
         -2   -1    0    0    0  501 -0.00000000000E+00  0.00000000000E+00  0.13404718077E+03  0.13404718079E+03  0.25500000000E-02 0.  1.
          2   -1    0    0  501    0  0.00000000000E+00 -0.00000000000E+00 -0.17210462445E+04  0.17210462445E+04  0.25500000000E-02 0. -1.
    8880023    1    1    2    0    0 -0.80121421966E+02 -0.16084338349E+03 -0.90642107792E+03  0.11347684403E+04  0.65864270000E+03 0.  1.
    8880022    1    1    2    0    0  0.80121421966E+02  0.16084338349E+03 -0.68057798579E+03  0.72032498501E+03  0.15294330000E+03 0.  0.
<mgrwt>
<rscale>  0 0.52347241E+03</rscale>
<asrwt>0</asrwt>
<pdfrwt beam="1">  1        2 0.26477633E+00 0.68271535E+03</pdfrwt>
<pdfrwt beam="2">  1       -2 0.20622644E-01 0.68271535E+03</pdfrwt>
<totfact> 0.19769027E+02</totfact>
</mgrwt>
</event>
<event>
 4    5  0.8511149E-008  0.6737214E+03  0.7818608E-02  0.1013125E+00
         -2   -1    0    0    0  501 -0.00000000000E+00  0.00000000000E+00  0.56777740906E+03  0.56777740906E+03  0.25500000000E-02 0.  1.
          2   -1    0    0  501    0  0.00000000000E+00 -0.00000000000E+00 -0.18015891655E+04  0.18015891655E+04  0.25500000000E-02 0. -1.
    8880023    1    1    2    0    0 -0.13980692619E+03 -0.23329871330E+02  0.35870043270E+03  0.76326041833E+03  0.65864270000E+03 0.  1.
    8880022    1    1    2    0    0  0.13980692619E+03  0.23329871330E+02 -0.15925121892E+04  0.16061061563E+04  0.15294330000E+03 0.  0.
<mgrwt>
<rscale>  0 0.50251475E+03</rscale>
<asrwt>0</asrwt>
<pdfrwt beam="1">  1        2 0.27716756E+00 0.67372136E+03</pdfrwt>
<pdfrwt beam="2">  1       -2 0.87350372E-01 0.67372136E+03</pdfrwt>
<totfact> 0.10167268E+01</totfact>
</mgrwt>
</event>
<event>
 4    5  0.8511149E-008  0.8743608E+03  0.7818608E-02  0.9568512E-01
         -2   -1    0    0    0  501 -0.00000000000E+00  0.00000000000E+00  0.28918970723E+03  0.28918970724E+03  0.25500000000E-02 0.  1.
          2   -1    0    0  501    0  0.00000000000E+00 -0.00000000000E+00 -0.24723680360E+04  0.24723680360E+04  0.25500000000E-02 0. -1.
    8880023    1    1    2    0    0 -0.30607048250E+03  0.48684440931E+03 -0.57413959129E+03  0.10460129520E+04  0.65864270000E+03 0.  0.
    8880022    1    1    2    0    0  0.30607048250E+03 -0.48684440931E+03 -0.16090387374E+04  0.17155447912E+04  0.15294330000E+03 0.  0.
<mgrwt>
<rscale>  0 0.79415807E+03</rscale>
<asrwt>0</asrwt>
<pdfrwt beam="1">  1        2 0.38036430E+00 0.87436081E+03</pdfrwt>
<pdfrwt beam="2">  1       -2 0.44490726E-01 0.87436081E+03</pdfrwt>
<totfact> 0.17775557E+01</totfact>
</mgrwt>
</event>
<event>
 4    5  0.8511149E-008  0.7466258E+03  0.7818608E-02  0.9841050E-01
          2   -1    0    0  501    0  0.00000000000E+00  0.00000000000E+00  0.10030523756E+04  0.10030523756E+04  0.25500000000E-02 0. -1.
         -2   -1    0    0    0  501 -0.00000000000E+00 -0.00000000000E+00 -0.31830882877E+03  0.31830882878E+03  0.25500000000E-02 0.  1.
    8880023    1    1    2    0    0 -0.97629029925E+02 -0.33779949123E+03  0.45658336553E+03  0.87516769805E+03  0.65864270000E+03 0.  1.
    8880022    1    1    2    0    0  0.97629029925E+02  0.33779949123E+03  0.22816018132E+03  0.44619350636E+03  0.15294330000E+03 0. -1.
<mgrwt>
<rscale>  0 0.63205313E+03</rscale>
<asrwt>0</asrwt>
<pdfrwt beam="1">  1        2 0.15431575E+00 0.74662583E+03</pdfrwt>
<pdfrwt beam="2">  1       -2 0.48970590E-01 0.74662583E+03</pdfrwt>
<totfact> 0.10036686E+02</totfact>
</mgrwt>
</event>
<event>
 4    5  0.8511149E-008  0.6833737E+03  0.7818608E-02  0.1007476E+00
          2   -1    0    0  501    0  0.00000000000E+00  0.00000000000E+00  0.93952850894E+03  0.93952850894E+03  0.25500000000E-02 0. -1.
         -2   -1    0    0    0  501 -0.00000000000E+00 -0.00000000000E+00 -0.28804261104E+03  0.28804261105E+03  0.25500000000E-02 0.  1.
    8880023    1    1    2    0    0  0.26124578342E+01 -0.18216080214E+03  0.19146241158E+03  0.70968827247E+03  0.65864270000E+03 0.  1.
    8880022    1    1    2    0    0 -0.26124578342E+01  0.18216080214E+03  0.46002348632E+03  0.51788284752E+03  0.15294330000E+03 0.  0.
<mgrwt>
<rscale>  0 0.52490118E+03</rscale>
<asrwt>0</asrwt>
<pdfrwt beam="1">  1        2 0.14454285E+00 0.68337368E+03</pdfrwt>
<pdfrwt beam="2">  1       -2 0.44314247E-01 0.68337368E+03</pdfrwt>
<totfact> 0.13541834E+02</totfact>
</mgrwt>
</event>
<event>
 4    5  0.8511149E-008  0.7082410E+03  0.7818608E-02  0.9964592E-01
         -2   -1    0    0    0  501 -0.00000000000E+00  0.00000000000E+00  0.56565928979E+03  0.56565928980E+03  0.25500000000E-02 0.  1.
          2   -1    0    0  501    0  0.00000000000E+00 -0.00000000000E+00 -0.10971351375E+04  0.10971351375E+04  0.25500000000E-02 0. -1.
    8880023    1    1    2    0    0  0.11757419530E+03 -0.23231761898E+03  0.30676342441E+03  0.77182198226E+03  0.65864270000E+03 0.  1.
    8880022    1    1    2    0    0 -0.11757419530E+03  0.23231761898E+03 -0.83823927215E+03  0.89097244507E+03  0.15294330000E+03 0.  0.
<mgrwt>
<rscale>  0 0.57230472E+03</rscale>
<asrwt>0</asrwt>
<pdfrwt beam="1">  1        2 0.16879002E+00 0.70824104E+03</pdfrwt>
<pdfrwt beam="2">  1       -2 0.87024506E-01 0.70824104E+03</pdfrwt>
<totfact> 0.25526765E+01</totfact>
</mgrwt>
</event>
<event>
 4    5  0.8511149E-008  0.7004518E+03  0.7818608E-02  0.9995332E-01
          2   -1    0    0  501    0  0.00000000000E+00  0.00000000000E+00  0.31029106843E+04  0.31029106843E+04  0.25500000000E-02 0. -1.
         -2   -1    0    0    0  501 -0.00000000000E+00 -0.00000000000E+00 -0.37031002787E+03  0.37031002787E+03  0.25500000000E-02 0.  1.
    8880023    1    1    2    0    0 -0.21633815934E+03 -0.10010166824E+03 -0.25209775716E+02  0.70090533043E+03  0.65864270000E+03 0.  0.
    8880022    1    1    2    0    0  0.21633815934E+03  0.10010166824E+03  0.27578104322E+04  0.27723153818E+04  0.15294330000E+03 0.  0.
<mgrwt>
<rscale>  0 0.55855392E+03</rscale>
<asrwt>0</asrwt>
<pdfrwt beam="1">  1        2 0.47737088E+00 0.70045182E+03</pdfrwt>
<pdfrwt beam="2">  1       -2 0.56970773E-01 0.70045182E+03</pdfrwt>
<totfact> 0.46775086E+00</totfact>
</mgrwt>
</event>
<event>
 4    5  0.8511149E-008  0.2141537E+04  0.7818608E-02  0.8553972E-01
         -2   -1    0    0    0  501 -0.00000000000E+00  0.00000000000E+00  0.23200745247E+04  0.23200745247E+04  0.25500000000E-02 0.  1.
          2   -1    0    0  501    0  0.00000000000E+00 -0.00000000000E+00 -0.21352151195E+04  0.21352151195E+04  0.25500000000E-02 0. -1.
    8880023    1    1    2    0    0  0.92415032992E+03 -0.18161268393E+04 -0.66460486080E+03  0.22422935481E+04  0.65864270000E+03 0.  0.
    8880022    1    1    2    0    0 -0.92415032992E+03  0.18161268393E+04  0.84946426604E+03  0.22129960960E+04  0.15294330000E+03 0.  0.
<mgrwt>
<rscale>  0 0.21165872E+04</rscale>
<asrwt>0</asrwt>
<pdfrwt beam="1">  1        2 0.32849463E+00 0.21415370E+04</pdfrwt>
<pdfrwt beam="2">  1       -2 0.35693454E+00 0.21415370E+04</pdfrwt>
<totfact> 0.69092910E-02</totfact>
</mgrwt>
</event>
<event>
 4    5  0.8511149E-008  0.8301646E+03  0.7818608E-02  0.9649012E-01
         -2   -1    0    0    0  501 -0.00000000000E+00  0.00000000000E+00  0.11263287344E+04  0.11263287344E+04  0.25500000000E-02 0.  1.
          2   -1    0    0  501    0  0.00000000000E+00 -0.00000000000E+00 -0.13793956150E+04  0.13793956150E+04  0.25500000000E-02 0. -1.
    8880023    1    1    2    0    0 -0.14236682653E+03 -0.48486571781E+03  0.90797076488E+03  0.12302780961E+04  0.65864270000E+03 0.  0.
    8880022    1    1    2    0    0  0.14236682653E+03  0.48486571781E+03 -0.11610376455E+04  0.12754462532E+04  0.15294330000E+03 0.  0.
<mgrwt>
<rscale>  0 0.74135453E+03</rscale>
<asrwt>0</asrwt>
<pdfrwt beam="1">  1        2 0.21221471E+00 0.83016461E+03</pdfrwt>
<pdfrwt beam="2">  1       -2 0.17328134E+00 0.83016461E+03</pdfrwt>
<totfact> 0.30465730E+00</totfact>
</mgrwt>
</event>
<event>
 4    5  0.8511149E-008  0.1149961E+04  0.7818608E-02  0.9207369E-01
          2   -1    0    0  501    0  0.00000000000E+00  0.00000000000E+00  0.20483996796E+04  0.20483996796E+04  0.25500000000E-02 0. -1.
         -2   -1    0    0    0  501 -0.00000000000E+00 -0.00000000000E+00 -0.72511603671E+03  0.72511603672E+03  0.25500000000E-02 0.  1.
    8880023    1    1    2    0    0  0.12652014818E+03 -0.93412634772E+03  0.10352347041E+02  0.11500072864E+04  0.65864270000E+03 0.  1.
    8880022    1    1    2    0    0 -0.12652014818E+03  0.93412634772E+03  0.13129312958E+04  0.16235084299E+04  0.15294330000E+03 0.  0.
<mgrwt>
<rscale>  0 0.10977693E+04</rscale>
<asrwt>0</asrwt>
<pdfrwt beam="1">  1        2 0.31513842E+00 0.11499607E+04</pdfrwt>
<pdfrwt beam="2">  1       -2 0.11155631E+00 0.11499607E+04</pdfrwt>
<totfact> 0.39189862E+00</totfact>
</mgrwt>
</event>
<event>
 4    5  0.8511149E-008  0.1358570E+04  0.7818608E-02  0.9016562E-01
         -2   -1    0    0    0  501 -0.00000000000E+00  0.00000000000E+00  0.14473588954E+04  0.14473588954E+04  0.25500000000E-02 0.  1.
          2   -1    0    0  501    0  0.00000000000E+00 -0.00000000000E+00 -0.11941526122E+04  0.11941526122E+04  0.25500000000E-02 0. -1.
    8880023    1    1    2    0    0  0.11627518481E+04 -0.24476673027E+03  0.44205774487E+03  0.14286804641E+04  0.65864270000E+03 0.  0.
    8880022    1    1    2    0    0 -0.11627518481E+04  0.24476673027E+03 -0.18885146164E+03  0.12128310435E+04  0.15294330000E+03 0.  0.
<mgrwt>
<rscale>  0 0.13165252E+04</rscale>
<asrwt>0</asrwt>
<pdfrwt beam="1">  1        2 0.18371579E+00 0.13585701E+04</pdfrwt>
<pdfrwt beam="2">  1       -2 0.22267060E+00 0.13585701E+04</pdfrwt>
<totfact> 0.17362959E+00</totfact>
</mgrwt>
</event>
<event>
 4    5  0.8511149E-008  0.9916655E+03  0.7818608E-02  0.9392544E-01
          2   -1    0    0  501    0  0.00000000000E+00  0.00000000000E+00  0.15747758882E+04  0.15747758882E+04  0.25500000000E-02 0. -1.
         -2   -1    0    0    0  501 -0.00000000000E+00 -0.00000000000E+00 -0.12471128980E+04  0.12471128980E+04  0.25500000000E-02 0.  1.
    8880023    1    1    2    0    0  0.31247783252E+03 -0.67227074129E+03 -0.92641359183E+03  0.13570713669E+04  0.65864270000E+03 0.  1.
    8880022    1    1    2    0    0 -0.31247783252E+03  0.67227074129E+03  0.12540765820E+04  0.14648174193E+04  0.15294330000E+03 0.  0.
<mgrwt>
<rscale>  0 0.92691848E+03</rscale>
<asrwt>0</asrwt>
<pdfrwt beam="1">  1        2 0.24227321E+00 0.99166554E+03</pdfrwt>
<pdfrwt beam="2">  1       -2 0.19186352E+00 0.99166554E+03</pdfrwt>
<totfact> 0.17261805E+00</totfact>
</mgrwt>
</event>
<event>
 4    5  0.8511149E-008  0.9284581E+03  0.7818608E-02  0.9481810E-01
          2   -1    0    0  501    0  0.00000000000E+00  0.00000000000E+00  0.11111226174E+04  0.11111226174E+04  0.25500000000E-02 0. -1.
         -2   -1    0    0    0  501 -0.00000000000E+00 -0.00000000000E+00 -0.11737929188E+04  0.11737929188E+04  0.25500000000E-02 0.  1.
    8880023    1    1    2    0    0  0.55338155249E+03  0.34927511699E+03 -0.84371891557E+03  0.12545501444E+04  0.65864270000E+03 0.  1.
    8880022    1    1    2    0    0 -0.55338155249E+03 -0.34927511699E+03  0.78104861421E+03  0.10303653919E+04  0.15294330000E+03 0.  0.
<mgrwt>
<rscale>  0 0.85638270E+03</rscale>
<asrwt>0</asrwt>
<pdfrwt beam="1">  1        2 0.17094194E+00 0.92845811E+03</pdfrwt>
<pdfrwt beam="2">  1       -2 0.18058353E+00 0.92845811E+03</pdfrwt>
<totfact> 0.38501764E+00</totfact>
</mgrwt>
</event>
<event>
 4    5  0.8511149E-008  0.1148071E+04  0.7818608E-02  0.9209333E-01
          2   -1    0    0  501    0  0.00000000000E+00  0.00000000000E+00  0.21753349231E+04  0.21753349231E+04  0.25500000000E-02 0. -1.
         -2   -1    0    0    0  501 -0.00000000000E+00 -0.00000000000E+00 -0.83513726992E+03  0.83513726993E+03  0.25500000000E-02 0.  1.
    8880023    1    1    2    0    0  0.56642792885E+03  0.75061016149E+03  0.16487118265E+04  0.20090587613E+04  0.65864270000E+03 0.  0.
    8880022    1    1    2    0    0 -0.56642792885E+03 -0.75061016149E+03 -0.30851417334E+03  0.10014134317E+04  0.15294330000E+03 0.  0.
<mgrwt>
<rscale>  0 0.10957618E+04</rscale>
<asrwt>0</asrwt>
<pdfrwt beam="1">  1        2 0.33466691E+00 0.11480707E+04</pdfrwt>
<pdfrwt beam="2">  1       -2 0.12848266E+00 0.11480707E+04</pdfrwt>
<totfact> 0.23434296E+00</totfact>
</mgrwt>
</event>
<event>
 4    5  0.8511149E-008  0.9116468E+03  0.7818608E-02  0.9507588E-01
          2   -1    0    0  501    0  0.00000000000E+00  0.00000000000E+00  0.25084090425E+04  0.25084090425E+04  0.25500000000E-02 0. -1.
         -2   -1    0    0    0  501 -0.00000000000E+00 -0.00000000000E+00 -0.45253793579E+03  0.45253793580E+03  0.25500000000E-02 0.  1.
    8880023    1    1    2    0    0 -0.60049957299E+03  0.19154613013E+03  0.12024445719E+03  0.91954259982E+03  0.65864270000E+03 0.  1.
    8880022    1    1    2    0    0  0.60049957299E+03 -0.19154613013E+03  0.19356266496E+04  0.20414043785E+04  0.15294330000E+03 0.  0.
<mgrwt>
<rscale>  0 0.83726725E+03</rscale>
<asrwt>0</asrwt>
<pdfrwt beam="1">  1        2 0.38590909E+00 0.91164679E+03</pdfrwt>
<pdfrwt beam="2">  1       -2 0.69621220E-01 0.91164679E+03</pdfrwt>
<totfact> 0.66266209E+00</totfact>
</mgrwt>
</event>
<event>
 4    5  0.8511149E-008  0.7202811E+03  0.7818608E-02  0.9921636E-01
          2   -1    0    0  501    0  0.00000000000E+00  0.00000000000E+00  0.89760392673E+03  0.89760392674E+03  0.25500000000E-02 0. -1.
         -2   -1    0    0    0  501 -0.00000000000E+00 -0.00000000000E+00 -0.34686048139E+03  0.34686048140E+03  0.25500000000E-02 0.  1.
    8880023    1    1    2    0    0 -0.25169064050E+03  0.14712728185E+03  0.16800904040E+03  0.73961602166E+03  0.65864270000E+03 0.  1.
    8880022    1    1    2    0    0  0.25169064050E+03 -0.14712728185E+03  0.38273440494E+03  0.50484838647E+03  0.15294330000E+03 0. -1.
<mgrwt>
<rscale>  0 0.59224075E+03</rscale>
<asrwt>0</asrwt>
<pdfrwt beam="1">  1        2 0.13809291E+00 0.72028107E+03</pdfrwt>
<pdfrwt beam="2">  1       -2 0.53363151E-01 0.72028107E+03</pdfrwt>
<totfact> 0.98890115E+01</totfact>
</mgrwt>
</event>
<event>
 4    5  0.8511149E-008  0.7675118E+03  0.7818608E-02  0.9786035E-01
         -2   -1    0    0    0  501 -0.00000000000E+00  0.00000000000E+00  0.62962364583E+03  0.62962364583E+03  0.25500000000E-02 0.  1.
          2   -1    0    0  501    0  0.00000000000E+00 -0.00000000000E+00 -0.84271583088E+03  0.84271583088E+03  0.25500000000E-02 0. -1.
    8880023    1    1    2    0    0 -0.19452693878E+03 -0.34267095386E+03  0.28532327844E+03  0.81883068581E+03  0.65864270000E+03 0.  1.
    8880022    1    1    2    0    0  0.19452693878E+03  0.34267095386E+03 -0.49841546349E+03  0.65350879091E+03  0.15294330000E+03 0.  0.
<mgrwt>
<rscale>  0 0.66117422E+03</rscale>
<asrwt>0</asrwt>
<pdfrwt beam="1">  1        2 0.12964859E+00 0.76751177E+03</pdfrwt>
<pdfrwt beam="2">  1       -2 0.96865176E-01 0.76751177E+03</pdfrwt>
<totfact> 0.28967342E+01</totfact>
</mgrwt>
</event>
<event>
 4    5  0.8511149E-008  0.6638176E+03  0.7818608E-02  0.1020547E+00
         -2   -1    0    0    0  501 -0.00000000000E+00  0.00000000000E+00  0.64691782765E+03  0.64691782766E+03  0.25500000000E-02 0.  1.
          2   -1    0    0  501    0  0.00000000000E+00 -0.00000000000E+00 -0.10895456964E+04  0.10895456964E+04  0.25500000000E-02 0. -1.
    8880023    1    1    2    0    0 -0.60055181772E+02 -0.56894723236E+02  0.46618794961E+03  0.81116277344E+03  0.65864270000E+03 0.  1.
    8880022    1    1    2    0    0  0.60055181772E+02  0.56894723236E+02 -0.90881581834E+03  0.92530075061E+03  0.15294330000E+03 0.  0.
<mgrwt>
<rscale>  0 0.47489855E+03</rscale>
<asrwt>0</asrwt>
<pdfrwt beam="1">  1        2 0.16762241E+00 0.66381763E+03</pdfrwt>
<pdfrwt beam="2">  1       -2 0.99525820E-01 0.66381763E+03</pdfrwt>
<totfact> 0.18987972E+01</totfact>
</mgrwt>
</event>
<event>
 4    5  0.8511149E-008  0.1243191E+04  0.7818608E-02  0.9116240E-01
         -2   -1    0    0    0  501 -0.00000000000E+00  0.00000000000E+00  0.17155327996E+04  0.17155327996E+04  0.25500000000E-02 0.  1.
          2   -1    0    0  501    0  0.00000000000E+00 -0.00000000000E+00 -0.16686888782E+04  0.16686888782E+04  0.25500000000E-02 0. -1.
    8880023    1    1    2    0    0 -0.53954020169E+03  0.90587499951E+03  0.12597153887E+04  0.17698605060E+04  0.65864270000E+03 0.  0.
    8880022    1    1    2    0    0  0.53954020169E+03 -0.90587499951E+03 -0.12128714673E+04  0.16143611719E+04  0.15294330000E+03 0.  0.
<mgrwt>
<rscale>  0 0.11961423E+04</rscale>
<asrwt>0</asrwt>
<pdfrwt beam="1">  1        2 0.25672136E+00 0.12431908E+04</pdfrwt>
<pdfrwt beam="2">  1       -2 0.26392812E+00 0.12431908E+04</pdfrwt>
<totfact> 0.52124639E-01</totfact>
</mgrwt>
</event>
<event>
 4    5  0.8511149E-008  0.7990858E+03  0.7818608E-02  0.9712776E-01
          2   -1    0    0  501    0  0.00000000000E+00  0.00000000000E+00  0.25424703655E+04  0.25424703655E+04  0.25500000000E-02 0. -1.
         -2   -1    0    0    0  501 -0.00000000000E+00 -0.00000000000E+00 -0.33523109029E+03  0.33523109030E+03  0.25500000000E-02 0.  1.
    8880023    1    1    2    0    0  0.39465385186E+03  0.22130571600E+03  0.21289054548E+03  0.82695856809E+03  0.65864270000E+03 0.  1.
    8880022    1    1    2    0    0 -0.39465385186E+03 -0.22130571600E+03  0.19943487298E+04  0.20507428877E+04  0.15294330000E+03 0.  0.
<mgrwt>
<rscale>  0 0.70261168E+03</rscale>
<asrwt>0</asrwt>
<pdfrwt beam="1">  1        2 0.39114929E+00 0.79908578E+03</pdfrwt>
<pdfrwt beam="2">  1       -2 0.51574014E-01 0.79908578E+03</pdfrwt>
<totfact> 0.12157567E+01</totfact>
</mgrwt>
</event>
<event>
 4    5  0.8511149E-008  0.1095795E+04  0.7818608E-02  0.9265752E-01
          2   -1    0    0  501    0  0.00000000000E+00  0.00000000000E+00  0.15172196559E+04  0.15172196559E+04  0.25500000000E-02 0. -1.
         -2   -1    0    0    0  501 -0.00000000000E+00 -0.00000000000E+00 -0.10395380799E+04  0.10395380799E+04  0.25500000000E-02 0.  1.
    8880023    1    1    2    0    0 -0.85449282555E+03 -0.19182863541E+03 -0.52639299288E+03  0.12156710096E+04  0.65864270000E+03 0.  1.
    8880022    1    1    2    0    0  0.85449282555E+03  0.19182863541E+03  0.10040745689E+04  0.13410867262E+04  0.15294330000E+03 0.  0.
<mgrwt>
<rscale>  0 0.10399782E+04</rscale>
<asrwt>0</asrwt>
<pdfrwt beam="1">  1        2 0.23341841E+00 0.10957949E+04</pdfrwt>
<pdfrwt beam="2">  1       -2 0.15992894E+00 0.10957949E+04</pdfrwt>
<totfact> 0.30737683E+00</totfact>
</mgrwt>
</event>
<event>
 4    5  0.8511149E-008  0.7515325E+03  0.7818608E-02  0.9827544E-01
         -2   -1    0    0    0  501 -0.00000000000E+00  0.00000000000E+00  0.59783742990E+03  0.59783742991E+03  0.25500000000E-02 0.  1.
          2   -1    0    0  501    0  0.00000000000E+00 -0.00000000000E+00 -0.33301185122E+04  0.33301185122E+04  0.25500000000E-02 0. -1.
    8880023    1    1    2    0    0 -0.73339909338E+02  0.35441810531E+03  0.34411564775E+03  0.82656924753E+03  0.65864270000E+03 0.  0.
    8880022    1    1    2    0    0  0.73339909338E+02 -0.35441810531E+03 -0.30763967301E+04  0.31013866946E+04  0.15294330000E+03 0.  0.
<mgrwt>
<rscale>  0 0.63905116E+03</rscale>
<asrwt>0</asrwt>
<pdfrwt beam="1">  1        2 0.51232592E+00 0.75153253E+03</pdfrwt>
<pdfrwt beam="2">  1       -2 0.91974991E-01 0.75153253E+03</pdfrwt>
<totfact> 0.11547705E+00</totfact>
</mgrwt>
</event>
<event>
 4    5  0.8511149E-008  0.6795571E+03  0.7818608E-02  0.1009575E+00
          2   -1    0    0  501    0  0.00000000000E+00  0.00000000000E+00  0.10268769817E+04  0.10268769817E+04  0.25500000000E-02 0. -1.
         -2   -1    0    0    0  501 -0.00000000000E+00 -0.00000000000E+00 -0.37284715293E+03  0.37284715294E+03  0.25500000000E-02 0.  1.
    8880023    1    1    2    0    0 -0.11219869509E+03  0.12409320084E+03 -0.28888587388E+02  0.68017088031E+03  0.65864270000E+03 0.  1.
    8880022    1    1    2    0    0  0.11219869509E+03 -0.12409320084E+03  0.68291841618E+03  0.71955325435E+03  0.15294330000E+03 0.  0.
<mgrwt>
<rscale>  0 0.51643780E+03</rscale>
<asrwt>0</asrwt>
<pdfrwt beam="1">  1        2 0.15798107E+00 0.67955712E+03</pdfrwt>
<pdfrwt beam="2">  1       -2 0.57361101E-01 0.67955712E+03</pdfrwt>
<totfact> 0.70392772E+01</totfact>
</mgrwt>
</event>
<event>
 4    5  0.8511149E-008  0.1479778E+04  0.7818608E-02  0.8924049E-01
         -2   -1    0    0    0  501 -0.00000000000E+00  0.00000000000E+00  0.79121997576E+03  0.79121997577E+03  0.25500000000E-02 0.  1.
          2   -1    0    0  501    0  0.00000000000E+00 -0.00000000000E+00 -0.42434759186E+04  0.42434759186E+04  0.25500000000E-02 0. -1.
    8880023    1    1    2    0    0 -0.72057782677E+03 -0.11120700148E+04 -0.16725736429E+03  0.14892002398E+04  0.65864270000E+03 0.  0.
    8880022    1    1    2    0    0  0.72057782677E+03  0.11120700148E+04 -0.32849985785E+04  0.35454956545E+04  0.15294330000E+03 0.  0.
<mgrwt>
<rscale>  0 0.14418804E+04</rscale>
<asrwt>0</asrwt>
<pdfrwt beam="1">  1        2 0.65284244E+00 0.14797778E+04</pdfrwt>
<pdfrwt beam="2">  1       -2 0.12172615E+00 0.14797778E+04</pdfrwt>
<totfact> 0.10624395E-01</totfact>
</mgrwt>
</event>
<event>
 4    5  0.8511149E-008  0.1519324E+04  0.7818608E-02  0.8896110E-01
         -2   -1    0    0    0  501 -0.00000000000E+00  0.00000000000E+00  0.13440206188E+04  0.13440206188E+04  0.25500000000E-02 0.  1.
          2   -1    0    0  501    0  0.00000000000E+00 -0.00000000000E+00 -0.17675499986E+04  0.17675499986E+04  0.25500000000E-02 0. -1.
    8880023    1    1    2    0    0  0.12809095302E+04  0.48353576651E+03 -0.75208468456E+03  0.16952809918E+04  0.65864270000E+03 0.  0.
    8880022    1    1    2    0    0 -0.12809095302E+04 -0.48353576651E+03  0.32855530479E+03  0.14162896256E+04  0.15294330000E+03 0.  0.
<mgrwt>
<rscale>  0 0.14825960E+04</rscale>
<asrwt>0</asrwt>
<pdfrwt beam="1">  1        2 0.27193077E+00 0.15193243E+04</pdfrwt>
<pdfrwt beam="2">  1       -2 0.20677240E+00 0.15193243E+04</pdfrwt>
<totfact> 0.10137341E+00</totfact>
</mgrwt>
</event>
<event>
 4    5  0.8511149E-008  0.8925544E+03  0.7818608E-02  0.9538091E-01
         -2   -1    0    0    0  501 -0.00000000000E+00  0.00000000000E+00  0.25237773114E+03  0.25237773116E+03  0.25500000000E-02 0.  1.
          2   -1    0    0  501    0  0.00000000000E+00 -0.00000000000E+00 -0.25695181965E+04  0.25695181965E+04  0.25500000000E-02 0. -1.
    8880023    1    1    2    0    0 -0.58138137700E+03 -0.15760369470E+03 -0.86758376746E+03  0.12447309066E+04  0.65864270000E+03 0.  0.
    8880022    1    1    2    0    0  0.58138137700E+03  0.15760369470E+03 -0.14495566979E+04  0.15771650210E+04  0.15294330000E+03 0.  0.
<mgrwt>
<rscale>  0 0.81532822E+03</rscale>
<asrwt>0</asrwt>
<pdfrwt beam="1">  1        2 0.39531047E+00 0.89255444E+03</pdfrwt>
<pdfrwt beam="2">  1       -2 0.38827345E-01 0.89255444E+03</pdfrwt>
<totfact> 0.20406076E+01</totfact>
</mgrwt>
</event>
<event>
 4    5  0.1584642E-007  0.9574979E+03  0.7818608E-02  0.9439407E-01
         -2   -1    0    0    0  501 -0.00000000000E+00  0.00000000000E+00  0.23053559943E+04  0.23053559943E+04  0.25500000000E-02 0.  1.
          2   -1    0    0  501    0  0.00000000000E+00 -0.00000000000E+00 -0.41280654803E+04  0.41280654803E+04  0.25500000000E-02 0. -1.
    8880023    1    1    2    0    0 -0.96519762379E+02 -0.68824120522E+03  0.21731260331E+04  0.23747166111E+04  0.65864270000E+03 0.  1.
    8880022    1    1    2    0    0  0.96519762379E+02  0.68824120522E+03 -0.39958355191E+04  0.40587048636E+04  0.15294330000E+03 0.  0.
<mgrwt>
<rscale>  0 0.88902369E+03</rscale>
<asrwt>0</asrwt>
<pdfrwt beam="1">  1        2 0.63508700E+00 0.95749790E+03</pdfrwt>
<pdfrwt beam="2">  1       -2 0.35467015E+00 0.95749790E+03</pdfrwt>
<totfact> 0.42426241E-03</totfact>
</mgrwt>
</event>
<event>
 4    5  0.8511149E-008  0.1780366E+04  0.7818608E-02  0.8733476E-01
          2   -1    0    0  501    0  0.00000000000E+00  0.00000000000E+00  0.23969930077E+04  0.23969930077E+04  0.25500000000E-02 0. -1.
         -2   -1    0    0    0  501 -0.00000000000E+00 -0.00000000000E+00 -0.21443736737E+04  0.21443736737E+04  0.25500000000E-02 0.  1.
    8880023    1    1    2    0    0  0.14939134305E+04  0.71001035510E+03 -0.13491280100E+04  0.22337969102E+04  0.65864270000E+03 0.  0.
    8880022    1    1    2    0    0 -0.14939134305E+04 -0.71001035510E+03  0.16017473440E+04  0.23075697713E+04  0.15294330000E+03 0.  0.
<mgrwt>
<rscale>  0 0.17497720E+04</rscale>
<asrwt>0</asrwt>
<pdfrwt beam="1">  1        2 0.36876815E+00 0.17803658E+04</pdfrwt>
<pdfrwt beam="2">  1       -2 0.32990364E+00 0.17803658E+04</pdfrwt>
<totfact> 0.75224903E-02</totfact>
</mgrwt>
</event>
<event>
 4    5  0.8511149E-008  0.9318795E+03  0.7818608E-02  0.9476679E-01
          2   -1    0    0  501    0  0.00000000000E+00  0.00000000000E+00  0.17676401121E+04  0.17676401121E+04  0.25500000000E-02 0. -1.
         -2   -1    0    0    0  501 -0.00000000000E+00 -0.00000000000E+00 -0.37681956789E+03  0.37681956789E+03  0.25500000000E-02 0.  1.
    8880023    1    1    2    0    0  0.48863943652E+03 -0.44251628161E+03  0.62289108986E+03  0.11208892338E+04  0.65864270000E+03 0.  0.
    8880022    1    1    2    0    0 -0.48863943652E+03  0.44251628161E+03  0.76792945439E+03  0.10235704462E+04  0.15294330000E+03 0.  0.
<mgrwt>
<rscale>  0 0.86025206E+03</rscale>
<asrwt>0</asrwt>
<pdfrwt beam="1">  1        2 0.27194463E+00 0.93187948E+03</pdfrwt>
<pdfrwt beam="2">  1       -2 0.57972242E-01 0.93187948E+03</pdfrwt>
<totfact> 0.25236142E+01</totfact>
</mgrwt>
</event>
<event>
 4    5  0.8511149E-008  0.7565558E+03  0.7818608E-02  0.9814107E-01
         -2   -1    0    0    0  501 -0.00000000000E+00  0.00000000000E+00  0.46374869238E+03  0.46374869239E+03  0.25500000000E-02 0.  1.
          2   -1    0    0  501    0  0.00000000000E+00 -0.00000000000E+00 -0.98892149978E+03  0.98892149978E+03  0.25500000000E-02 0. -1.
    8880023    1    1    2    0    0 -0.36126178537E+03 -0.89757599116E+02  0.41431214481E+02  0.75768941920E+03  0.65864270000E+03 0.  1.
    8880022    1    1    2    0    0  0.36126178537E+03  0.89757599116E+02 -0.56660402188E+03  0.69498077297E+03  0.15294330000E+03 0.  0.
<mgrwt>
<rscale>  0 0.64610944E+03</rscale>
<asrwt>0</asrwt>
<pdfrwt beam="1">  1        2 0.15214177E+00 0.75655582E+03</pdfrwt>
<pdfrwt beam="2">  1       -2 0.71345953E-01 0.75655582E+03</pdfrwt>
<totfact> 0.46335347E+01</totfact>
</mgrwt>
</event>
<event>
 4    5  0.8511149E-008  0.1100145E+04  0.7818608E-02  0.9260895E-01
         -2   -1    0    0    0  501 -0.00000000000E+00  0.00000000000E+00  0.27728536995E+03  0.27728536997E+03  0.25500000000E-02 0.  1.
          2   -1    0    0  501    0  0.00000000000E+00 -0.00000000000E+00 -0.42107724481E+04  0.42107724481E+04  0.25500000000E-02 0. -1.
    8880023    1    1    2    0    0 -0.27109105441E+03  0.83846214841E+03 -0.12795608327E+04  0.16874819303E+04  0.65864270000E+03 0.  0.
    8880022    1    1    2    0    0  0.27109105441E+03 -0.83846214841E+03 -0.26539262454E+04  0.28005758878E+04  0.15294330000E+03 0.  0.
<mgrwt>
<rscale>  0 0.10446409E+04</rscale>
<asrwt>0</asrwt>
<pdfrwt beam="1">  1        2 0.64781110E+00 0.11001451E+04</pdfrwt>
<pdfrwt beam="2">  1       -2 0.42659291E-01 0.11001451E+04</pdfrwt>
<totfact> 0.12386618E+00</totfact>
</mgrwt>
</event>
<event>
 4    5  0.8511149E-008  0.1779282E+04  0.7818608E-02  0.8734084E-01
         -2   -1    0    0    0  501 -0.00000000000E+00  0.00000000000E+00  0.28655067850E+04  0.28655067850E+04  0.25500000000E-02 0.  1.
          2   -1    0    0  501    0  0.00000000000E+00 -0.00000000000E+00 -0.12239369199E+04  0.12239369199E+04  0.25500000000E-02 0. -1.
    8880023    1    1    2    0    0 -0.95066543653E+03  0.13521356619E+04  0.35396919789E+02  0.17796344480E+04  0.65864270000E+03 0.  0.
    8880022    1    1    2    0    0  0.95066543653E+03 -0.13521356619E+04  0.16061729453E+04  0.23098092570E+04  0.15294330000E+03 0.  0.
<mgrwt>
<rscale>  0 0.17486677E+04</rscale>
<asrwt>0</asrwt>
<pdfrwt beam="1">  1        2 0.18829799E+00 0.17792824E+04</pdfrwt>
<pdfrwt beam="2">  1       -2 0.44084719E+00 0.17792824E+04</pdfrwt>
<totfact> 0.66991957E-02</totfact>
</mgrwt>
</event>
<event>
 4    5  0.8511149E-008  0.1037840E+04  0.7818608E-02  0.9333644E-01
          2   -1    0    0  501    0  0.00000000000E+00  0.00000000000E+00  0.73232379355E+03  0.73232379356E+03  0.25500000000E-02 0. -1.
         -2   -1    0    0    0  501 -0.00000000000E+00 -0.00000000000E+00 -0.15580453182E+04  0.15580453182E+04  0.25500000000E-02 0.  1.
    8880023    1    1    2    0    0  0.47711018969E+03  0.64472237776E+03 -0.10155816371E+04  0.14520734642E+04  0.65864270000E+03 0.  1.
    8880022    1    1    2    0    0 -0.47711018969E+03 -0.64472237776E+03  0.18986011242E+03  0.83829564761E+03  0.15294330000E+03 0. -1.
<mgrwt>
<rscale>  0 0.97743623E+03</rscale>
<asrwt>0</asrwt>
<pdfrwt beam="1">  1        2 0.11266520E+00 0.10378397E+04</pdfrwt>
<pdfrwt beam="2">  1       -2 0.23969928E+00 0.10378397E+04</pdfrwt>
<totfact> 0.28560622E+00</totfact>
</mgrwt>
</event>
<event>
 4    5  0.8511149E-008  0.1563646E+04  0.7818608E-02  0.8865953E-01
          2   -1    0    0  501    0  0.00000000000E+00  0.00000000000E+00  0.12230556406E+04  0.12230556406E+04  0.25500000000E-02 0. -1.
         -2   -1    0    0    0  501 -0.00000000000E+00 -0.00000000000E+00 -0.22949969739E+04  0.22949969739E+04  0.25500000000E-02 0.  1.
    8880023    1    1    2    0    0 -0.13760043332E+04  0.34320636028E+03 -0.13488502784E+04  0.20650389368E+04  0.65864270000E+03 0.  0.
    8880022    1    1    2    0    0  0.13760043332E+04 -0.34320636028E+03  0.27690894507E+03  0.14530136777E+04  0.15294330000E+03 0.  0.
<mgrwt>
<rscale>  0 0.15281392E+04</rscale>
<asrwt>0</asrwt>
<pdfrwt beam="1">  1        2 0.18816241E+00 0.15636460E+04</pdfrwt>
<pdfrwt beam="2">  1       -2 0.35307646E+00 0.15636460E+04</pdfrwt>
<totfact> 0.25639454E-01</totfact>
</mgrwt>
</event>
<event>
 4    5  0.8511149E-008  0.1357981E+04  0.7818608E-02  0.9017040E-01
          2   -1    0    0  501    0  0.00000000000E+00  0.00000000000E+00  0.22494464274E+04  0.22494464274E+04  0.25500000000E-02 0. -1.
         -2   -1    0    0    0  501 -0.00000000000E+00 -0.00000000000E+00 -0.97037404228E+03  0.97037404228E+03  0.25500000000E-02 0.  1.
    8880023    1    1    2    0    0 -0.94212578678E+03 -0.72298166641E+03 -0.13758268117E+03  0.13649332176E+04  0.65864270000E+03 0.  0.
    8880022    1    1    2    0    0  0.94212578678E+03  0.72298166641E+03  0.14166550663E+04  0.18548872521E+04  0.15294330000E+03 0.  0.
<mgrwt>
<rscale>  0 0.13159139E+04</rscale>
<asrwt>0</asrwt>
<pdfrwt beam="1">  1        2 0.34606868E+00 0.13579815E+04</pdfrwt>
<pdfrwt beam="2">  1       -2 0.14928831E+00 0.13579815E+04</pdfrwt>
<totfact> 0.14077097E+00</totfact>
</mgrwt>
</event>
<event>
 4    5  0.8511149E-008  0.1064571E+04  0.7818608E-02  0.9301566E-01
         -2   -1    0    0    0  501 -0.00000000000E+00  0.00000000000E+00  0.75483558426E+03  0.75483558427E+03  0.25500000000E-02 0.  1.
          2   -1    0    0  501    0  0.00000000000E+00 -0.00000000000E+00 -0.13514108588E+04  0.13514108588E+04  0.25500000000E-02 0. -1.
    8880023    1    1    2    0    0 -0.82393469241E+03  0.14364402019E+03  0.52275149423E+01  0.10645841982E+04  0.65864270000E+03 0.  0.
    8880022    1    1    2    0    0  0.82393469241E+03 -0.14364402019E+03 -0.60180278943E+03  0.10416622448E+04  0.15294330000E+03 0.  0.
<mgrwt>
<rscale>  0 0.10063878E+04</rscale>
<asrwt>0</asrwt>
<pdfrwt beam="1">  1        2 0.20790936E+00 0.10645714E+04</pdfrwt>
<pdfrwt beam="2">  1       -2 0.11612855E+00 0.10645714E+04</pdfrwt>
<totfact> 0.87725231E+00</totfact>
</mgrwt>
</event>
<event>
 4    5  0.8511149E-008  0.1094837E+04  0.7818608E-02  0.9266827E-01
         -2   -1    0    0    0  501 -0.00000000000E+00  0.00000000000E+00  0.10381883995E+04  0.10381883995E+04  0.25500000000E-02 0.  1.
          2   -1    0    0  501    0  0.00000000000E+00 -0.00000000000E+00 -0.25276892349E+04  0.25276892349E+04  0.25500000000E-02 0. -1.
    8880023    1    1    2    0    0  0.73433176698E+03 -0.47498879906E+03  0.63336012004E+03  0.12648370453E+04  0.65864270000E+03 0.  0.
    8880022    1    1    2    0    0 -0.73433176698E+03  0.47498879906E+03 -0.21228609554E+04  0.23010405890E+04  0.15294330000E+03 0.  0.
<mgrwt>
<rscale>  0 0.10389508E+04</rscale>
<asrwt>0</asrwt>
<pdfrwt beam="1">  1        2 0.38887527E+00 0.10948368E+04</pdfrwt>
<pdfrwt beam="2">  1       -2 0.15972129E+00 0.10948368E+04</pdfrwt>
<totfact> 0.84197992E-01</totfact>
</mgrwt>
</event>
<event>
 4    5  0.8511149E-008  0.8714263E+03  0.7818608E-02  0.9573553E-01
         -2   -1    0    0    0  501 -0.00000000000E+00  0.00000000000E+00  0.99024812606E+03  0.99024812607E+03  0.25500000000E-02 0.  1.
          2   -1    0    0  501    0  0.00000000000E+00 -0.00000000000E+00 -0.55385558381E+03  0.55385558382E+03  0.25500000000E-02 0. -1.
    8880023    1    1    2    0    0 -0.40390082036E+03  0.40303572293E+03  0.38003213663E+03  0.95068832841E+03  0.65864270000E+03 0.  1.
    8880022    1    1    2    0    0  0.40390082036E+03 -0.40303572293E+03  0.56360405619E+02  0.59341538148E+03  0.15294330000E+03 0. -1.
<mgrwt>
<rscale>  0 0.79071649E+03</rscale>
<asrwt>0</asrwt>
<pdfrwt beam="1">  1        2 0.85208552E-01 0.87142634E+03</pdfrwt>
<pdfrwt beam="2">  1       -2 0.15234586E+00 0.87142634E+03</pdfrwt>
<totfact> 0.15752258E+01</totfact>
</mgrwt>
</event>
<event>
 4    5  0.8511149E-008  0.7035137E+03  0.7818608E-02  0.9982926E-01
         -2   -1    0    0    0  501 -0.00000000000E+00  0.00000000000E+00  0.99948251862E+03  0.99948251862E+03  0.25500000000E-02 0.  1.
          2   -1    0    0  501    0  0.00000000000E+00 -0.00000000000E+00 -0.48721126560E+03  0.48721126561E+03  0.25500000000E-02 0. -1.
    8880023    1    1    2    0    0  0.39962458783E+02  0.24397603394E+03  0.80844343136E+03  0.10716866572E+04  0.65864270000E+03 0.  1.
    8880022    1    1    2    0    0 -0.39962458783E+02 -0.24397603394E+03 -0.29617217834E+03  0.41500712703E+03  0.15294330000E+03 0.  0.
<mgrwt>
<rscale>  0 0.56405289E+03</rscale>
<asrwt>0</asrwt>
<pdfrwt beam="1">  1        2 0.74955580E-01 0.70351369E+03</pdfrwt>
<pdfrwt beam="2">  1       -2 0.15376654E+00 0.70351369E+03</pdfrwt>
<totfact> 0.18122481E+01</totfact>
</mgrwt>
</event>
<event>
 4    5  0.8511149E-008  0.7991153E+03  0.7818608E-02  0.9712712E-01
         -2   -1    0    0    0  501 -0.00000000000E+00  0.00000000000E+00  0.11128385611E+04  0.11128385611E+04  0.25500000000E-02 0.  1.
          2   -1    0    0  501    0  0.00000000000E+00 -0.00000000000E+00 -0.53069357339E+03  0.53069357340E+03  0.25500000000E-02 0. -1.
    8880023    1    1    2    0    0 -0.41541771995E+03  0.17945252310E+03  0.78900741165E+03  0.11229950988E+04  0.65864270000E+03 0.  1.
    8880022    1    1    2    0    0  0.41541771995E+03 -0.17945252310E+03 -0.20686242390E+03  0.52053703570E+03  0.15294330000E+03 0.  0.
<mgrwt>
<rscale>  0 0.70264933E+03</rscale>
<asrwt>0</asrwt>
<pdfrwt beam="1">  1        2 0.81645166E-01 0.79911532E+03</pdfrwt>
<pdfrwt beam="2">  1       -2 0.17120593E+00 0.79911532E+03</pdfrwt>
<totfact> 0.12132189E+01</totfact>
</mgrwt>
</event>
<event>
 4    5  0.8511149E-008  0.1218161E+04  0.7818608E-02  0.9139668E-01
          2   -1    0    0  501    0  0.00000000000E+00  0.00000000000E+00  0.23325013225E+04  0.23325013225E+04  0.25500000000E-02 0. -1.
         -2   -1    0    0    0  501 -0.00000000000E+00 -0.00000000000E+00 -0.70561958737E+03  0.70561958737E+03  0.25500000000E-02 0.  1.
    8880023    1    1    2    0    0 -0.86122985520E+03 -0.55532726932E+03  0.14046170665E+03  0.12262320078E+04  0.65864270000E+03 0.  0.
    8880022    1    1    2    0    0  0.86122985520E+03  0.55532726932E+03  0.14864200284E+04  0.18118889021E+04  0.15294330000E+03 0.  0.
<mgrwt>
<rscale>  0 0.11698456E+04</rscale>
<asrwt>0</asrwt>
<pdfrwt beam="1">  1        2 0.35884636E+00 0.12181607E+04</pdfrwt>
<pdfrwt beam="2">  1       -2 0.10855686E+00 0.12181607E+04</pdfrwt>
<totfact> 0.28836757E+00</totfact>
</mgrwt>
</event>
<event>
 4    5  0.8511149E-008  0.9109851E+03  0.7818608E-02  0.9508622E-01
          2   -1    0    0  501    0  0.00000000000E+00  0.00000000000E+00  0.71999250688E+03  0.71999250688E+03  0.25500000000E-02 0. -1.
         -2   -1    0    0    0  501 -0.00000000000E+00 -0.00000000000E+00 -0.86111461158E+03  0.86111461158E+03  0.25500000000E-02 0.  1.
    8880023    1    1    2    0    0  0.33988505699E+03  0.52968089803E+03 -0.19355067393E+03  0.93131937344E+03  0.65864270000E+03 0.  0.
    8880022    1    1    2    0    0 -0.33988505699E+03 -0.52968089803E+03  0.52428569228E+02  0.64978774503E+03  0.15294330000E+03 0.  0.
<mgrwt>
<rscale>  0 0.83651123E+03</rscale>
<asrwt>0</asrwt>
<pdfrwt beam="1">  1        2 0.11076808E+00 0.91098513E+03</pdfrwt>
<pdfrwt beam="2">  1       -2 0.13247917E+00 0.91098513E+03</pdfrwt>
<totfact> 0.16361852E+01</totfact>
</mgrwt>
</event>
<event>
 4    5  0.8511149E-008  0.1289131E+04  0.7818608E-02  0.9075003E-01
          2   -1    0    0  501    0  0.00000000000E+00  0.00000000000E+00  0.71124430625E+03  0.71124430626E+03  0.25500000000E-02 0. -1.
         -2   -1    0    0    0  501 -0.00000000000E+00 -0.00000000000E+00 -0.25212130251E+04  0.25212130251E+04  0.25500000000E-02 0.  1.
    8880023    1    1    2    0    0  0.10430801911E+04  0.37421033039E+03 -0.16630309918E+04  0.21041701315E+04  0.65864270000E+03 0.  0.
    8880022    1    1    2    0    0 -0.10430801911E+04 -0.37421033039E+03 -0.14693772700E+03  0.11282871998E+04  0.15294330000E+03 0.  0.
<mgrwt>
<rscale>  0 0.12442258E+04</rscale>
<asrwt>0</asrwt>
<pdfrwt beam="1">  1        2 0.10942220E+00 0.12891314E+04</pdfrwt>
<pdfrwt beam="2">  1       -2 0.38787892E+00 0.12891314E+04</pdfrwt>
<totfact> 0.34979492E-01</totfact>
</mgrwt>
</event>
<event>
 4    5  0.8511149E-008  0.9815715E+03  0.7818608E-02  0.9406075E-01
          2   -1    0    0  501    0  0.00000000000E+00  0.00000000000E+00  0.24462199582E+04  0.24462199582E+04  0.25500000000E-02 0. -1.
         -2   -1    0    0    0  501 -0.00000000000E+00 -0.00000000000E+00 -0.31468631860E+03  0.31468631861E+03  0.25500000000E-02 0.  1.
    8880023    1    1    2    0    0 -0.72600329911E+03  0.50907800587E+02  0.95808085602E+03  0.13716419093E+04  0.65864270000E+03 0.  0.
    8880022    1    1    2    0    0  0.72600329911E+03 -0.50907800587E+02  0.11734527836E+04  0.13892643675E+04  0.15294330000E+03 0.  0.
<mgrwt>
<rscale>  0 0.91577415E+03</rscale>
<asrwt>0</asrwt>
<pdfrwt beam="1">  1        2 0.37634153E+00 0.98157150E+03</pdfrwt>
<pdfrwt beam="2">  1       -2 0.48413281E-01 0.98157150E+03</pdfrwt>
<totfact> 0.15313871E+01</totfact>
</mgrwt>
</event>
<event>
 4    5  0.8511149E-008  0.1205835E+04  0.7818608E-02  0.9151471E-01
          2   -1    0    0  501    0  0.00000000000E+00  0.00000000000E+00  0.93503412766E+03  0.93503412766E+03  0.25500000000E-02 0. -1.
         -2   -1    0    0    0  501 -0.00000000000E+00 -0.00000000000E+00 -0.16330444900E+04  0.16330444900E+04  0.25500000000E-02 0.  1.
    8880023    1    1    2    0    0  0.78163215013E+02 -0.10070341586E+04 -0.92721315498E+03  0.15211054289E+04  0.65864270000E+03 0.  0.
    8880022    1    1    2    0    0 -0.78163215013E+02  0.10070341586E+04  0.22920279266E+03  0.10469731887E+04  0.15294330000E+03 0.  0.
<mgrwt>
<rscale>  0 0.11568674E+04</rscale>
<asrwt>0</asrwt>
<pdfrwt beam="1">  1        2 0.14385140E+00 0.12058348E+04</pdfrwt>
<pdfrwt beam="2">  1       -2 0.25123761E+00 0.12058348E+04</pdfrwt>
<totfact> 0.17090512E+00</totfact>
</mgrwt>
</event>
<event>
 4    5  0.8511149E-008  0.6625109E+03  0.7818608E-02  0.1021720E+00
         -2   -1    0    0    0  501 -0.00000000000E+00  0.00000000000E+00  0.17942828620E+03  0.17942828621E+03  0.25500000000E-02 0.  1.
          2   -1    0    0  501    0  0.00000000000E+00 -0.00000000000E+00 -0.11038286849E+04  0.11038286849E+04  0.25500000000E-02 0. -1.
    8880023    1    1    2    0    0  0.69653146999E+02 -0.16090627560E+02 -0.51091267224E+03  0.83663159999E+03  0.65864270000E+03 0.  1.
    8880022    1    1    2    0    0 -0.69653146999E+02  0.16090627560E+02 -0.41348772648E+03  0.44662537114E+03  0.15294330000E+03 0.  0.
<mgrwt>
<rscale>  0 0.47071107E+03</rscale>
<asrwt>0</asrwt>
<pdfrwt beam="1">  1        2 0.16981979E+00 0.66251089E+03</pdfrwt>
<pdfrwt beam="2">  1       -2 0.27604352E-01 0.66251089E+03</pdfrwt>
<totfact> 0.26295700E+02</totfact>
</mgrwt>
</event>
<event>
 4    5  0.9332116E-008  0.9235405E+03  0.7818608E-02  0.9489251E-01
          2   -1    0    0  501    0  0.00000000000E+00  0.00000000000E+00  0.22652880205E+04  0.22652880205E+04  0.25500000000E-02 0. -1.
         -2   -1    0    0    0  501 -0.00000000000E+00 -0.00000000000E+00 -0.14674633969E+04  0.14674633970E+04  0.25500000000E-02 0.  1.
    8880023    1    1    2    0    0 -0.20018946181E+03 -0.61566313956E+03 -0.12644696665E+04  0.15658258734E+04  0.65864270000E+03 0.  0.
    8880022    1    1    2    0    0  0.20018946181E+03  0.61566313956E+03  0.20622942900E+04  0.21669255441E+04  0.15294330000E+03 0.  0.
<mgrwt>
<rscale>  0 0.85080921E+03</rscale>
<asrwt>0</asrwt>
<pdfrwt beam="1">  1        2 0.34850585E+00 0.92354054E+03</pdfrwt>
<pdfrwt beam="2">  1       -2 0.22576360E+00 0.92354054E+03</pdfrwt>
<totfact> 0.43911232E-01</totfact>
</mgrwt>
</event>
<event>
 4    5  0.1191491E-007  0.9565866E+03  0.7818608E-02  0.9440700E-01
         -2   -1    0    0    0  501 -0.00000000000E+00  0.00000000000E+00  0.11465589615E+04  0.11465589615E+04  0.25500000000E-02 0.  1.
          2   -1    0    0  501    0  0.00000000000E+00 -0.00000000000E+00 -0.32662828022E+04  0.32662828022E+04  0.25500000000E-02 0. -1.
    8880023    1    1    2    0    0 -0.40644797536E+03  0.56218126380E+03  0.89835448746E+03  0.13122875910E+04  0.65864270000E+03 0.  1.
    8880022    1    1    2    0    0  0.40644797536E+03 -0.56218126380E+03 -0.30180783281E+04  0.31005541727E+04  0.15294330000E+03 0.  0.
<mgrwt>
<rscale>  0 0.88800593E+03</rscale>
<asrwt>0</asrwt>
<pdfrwt beam="1">  1        2 0.50250504E+00 0.95658661E+03</pdfrwt>
<pdfrwt beam="2">  1       -2 0.17639369E+00 0.95658661E+03</pdfrwt>
<totfact> 0.23267326E-01</totfact>
</mgrwt>
</event>
<event>
 4    5  0.8511149E-008  0.6619129E+03  0.7818608E-02  0.1022277E+00
          2   -1    0    0  501    0  0.00000000000E+00  0.00000000000E+00  0.29401987214E+04  0.29401987214E+04  0.25500000000E-02 0. -1.
         -2   -1    0    0    0  501 -0.00000000000E+00 -0.00000000000E+00 -0.10636744911E+04  0.10636744911E+04  0.25500000000E-02 0.  1.
    8880023    1    1    2    0    0 -0.53740967811E+02  0.37820816967E+02 -0.95802040288E+03  0.11644448482E+04  0.65864270000E+03 0.  1.
    8880022    1    1    2    0    0  0.53740967811E+02 -0.37820816967E+02  0.28345446332E+04  0.28394283644E+04  0.15294330000E+03 0.  0.
<mgrwt>
<rscale>  0 0.46873839E+03</rscale>
<asrwt>0</asrwt>
<pdfrwt beam="1">  1        2 0.45233827E+00 0.66191292E+03</pdfrwt>
<pdfrwt beam="2">  1       -2 0.16364223E+00 0.66191292E+03</pdfrwt>
<totfact> 0.49134848E-01</totfact>
</mgrwt>
</event>
<event>
 4    5  0.8511149E-008  0.6788056E+03  0.7818608E-02  0.1010007E+00
         -2   -1    0    0    0  501 -0.00000000000E+00  0.00000000000E+00  0.36545249098E+03  0.36545249099E+03  0.25500000000E-02 0.  1.
          2   -1    0    0  501    0  0.00000000000E+00 -0.00000000000E+00 -0.80444255449E+03  0.80444255449E+03  0.25500000000E-02 0. -1.
    8880023    1    1    2    0    0  0.47028763858E+02  0.15733779579E+03 -0.21756371754E+01  0.67880912359E+03  0.65864270000E+03 0.  1.
    8880022    1    1    2    0    0 -0.47028763858E+02 -0.15733779579E+03 -0.43681442633E+03  0.49108592189E+03  0.15294330000E+03 0.  0.
<mgrwt>
<rscale>  0 0.51471665E+03</rscale>
<asrwt>0</asrwt>
<pdfrwt beam="1">  1        2 0.12376039E+00 0.67880564E+03</pdfrwt>
<pdfrwt beam="2">  1       -2 0.56223460E-01 0.67880564E+03</pdfrwt>
<totfact> 0.10328372E+02</totfact>
</mgrwt>
</event>
<event>
 4    5  0.8511149E-008  0.9403375E+03  0.7818608E-02  0.9464155E-01
         -2   -1    0    0    0  501 -0.00000000000E+00  0.00000000000E+00  0.81759003178E+03  0.81759003178E+03  0.25500000000E-02 0.  1.
          2   -1    0    0  501    0  0.00000000000E+00 -0.00000000000E+00 -0.16515626191E+04  0.16515626191E+04  0.25500000000E-02 0. -1.
    8880023    1    1    2    0    0 -0.47480056828E+03  0.47432980905E+03  0.42683750533E+03  0.10326784638E+04  0.65864270000E+03 0.  0.
    8880022    1    1    2    0    0  0.47480056828E+03 -0.47432980905E+03 -0.12608100926E+04  0.14364741870E+04  0.15294330000E+03 0.  0.
<mgrwt>
<rscale>  0 0.86978922E+03</rscale>
<asrwt>0</asrwt>
<pdfrwt beam="1">  1        2 0.25408656E+00 0.94033747E+03</pdfrwt>
<pdfrwt beam="2">  1       -2 0.12578308E+00 0.94033747E+03</pdfrwt>
<totfact> 0.49352809E+00</totfact>
</mgrwt>
</event>
<event>
 4    5  0.8511149E-008  0.8803251E+03  0.7818608E-02  0.9558384E-01
          2   -1    0    0  501    0  0.00000000000E+00  0.00000000000E+00  0.21431265277E+04  0.21431265277E+04  0.25500000000E-02 0. -1.
         -2   -1    0    0    0  501 -0.00000000000E+00 -0.00000000000E+00 -0.30786212221E+03  0.30786212222E+03  0.25500000000E-02 0.  1.
    8880023    1    1    2    0    0  0.52967253900E+03  0.24618907525E+03  0.15514943450E+04  0.17838461167E+04  0.65864270000E+03 0.  0.
    8880022    1    1    2    0    0 -0.52967253900E+03 -0.24618907525E+03  0.28377006050E+03  0.66714253319E+03  0.15294330000E+03 0.  0.
<mgrwt>
<rscale>  0 0.80112909E+03</rscale>
<asrwt>0</asrwt>
<pdfrwt beam="1">  1        2 0.32971177E+00 0.88032509E+03</pdfrwt>
<pdfrwt beam="2">  1       -2 0.47363404E-01 0.88032509E+03</pdfrwt>
<totfact> 0.23935971E+01</totfact>
</mgrwt>
</event>
<event>
 4    5  0.8511149E-008  0.7728426E+03  0.7818608E-02  0.9772927E-01
          2   -1    0    0  501    0  0.00000000000E+00  0.00000000000E+00  0.28551526276E+03  0.28551526277E+03  0.25500000000E-02 0. -1.
         -2   -1    0    0    0  501 -0.00000000000E+00 -0.00000000000E+00 -0.16368550899E+04  0.16368550899E+04  0.25500000000E-02 0.  1.
    8880023    1    1    2    0    0 -0.15832892698E+03  0.37203141300E+03 -0.12637053612E+04  0.14812956719E+04  0.65864270000E+03 0.  1.
    8880022    1    1    2    0    0  0.15832892698E+03 -0.37203141300E+03 -0.87634465912E+02  0.44107468076E+03  0.15294330000E+03 0.  0.
<mgrwt>
<rscale>  0 0.66835911E+03</rscale>
<asrwt>0</asrwt>
<pdfrwt beam="1">  1        2 0.43925426E-01 0.77284256E+03</pdfrwt>
<pdfrwt beam="2">  1       -2 0.25182385E+00 0.77284256E+03</pdfrwt>
<totfact> 0.74466093E+00</totfact>
</mgrwt>
</event>
<event>
 4    5  0.8511149E-008  0.1284755E+04  0.7818608E-02  0.9078838E-01
         -2   -1    0    0    0  501 -0.00000000000E+00  0.00000000000E+00  0.78657356023E+03  0.78657356024E+03  0.25500000000E-02 0.  1.
          2   -1    0    0  501    0  0.00000000000E+00 -0.00000000000E+00 -0.28594429952E+04  0.28594429952E+04  0.25500000000E-02 0. -1.
    8880023    1    1    2    0    0  0.11001485072E+04  0.80362226024E+02  0.92504183733E+01  0.12847881544E+04  0.65864270000E+03 0.  0.
    8880022    1    1    2    0    0 -0.11001485072E+04 -0.80362226024E+02 -0.20821198533E+04  0.23612284010E+04  0.15294330000E+03 0.  0.
<mgrwt>
<rscale>  0 0.12396544E+04</rscale>
<asrwt>0</asrwt>
<pdfrwt beam="1">  1        2 0.43991430E+00 0.12847549E+04</pdfrwt>
<pdfrwt beam="2">  1       -2 0.12101132E+00 0.12847549E+04</pdfrwt>
<totfact> 0.10785689E+00</totfact>
</mgrwt>
</event>
<event>
 4    5  0.1184393E-007  0.1634090E+04  0.7818608E-02  0.8820329E-01
         -2   -1    0    0    0  501 -0.00000000000E+00  0.00000000000E+00  0.43623223799E+04  0.43623223799E+04  0.25500000000E-02 0.  1.
          2   -1    0    0  501    0  0.00000000000E+00 -0.00000000000E+00 -0.34883116452E+04  0.34883116452E+04  0.25500000000E-02 0. -1.
    8880023    1    1    2    0    0 -0.11239838564E+03 -0.14912435518E+04  0.40333955026E+04  0.43518421633E+04  0.65864270000E+03 0.  0.
    8880022    1    1    2    0    0  0.11239838564E+03  0.14912435518E+04 -0.31593847678E+04  0.34987918618E+04  0.15294330000E+03 0.  0.
<mgrwt>
<rscale>  0 0.16003558E+04</rscale>
<asrwt>0</asrwt>
<pdfrwt beam="1">  1        2 0.53666333E+00 0.16340902E+04</pdfrwt>
<pdfrwt beam="2">  1       -2 0.67112652E+00 0.16340902E+04</pdfrwt>
<totfact> 0.21361729E-04</totfact>
</mgrwt>
</event>
<event>
 4    5  0.8511149E-008  0.6848458E+03  0.7818608E-02  0.1006705E+00
         -2   -1    0    0    0  501 -0.00000000000E+00  0.00000000000E+00  0.43802870089E+03  0.43802870089E+03  0.25500000000E-02 0.  1.
          2   -1    0    0  501    0  0.00000000000E+00 -0.00000000000E+00 -0.10224979993E+04  0.10224979993E+04  0.25500000000E-02 0. -1.
    8880023    1    1    2    0    0  0.98978584474E-02 -0.18762614594E+03  0.13797590644E+03  0.69860656149E+03  0.65864270000E+03 0.  1.
    8880022    1    1    2    0    0 -0.98978584474E-02  0.18762614594E+03 -0.72244520484E+03  0.76192013870E+03  0.15294330000E+03 0.  0.
<mgrwt>
<rscale>  0 0.52805283E+03</rscale>
<asrwt>0</asrwt>
<pdfrwt beam="1">  1        2 0.15730738E+00 0.68484581E+03</pdfrwt>
<pdfrwt beam="2">  1       -2 0.67389031E-01 0.68484581E+03</pdfrwt>
<totfact> 0.50277287E+01</totfact>
</mgrwt>
</event>
<event>
 4    5  0.8511149E-008  0.1237701E+04  0.7818608E-02  0.9121318E-01
         -2   -1    0    0    0  501 -0.00000000000E+00  0.00000000000E+00  0.56428958036E+03  0.56428958037E+03  0.25500000000E-02 0.  1.
          2   -1    0    0  501    0  0.00000000000E+00 -0.00000000000E+00 -0.32132119918E+04  0.32132119918E+04  0.25500000000E-02 0. -1.
    8880023    1    1    2    0    0 -0.85718106370E+03  0.60277269855E+03 -0.41524984086E+03  0.13055025617E+04  0.65864270000E+03 0.  0.
    8880022    1    1    2    0    0  0.85718106370E+03 -0.60277269855E+03 -0.22336725706E+04  0.24719990104E+04  0.15294330000E+03 0.  0.
<mgrwt>
<rscale>  0 0.11903814E+04</rscale>
<asrwt>0</asrwt>
<pdfrwt beam="1">  1        2 0.49434030E+00 0.12377013E+04</pdfrwt>
<pdfrwt beam="2">  1       -2 0.86813783E-01 0.12377013E+04</pdfrwt>
<totfact> 0.14469662E+00</totfact>
</mgrwt>
</event>
<event>
 4    5  0.1055249E-007  0.1118072E+04  0.7818608E-02  0.9241197E-01
         -2   -1    0    0    0  501 -0.00000000000E+00  0.00000000000E+00  0.18130799993E+04  0.18130799993E+04  0.25500000000E-02 0.  1.
          2   -1    0    0  501    0  0.00000000000E+00 -0.00000000000E+00 -0.25870331350E+04  0.25870331350E+04  0.25500000000E-02 0. -1.
    8880023    1    1    2    0    0  0.73478447702E+03  0.52570575742E+03  0.15447465019E+04  0.19069155021E+04  0.65864270000E+03 0.  1.
    8880022    1    1    2    0    0 -0.73478447702E+03 -0.52570575742E+03 -0.23186996376E+04  0.24931976322E+04  0.15294330000E+03 0.  0.
<mgrwt>
<rscale>  0 0.10638139E+04</rscale>
<asrwt>0</asrwt>
<pdfrwt beam="1">  1        2 0.39800510E+00 0.11180720E+04</pdfrwt>
<pdfrwt beam="2">  1       -2 0.27893539E+00 0.11180720E+04</pdfrwt>
<totfact> 0.13166701E-01</totfact>
</mgrwt>
</event>
<event>
 4    5  0.8511149E-008  0.1344165E+04  0.7818608E-02  0.9028329E-01
         -2   -1    0    0    0  501 -0.00000000000E+00  0.00000000000E+00  0.21235746443E+04  0.21235746443E+04  0.25500000000E-02 0.  1.
          2   -1    0    0  501    0  0.00000000000E+00 -0.00000000000E+00 -0.95981545961E+03  0.95981545961E+03  0.25500000000E-02 0. -1.
    8880023    1    1    2    0    0 -0.52015032310E+03  0.10499580059E+04  0.13289677158E+04  0.18902205080E+04  0.65864270000E+03 0.  0.
    8880022    1    1    2    0    0  0.52015032310E+03 -0.10499580059E+04 -0.16520853114E+03  0.11931695959E+04  0.15294330000E+03 0.  0.
<mgrwt>
<rscale>  0 0.13015594E+04</rscale>
<asrwt>0</asrwt>
<pdfrwt beam="1">  1        2 0.14766392E+00 0.13441646E+04</pdfrwt>
<pdfrwt beam="2">  1       -2 0.32670379E+00 0.13441646E+04</pdfrwt>
<totfact> 0.56162254E-01</totfact>
</mgrwt>
</event>
<event>
 4    5  0.8511149E-008  0.7752615E+03  0.7818608E-02  0.9767088E-01
          2   -1    0    0  501    0  0.00000000000E+00  0.00000000000E+00  0.50271782959E+04  0.50271782959E+04  0.25500000000E-02 0. -1.
         -2   -1    0    0    0  501 -0.00000000000E+00 -0.00000000000E+00 -0.10606197942E+04  0.10606197942E+04  0.25500000000E-02 0.  1.
    8880023    1    1    2    0    0 -0.39524946691E+03 -0.10487162921E+03 -0.90787829969E+03  0.11938481532E+04  0.65864270000E+03 0.  1.
    8880022    1    1    2    0    0  0.39524946691E+03  0.10487162921E+03  0.48744368015E+04  0.48939499369E+04  0.15294330000E+03 0.  0.
<mgrwt>
<rscale>  0 0.67159106E+03</rscale>
<asrwt>0</asrwt>
<pdfrwt beam="1">  1        2 0.77341204E+00 0.77526151E+03</pdfrwt>
<pdfrwt beam="2">  1       -2 0.16317228E+00 0.77526151E+03</pdfrwt>
<totfact> 0.89350154E-03</totfact>
</mgrwt>
</event>
<event>
 4    5  0.8511149E-008  0.2099577E+04  0.7818608E-02  0.8572746E-01
          2   -1    0    0  501    0  0.00000000000E+00  0.00000000000E+00  0.31508622035E+04  0.31508622035E+04  0.25500000000E-02 0. -1.
         -2   -1    0    0    0  501 -0.00000000000E+00 -0.00000000000E+00 -0.14340359718E+04  0.14340359718E+04  0.25500000000E-02 0.  1.
    8880023    1    1    2    0    0  0.19580363080E+04  0.37484559896E+03  0.26997128793E+03  0.21168632712E+04  0.65864270000E+03 0.  1.
    8880022    1    1    2    0    0 -0.19580363080E+04 -0.37484559896E+03  0.14468549438E+04  0.24680349041E+04  0.15294330000E+03 0.  0.
<mgrwt>
<rscale>  0 0.20740855E+04</rscale>
<asrwt>0</asrwt>
<pdfrwt beam="1">  1        2 0.48474803E+00 0.20995775E+04</pdfrwt>
<pdfrwt beam="2">  1       -2 0.22062092E+00 0.20995775E+04</pdfrwt>
<totfact> 0.12065750E-01</totfact>
</mgrwt>
</event>
<event>
 4    5  0.8511149E-008  0.9046087E+03  0.7818608E-02  0.9518673E-01
         -2   -1    0    0    0  501 -0.00000000000E+00  0.00000000000E+00  0.56515362079E+03  0.56515362080E+03  0.25500000000E-02 0.  1.
          2   -1    0    0  501    0  0.00000000000E+00 -0.00000000000E+00 -0.11228510746E+04  0.11228510746E+04  0.25500000000E-02 0. -1.
    8880023    1    1    2    0    0  0.48540287409E+03  0.38586358143E+03 -0.53064760290E+03  0.10487629562E+04  0.65864270000E+03 0. -1.
    8880022    1    1    2    0    0 -0.48540287409E+03 -0.38586358143E+03 -0.27049850914E+02  0.63924173917E+03  0.15294330000E+03 0.  1.
<mgrwt>
<rscale>  0 0.82921004E+03</rscale>
<asrwt>0</asrwt>
<pdfrwt beam="1">  1        2 0.17274632E+00 0.90460868E+03</pdfrwt>
<pdfrwt beam="2">  1       -2 0.86946711E-01 0.90460868E+03</pdfrwt>
<totfact> 0.24203229E+01</totfact>
</mgrwt>
</event>
<event>
 4    5  0.8511149E-008  0.1047032E+04  0.7818608E-02  0.9322458E-01
          2   -1    0    0  501    0  0.00000000000E+00  0.00000000000E+00  0.12979387345E+04  0.12979387345E+04  0.25500000000E-02 0. -1.
         -2   -1    0    0    0  501 -0.00000000000E+00 -0.00000000000E+00 -0.12387483854E+04  0.12387483854E+04  0.25500000000E-02 0.  1.
    8880023    1    1    2    0    0 -0.14195809782E+03  0.80144414675E+03 -0.81921918549E+03  0.13294341285E+04  0.65864270000E+03 0.  0.
    8880022    1    1    2    0    0  0.14195809782E+03 -0.80144414675E+03  0.87840953461E+03  0.12072529915E+04  0.15294330000E+03 0.  0.
<mgrwt>
<rscale>  0 0.98741331E+03</rscale>
<asrwt>0</asrwt>
<pdfrwt beam="1">  1        2 0.19968288E+00 0.10470315E+04</pdfrwt>
<pdfrwt beam="2">  1       -2 0.19057667E+00 0.10470315E+04</pdfrwt>
<totfact> 0.25125220E+00</totfact>
</mgrwt>
</event>
<event>
 4    5  0.8511149E-008  0.1216225E+04  0.7818608E-02  0.9141510E-01
          2   -1    0    0  501    0  0.00000000000E+00  0.00000000000E+00  0.63361924120E+03  0.63361924120E+03  0.25500000000E-02 0. -1.
         -2   -1    0    0    0  501 -0.00000000000E+00 -0.00000000000E+00 -0.22153157145E+04  0.22153157145E+04  0.25500000000E-02 0.  1.
    8880023    1    1    2    0    0 -0.10165766639E+04  0.10938339474E+03 -0.12939596231E+04  0.17758194033E+04  0.65864270000E+03 0.  0.
    8880022    1    1    2    0    0  0.10165766639E+04 -0.10938339474E+03 -0.28773685011E+03  0.10731155523E+04  0.15294330000E+03 0.  0.
<mgrwt>
<rscale>  0 0.11678087E+04</rscale>
<asrwt>0</asrwt>
<pdfrwt beam="1">  1        2 0.97479885E-01 0.12162249E+04</pdfrwt>
<pdfrwt beam="2">  1       -2 0.34081780E+00 0.12162249E+04</pdfrwt>
<totfact> 0.81251146E-01</totfact>
</mgrwt>
</event>
<event>
 4    5  0.8511149E-008  0.6811294E+03  0.7818608E-02  0.1008692E+00
         -2   -1    0    0    0  501 -0.00000000000E+00  0.00000000000E+00  0.49788365944E+03  0.49788365944E+03  0.25500000000E-02 0.  1.
          2   -1    0    0  501    0  0.00000000000E+00 -0.00000000000E+00 -0.71921152666E+03  0.71921152667E+03  0.25500000000E-02 0. -1.
    8880023    1    1    2    0    0 -0.17054537996E+03  0.32270450368E+02  0.22253652853E+03  0.71656110792E+03  0.65864270000E+03 0.  1.
    8880022    1    1    2    0    0  0.17054537996E+03 -0.32270450368E+02 -0.44386439576E+03  0.50053407819E+03  0.15294330000E+03 0.  0.
<mgrwt>
<rscale>  0 0.51997863E+03</rscale>
<asrwt>0</asrwt>
<pdfrwt beam="1">  1        2 0.11064793E+00 0.68112944E+03</pdfrwt>
<pdfrwt beam="2">  1       -2 0.76597486E-01 0.68112944E+03</pdfrwt>
<totfact> 0.61403807E+01</totfact>
</mgrwt>
</event>
<event>
 4    5  0.8511149E-008  0.7694254E+03  0.7818608E-02  0.9781290E-01
          2   -1    0    0  501    0  0.00000000000E+00  0.00000000000E+00  0.26905366736E+03  0.26905366737E+03  0.25500000000E-02 0. -1.
         -2   -1    0    0    0  501 -0.00000000000E+00 -0.00000000000E+00 -0.13373982384E+04  0.13373982384E+04  0.25500000000E-02 0.  1.
    8880023    1    1    2    0    0  0.39680401416E+03  0.27419160559E+02 -0.75046946221E+03  0.10748115444E+04  0.65864270000E+03 0.  0.
    8880022    1    1    2    0    0 -0.39680401416E+03 -0.27419160559E+02 -0.31787510886E+03  0.53164036139E+03  0.15294330000E+03 0.  1.
<mgrwt>
<rscale>  0 0.66376361E+03</rscale>
<asrwt>0</asrwt>
<pdfrwt beam="1">  1        2 0.41392873E-01 0.76942540E+03</pdfrwt>
<pdfrwt beam="2">  1       -2 0.20575357E+00 0.76942540E+03</pdfrwt>
<totfact> 0.15367898E+01</totfact>
</mgrwt>
</event>
<event>
 4    5  0.8511149E-008  0.8787740E+03  0.7818608E-02  0.9561003E-01
          2   -1    0    0  501    0  0.00000000000E+00  0.00000000000E+00  0.12038416820E+04  0.12038416820E+04  0.25500000000E-02 0. -1.
         -2   -1    0    0    0  501 -0.00000000000E+00 -0.00000000000E+00 -0.16840436827E+04  0.16840436827E+04  0.25500000000E-02 0.  1.
    8880023    1    1    2    0    0  0.47371423879E+03 -0.33768084117E+03 -0.14799141368E+04  0.17211593735E+04  0.65864270000E+03 0.  0.
    8880022    1    1    2    0    0 -0.47371423879E+03  0.33768084117E+03  0.99971213609E+03  0.11667259912E+04  0.15294330000E+03 0.  0.
<mgrwt>
<rscale>  0 0.79931920E+03</rscale>
<asrwt>0</asrwt>
<pdfrwt beam="1">  1        2 0.18520641E+00 0.87877400E+03</pdfrwt>
<pdfrwt beam="2">  1       -2 0.25908364E+00 0.87877400E+03</pdfrwt>
<totfact> 0.10820928E+00</totfact>
</mgrwt>
</event>
<event>
 4    5  0.8511149E-008  0.9441738E+03  0.7818608E-02  0.9458547E-01
         -2   -1    0    0    0  501 -0.00000000000E+00  0.00000000000E+00  0.52952700977E+03  0.52952700978E+03  0.25500000000E-02 0.  1.
          2   -1    0    0  501    0  0.00000000000E+00 -0.00000000000E+00 -0.14807956547E+04  0.14807956547E+04  0.25500000000E-02 0. -1.
    8880023    1    1    2    0    0 -0.59151313333E+03  0.32827761445E+03 -0.91655665552E+03  0.13158800432E+04  0.65864270000E+03 0. -1.
    8880022    1    1    2    0    0  0.59151313333E+03 -0.32827761445E+03 -0.34711989435E+02  0.69444262130E+03  0.15294330000E+03 0.  0.
<mgrwt>
<rscale>  0 0.87410227E+03</rscale>
<asrwt>0</asrwt>
<pdfrwt beam="1">  1        2 0.22781472E+00 0.94417381E+03</pdfrwt>
<pdfrwt beam="2">  1       -2 0.81465694E-01 0.94417381E+03</pdfrwt>
<totfact> 0.17306903E+01</totfact>
</mgrwt>
</event>
<event>
 4    5  0.8511149E-008  0.1180472E+04  0.7818608E-02  0.9176343E-01
          2   -1    0    0  501    0  0.00000000000E+00  0.00000000000E+00  0.14630103146E+04  0.14630103146E+04  0.25500000000E-02 0. -1.
         -2   -1    0    0    0  501 -0.00000000000E+00 -0.00000000000E+00 -0.10046014313E+04  0.10046014313E+04  0.25500000000E-02 0.  1.
    8880023    1    1    2    0    0 -0.80869540232E+03  0.55291498457E+03  0.79193839620E+03  0.14215061954E+04  0.65864270000E+03 0.  0.
    8880022    1    1    2    0    0  0.80869540232E+03 -0.55291498457E+03 -0.33352951286E+03  0.10461055505E+04  0.15294330000E+03 0.  0.
<mgrwt>
<rscale>  0 0.11300980E+04</rscale>
<asrwt>0</asrwt>
<pdfrwt beam="1">  1        2 0.22507851E+00 0.11804717E+04</pdfrwt>
<pdfrwt beam="2">  1       -2 0.15455407E+00 0.11804717E+04</pdfrwt>
<totfact> 0.35880373E+00</totfact>
</mgrwt>
</event>
<event>
 4    5  0.8511149E-008  0.8075615E+03  0.7818608E-02  0.9694679E-01
         -2   -1    0    0    0  501 -0.00000000000E+00  0.00000000000E+00  0.17536792839E+04  0.17536792840E+04  0.25500000000E-02 0.  1.
          2   -1    0    0  501    0  0.00000000000E+00 -0.00000000000E+00 -0.12283546898E+04  0.12283546898E+04  0.25500000000E-02 0. -1.
    8880023    1    1    2    0    0 -0.37487236885E+03  0.27895525664E+03  0.16044266603E+04  0.17962016710E+04  0.65864270000E+03 0.  0.
    8880022    1    1    2    0    0  0.37487236885E+03 -0.27895525664E+03 -0.10791020661E+04  0.11858323028E+04  0.15294330000E+03 0.  0.
<mgrwt>
<rscale>  0 0.71334493E+03</rscale>
<asrwt>0</asrwt>
<pdfrwt beam="1">  1        2 0.18897765E+00 0.80756147E+03</pdfrwt>
<pdfrwt beam="2">  1       -2 0.26979681E+00 0.80756147E+03</pdfrwt>
<totfact> 0.91290553E-01</totfact>
</mgrwt>
</event>
<event>
 4    5  0.8511149E-008  0.1189746E+04  0.7818608E-02  0.9167155E-01
          2   -1    0    0  501    0  0.00000000000E+00  0.00000000000E+00  0.17228901864E+04  0.17228901864E+04  0.25500000000E-02 0. -1.
         -2   -1    0    0    0  501 -0.00000000000E+00 -0.00000000000E+00 -0.12376491900E+04  0.12376491900E+04  0.25500000000E-02 0.  1.
    8880023    1    1    2    0    0  0.11462812978E+03 -0.98414678562E+03 -0.72170473395E+03  0.13915288114E+04  0.65864270000E+03 0.  0.
    8880022    1    1    2    0    0 -0.11462812978E+03  0.98414678562E+03  0.12069457304E+04  0.15690105649E+04  0.15294330000E+03 0. -1.
<mgrwt>
<rscale>  0 0.11398966E+04</rscale>
<asrwt>0</asrwt>
<pdfrwt beam="1">  1        2 0.26506003E+00 0.11897456E+04</pdfrwt>
<pdfrwt beam="2">  1       -2 0.19040757E+00 0.11897456E+04</pdfrwt>
<totfact> 0.14250236E+00</totfact>
</mgrwt>
</event>
<event>
 4    5  0.9774438E-008  0.1281572E+04  0.7818608E-02  0.9081639E-01
         -2   -1    0    0    0  501 -0.00000000000E+00  0.00000000000E+00  0.10139357495E+04  0.10139357495E+04  0.25500000000E-02 0.  1.
          2   -1    0    0  501    0  0.00000000000E+00 -0.00000000000E+00 -0.32073700082E+04  0.32073700082E+04  0.25500000000E-02 0. -1.
    8880023    1    1    2    0    0  0.11135328321E+03  0.10937169034E+04  0.44681677043E+03  0.13572294025E+04  0.65864270000E+03 0.  1.
    8880022    1    1    2    0    0 -0.11135328321E+03 -0.10937169034E+04 -0.26402510291E+04  0.28640763552E+04  0.15294330000E+03 0.  0.
<mgrwt>
<rscale>  0 0.12363286E+04</rscale>
<asrwt>0</asrwt>
<pdfrwt beam="1">  1        2 0.49344154E+00 0.12815719E+04</pdfrwt>
<pdfrwt beam="2">  1       -2 0.15599012E+00 0.12815719E+04</pdfrwt>
<totfact> 0.33787950E-01</totfact>
</mgrwt>
</event>
<event>
 4    5  0.8511149E-008  0.9593207E+03  0.7818608E-02  0.9436829E-01
          2   -1    0    0  501    0  0.00000000000E+00  0.00000000000E+00  0.19800517223E+04  0.19800517223E+04  0.25500000000E-02 0. -1.
         -2   -1    0    0    0  501 -0.00000000000E+00 -0.00000000000E+00 -0.11411314125E+04  0.11411314125E+04  0.25500000000E-02 0.  1.
    8880023    1    1    2    0    0 -0.23349749264E+03  0.65724038284E+03 -0.85365978431E+03  0.12841461107E+04  0.65864270000E+03 0.  1.
    8880022    1    1    2    0    0  0.23349749264E+03 -0.65724038284E+03  0.16925800941E+04  0.18370370241E+04  0.15294330000E+03 0.  0.
<mgrwt>
<rscale>  0 0.89105828E+03</rscale>
<asrwt>0</asrwt>
<pdfrwt beam="1">  1        2 0.30462334E+00 0.95932070E+03</pdfrwt>
<pdfrwt beam="2">  1       -2 0.17555868E+00 0.95932070E+03</pdfrwt>
<totfact> 0.13391632E+00</totfact>
</mgrwt>
</event>
<event>
 4    5  0.8511149E-008  0.7169603E+03  0.7818608E-02  0.9933009E-01
         -2   -1    0    0    0  501 -0.00000000000E+00  0.00000000000E+00  0.73446205636E+03  0.73446205636E+03  0.25500000000E-02 0.  1.
          2   -1    0    0  501    0  0.00000000000E+00 -0.00000000000E+00 -0.59710913849E+03  0.59710913850E+03  0.25500000000E-02 0. -1.
    8880023    1    1    2    0    0 -0.19420321593E+03  0.20617231888E+03  0.47893952292E+03  0.86221527882E+03  0.65864270000E+03 0.  1.
    8880022    1    1    2    0    0  0.19420321593E+03 -0.20617231888E+03 -0.34158660506E+03  0.46935591604E+03  0.15294330000E+03 0.  0.
<mgrwt>
<rscale>  0 0.58687880E+03</rscale>
<asrwt>0</asrwt>
<pdfrwt beam="1">  1        2 0.91862944E-01 0.71696033E+03</pdfrwt>
<pdfrwt beam="2">  1       -2 0.11299416E+00 0.71696033E+03</pdfrwt>
<totfact> 0.31181973E+01</totfact>
</mgrwt>
</event>
<event>
 4    5  0.8511149E-008  0.9534451E+03  0.7818608E-02  0.9445175E-01
         -2   -1    0    0    0  501 -0.00000000000E+00  0.00000000000E+00  0.70381518472E+03  0.70381518473E+03  0.25500000000E-02 0.  1.
          2   -1    0    0  501    0  0.00000000000E+00 -0.00000000000E+00 -0.18090868427E+04  0.18090868427E+04  0.25500000000E-02 0. -1.
    8880023    1    1    2    0    0 -0.68874299829E+03 -0.29671164521E+02  0.24914407125E+03  0.98545942088E+03  0.65864270000E+03 0.  0.
    8880022    1    1    2    0    0  0.68874299829E+03  0.29671164521E+02 -0.13544157292E+04  0.15274426065E+04  0.15294330000E+03 0.  0.
<mgrwt>
<rscale>  0 0.88449429E+03</rscale>
<asrwt>0</asrwt>
<pdfrwt beam="1">  1        2 0.27832105E+00 0.95344507E+03</pdfrwt>
<pdfrwt beam="2">  1       -2 0.10827926E+00 0.95344507E+03</pdfrwt>
<totfact> 0.58398412E+00</totfact>
</mgrwt>
</event>
<event>
 4    5  0.8511149E-008  0.8694577E+03  0.7818608E-02  0.9576956E-01
          2   -1    0    0  501    0  0.00000000000E+00  0.00000000000E+00  0.16006915436E+04  0.16006915436E+04  0.25500000000E-02 0. -1.
         -2   -1    0    0    0  501 -0.00000000000E+00 -0.00000000000E+00 -0.47288257637E+03  0.47288257637E+03  0.25500000000E-02 0.  1.
    8880023    1    1    2    0    0 -0.50831622761E+03 -0.25250967951E+03  0.81269183132E+02  0.87324762347E+03  0.65864270000E+03 0.  1.
    8880022    1    1    2    0    0  0.50831622761E+03  0.25250967951E+03  0.10465397841E+04  0.12003264965E+04  0.15294330000E+03 0.  0.
<mgrwt>
<rscale>  0 0.78840316E+03</rscale>
<asrwt>0</asrwt>
<pdfrwt beam="1">  1        2 0.24626023E+00 0.86945772E+03</pdfrwt>
<pdfrwt beam="2">  1       -2 0.72751167E-01 0.86945772E+03</pdfrwt>
<totfact> 0.19252285E+01</totfact>
</mgrwt>
</event>
<event>
 4    5  0.8511149E-008  0.8985944E+03  0.7818608E-02  0.9528292E-01
          2   -1    0    0  501    0  0.00000000000E+00  0.00000000000E+00  0.21553034116E+04  0.21553034116E+04  0.25500000000E-02 0. -1.
         -2   -1    0    0    0  501 -0.00000000000E+00 -0.00000000000E+00 -0.44620228395E+03  0.44620228395E+03  0.25500000000E-02 0.  1.
    8880023    1    1    2    0    0 -0.57874890297E+03 -0.19675209161E+03  0.13848489464E+03  0.90920292044E+03  0.65864270000E+03 0.  1.
    8880022    1    1    2    0    0  0.57874890297E+03  0.19675209161E+03  0.15706162330E+04  0.16923027751E+04  0.15294330000E+03 0.  0.
<mgrwt>
<rscale>  0 0.82229734E+03</rscale>
<asrwt>0</asrwt>
<pdfrwt beam="1">  1        2 0.33158514E+00 0.89859439E+03</pdfrwt>
<pdfrwt beam="2">  1       -2 0.68646505E-01 0.89859439E+03</pdfrwt>
<totfact> 0.10800721E+01</totfact>
</mgrwt>
</event>
<event>
 4    5  0.8511149E-008  0.8695630E+03  0.7818608E-02  0.9576774E-01
         -2   -1    0    0    0  501 -0.00000000000E+00  0.00000000000E+00  0.99235101479E+03  0.99235101479E+03  0.25500000000E-02 0.  1.
          2   -1    0    0  501    0  0.00000000000E+00 -0.00000000000E+00 -0.99721046299E+03  0.99721046300E+03  0.25500000000E-02 0. -1.
    8880023    1    1    2    0    0  0.56608575705E+03  0.43318216077E+02  0.66761197940E+03  0.10962871492E+04  0.65864270000E+03 0.  0.
    8880022    1    1    2    0    0 -0.56608575705E+03 -0.43318216077E+02 -0.67247142760E+03  0.89327432860E+03  0.15294330000E+03 0.  0.
<mgrwt>
<rscale>  0 0.78852693E+03</rscale>
<asrwt>0</asrwt>
<pdfrwt beam="1">  1        2 0.15341699E+00 0.86956297E+03</pdfrwt>
<pdfrwt beam="2">  1       -2 0.15266939E+00 0.86956297E+03</pdfrwt>
<totfact> 0.72624620E+00</totfact>
</mgrwt>
</event>
<event>
 4    5  0.8511149E-008  0.6822829E+03  0.7818608E-02  0.1008061E+00
         -2   -1    0    0    0  501 -0.00000000000E+00  0.00000000000E+00  0.60999535282E+03  0.60999535282E+03  0.25500000000E-02 0.  1.
          2   -1    0    0  501    0  0.00000000000E+00 -0.00000000000E+00 -0.13144428050E+04  0.13144428050E+04  0.25500000000E-02 0. -1.
    8880023    1    1    2    0    0  0.11584552621E+03 -0.13520177935E+03  0.40298483549E+03  0.79240563538E+03  0.65864270000E+03 0.  1.
    8880022    1    1    2    0    0 -0.11584552621E+03  0.13520177935E+03 -0.11074322877E+04  0.11320325225E+04  0.15294330000E+03 0.  0.
<mgrwt>
<rscale>  0 0.52252706E+03</rscale>
<asrwt>0</asrwt>
<pdfrwt beam="1">  1        2 0.20222197E+00 0.68228287E+03</pdfrwt>
<pdfrwt beam="2">  1       -2 0.93845439E-01 0.68228287E+03</pdfrwt>
<totfact> 0.16013329E+01</totfact>
</mgrwt>
</event>
<event>
 4    5  0.8511149E-008  0.1026707E+04  0.7818608E-02  0.9347422E-01
         -2   -1    0    0    0  501 -0.00000000000E+00  0.00000000000E+00  0.10498552391E+04  0.10498552391E+04  0.25500000000E-02 0.  1.
          2   -1    0    0  501    0  0.00000000000E+00 -0.00000000000E+00 -0.13853258818E+04  0.13853258818E+04  0.25500000000E-02 0. -1.
    8880023    1    1    2    0    0 -0.46582618433E+03  0.63507722807E+03  0.61072553695E+03  0.11946183522E+04  0.65864270000E+03 0.  0.
    8880022    1    1    2    0    0  0.46582618433E+03 -0.63507722807E+03 -0.94619617973E+03  0.12405627687E+04  0.15294330000E+03 0.  0.
<mgrwt>
<rscale>  0 0.96531950E+03</rscale>
<asrwt>0</asrwt>
<pdfrwt beam="1">  1        2 0.21312706E+00 0.10267070E+04</pdfrwt>
<pdfrwt beam="2">  1       -2 0.16151619E+00 0.10267070E+04</pdfrwt>
<totfact> 0.35816558E+00</totfact>
</mgrwt>
</event>
<event>
 4    5  0.8511149E-008  0.6672618E+03  0.7818608E-02  0.1017707E+00
         -2   -1    0    0    0  501 -0.00000000000E+00  0.00000000000E+00  0.43247352427E+03  0.43247352428E+03  0.25500000000E-02 0.  1.
          2   -1    0    0  501    0  0.00000000000E+00 -0.00000000000E+00 -0.13246357746E+04  0.13246357746E+04  0.25500000000E-02 0. -1.
    8880023    1    1    2    0    0 -0.26543509985E+02 -0.10355428101E+03  0.16192907952E+03  0.68662892460E+03  0.65864270000E+03 0.  1.
    8880022    1    1    2    0    0  0.26543509985E+02  0.10355428101E+03 -0.10540913298E+04  0.10704803743E+04  0.15294330000E+03 0.  0.
<mgrwt>
<rscale>  0 0.48523297E+03</rscale>
<asrwt>0</asrwt>
<pdfrwt beam="1">  1        2 0.20379012E+00 0.66726176E+03</pdfrwt>
<pdfrwt beam="2">  1       -2 0.66534389E-01 0.66726176E+03</pdfrwt>
<totfact> 0.34193278E+01</totfact>
</mgrwt>
</event>
<event>
 4    5  0.8511149E-008  0.1278318E+04  0.7818608E-02  0.9084513E-01
          2   -1    0    0  501    0  0.00000000000E+00  0.00000000000E+00  0.38626522120E+04  0.38626522120E+04  0.25500000000E-02 0. -1.
         -2   -1    0    0    0  501 -0.00000000000E+00 -0.00000000000E+00 -0.40446391995E+03  0.40446391996E+03  0.25500000000E-02 0.  1.
    8880023    1    1    2    0    0 -0.65532383524E+02 -0.10936145027E+04  0.12036181357E+04  0.17557887107E+04  0.65864270000E+03 0.  0.
    8880022    1    1    2    0    0  0.65532383524E+02  0.10936145027E+04  0.22545701563E+04  0.25113274212E+04  0.15294330000E+03 0.  0.
<mgrwt>
<rscale>  0 0.12329278E+04</rscale>
<asrwt>0</asrwt>
<pdfrwt beam="1">  1        2 0.59425416E+00 0.12783182E+04</pdfrwt>
<pdfrwt beam="2">  1       -2 0.62225221E-01 0.12783182E+04</pdfrwt>
<totfact> 0.10579869E+00</totfact>
</mgrwt>
</event>
<event>
 4    5  0.8511149E-008  0.9706787E+03  0.7818608E-02  0.9420966E-01
         -2   -1    0    0    0  501 -0.00000000000E+00  0.00000000000E+00  0.15209856948E+04  0.15209856948E+04  0.25500000000E-02 0.  1.
          2   -1    0    0  501    0  0.00000000000E+00 -0.00000000000E+00 -0.69922840927E+03  0.69922840928E+03  0.25500000000E-02 0. -1.
    8880023    1    1    2    0    0 -0.68182995061E+03 -0.20860190704E+03  0.10748653712E+04  0.14482929986E+04  0.65864270000E+03 0.  1.
    8880022    1    1    2    0    0  0.68182995061E+03  0.20860190704E+03 -0.25310808566E+03  0.77192110556E+03  0.15294330000E+03 0.  0.
<mgrwt>
<rscale>  0 0.90370148E+03</rscale>
<asrwt>0</asrwt>
<pdfrwt beam="1">  1        2 0.10757360E+00 0.97067865E+03</pdfrwt>
<pdfrwt beam="2">  1       -2 0.23399780E+00 0.97067865E+03</pdfrwt>
<totfact> 0.33102256E+00</totfact>
</mgrwt>
</event>
<event>
 4    5  0.8511149E-008  0.8579663E+03  0.7818608E-02  0.9597191E-01
          2   -1    0    0  501    0  0.00000000000E+00  0.00000000000E+00  0.27013662657E+04  0.27013662657E+04  0.25500000000E-02 0. -1.
         -2   -1    0    0    0  501 -0.00000000000E+00 -0.00000000000E+00 -0.76152111073E+03  0.76152111073E+03  0.25500000000E-02 0.  1.
    8880023    1    1    2    0    0 -0.12376493045E+02  0.54967522883E+03 -0.47557958460E+03  0.98095982707E+03  0.65864270000E+03 0.  1.
    8880022    1    1    2    0    0  0.12376493045E+02 -0.54967522883E+03  0.24154247395E+04  0.24819275493E+04  0.15294330000E+03 0.  0.
<mgrwt>
<rscale>  0 0.77482363E+03</rscale>
<asrwt>0</asrwt>
<pdfrwt beam="1">  1        2 0.41559481E+00 0.85796634E+03</pdfrwt>
<pdfrwt beam="2">  1       -2 0.11715709E+00 0.85796634E+03</pdfrwt>
<totfact> 0.15463428E+00</totfact>
</mgrwt>
</event>
<event>
 4    5  0.8511149E-008  0.6968699E+03  0.7818608E-02  0.1001044E+00
          2   -1    0    0  501    0  0.00000000000E+00  0.00000000000E+00  0.35696018192E+04  0.35696018192E+04  0.25500000000E-02 0. -1.
         -2   -1    0    0    0  501 -0.00000000000E+00 -0.00000000000E+00 -0.17633724934E+03  0.17633724936E+03  0.25500000000E-02 0.  1.
    8880023    1    1    2    0    0 -0.20976429925E+02 -0.22666606479E+03  0.54545964591E+03  0.88495985622E+03  0.65864270000E+03 0.  0.
    8880022    1    1    2    0    0  0.20976429925E+02  0.22666606479E+03  0.28478049240E+04  0.28609792124E+04  0.15294330000E+03 0.  0.
<mgrwt>
<rscale>  0 0.55194735E+03</rscale>
<asrwt>0</asrwt>
<pdfrwt beam="1">  1        2 0.54916949E+00 0.69686995E+03</pdfrwt>
<pdfrwt beam="2">  1       -2 0.27128809E-01 0.69686995E+03</pdfrwt>
<totfact> 0.98093880E+00</totfact>
</mgrwt>
</event>
<event>
 4    5  0.8511149E-008  0.7172129E+03  0.7818608E-02  0.9932132E-01
         -2   -1    0    0    0  501 -0.00000000000E+00  0.00000000000E+00  0.83524320835E+03  0.83524320836E+03  0.25500000000E-02 0.  1.
          2   -1    0    0  501    0  0.00000000000E+00 -0.00000000000E+00 -0.27546051082E+04  0.27546051082E+04  0.25500000000E-02 0. -1.
    8880023    1    1    2    0    0  0.67312896425E+02 -0.27577720419E+03  0.66940925017E+03  0.98107239430E+03  0.65864270000E+03 0.  1.
    8880022    1    1    2    0    0 -0.67312896425E+02  0.27577720419E+03 -0.25887711500E+04  0.26087759222E+04  0.15294330000E+03 0.  0.
<mgrwt>
<rscale>  0 0.58728994E+03</rscale>
<asrwt>0</asrwt>
<pdfrwt beam="1">  1        2 0.42378540E+00 0.71721287E+03</pdfrwt>
<pdfrwt beam="2">  1       -2 0.12849896E+00 0.71721287E+03</pdfrwt>
<totfact> 0.11757130E+00</totfact>
</mgrwt>
</event>
<event>
 4    5  0.8511149E-008  0.1134926E+04  0.7818608E-02  0.9223132E-01
         -2   -1    0    0    0  501 -0.00000000000E+00  0.00000000000E+00  0.22795919639E+04  0.22795919639E+04  0.25500000000E-02 0.  1.
          2   -1    0    0  501    0  0.00000000000E+00 -0.00000000000E+00 -0.76133807432E+03  0.76133807433E+03  0.25500000000E-02 0. -1.
    8880023    1    1    2    0    0 -0.71292534057E+03  0.58820399042E+03  0.17407532550E+04  0.20780468178E+04  0.65864270000E+03 0.  0.
    8880022    1    1    2    0    0  0.71292534057E+03 -0.58820399042E+03 -0.22249936549E+03  0.96288322045E+03  0.15294330000E+03 0.  0.
<mgrwt>
<rscale>  0 0.10817827E+04</rscale>
<asrwt>0</asrwt>
<pdfrwt beam="1">  1        2 0.11712893E+00 0.11349258E+04</pdfrwt>
<pdfrwt beam="2">  1       -2 0.35070646E+00 0.11349258E+04</pdfrwt>
<totfact> 0.56282465E-01</totfact>
</mgrwt>
</event>
<event>
 4    5  0.8511149E-008  0.8010882E+03  0.7818608E-02  0.9708448E-01
         -2   -1    0    0    0  501 -0.00000000000E+00  0.00000000000E+00  0.31302151502E+03  0.31302151503E+03  0.25500000000E-02 0.  1.
          2   -1    0    0  501    0  0.00000000000E+00 -0.00000000000E+00 -0.19975058489E+04  0.19975058489E+04  0.25500000000E-02 0. -1.
    8880023    1    1    2    0    0 -0.44029300679E+03  0.11863488900E+03 -0.31804400365E+03  0.86191319936E+03  0.65864270000E+03 0.  0.
    8880022    1    1    2    0    0  0.44029300679E+03 -0.11863488900E+03 -0.13664403302E+04  0.14486141646E+04  0.15294330000E+03 0.  0.
<mgrwt>
<rscale>  0 0.70516023E+03</rscale>
<asrwt>0</asrwt>
<pdfrwt beam="1">  1        2 0.30730859E+00 0.80108824E+03</pdfrwt>
<pdfrwt beam="2">  1       -2 0.48157157E-01 0.80108824E+03</pdfrwt>
<totfact> 0.28093540E+01</totfact>
</mgrwt>
</event>
<event>
 4    5  0.8511149E-008  0.1039360E+04  0.7818608E-02  0.9331783E-01
          2   -1    0    0  501    0  0.00000000000E+00  0.00000000000E+00  0.21851278728E+04  0.21851278728E+04  0.25500000000E-02 0. -1.
         -2   -1    0    0    0  501 -0.00000000000E+00 -0.00000000000E+00 -0.87105204114E+03  0.87105204114E+03  0.25500000000E-02 0.  1.
    8880023    1    1    2    0    0 -0.18827597035E+03 -0.78167204828E+03 -0.43373722715E+03  0.11262314241E+04  0.65864270000E+03 0.  1.
    8880022    1    1    2    0    0  0.18827597035E+03  0.78167204828E+03  0.17478130589E+04  0.19299484899E+04  0.15294330000E+03 0.  0.
<mgrwt>
<rscale>  0 0.97908806E+03</rscale>
<asrwt>0</asrwt>
<pdfrwt beam="1">  1        2 0.33617352E+00 0.10393600E+04</pdfrwt>
<pdfrwt beam="2">  1       -2 0.13400801E+00 0.10393600E+04</pdfrwt>
<totfact> 0.21068854E+00</totfact>
</mgrwt>
</event>
<event>
 4    5  0.8511149E-008  0.6919621E+03  0.7818608E-02  0.1003234E+00
         -2   -1    0    0    0  501 -0.00000000000E+00  0.00000000000E+00  0.51200313101E+03  0.51200313101E+03  0.25500000000E-02 0.  1.
          2   -1    0    0  501    0  0.00000000000E+00 -0.00000000000E+00 -0.16961178209E+04  0.16961178209E+04  0.25500000000E-02 0. -1.
    8880023    1    1    2    0    0 -0.19465752634E+03 -0.84319225574E+02  0.26098844747E+03  0.73954476561E+03  0.65864270000E+03 0.  1.
    8880022    1    1    2    0    0  0.19465752634E+03  0.84319225574E+02 -0.14451031374E+04  0.14685761863E+04  0.15294330000E+03 0.  0.
<mgrwt>
<rscale>  0 0.54254794E+03</rscale>
<asrwt>0</asrwt>
<pdfrwt beam="1">  1        2 0.26094120E+00 0.69196206E+03</pdfrwt>
<pdfrwt beam="2">  1       -2 0.78769713E-01 0.69196206E+03</pdfrwt>
<totfact> 0.14622458E+01</totfact>
</mgrwt>
</event>
<event>
 4    5  0.8511149E-008  0.9529501E+03  0.7818608E-02  0.9445882E-01
          2   -1    0    0  501    0  0.00000000000E+00  0.00000000000E+00  0.16675456359E+04  0.16675456359E+04  0.25500000000E-02 0. -1.
         -2   -1    0    0    0  501 -0.00000000000E+00 -0.00000000000E+00 -0.10391356058E+04  0.10391356058E+04  0.25500000000E-02 0.  1.
    8880023    1    1    2    0    0  0.58248836684E+02 -0.68622937163E+03 -0.71361275537E+03  0.11905280544E+04  0.65864270000E+03 0.  0.
    8880022    1    1    2    0    0 -0.58248836684E+02  0.68622937163E+03  0.13420227854E+04  0.15161531872E+04  0.15294330000E+03 0.  0.
<mgrwt>
<rscale>  0 0.88394056E+03</rscale>
<asrwt>0</asrwt>
<pdfrwt beam="1">  1        2 0.25654548E+00 0.95295010E+03</pdfrwt>
<pdfrwt beam="2">  1       -2 0.15986702E+00 0.95295010E+03</pdfrwt>
<totfact> 0.25810607E+00</totfact>
</mgrwt>
</event>
<event>
 4    5  0.8511149E-008  0.9126402E+03  0.7818608E-02  0.9506037E-01
         -2   -1    0    0    0  501 -0.00000000000E+00  0.00000000000E+00  0.36534069881E+03  0.36534069882E+03  0.25500000000E-02 0.  1.
          2   -1    0    0  501    0  0.00000000000E+00 -0.00000000000E+00 -0.21206783579E+04  0.21206783579E+04  0.25500000000E-02 0. -1.
    8880023    1    1    2    0    0  0.54575182338E+03  0.31820889532E+03 -0.42787547753E+03  0.10079630868E+04  0.65864270000E+03 0.  1.
    8880022    1    1    2    0    0 -0.54575182338E+03 -0.31820889532E+03 -0.13274621815E+04  0.14780559699E+04  0.15294330000E+03 0.  0.
<mgrwt>
<rscale>  0 0.83840183E+03</rscale>
<asrwt>0</asrwt>
<pdfrwt beam="1">  1        2 0.32625820E+00 0.91264021E+03</pdfrwt>
<pdfrwt beam="2">  1       -2 0.56206263E-01 0.91264021E+03</pdfrwt>
<totfact> 0.17262582E+01</totfact>
</mgrwt>
</event>
<event>
 4    5  0.8511149E-008  0.9060527E+03  0.7818608E-02  0.9516384E-01
          2   -1    0    0  501    0  0.00000000000E+00  0.00000000000E+00  0.10959955893E+04  0.10959955893E+04  0.25500000000E-02 0. -1.
         -2   -1    0    0    0  501 -0.00000000000E+00 -0.00000000000E+00 -0.82108851453E+03  0.82108851454E+03  0.25500000000E-02 0.  1.
    8880023    1    1    2    0    0  0.60217870279E+03  0.15653163240E+03 -0.39650874710E+03  0.98901503266E+03  0.65864270000E+03 0.  0.
    8880022    1    1    2    0    0 -0.60217870279E+03 -0.15653163240E+03  0.67141582190E+03  0.92806907122E+03  0.15294330000E+03 0.  0.
<mgrwt>
<rscale>  0 0.83086596E+03</rscale>
<asrwt>0</asrwt>
<pdfrwt beam="1">  1        2 0.16861471E+00 0.90605273E+03</pdfrwt>
<pdfrwt beam="2">  1       -2 0.12632131E+00 0.90605273E+03</pdfrwt>
<totfact> 0.10242828E+01</totfact>
</mgrwt>
</event>
<event>
 4    5  0.8511149E-008  0.1348029E+04  0.7818608E-02  0.9025156E-01
         -2   -1    0    0    0  501 -0.00000000000E+00  0.00000000000E+00  0.92773286730E+03  0.92773286730E+03  0.25500000000E-02 0.  1.
          2   -1    0    0  501    0  0.00000000000E+00 -0.00000000000E+00 -0.22375615694E+04  0.22375615694E+04  0.25500000000E-02 0. -1.
    8880023    1    1    2    0    0  0.55247616067E+03 -0.10383357041E+04  0.64948223182E+02  0.13495923164E+04  0.65864270000E+03 0.  1.
    8880022    1    1    2    0    0 -0.55247616067E+03  0.10383357041E+04 -0.13747769252E+04  0.18157021203E+04  0.15294330000E+03 0.  0.
<mgrwt>
<rscale>  0 0.13055753E+04</rscale>
<asrwt>0</asrwt>
<pdfrwt beam="1">  1        2 0.34424024E+00 0.13480286E+04</pdfrwt>
<pdfrwt beam="2">  1       -2 0.14272813E+00 0.13480286E+04</pdfrwt>
<totfact> 0.16120824E+00</totfact>
</mgrwt>
</event>
<event>
 4    5  0.8511149E-008  0.9900096E+03  0.7818608E-02  0.9394746E-01
         -2   -1    0    0    0  501 -0.00000000000E+00  0.00000000000E+00  0.72130671634E+03  0.72130671634E+03  0.25500000000E-02 0.  1.
          2   -1    0    0  501    0  0.00000000000E+00 -0.00000000000E+00 -0.23595654585E+04  0.23595654585E+04  0.25500000000E-02 0. -1.
    8880023    1    1    2    0    0  0.73823005144E+03 -0.36402481542E+02 -0.20091964914E+04  0.22398637229E+04  0.65864270000E+03 0. -1.
    8880022    1    1    2    0    0 -0.73823005144E+03  0.36402481542E+02  0.37093774925E+03  0.84100845201E+03  0.15294330000E+03 0.  0.
<mgrwt>
<rscale>  0 0.92509293E+03</rscale>
<asrwt>0</asrwt>
<pdfrwt beam="1">  1        2 0.36301007E+00 0.99000957E+03</pdfrwt>
<pdfrwt beam="2">  1       -2 0.11097027E+00 0.99000957E+03</pdfrwt>
<totfact> 0.27146624E+00</totfact>
</mgrwt>
</event>
<event>
 4    5  0.8511149E-008  0.8822695E+03  0.7818608E-02  0.9555116E-01
         -2   -1    0    0    0  501 -0.00000000000E+00  0.00000000000E+00  0.43267285147E+03  0.43267285148E+03  0.25500000000E-02 0.  1.
          2   -1    0    0  501    0  0.00000000000E+00 -0.00000000000E+00 -0.21868405530E+04  0.21868405530E+04  0.25500000000E-02 0. -1.
    8880023    1    1    2    0    0 -0.28093686712E+03  0.51542583821E+03 -0.13767399050E+03  0.89294661202E+03  0.65864270000E+03 0.  1.
    8880022    1    1    2    0    0  0.28093686712E+03 -0.51542583821E+03 -0.16164937110E+04  0.17265667924E+04  0.15294330000E+03 0.  0.
<mgrwt>
<rscale>  0 0.80339501E+03</rscale>
<asrwt>0</asrwt>
<pdfrwt beam="1">  1        2 0.33643700E+00 0.88226953E+03</pdfrwt>
<pdfrwt beam="2">  1       -2 0.66565055E-01 0.88226953E+03</pdfrwt>
<totfact> 0.11116176E+01</totfact>
</mgrwt>
</event>
<event>
 4    5  0.8511149E-008  0.7355782E+03  0.7818608E-02  0.9873020E-01
         -2   -1    0    0    0  501 -0.00000000000E+00  0.00000000000E+00  0.72333351981E+03  0.72333351982E+03  0.25500000000E-02 0.  1.
          2   -1    0    0  501    0  0.00000000000E+00 -0.00000000000E+00 -0.78898360754E+03  0.78898360755E+03  0.25500000000E-02 0. -1.
    8880023    1    1    2    0    0  0.31801941543E+03 -0.78286417672E+02  0.46501691016E+03  0.87023907335E+03  0.65864270000E+03 0.  1.
    8880022    1    1    2    0    0 -0.31801941543E+03  0.78286417672E+02 -0.53066699789E+03  0.64207805402E+03  0.15294330000E+03 0.  0.
<mgrwt>
<rscale>  0 0.61586870E+03</rscale>
<asrwt>0</asrwt>
<pdfrwt beam="1">  1        2 0.12138209E+00 0.73557822E+03</pdfrwt>
<pdfrwt beam="2">  1       -2 0.11128208E+00 0.73557822E+03</pdfrwt>
<totfact> 0.22766691E+01</totfact>
</mgrwt>
</event>
<event>
 4    5  0.8511149E-008  0.1031276E+04  0.7818608E-02  0.9341737E-01
          2   -1    0    0  501    0  0.00000000000E+00  0.00000000000E+00  0.33077589593E+04  0.33077589593E+04  0.25500000000E-02 0. -1.
         -2   -1    0    0    0  501 -0.00000000000E+00 -0.00000000000E+00 -0.26354580153E+03  0.26354580154E+03  0.25500000000E-02 0.  1.
    8880023    1    1    2    0    0  0.78639376491E+03 -0.10631998801E+03  0.20066761080E+04  0.22561645113E+04  0.65864270000E+03 0.  0.
    8880022    1    1    2    0    0 -0.78639376491E+03  0.10631998801E+03  0.10375370498E+04  0.13151402496E+04  0.15294330000E+03 0.  0.
<mgrwt>
<rscale>  0 0.97029636E+03</rscale>
<asrwt>0</asrwt>
<pdfrwt beam="1">  1        2 0.50888600E+00 0.10312756E+04</pdfrwt>
<pdfrwt beam="2">  1       -2 0.40545507E-01 0.10312756E+04</pdfrwt>
<totfact> 0.65078047E+00</totfact>
</mgrwt>
</event>
<event>
 4    5  0.8511149E-008  0.1114264E+04  0.7818608E-02  0.9245338E-01
         -2   -1    0    0    0  501 -0.00000000000E+00  0.00000000000E+00  0.10087156602E+04  0.10087156602E+04  0.25500000000E-02 0.  1.
          2   -1    0    0  501    0  0.00000000000E+00 -0.00000000000E+00 -0.20369050866E+04  0.20369050866E+04  0.25500000000E-02 0. -1.
    8880023    1    1    2    0    0  0.81055391667E+03  0.38830051208E+03  0.53496427644E+03  0.12360307127E+04  0.65864270000E+03 0.  0.
    8880022    1    1    2    0    0 -0.81055391667E+03 -0.38830051208E+03 -0.15631537028E+04  0.18095900340E+04  0.15294330000E+03 0.  0.
<mgrwt>
<rscale>  0 0.10597470E+04</rscale>
<asrwt>0</asrwt>
<pdfrwt beam="1">  1        2 0.31337001E+00 0.11142644E+04</pdfrwt>
<pdfrwt beam="2">  1       -2 0.15518703E+00 0.11142644E+04</pdfrwt>
<totfact> 0.17144459E+00</totfact>
</mgrwt>
</event>
<event>
 4    5  0.1938439E-007  0.7828785E+03  0.7818608E-02  0.9749118E-01
          2   -1    0    0  501    0  0.00000000000E+00  0.00000000000E+00  0.29477190741E+04  0.29477190741E+04  0.25500000000E-02 0. -1.
         -2   -1    0    0    0  501 -0.00000000000E+00 -0.00000000000E+00 -0.23320143740E+04  0.23320143740E+04  0.25500000000E-02 0.  1.
    8880023    1    1    2    0    0 -0.16078434560E+02  0.42288290829E+03 -0.22482436483E+04  0.23806507889E+04  0.65864270000E+03 0.  1.
    8880022    1    1    2    0    0  0.16078434560E+02 -0.42288290829E+03  0.28639483484E+04  0.28990826593E+04  0.15294330000E+03 0.  0.
<mgrwt>
<rscale>  0 0.68166117E+03</rscale>
<asrwt>0</asrwt>
<pdfrwt beam="1">  1        2 0.45349524E+00 0.78287846E+03</pdfrwt>
<pdfrwt beam="2">  1       -2 0.35877144E+00 0.78287846E+03</pdfrwt>
<totfact> 0.28293821E-02</totfact>
</mgrwt>
</event>
<event>
 4    5  0.8511149E-008  0.1599130E+04  0.7818608E-02  0.8842634E-01
          2   -1    0    0  501    0  0.00000000000E+00  0.00000000000E+00  0.47182209898E+04  0.47182209898E+04  0.25500000000E-02 0. -1.
         -2   -1    0    0    0  501 -0.00000000000E+00 -0.00000000000E+00 -0.56767017278E+03  0.56767017279E+03  0.25500000000E-02 0.  1.
    8880023    1    1    2    0    0  0.71660198312E+02  0.14554279549E+04  0.12266287878E+04  0.20153992421E+04  0.65864270000E+03 0.  0.
    8880022    1    1    2    0    0 -0.71660198312E+02 -0.14554279549E+04  0.29239220292E+04  0.32704919205E+04  0.15294330000E+03 0.  0.
<mgrwt>
<rscale>  0 0.15645399E+04</rscale>
<asrwt>0</asrwt>
<pdfrwt beam="1">  1        2 0.72588014E+00 0.15991297E+04</pdfrwt>
<pdfrwt beam="2">  1       -2 0.87333874E-01 0.15991297E+04</pdfrwt>
<totfact> 0.80977949E-02</totfact>
</mgrwt>
</event>
<event>
 4    5  0.8511149E-008  0.1123682E+04  0.7818608E-02  0.9235136E-01
          2   -1    0    0  501    0  0.00000000000E+00  0.00000000000E+00  0.24130278862E+04  0.24130278862E+04  0.25500000000E-02 0. -1.
         -2   -1    0    0    0  501 -0.00000000000E+00 -0.00000000000E+00 -0.75449815598E+03  0.75449815599E+03  0.25500000000E-02 0.  1.
    8880023    1    1    2    0    0  0.78565007246E+03  0.46000571429E+03 -0.15327320230E+03  0.11340873751E+04  0.65864270000E+03 0.  0.
    8880022    1    1    2    0    0 -0.78565007246E+03 -0.46000571429E+03  0.18118029325E+04  0.20334386671E+04  0.15294330000E+03 0.  0.
<mgrwt>
<rscale>  0 0.10698011E+04</rscale>
<asrwt>0</asrwt>
<pdfrwt beam="1">  1        2 0.37123505E+00 0.11236821E+04</pdfrwt>
<pdfrwt beam="2">  1       -2 0.11607664E+00 0.11236821E+04</pdfrwt>
<totfact> 0.22282473E+00</totfact>
</mgrwt>
</event>
<event>
 4    5  0.8511149E-008  0.1146837E+04  0.7818608E-02  0.9210617E-01
          2   -1    0    0  501    0  0.00000000000E+00  0.00000000000E+00  0.10360460356E+04  0.10360460356E+04  0.25500000000E-02 0. -1.
         -2   -1    0    0    0  501 -0.00000000000E+00 -0.00000000000E+00 -0.13876341403E+04  0.13876341403E+04  0.25500000000E-02 0.  1.
    8880023    1    1    2    0    0  0.93844693616E+03 -0.27245511786E+02 -0.77327613759E+03  0.13831815359E+04  0.65864270000E+03 0.  0.
    8880022    1    1    2    0    0 -0.93844693616E+03  0.27245511786E+02  0.42168803288E+03  0.10404986401E+04  0.15294330000E+03 0.  0.
<mgrwt>
<rscale>  0 0.10944511E+04</rscale>
<asrwt>0</asrwt>
<pdfrwt beam="1">  1        2 0.15939170E+00 0.11468370E+04</pdfrwt>
<pdfrwt beam="2">  1       -2 0.21348218E+00 0.11468370E+04</pdfrwt>
<totfact> 0.25395482E+00</totfact>
</mgrwt>
</event>
<event>
 4    5  0.8511149E-008  0.8117003E+03  0.7818608E-02  0.9686046E-01
         -2   -1    0    0    0  501 -0.00000000000E+00  0.00000000000E+00  0.41687602105E+03  0.41687602106E+03  0.25500000000E-02 0.  1.
          2   -1    0    0  501    0  0.00000000000E+00 -0.00000000000E+00 -0.17862659586E+04  0.17862659586E+04  0.25500000000E-02 0. -1.
    8880023    1    1    2    0    0 -0.43944846222E+03  0.17869603234E+03 -0.73880498516E+02  0.81505567739E+03  0.65864270000E+03 0.  1.
    8880022    1    1    2    0    0  0.43944846222E+03 -0.17869603234E+03 -0.12955094390E+04  0.13880863023E+04  0.15294330000E+03 0.  0.
<mgrwt>
<rscale>  0 0.71853717E+03</rscale>
<asrwt>0</asrwt>
<pdfrwt beam="1">  1        2 0.27481014E+00 0.81170033E+03</pdfrwt>
<pdfrwt beam="2">  1       -2 0.64134773E-01 0.81170033E+03</pdfrwt>
<totfact> 0.20155775E+01</totfact>
</mgrwt>
</event>
<event>
 4    5  0.8511149E-008  0.1243496E+04  0.7818608E-02  0.9115959E-01
         -2   -1    0    0    0  501 -0.00000000000E+00  0.00000000000E+00  0.97794621370E+03  0.97794621370E+03  0.25500000000E-02 0.  1.
          2   -1    0    0  501    0  0.00000000000E+00 -0.00000000000E+00 -0.23068618160E+04  0.23068618160E+04  0.25500000000E-02 0. -1.
    8880023    1    1    2    0    0 -0.89356479150E+03 -0.56036946313E+03  0.35391407463E+03  0.12928794802E+04  0.65864270000E+03 0.  0.
    8880022    1    1    2    0    0  0.89356479150E+03  0.56036946313E+03 -0.16828296769E+04  0.19919285495E+04  0.15294330000E+03 0.  0.
<mgrwt>
<rscale>  0 0.11964624E+04</rscale>
<asrwt>0</asrwt>
<pdfrwt beam="1">  1        2 0.35490182E+00 0.12434960E+04</pdfrwt>
<pdfrwt beam="2">  1       -2 0.15045326E+00 0.12434960E+04</pdfrwt>
<totfact> 0.12961436E+00</totfact>
</mgrwt>
</event>
<event>
 4    5  0.8511149E-008  0.7409666E+03  0.7818608E-02  0.9857140E-01
          2   -1    0    0  501    0  0.00000000000E+00  0.00000000000E+00  0.14077901976E+04  0.14077901976E+04  0.25500000000E-02 0. -1.
         -2   -1    0    0    0  501 -0.00000000000E+00 -0.00000000000E+00 -0.39154086632E+03  0.39154086633E+03  0.25500000000E-02 0.  1.
    8880023    1    1    2    0    0  0.28150124910E+03  0.18967939496E+03  0.26019012648E+02  0.74142324040E+03  0.65864270000E+03 0.  1.
    8880022    1    1    2    0    0 -0.28150124910E+03 -0.18967939496E+03  0.99023031859E+03  0.10579078235E+04  0.15294330000E+03 0.  0.
<mgrwt>
<rscale>  0 0.62384170E+03</rscale>
<asrwt>0</asrwt>
<pdfrwt beam="1">  1        2 0.21658311E+00 0.74096655E+03</pdfrwt>
<pdfrwt beam="2">  1       -2 0.60237056E-01 0.74096655E+03</pdfrwt>
<totfact> 0.37605217E+01</totfact>
</mgrwt>
</event>
<event>
 4    5  0.8511149E-008  0.7692289E+03  0.7818608E-02  0.9781775E-01
          2   -1    0    0  501    0  0.00000000000E+00  0.00000000000E+00  0.57376424787E+03  0.57376424788E+03  0.25500000000E-02 0. -1.
         -2   -1    0    0    0  501 -0.00000000000E+00 -0.00000000000E+00 -0.95569850333E+03  0.95569850334E+03  0.25500000000E-02 0.  1.
    8880023    1    1    2    0    0 -0.16052297387E+03 -0.36350412420E+03 -0.66611036858E+03  0.10175539803E+04  0.65864270000E+03 0.  1.
    8880022    1    1    2    0    0  0.16052297387E+03  0.36350412420E+03  0.28417611312E+03  0.51190877090E+03  0.15294330000E+03 0.  0.
<mgrwt>
<rscale>  0 0.66349824E+03</rscale>
<asrwt>0</asrwt>
<pdfrwt beam="1">  1        2 0.88271423E-01 0.76922889E+03</pdfrwt>
<pdfrwt beam="2">  1       -2 0.14703054E+00 0.76922889E+03</pdfrwt>
<totfact> 0.16737013E+01</totfact>
</mgrwt>
</event>
<event>
 4    5  0.8511149E-008  0.7007264E+03  0.7818608E-02  0.9994201E-01
         -2   -1    0    0    0  501 -0.00000000000E+00  0.00000000000E+00  0.61165591444E+03  0.61165591444E+03  0.25500000000E-02 0.  1.
          2   -1    0    0  501    0  0.00000000000E+00 -0.00000000000E+00 -0.12344251678E+04  0.12344251678E+04  0.25500000000E-02 0. -1.
    8880023    1    1    2    0    0  0.18008097498E+03 -0.15741053274E+03  0.38469531970E+03  0.79937971492E+03  0.65864270000E+03 0.  1.
    8880022    1    1    2    0    0 -0.18008097498E+03  0.15741053274E+03 -0.10074645731E+04  0.10467013674E+04  0.15294330000E+03 0.  0.
<mgrwt>
<rscale>  0 0.55905235E+03</rscale>
<asrwt>0</asrwt>
<pdfrwt beam="1">  1        2 0.18991156E+00 0.70072637E+03</pdfrwt>
<pdfrwt beam="2">  1       -2 0.94100910E-01 0.70072637E+03</pdfrwt>
<totfact> 0.17660575E+01</totfact>
</mgrwt>
</event>
<event>
 4    5  0.8511149E-008  0.1051826E+04  0.7818608E-02  0.9316690E-01
         -2   -1    0    0    0  501 -0.00000000000E+00  0.00000000000E+00  0.12286085426E+04  0.12286085427E+04  0.25500000000E-02 0.  1.
          2   -1    0    0  501    0  0.00000000000E+00 -0.00000000000E+00 -0.12787703209E+04  0.12787703209E+04  0.25500000000E-02 0. -1.
    8880023    1    1    2    0    0  0.35443692211E+03 -0.73952805597E+03  0.79605188647E+03  0.13191042755E+04  0.65864270000E+03 0.  1.
    8880022    1    1    2    0    0 -0.35443692211E+03  0.73952805597E+03 -0.84621366470E+03  0.11882745881E+04  0.15294330000E+03 0.  0.
<mgrwt>
<rscale>  0 0.99260782E+03</rscale>
<asrwt>0</asrwt>
<pdfrwt beam="1">  1        2 0.19673390E+00 0.10518258E+04</pdfrwt>
<pdfrwt beam="2">  1       -2 0.18901670E+00 0.10518258E+04</pdfrwt>
<totfact> 0.26396776E+00</totfact>
</mgrwt>
</event>
<event>
 4    5  0.8511149E-008  0.7508348E+03  0.7818608E-02  0.9829440E-01
          2   -1    0    0  501    0  0.00000000000E+00  0.00000000000E+00  0.37993012691E+04  0.37993012691E+04  0.25500000000E-02 0. -1.
         -2   -1    0    0    0  501 -0.00000000000E+00 -0.00000000000E+00 -0.19104786471E+03  0.19104786473E+03  0.25500000000E-02 0.  1.
    8880023    1    1    2    0    0 -0.18818964002E+03 -0.30745304690E+03  0.61211369064E+03  0.96872911239E+03  0.65864270000E+03 0.  1.
    8880022    1    1    2    0    0  0.18818964002E+03  0.30745304690E+03  0.29961397138E+04  0.30216200215E+04  0.15294330000E+03 0.  0.
<mgrwt>
<rscale>  0 0.63806253E+03</rscale>
<asrwt>0</asrwt>
<pdfrwt beam="1">  1        2 0.58450787E+00 0.75083482E+03</pdfrwt>
<pdfrwt beam="2">  1       -2 0.29391980E-01 0.75083482E+03</pdfrwt>
<totfact> 0.57319909E+00</totfact>
</mgrwt>
</event>
<event>
 4    5  0.8511149E-008  0.8653147E+03  0.7818608E-02  0.9584179E-01
         -2   -1    0    0    0  501 -0.00000000000E+00  0.00000000000E+00  0.85624625617E+03  0.85624625617E+03  0.25500000000E-02 0.  1.
          2   -1    0    0  501    0  0.00000000000E+00 -0.00000000000E+00 -0.10683677125E+04  0.10683677126E+04  0.25500000000E-02 0. -1.
    8880023    1    1    2    0    0  0.48449371098E+03  0.28324033409E+03  0.50449038518E+03  0.10016386563E+04  0.65864270000E+03 0.  0.
    8880022    1    1    2    0    0 -0.48449371098E+03 -0.28324033409E+03 -0.71661184156E+03  0.92297531241E+03  0.15294330000E+03 0.  0.
<mgrwt>
<rscale>  0 0.78352248E+03</rscale>
<asrwt>0</asrwt>
<pdfrwt beam="1">  1        2 0.16436426E+00 0.86531465E+03</pdfrwt>
<pdfrwt beam="2">  1       -2 0.13173019E+00 0.86531465E+03</pdfrwt>
<totfact> 0.96215153E+00</totfact>
</mgrwt>
</event>
<event>
 4    5  0.8511149E-008  0.1426307E+04  0.7818608E-02  0.8963506E-01
          2   -1    0    0  501    0  0.00000000000E+00  0.00000000000E+00  0.21997973689E+04  0.21997973690E+04  0.25500000000E-02 0. -1.
         -2   -1    0    0    0  501 -0.00000000000E+00 -0.00000000000E+00 -0.14602899940E+04  0.14602899940E+04  0.25500000000E-02 0.  1.
    8880023    1    1    2    0    0  0.82939077611E+03  0.95532865570E+03 -0.82071942263E+03  0.16455796781E+04  0.65864270000E+03 0.  1.
    8880022    1    1    2    0    0 -0.82939077611E+03 -0.95532865570E+03  0.15602267975E+04  0.20145076849E+04  0.15294330000E+03 0.  0.
<mgrwt>
<rscale>  0 0.13866946E+04</rscale>
<asrwt>0</asrwt>
<pdfrwt beam="1">  1        2 0.33843037E+00 0.14263072E+04</pdfrwt>
<pdfrwt beam="2">  1       -2 0.22466000E+00 0.14263072E+04</pdfrwt>
<totfact> 0.45116069E-01</totfact>
</mgrwt>
</event>
<event>
 4    5  0.8511149E-008  0.1129747E+04  0.7818608E-02  0.9228637E-01
         -2   -1    0    0    0  501 -0.00000000000E+00  0.00000000000E+00  0.51103900679E+03  0.51103900680E+03  0.25500000000E-02 0.  1.
          2   -1    0    0  501    0  0.00000000000E+00 -0.00000000000E+00 -0.33105287843E+04  0.33105287843E+04  0.25500000000E-02 0. -1.
    8880023    1    1    2    0    0  0.56359108497E+03 -0.72448844752E+03 -0.32147656443E+03  0.11745960197E+04  0.65864270000E+03 0.  0.
    8880022    1    1    2    0    0 -0.56359108497E+03  0.72448844752E+03 -0.24780132131E+04  0.26469717715E+04  0.15294330000E+03 0. -1.
<mgrwt>
<rscale>  0 0.10762670E+04</rscale>
<asrwt>0</asrwt>
<pdfrwt beam="1">  1        2 0.50931211E+00 0.11297472E+04</pdfrwt>
<pdfrwt beam="2">  1       -2 0.78621388E-01 0.11297472E+04</pdfrwt>
<totfact> 0.15900760E+00</totfact>
</mgrwt>
</event>
<event>
 4    5  0.8511149E-008  0.1127705E+04  0.7818608E-02  0.9230820E-01
         -2   -1    0    0    0  501 -0.00000000000E+00  0.00000000000E+00  0.79691219872E+03  0.79691219873E+03  0.25500000000E-02 0.  1.
          2   -1    0    0  501    0  0.00000000000E+00 -0.00000000000E+00 -0.17913948508E+04  0.17913948508E+04  0.25500000000E-02 0. -1.
    8880023    1    1    2    0    0  0.71691309744E+02  0.91256126448E+03  0.12448807115E+03  0.11345550632E+04  0.65864270000E+03 0.  0.
    8880022    1    1    2    0    0 -0.71691309744E+02 -0.91256126448E+03 -0.11189707233E+04  0.14537519864E+04  0.15294330000E+03 0.  0.
<mgrwt>
<rscale>  0 0.10740903E+04</rscale>
<asrwt>0</asrwt>
<pdfrwt beam="1">  1        2 0.27559921E+00 0.11277047E+04</pdfrwt>
<pdfrwt beam="2">  1       -2 0.12260188E+00 0.11277047E+04</pdfrwt>
<totfact> 0.43133611E+00</totfact>
</mgrwt>
</event>
<event>
 4    5  0.8511149E-008  0.9627866E+03  0.7818608E-02  0.9431951E-01
          2   -1    0    0  501    0  0.00000000000E+00  0.00000000000E+00  0.56621222036E+03  0.56621222036E+03  0.25500000000E-02 0. -1.
         -2   -1    0    0    0  501 -0.00000000000E+00 -0.00000000000E+00 -0.16380346856E+04  0.16380346856E+04  0.25500000000E-02 0.  1.
    8880023    1    1    2    0    0 -0.65853085575E+03  0.24389554736E+03 -0.11283932751E+04  0.14833170651E+04  0.65864270000E+03 0.  1.
    8880022    1    1    2    0    0  0.65853085575E+03 -0.24389554736E+03  0.56570809808E+02  0.72092984093E+03  0.15294330000E+03 0.  0.
<mgrwt>
<rscale>  0 0.89492264E+03</rscale>
<asrwt>0</asrwt>
<pdfrwt beam="1">  1        2 0.87109573E-01 0.96278665E+03</pdfrwt>
<pdfrwt beam="2">  1       -2 0.25200533E+00 0.96278665E+03</pdfrwt>
<totfact> 0.33334882E+00</totfact>
</mgrwt>
</event>
<event>
 4    5  0.8511149E-008  0.6627612E+03  0.7818608E-02  0.1021490E+00
         -2   -1    0    0    0  501 -0.00000000000E+00  0.00000000000E+00  0.44538753814E+03  0.44538753815E+03  0.25500000000E-02 0.  1.
          2   -1    0    0  501    0  0.00000000000E+00 -0.00000000000E+00 -0.83724762234E+03  0.83724762234E+03  0.25500000000E-02 0. -1.
    8880023    1    1    2    0    0  0.60579060000E+02  0.42099538051E+02  0.17944886385E+03  0.68662529418E+03  0.65864270000E+03 0.  1.
    8880022    1    1    2    0    0 -0.60579060000E+02 -0.42099538051E+02 -0.57130894804E+03  0.59600986631E+03  0.15294330000E+03 0.  0.
<mgrwt>
<rscale>  0 0.47152598E+03</rscale>
<asrwt>0</asrwt>
<pdfrwt beam="1">  1        2 0.12880733E+00 0.66276119E+03</pdfrwt>
<pdfrwt beam="2">  1       -2 0.68521160E-01 0.66276119E+03</pdfrwt>
<totfact> 0.64409343E+01</totfact>
</mgrwt>
</event>
<event>
 4    5  0.8511149E-008  0.8608516E+03  0.7818608E-02  0.9592050E-01
         -2   -1    0    0    0  501 -0.00000000000E+00  0.00000000000E+00  0.92726274955E+03  0.92726274955E+03  0.25500000000E-02 0.  1.
          2   -1    0    0  501    0  0.00000000000E+00 -0.00000000000E+00 -0.70501898971E+03  0.70501898972E+03  0.25500000000E-02 0. -1.
    8880023    1    1    2    0    0 -0.28834292350E+03  0.47340639574E+03  0.49804367525E+03  0.99454158575E+03  0.65864270000E+03 0.  1.
    8880022    1    1    2    0    0  0.28834292350E+03 -0.47340639574E+03 -0.27579991541E+03  0.63774015352E+03  0.15294330000E+03 0.  0.
<mgrwt>
<rscale>  0 0.77824578E+03</rscale>
<asrwt>0</asrwt>
<pdfrwt beam="1">  1        2 0.10846446E+00 0.86085159E+03</pdfrwt>
<pdfrwt beam="2">  1       -2 0.14265581E+00 0.86085159E+03</pdfrwt>
<totfact> 0.13943360E+01</totfact>
</mgrwt>
</event>
<event>
 4    5  0.8511149E-008  0.2302049E+04  0.7818608E-02  0.8486259E-01
          2   -1    0    0  501    0  0.00000000000E+00  0.00000000000E+00  0.23667008571E+04  0.23667008571E+04  0.25500000000E-02 0. -1.
         -2   -1    0    0    0  501 -0.00000000000E+00 -0.00000000000E+00 -0.25524795882E+04  0.25524795882E+04  0.25500000000E-02 0.  1.
    8880023    1    1    2    0    0 -0.10455607205E+04 -0.19422728875E+04  0.88012564025E+03  0.24645592990E+04  0.65864270000E+03 0.  0.
    8880022    1    1    2    0    0  0.10455607205E+04  0.19422728875E+04 -0.10659043714E+04  0.24546211462E+04  0.15294330000E+03 0.  0.
<mgrwt>
<rscale>  0 0.22789701E+04</rscale>
<asrwt>0</asrwt>
<pdfrwt beam="1">  1        2 0.36410783E+00 0.23020494E+04</pdfrwt>
<pdfrwt beam="2">  1       -2 0.39268916E+00 0.23020494E+04</pdfrwt>
<totfact> 0.29490760E-02</totfact>
</mgrwt>
</event>
<event>
 4    5  0.8511149E-008  0.7593317E+03  0.7818608E-02  0.9806841E-01
          2   -1    0    0  501    0  0.00000000000E+00  0.00000000000E+00  0.23773873277E+04  0.23773873277E+04  0.25500000000E-02 0. -1.
         -2   -1    0    0    0  501 -0.00000000000E+00 -0.00000000000E+00 -0.75019319808E+03  0.75019319809E+03  0.25500000000E-02 0.  1.
    8880023    1    1    2    0    0  0.95293598259E+02 -0.36564126843E+03 -0.53398677302E+03  0.92829224228E+03  0.65864270000E+03 0.  1.
    8880022    1    1    2    0    0 -0.95293598259E+02  0.36564126843E+03  0.21611809026E+04  0.21992882835E+04  0.15294330000E+03 0.  0.
<mgrwt>
<rscale>  0 0.64996719E+03</rscale>
<asrwt>0</asrwt>
<pdfrwt beam="1">  1        2 0.36575189E+00 0.75933169E+03</pdfrwt>
<pdfrwt beam="2">  1       -2 0.11541434E+00 0.75933169E+03</pdfrwt>
<totfact> 0.25018710E+00</totfact>
</mgrwt>
</event>
<event>
 4    5  0.8511149E-008  0.1221400E+04  0.7818608E-02  0.9136596E-01
          2   -1    0    0  501    0  0.00000000000E+00  0.00000000000E+00  0.24248461435E+04  0.24248461435E+04  0.25500000000E-02 0. -1.
         -2   -1    0    0    0  501 -0.00000000000E+00 -0.00000000000E+00 -0.10261612048E+04  0.10261612048E+04  0.25500000000E-02 0.  1.
    8880023    1    1    2    0    0 -0.52933244195E+03 -0.88193789364E+03 -0.47304041101E+03  0.13098033131E+04  0.65864270000E+03 0.  0.
    8880022    1    1    2    0    0  0.52933244195E+03  0.88193789364E+03  0.18717253497E+04  0.21412040352E+04  0.15294330000E+03 0.  0.
<mgrwt>
<rscale>  0 0.11732529E+04</rscale>
<asrwt>0</asrwt>
<pdfrwt beam="1">  1        2 0.37305325E+00 0.12213998E+04</pdfrwt>
<pdfrwt beam="2">  1       -2 0.15787096E+00 0.12213998E+04</pdfrwt>
<totfact> 0.97853137E-01</totfact>
</mgrwt>
</event>
<event>
 4    5  0.8511149E-008  0.1455219E+04  0.7818608E-02  0.8941922E-01
          2   -1    0    0  501    0  0.00000000000E+00  0.00000000000E+00  0.39423805447E+04  0.39423805447E+04  0.25500000000E-02 0. -1.
         -2   -1    0    0    0  501 -0.00000000000E+00 -0.00000000000E+00 -0.66999849659E+03  0.66999849659E+03  0.25500000000E-02 0.  1.
    8880023    1    1    2    0    0  0.95451205907E+03  0.87906669754E+03  0.48494045792E+03  0.15338934069E+04  0.65864270000E+03 0.  0.
    8880022    1    1    2    0    0 -0.95451205907E+03 -0.87906669754E+03  0.27874415902E+04  0.30784856344E+04  0.15294330000E+03 0.  0.
<mgrwt>
<rscale>  0 0.14165540E+04</rscale>
<asrwt>0</asrwt>
<pdfrwt beam="1">  1        2 0.60652009E+00 0.14552188E+04</pdfrwt>
<pdfrwt beam="2">  1       -2 0.10307669E+00 0.14552188E+04</pdfrwt>
<totfact> 0.28485730E-01</totfact>
</mgrwt>
</event>
<event>
 4    5  0.8511149E-008  0.8324186E+03  0.7818608E-02  0.9644645E-01
          2   -1    0    0  501    0  0.00000000000E+00  0.00000000000E+00  0.20997179688E+04  0.20997179688E+04  0.25500000000E-02 0. -1.
         -2   -1    0    0    0  501 -0.00000000000E+00 -0.00000000000E+00 -0.38802670047E+03  0.38802670048E+03  0.25500000000E-02 0.  1.
    8880023    1    1    2    0    0  0.27989022086E+03 -0.42517279736E+03  0.16014371350E+03  0.84768311212E+03  0.65864270000E+03 0.  0.
    8880022    1    1    2    0    0 -0.27989022086E+03  0.42517279736E+03  0.15515475548E+04  0.16400615571E+04  0.15294330000E+03 0.  0.
<mgrwt>
<rscale>  0 0.74410466E+03</rscale>
<asrwt>0</asrwt>
<pdfrwt beam="1">  1        2 0.32303353E+00 0.83241855E+03</pdfrwt>
<pdfrwt beam="2">  1       -2 0.59696417E-01 0.83241855E+03</pdfrwt>
<totfact> 0.15775785E+01</totfact>
</mgrwt>
</event>
<event>
 4    5  0.8511149E-008  0.8565815E+03  0.7818608E-02  0.9599674E-01
         -2   -1    0    0    0  501 -0.00000000000E+00  0.00000000000E+00  0.36519094358E+03  0.36519094359E+03  0.25500000000E-02 0.  1.
          2   -1    0    0  501    0  0.00000000000E+00 -0.00000000000E+00 -0.33907075831E+04  0.33907075831E+04  0.25500000000E-02 0. -1.
    8880023    1    1    2    0    0  0.17612948433E+03 -0.51855571128E+03 -0.20785861812E+03  0.88144031695E+03  0.65864270000E+03 0.  1.
    8880022    1    1    2    0    0 -0.17612948433E+03  0.51855571128E+03 -0.28176580214E+04  0.28744582098E+04  0.15294330000E+03 0.  0.
<mgrwt>
<rscale>  0 0.77317793E+03</rscale>
<asrwt>0</asrwt>
<pdfrwt beam="1">  1        2 0.52164730E+00 0.85658148E+03</pdfrwt>
<pdfrwt beam="2">  1       -2 0.56183224E-01 0.85658148E+03</pdfrwt>
<totfact> 0.30469921E+00</totfact>
</mgrwt>
</event>
<event>
 4    5  0.8511149E-008  0.1224709E+04  0.7818608E-02  0.9133470E-01
         -2   -1    0    0    0  501 -0.00000000000E+00  0.00000000000E+00  0.10308151606E+04  0.10308151607E+04  0.25500000000E-02 0.  1.
          2   -1    0    0  501    0  0.00000000000E+00 -0.00000000000E+00 -0.27896015061E+04  0.27896015061E+04  0.25500000000E-02 0. -1.
    8880023    1    1    2    0    0 -0.83079754473E+03  0.61308901917E+03  0.50720263476E+03  0.13255819193E+04  0.65864270000E+03 0.  0.
    8880022    1    1    2    0    0  0.83079754473E+03 -0.61308901917E+03 -0.22659889802E+04  0.24948347475E+04  0.15294330000E+03 0.  0.
<mgrwt>
<rscale>  0 0.11767329E+04</rscale>
<asrwt>0</asrwt>
<pdfrwt beam="1">  1        2 0.42916946E+00 0.12247093E+04</pdfrwt>
<pdfrwt beam="2">  1       -2 0.15858695E+00 0.12247093E+04</pdfrwt>
<totfact> 0.59185182E-01</totfact>
</mgrwt>
</event>
<event>
 4    5  0.8511149E-008  0.8732800E+03  0.7818608E-02  0.9570364E-01
          2   -1    0    0  501    0  0.00000000000E+00  0.00000000000E+00  0.21397964556E+04  0.21397964556E+04  0.25500000000E-02 0. -1.
         -2   -1    0    0    0  501 -0.00000000000E+00 -0.00000000000E+00 -0.95159050334E+03  0.95159050334E+03  0.25500000000E-02 0.  1.
    8880023    1    1    2    0    0  0.50038609577E+03  0.28003849161E+03 -0.69550720136E+03  0.11163996932E+04  0.65864270000E+03 0.  1.
    8880022    1    1    2    0    0 -0.50038609577E+03 -0.28003849161E+03  0.18837131537E+04  0.19749872658E+04  0.15294330000E+03 0.  0.
<mgrwt>
<rscale>  0 0.79289144E+03</rscale>
<asrwt>0</asrwt>
<pdfrwt beam="1">  1        2 0.32919945E+00 0.87328003E+03</pdfrwt>
<pdfrwt beam="2">  1       -2 0.14639854E+00 0.87328003E+03</pdfrwt>
<totfact> 0.18174624E+00</totfact>
</mgrwt>
</event>
<event>
 4    5  0.8511149E-008  0.6960602E+03  0.7818608E-02  0.1001395E+00
          2   -1    0    0  501    0  0.00000000000E+00  0.00000000000E+00  0.41727243328E+04  0.41727243328E+04  0.25500000000E-02 0. -1.
         -2   -1    0    0    0  501 -0.00000000000E+00 -0.00000000000E+00 -0.27655840231E+03  0.27655840232E+03  0.25500000000E-02 0.  1.
    8880023    1    1    2    0    0 -0.11870668048E+03 -0.19130673456E+03  0.17439762053E+03  0.71757527758E+03  0.65864270000E+03 0.  0.
    8880022    1    1    2    0    0  0.11870668048E+03  0.19130673456E+03  0.37217683100E+04  0.37317074575E+04  0.15294330000E+03 0.  0.
<mgrwt>
<rscale>  0 0.55042555E+03</rscale>
<asrwt>0</asrwt>
<pdfrwt beam="1">  1        2 0.64195756E+00 0.69606016E+03</pdfrwt>
<pdfrwt beam="2">  1       -2 0.42547448E-01 0.69606016E+03</pdfrwt>
<totfact> 0.14595301E+00</totfact>
</mgrwt>
</event>
<event>
 4    5  0.8511149E-008  0.1186046E+04  0.7818608E-02  0.9170807E-01
         -2   -1    0    0    0  501 -0.00000000000E+00  0.00000000000E+00  0.91426135411E+03  0.91426135412E+03  0.25500000000E-02 0.  1.
          2   -1    0    0  501    0  0.00000000000E+00 -0.00000000000E+00 -0.17453013564E+04  0.17453013564E+04  0.25500000000E-02 0. -1.
    8880023    1    1    2    0    0  0.43267998234E+03 -0.88638774200E+03 -0.11086676544E+04  0.16235299106E+04  0.65864270000E+03 0.  0.
    8880022    1    1    2    0    0 -0.43267998234E+03  0.88638774200E+03  0.27762765215E+03  0.10360327999E+04  0.15294330000E+03 0.  0.
<mgrwt>
<rscale>  0 0.11359893E+04</rscale>
<asrwt>0</asrwt>
<pdfrwt beam="1">  1        2 0.26850790E+00 0.11860461E+04</pdfrwt>
<pdfrwt beam="2">  1       -2 0.14065559E+00 0.11860461E+04</pdfrwt>
<totfact> 0.31996114E+00</totfact>
</mgrwt>
</event>
<event>
 4    5  0.1011653E-007  0.7195098E+03  0.7818608E-02  0.9924248E-01
         -2   -1    0    0    0  501 -0.00000000000E+00  0.00000000000E+00  0.20013654052E+04  0.20013654052E+04  0.25500000000E-02 0.  1.
          2   -1    0    0  501    0  0.00000000000E+00 -0.00000000000E+00 -0.14635060909E+04  0.14635060909E+04  0.25500000000E-02 0. -1.
    8880023    1    1    2    0    0 -0.27052966295E+03 -0.10343063439E+03  0.19168910993E+04  0.20474779333E+04  0.65864270000E+03 0.  1.
    8880022    1    1    2    0    0  0.27052966295E+03  0.10343063439E+03 -0.13790317850E+04  0.14173935628E+04  0.15294330000E+03 0.  0.
<mgrwt>
<rscale>  0 0.59100383E+03</rscale>
<asrwt>0</asrwt>
<pdfrwt beam="1">  1        2 0.22515478E+00 0.71950983E+03</pdfrwt>
<pdfrwt beam="2">  1       -2 0.30790237E+00 0.71950983E+03</pdfrwt>
<totfact> 0.40247801E-01</totfact>
</mgrwt>
</event>
<event>
 4    5  0.8511149E-008  0.7586257E+03  0.7818608E-02  0.9808678E-01
          2   -1    0    0  501    0  0.00000000000E+00  0.00000000000E+00  0.80725936314E+03  0.80725936314E+03  0.25500000000E-02 0. -1.
         -2   -1    0    0    0  501 -0.00000000000E+00 -0.00000000000E+00 -0.12957220092E+04  0.12957220092E+04  0.25500000000E-02 0.  1.
    8880023    1    1    2    0    0 -0.17546291654E+03 -0.33303987674E+03 -0.11195705237E+04  0.13523872072E+04  0.65864270000E+03 0.  1.
    8880022    1    1    2    0    0  0.17546291654E+03  0.33303987674E+03  0.63110787758E+03  0.75059416513E+03  0.15294330000E+03 0.  0.
<mgrwt>
<rscale>  0 0.64898885E+03</rscale>
<asrwt>0</asrwt>
<pdfrwt beam="1">  1        2 0.12419375E+00 0.75862573E+03</pdfrwt>
<pdfrwt beam="2">  1       -2 0.19934185E+00 0.75862573E+03</pdfrwt>
<totfact> 0.46663700E+00</totfact>
</mgrwt>
</event>
<event>
 4    5  0.8511149E-008  0.7254884E+03  0.7818608E-02  0.9904435E-01
          2   -1    0    0  501    0  0.00000000000E+00  0.00000000000E+00  0.34327192233E+04  0.34327192233E+04  0.25500000000E-02 0. -1.
         -2   -1    0    0    0  501 -0.00000000000E+00 -0.00000000000E+00 -0.31116907592E+03  0.31116907593E+03  0.25500000000E-02 0.  1.
    8880023    1    1    2    0    0  0.69916096778E+02 -0.29603197770E+03  0.13493505572E+03  0.73793012402E+03  0.65864270000E+03 0.  1.
    8880022    1    1    2    0    0 -0.69916096778E+02  0.29603197770E+03  0.29866150917E+04  0.30059581753E+04  0.15294330000E+03 0.  0.
<mgrwt>
<rscale>  0 0.60046850E+03</rscale>
<asrwt>0</asrwt>
<pdfrwt beam="1">  1        2 0.52811063E+00 0.72548839E+03</pdfrwt>
<pdfrwt beam="2">  1       -2 0.47872167E-01 0.72548839E+03</pdfrwt>
<totfact> 0.40722390E+00</totfact>
</mgrwt>
</event>
<event>
 4    5  0.8511149E-008  0.7374619E+03  0.7818608E-02  0.9867403E-01
         -2   -1    0    0    0  501 -0.00000000000E+00  0.00000000000E+00  0.42702353571E+03  0.42702353571E+03  0.25500000000E-02 0.  1.
          2   -1    0    0  501    0  0.00000000000E+00 -0.00000000000E+00 -0.18929916580E+04  0.18929916580E+04  0.25500000000E-02 0. -1.
    8880023    1    1    2    0    0 -0.35187273331E+02  0.32985104991E+03  0.70404771467E+02  0.74081502242E+03  0.65864270000E+03 0.  1.
    8880022    1    1    2    0    0  0.35187273331E+02 -0.32985104991E+03 -0.15363728937E+04  0.15792001713E+04  0.15294330000E+03 0.  0.
<mgrwt>
<rscale>  0 0.61867419E+03</rscale>
<asrwt>0</asrwt>
<pdfrwt beam="1">  1        2 0.29122948E+00 0.73746191E+03</pdfrwt>
<pdfrwt beam="2">  1       -2 0.65695930E-01 0.73746191E+03</pdfrwt>
<totfact> 0.16901376E+01</totfact>
</mgrwt>
</event>
<event>
 4    5  0.8511149E-008  0.1194081E+04  0.7818608E-02  0.9162897E-01
         -2   -1    0    0    0  501 -0.00000000000E+00  0.00000000000E+00  0.17537733989E+04  0.17537733989E+04  0.25500000000E-02 0.  1.
          2   -1    0    0  501    0  0.00000000000E+00 -0.00000000000E+00 -0.13804331738E+04  0.13804331738E+04  0.25500000000E-02 0. -1.
    8880023    1    1    2    0    0  0.84920826639E+03  0.52044728997E+03  0.13000380115E+04  0.17651994502E+04  0.65864270000E+03 0.  0.
    8880022    1    1    2    0    0 -0.84920826639E+03 -0.52044728997E+03 -0.92669778634E+03  0.13690071225E+04  0.15294330000E+03 0.  0.
<mgrwt>
<rscale>  0 0.11444734E+04</rscale>
<asrwt>0</asrwt>
<pdfrwt beam="1">  1        2 0.21237434E+00 0.11940813E+04</pdfrwt>
<pdfrwt beam="2">  1       -2 0.26981129E+00 0.11940813E+04</pdfrwt>
<totfact> 0.70286939E-01</totfact>
</mgrwt>
</event>
<event>
 4    5  0.8511149E-008  0.8284786E+03  0.7818608E-02  0.9652300E-01
         -2   -1    0    0    0  501 -0.00000000000E+00  0.00000000000E+00  0.61044797135E+03  0.61044797135E+03  0.25500000000E-02 0.  1.
          2   -1    0    0  501    0  0.00000000000E+00 -0.00000000000E+00 -0.21822891944E+04  0.21822891944E+04  0.25500000000E-02 0. -1.
    8880023    1    1    2    0    0 -0.50070621031E+03  0.43127067527E+02  0.27477350483E+03  0.87285585191E+03  0.65864270000E+03 0.  1.
    8880022    1    1    2    0    0  0.50070621031E+03 -0.43127067527E+02 -0.18466147279E+04  0.19198813138E+04  0.15294330000E+03 0.  0.
<mgrwt>
<rscale>  0 0.73929271E+03</rscale>
<asrwt>0</asrwt>
<pdfrwt beam="1">  1        2 0.33573680E+00 0.82847864E+03</pdfrwt>
<pdfrwt beam="2">  1       -2 0.93915074E-01 0.82847864E+03</pdfrwt>
<totfact> 0.51982653E+00</totfact>
</mgrwt>
</event>
<event>
 4    5  0.8511149E-008  0.9343723E+03  0.7818608E-02  0.9472965E-01
          2   -1    0    0  501    0  0.00000000000E+00  0.00000000000E+00  0.13847371375E+04  0.13847371375E+04  0.25500000000E-02 0. -1.
         -2   -1    0    0    0  501 -0.00000000000E+00 -0.00000000000E+00 -0.54762382224E+03  0.54762382224E+03  0.25500000000E-02 0.  1.
    8880023    1    1    2    0    0  0.65708497360E+03  0.86490798169E+02  0.11677030220E+03  0.94164049958E+03  0.65864270000E+03 0.  1.
    8880022    1    1    2    0    0 -0.65708497360E+03 -0.86490798169E+02  0.72034301306E+03  0.99072046016E+03  0.15294330000E+03 0.  0.
<mgrwt>
<rscale>  0 0.86306703E+03</rscale>
<asrwt>0</asrwt>
<pdfrwt beam="1">  1        2 0.21303648E+00 0.93437226E+03</pdfrwt>
<pdfrwt beam="2">  1       -2 0.84249819E-01 0.93437226E+03</pdfrwt>
<totfact> 0.18192673E+01</totfact>
</mgrwt>
</event>
<event>
 4    5  0.8511149E-008  0.6929623E+03  0.7818608E-02  0.1002775E+00
         -2   -1    0    0    0  501 -0.00000000000E+00  0.00000000000E+00  0.70305565197E+03  0.70305565198E+03  0.25500000000E-02 0.  1.
          2   -1    0    0  501    0  0.00000000000E+00 -0.00000000000E+00 -0.57077737909E+03  0.57077737909E+03  0.25500000000E-02 0. -1.
    8880023    1    1    2    0    0 -0.16453962447E+03 -0.13897230925E+03  0.47573103606E+03  0.84054554647E+03  0.65864270000E+03 0.  1.
    8880022    1    1    2    0    0  0.16453962447E+03  0.13897230925E+03 -0.34345276318E+03  0.43328748460E+03  0.15294330000E+03 0.  0.
<mgrwt>
<rscale>  0 0.54449918E+03</rscale>
<asrwt>0</asrwt>
<pdfrwt beam="1">  1        2 0.87811905E-01 0.69296233E+03</pdfrwt>
<pdfrwt beam="2">  1       -2 0.10816241E+00 0.69296233E+03</pdfrwt>
<totfact> 0.36658669E+01</totfact>
</mgrwt>
</event>
<event>
 4    5  0.8511149E-008  0.9149699E+03  0.7818608E-02  0.9502415E-01
          2   -1    0    0  501    0  0.00000000000E+00  0.00000000000E+00  0.23870523547E+04  0.23870523547E+04  0.25500000000E-02 0. -1.
         -2   -1    0    0    0  501 -0.00000000000E+00 -0.00000000000E+00 -0.39473070020E+03  0.39473070021E+03  0.25500000000E-02 0.  1.
    8880023    1    1    2    0    0  0.58943549745E+03 -0.23648574283E+03  0.29223274034E+03  0.96050501977E+03  0.65864270000E+03 0.  1.
    8880022    1    1    2    0    0 -0.58943549745E+03  0.23648574283E+03  0.17000889142E+04  0.18212780352E+04  0.15294330000E+03 0.  0.
<mgrwt>
<rscale>  0 0.84105998E+03</rscale>
<asrwt>0</asrwt>
<pdfrwt beam="1">  1        2 0.36723882E+00 0.91496990E+03</pdfrwt>
<pdfrwt beam="2">  1       -2 0.60727801E-01 0.91496990E+03</pdfrwt>
<totfact> 0.10418200E+01</totfact>
</mgrwt>
</event>
<event>
 4    5  0.8511149E-008  0.7270784E+03  0.7818608E-02  0.9899325E-01
         -2   -1    0    0    0  501 -0.00000000000E+00  0.00000000000E+00  0.51860274415E+03  0.51860274415E+03  0.25500000000E-02 0.  1.
          2   -1    0    0  501    0  0.00000000000E+00 -0.00000000000E+00 -0.67175420515E+03  0.67175420516E+03  0.25500000000E-02 0. -1.
    8880023    1    1    2    0    0  0.22416901357E+03  0.21114213912E+03  0.13769976365E+03  0.74000282481E+03  0.65864270000E+03 0.  0.
    8880022    1    1    2    0    0 -0.22416901357E+03 -0.21114213912E+03 -0.29085122465E+03  0.45035412450E+03  0.15294330000E+03 0.  0.
<mgrwt>
<rscale>  0 0.60294030E+03</rscale>
<asrwt>0</asrwt>
<pdfrwt beam="1">  1        2 0.10334680E+00 0.72707837E+03</pdfrwt>
<pdfrwt beam="2">  1       -2 0.79785037E-01 0.72707837E+03</pdfrwt>
<totfact> 0.60867809E+01</totfact>
</mgrwt>
</event>
<event>
 4    5  0.8511149E-008  0.7238214E+03  0.7818608E-02  0.9909861E-01
          2   -1    0    0  501    0  0.00000000000E+00  0.00000000000E+00  0.37840131611E+04  0.37840131611E+04  0.25500000000E-02 0. -1.
         -2   -1    0    0    0  501 -0.00000000000E+00 -0.00000000000E+00 -0.14563385148E+03  0.14563385150E+03  0.25500000000E-02 0.  1.
    8880023    1    1    2    0    0  0.20352421263E+02  0.29948798246E+03  0.83061582288E+03  0.11017441283E+04  0.65864270000E+03 0.  0.
    8880022    1    1    2    0    0 -0.20352421263E+02 -0.29948798246E+03  0.28077634867E+04  0.28279028843E+04  0.15294330000E+03 0. -1.
<mgrwt>
<rscale>  0 0.59785732E+03</rscale>
<asrwt>0</asrwt>
<pdfrwt beam="1">  1        2 0.58215585E+00 0.72382144E+03</pdfrwt>
<pdfrwt beam="2">  1       -2 0.22405209E-01 0.72382144E+03</pdfrwt>
<totfact> 0.96725793E+00</totfact>
</mgrwt>
</event>
<event>
 4    5  0.8511149E-008  0.9011686E+03  0.7818608E-02  0.9524158E-01
          2   -1    0    0  501    0  0.00000000000E+00  0.00000000000E+00  0.13030985704E+04  0.13030985704E+04  0.25500000000E-02 0. -1.
         -2   -1    0    0    0  501 -0.00000000000E+00 -0.00000000000E+00 -0.77921046928E+03  0.77921046928E+03  0.25500000000E-02 0.  1.
    8880023    1    1    2    0    0  0.40345006936E+03  0.46424423162E+03 -0.38029060156E+03  0.97812361844E+03  0.65864270000E+03 0.  0.
    8880022    1    1    2    0    0 -0.40345006936E+03 -0.46424423162E+03  0.90417870265E+03  0.11041854212E+04  0.15294330000E+03 0.  0.
<mgrwt>
<rscale>  0 0.82525929E+03</rscale>
<asrwt>0</asrwt>
<pdfrwt beam="1">  1        2 0.20047670E+00 0.90116861E+03</pdfrwt>
<pdfrwt beam="2">  1       -2 0.11987853E+00 0.90116861E+03</pdfrwt>
<totfact> 0.87915129E+00</totfact>
</mgrwt>
</event>
<event>
 4    5  0.8511149E-008  0.8193833E+03  0.7818608E-02  0.9670353E-01
          2   -1    0    0  501    0  0.00000000000E+00  0.00000000000E+00  0.49415586468E+03  0.49415586469E+03  0.25500000000E-02 0. -1.
         -2   -1    0    0    0  501 -0.00000000000E+00 -0.00000000000E+00 -0.11190733605E+04  0.11190733605E+04  0.25500000000E-02 0.  1.
    8880023    1    1    2    0    0 -0.14476922648E+03 -0.46542523950E+03 -0.72333966875E+03  0.10929818229E+04  0.65864270000E+03 0.  0.
    8880022    1    1    2    0    0  0.14476922648E+03  0.46542523950E+03  0.98422172914E+02  0.52024740233E+03  0.15294330000E+03 0.  0.
<mgrwt>
<rscale>  0 0.72809700E+03</rscale>
<asrwt>0</asrwt>
<pdfrwt beam="1">  1        2 0.76023979E-01 0.81938330E+03</pdfrwt>
<pdfrwt beam="2">  1       -2 0.17216513E+00 0.81938330E+03</pdfrwt>
<totfact> 0.12959611E+01</totfact>
</mgrwt>
</event>
<event>
 4    5  0.8511149E-008  0.1030905E+04  0.7818608E-02  0.9342197E-01
         -2   -1    0    0    0  501 -0.00000000000E+00  0.00000000000E+00  0.61678820197E+03  0.61678820198E+03  0.25500000000E-02 0.  1.
          2   -1    0    0  501    0  0.00000000000E+00 -0.00000000000E+00 -0.34448304905E+04  0.34448304905E+04  0.25500000000E-02 0. -1.
    8880023    1    1    2    0    0  0.78550044083E+03 -0.10928692689E+03  0.89081172013E+02  0.10347464600E+04  0.65864270000E+03 0.  0.
    8880022    1    1    2    0    0 -0.78550044083E+03  0.10928692689E+03 -0.29171234605E+04  0.30268722325E+04  0.15294330000E+03 0.  0.
<mgrwt>
<rscale>  0 0.96989273E+03</rscale>
<asrwt>0</asrwt>
<pdfrwt beam="1">  1        2 0.52997391E+00 0.10309048E+04</pdfrwt>
<pdfrwt beam="2">  1       -2 0.94890494E-01 0.10309048E+04</pdfrwt>
<totfact> 0.85210753E-01</totfact>
</mgrwt>
</event>
<event>
 4    5  0.8511149E-008  0.1967629E+04  0.7818608E-02  0.8635072E-01
          2   -1    0    0  501    0  0.00000000000E+00  0.00000000000E+00  0.20796129214E+04  0.20796129214E+04  0.25500000000E-02 0. -1.
         -2   -1    0    0    0  501 -0.00000000000E+00 -0.00000000000E+00 -0.22743705905E+04  0.22743705905E+04  0.25500000000E-02 0.  1.
    8880023    1    1    2    0    0  0.17126966690E+04  0.71022934597E+03 -0.11328432647E+04  0.22704404138E+04  0.65864270000E+03 0.  0.
    8880022    1    1    2    0    0 -0.17126966690E+04 -0.71022934597E+03  0.93808559559E+03  0.20835430981E+04  0.15294330000E+03 0.  0.
<mgrwt>
<rscale>  0 0.19402603E+04</rscale>
<asrwt>0</asrwt>
<pdfrwt beam="1">  1        2 0.31994045E+00 0.19676295E+04</pdfrwt>
<pdfrwt beam="2">  1       -2 0.34990317E+00 0.19676295E+04</pdfrwt>
<totfact> 0.83692996E-02</totfact>
</mgrwt>
</event>
<event>
 4    5  0.8511149E-008  0.1224521E+04  0.7818608E-02  0.9133647E-01
          2   -1    0    0  501    0  0.00000000000E+00  0.00000000000E+00  0.65553181250E+03  0.65553181250E+03  0.25500000000E-02 0. -1.
         -2   -1    0    0    0  501 -0.00000000000E+00 -0.00000000000E+00 -0.31224912177E+04  0.31224912177E+04  0.25500000000E-02 0.  1.
    8880023    1    1    2    0    0 -0.81724795057E+02  0.10290592993E+04 -0.24446868690E+04  0.27342176353E+04  0.65864270000E+03 0.  1.
    8880022    1    1    2    0    0  0.81724795057E+02 -0.10290592993E+04 -0.22272536219E+02  0.10438053949E+04  0.15294330000E+03 0.  0.
<mgrwt>
<rscale>  0 0.11765351E+04</rscale>
<asrwt>0</asrwt>
<pdfrwt beam="1">  1        2 0.10085105E+00 0.12245212E+04</pdfrwt>
<pdfrwt beam="2">  1       -2 0.48038326E+00 0.12245212E+04</pdfrwt>
<totfact> 0.96053526E-02</totfact>
</mgrwt>
</event>
<event>
 4    5  0.8511149E-008  0.8459627E+03  0.7818608E-02  0.9619038E-01
         -2   -1    0    0    0  501 -0.00000000000E+00  0.00000000000E+00  0.21154447828E+04  0.21154447828E+04  0.25500000000E-02 0.  1.
          2   -1    0    0  501    0  0.00000000000E+00 -0.00000000000E+00 -0.29583356889E+03  0.29583356890E+03  0.25500000000E-02 0. -1.
    8880023    1    1    2    0    0  0.52294545391E+03 -0.91491776697E+02  0.16130927192E+04  0.18214612321E+04  0.65864270000E+03 0.  0.
    8880022    1    1    2    0    0 -0.52294545391E+03  0.91491776697E+02  0.20651849477E+03  0.58981711968E+03  0.15294330000E+03 0.  0.
<mgrwt>
<rscale>  0 0.76048839E+03</rscale>
<asrwt>0</asrwt>
<pdfrwt beam="1">  1        2 0.45512856E-01 0.84596271E+03</pdfrwt>
<pdfrwt beam="2">  1       -2 0.32545305E+00 0.84596271E+03</pdfrwt>
<totfact> 0.25501160E+00</totfact>
</mgrwt>
</event>
<event>
 4    5  0.8511149E-008  0.1029582E+04  0.7818608E-02  0.9343839E-01
          2   -1    0    0  501    0  0.00000000000E+00  0.00000000000E+00  0.20435601466E+04  0.20435601466E+04  0.25500000000E-02 0. -1.
         -2   -1    0    0    0  501 -0.00000000000E+00 -0.00000000000E+00 -0.58626785900E+03  0.58626785900E+03  0.25500000000E-02 0.  1.
    8880023    1    1    2    0    0  0.74996555951E+03 -0.25254925652E+03  0.78284471308E+02  0.10325541788E+04  0.65864270000E+03 0.  1.
    8880022    1    1    2    0    0 -0.74996555951E+03  0.25254925652E+03  0.13790078162E+04  0.15972738268E+04  0.15294330000E+03 0.  0.
<mgrwt>
<rscale>  0 0.96845247E+03</rscale>
<asrwt>0</asrwt>
<pdfrwt beam="1">  1        2 0.31439387E+00 0.10295823E+04</pdfrwt>
<pdfrwt beam="2">  1       -2 0.90195055E-01 0.10295823E+04</pdfrwt>
<totfact> 0.66332349E+00</totfact>
</mgrwt>
</event>
<event>
 4    5  0.8511149E-008  0.7091224E+03  0.7818608E-02  0.9961274E-01
          2   -1    0    0  501    0  0.00000000000E+00  0.00000000000E+00  0.17749479384E+04  0.17749479384E+04  0.25500000000E-02 0. -1.
         -2   -1    0    0    0  501 -0.00000000000E+00 -0.00000000000E+00 -0.28970186581E+03  0.28970186582E+03  0.25500000000E-02 0.  1.
    8880023    1    1    2    0    0 -0.13033128598E+03 -0.22816254265E+03  0.18991036358E+03  0.73411207757E+03  0.65864270000E+03 0.  1.
    8880022    1    1    2    0    0  0.13033128598E+03  0.22816254265E+03  0.12953357090E+04  0.13305377266E+04  0.15294330000E+03 0.  0.
<mgrwt>
<rscale>  0 0.57381392E+03</rscale>
<asrwt>0</asrwt>
<pdfrwt beam="1">  1        2 0.27306892E+00 0.70912241E+03</pdfrwt>
<pdfrwt beam="2">  1       -2 0.44569518E-01 0.70912241E+03</pdfrwt>
<totfact> 0.43882227E+01</totfact>
</mgrwt>
</event>
<event>
 4    5  0.8511149E-008  0.8445427E+03  0.7818608E-02  0.9621673E-01
         -2   -1    0    0    0  501 -0.00000000000E+00  0.00000000000E+00  0.28255300726E+03  0.28255300727E+03  0.25500000000E-02 0.  1.
          2   -1    0    0  501    0  0.00000000000E+00 -0.00000000000E+00 -0.19953859830E+04  0.19953859830E+04  0.25500000000E-02 0. -1.
    8880023    1    1    2    0    0  0.34233225685E+03 -0.40280372840E+03 -0.14261089281E+04  0.16574194094E+04  0.65864270000E+03 0. -1.
    8880022    1    1    2    0    0 -0.34233225685E+03  0.40280372840E+03 -0.28672404763E+03  0.62051958083E+03  0.15294330000E+03 0.  0.
<mgrwt>
<rscale>  0 0.75878158E+03</rscale>
<asrwt>0</asrwt>
<pdfrwt beam="1">  1        2 0.30698245E+00 0.84454273E+03</pdfrwt>
<pdfrwt beam="2">  1       -2 0.43469695E-01 0.84454273E+03</pdfrwt>
<totfact> 0.34405736E+01</totfact>
</mgrwt>
</event>
<event>
 4    5  0.8511149E-008  0.1218699E+04  0.7818608E-02  0.9139157E-01
         -2   -1    0    0    0  501 -0.00000000000E+00  0.00000000000E+00  0.76591465667E+03  0.76591465667E+03  0.25500000000E-02 0.  1.
          2   -1    0    0  501    0  0.00000000000E+00 -0.00000000000E+00 -0.20782174689E+04  0.20782174689E+04  0.25500000000E-02 0. -1.
    8880023    1    1    2    0    0 -0.17825087793E+03 -0.10097735095E+04 -0.62493246444E+02  0.12202997698E+04  0.65864270000E+03 0.  1.
    8880022    1    1    2    0    0  0.17825087793E+03  0.10097735095E+04 -0.12498095658E+04  0.16238323558E+04  0.15294330000E+03 0.  0.
<mgrwt>
<rscale>  0 0.11704114E+04</rscale>
<asrwt>0</asrwt>
<pdfrwt beam="1">  1        2 0.31972576E+00 0.12186985E+04</pdfrwt>
<pdfrwt beam="2">  1       -2 0.11783302E+00 0.12186985E+04</pdfrwt>
<totfact> 0.32734852E+00</totfact>
</mgrwt>
</event>
<event>
 4    5  0.8511149E-008  0.8421910E+03  0.7818608E-02  0.9626063E-01
          2   -1    0    0  501    0  0.00000000000E+00  0.00000000000E+00  0.13131861259E+04  0.13131861259E+04  0.25500000000E-02 0. -1.
         -2   -1    0    0    0  501 -0.00000000000E+00 -0.00000000000E+00 -0.10489473360E+04  0.10489473360E+04  0.25500000000E-02 0.  1.
    8880023    1    1    2    0    0 -0.47740700753E+03  0.21807800090E+03 -0.80259956470E+03  0.11633794449E+04  0.65864270000E+03 0.  1.
    8880022    1    1    2    0    0  0.47740700753E+03 -0.21807800090E+03  0.10668383546E+04  0.11987540170E+04  0.15294330000E+03 0.  0.
<mgrwt>
<rscale>  0 0.75594937E+03</rscale>
<asrwt>0</asrwt>
<pdfrwt beam="1">  1        2 0.20202863E+00 0.84219099E+03</pdfrwt>
<pdfrwt beam="2">  1       -2 0.16137651E+00 0.84219099E+03</pdfrwt>
<totfact> 0.40396912E+00</totfact>
</mgrwt>
</event>
<event>
 4    5  0.8511149E-008  0.9743314E+03  0.7818608E-02  0.9415938E-01
         -2   -1    0    0    0  501 -0.00000000000E+00  0.00000000000E+00  0.98548702655E+03  0.98548702655E+03  0.25500000000E-02 0.  1.
          2   -1    0    0  501    0  0.00000000000E+00 -0.00000000000E+00 -0.13866588453E+04  0.13866588453E+04  0.25500000000E-02 0. -1.
    8880023    1    1    2    0    0  0.35114027362E+03 -0.62626833419E+03  0.58975914393E+03  0.11389194758E+04  0.65864270000E+03 0.  1.
    8880022    1    1    2    0    0 -0.35114027362E+03  0.62626833419E+03 -0.99093096266E+03  0.12332263961E+04  0.15294330000E+03 0.  0.
<mgrwt>
<rscale>  0 0.90775547E+03</rscale>
<asrwt>0</asrwt>
<pdfrwt beam="1">  1        2 0.21333213E+00 0.97433142E+03</pdfrwt>
<pdfrwt beam="2">  1       -2 0.15161339E+00 0.97433142E+03</pdfrwt>
<totfact> 0.42671943E+00</totfact>
</mgrwt>
</event>
<event>
 4    5  0.8511149E-008  0.1318387E+04  0.7818608E-02  0.9049842E-01
         -2   -1    0    0    0  501 -0.00000000000E+00  0.00000000000E+00  0.11715126950E+04  0.11715126950E+04  0.25500000000E-02 0.  1.
          2   -1    0    0  501    0  0.00000000000E+00 -0.00000000000E+00 -0.20798440915E+04  0.20798440915E+04  0.25500000000E-02 0. -1.
    8880023    1    1    2    0    0  0.10429480591E+04 -0.46539461587E+03  0.51908666218E+03  0.14168958930E+04  0.65864270000E+03 0.  1.
    8880022    1    1    2    0    0 -0.10429480591E+04  0.46539461587E+03 -0.14274180586E+04  0.18344608935E+04  0.15294330000E+03 0.  0.
<mgrwt>
<rscale>  0 0.12747369E+04</rscale>
<asrwt>0</asrwt>
<pdfrwt beam="1">  1        2 0.31997601E+00 0.13183865E+04</pdfrwt>
<pdfrwt beam="2">  1       -2 0.18023272E+00 0.13183865E+04</pdfrwt>
<totfact> 0.10445585E+00</totfact>
</mgrwt>
</event>
<event>
 4    5  0.8511149E-008  0.9281039E+03  0.7818608E-02  0.9482343E-01
         -2   -1    0    0    0  501 -0.00000000000E+00  0.00000000000E+00  0.39956320852E+03  0.39956320853E+03  0.25500000000E-02 0.  1.
          2   -1    0    0  501    0  0.00000000000E+00 -0.00000000000E+00 -0.16652133789E+04  0.16652133789E+04  0.25500000000E-02 0. -1.
    8880023    1    1    2    0    0 -0.68126991880E+02  0.65032715511E+03 -0.53024315331E+03  0.10688941499E+04  0.65864270000E+03 0.  1.
    8880022    1    1    2    0    0  0.68126991880E+02 -0.65032715511E+03 -0.73540701704E+03  0.99588243755E+03  0.15294330000E+03 0. -1.
<mgrwt>
<rscale>  0 0.85598176E+03</rscale>
<asrwt>0</asrwt>
<pdfrwt beam="1">  1        2 0.25618667E+00 0.92810393E+03</pdfrwt>
<pdfrwt beam="2">  1       -2 0.61471264E-01 0.92810393E+03</pdfrwt>
<totfact> 0.25395310E+01</totfact>
</mgrwt>
</event>
<event>
 4    5  0.8511149E-008  0.1183966E+04  0.7818608E-02  0.9172868E-01
         -2   -1    0    0    0  501 -0.00000000000E+00  0.00000000000E+00  0.13769208360E+04  0.13769208360E+04  0.25500000000E-02 0.  1.
          2   -1    0    0  501    0  0.00000000000E+00 -0.00000000000E+00 -0.10135219076E+04  0.10135219076E+04  0.25500000000E-02 0. -1.
    8880023    1    1    2    0    0  0.61739132136E+03 -0.76602404923E+03 -0.26472731236E+03  0.12132005786E+04  0.65864270000E+03 0.  0.
    8880022    1    1    2    0    0 -0.61739132136E+03  0.76602404923E+03  0.62812624083E+03  0.11772421650E+04  0.15294330000E+03 0.  0.
<mgrwt>
<rscale>  0 0.11337913E+04</rscale>
<asrwt>0</asrwt>
<pdfrwt beam="1">  1        2 0.15592645E+00 0.11839658E+04</pdfrwt>
<pdfrwt beam="2">  1       -2 0.21183397E+00 0.11839658E+04</pdfrwt>
<totfact> 0.26801026E+00</totfact>
</mgrwt>
</event>
<event>
 4    5  0.8511149E-008  0.8968905E+03  0.7818608E-02  0.9531042E-01
         -2   -1    0    0    0  501 -0.00000000000E+00  0.00000000000E+00  0.89381797121E+03  0.89381797122E+03  0.25500000000E-02 0.  1.
          2   -1    0    0  501    0  0.00000000000E+00 -0.00000000000E+00 -0.83011373789E+03  0.83011373790E+03  0.25500000000E-02 0. -1.
    8880023    1    1    2    0    0 -0.51955260861E+03 -0.31728138478E+03  0.43270447771E+03  0.99581411997E+03  0.65864270000E+03 0.  0.
    8880022    1    1    2    0    0  0.51955260861E+03  0.31728138478E+03 -0.36900024439E+03  0.72811758914E+03  0.15294330000E+03 0.  0.
<mgrwt>
<rscale>  0 0.82033413E+03</rscale>
<asrwt>0</asrwt>
<pdfrwt beam="1">  1        2 0.12770980E+00 0.89689052E+03</pdfrwt>
<pdfrwt beam="2">  1       -2 0.13751046E+00 0.89689052E+03</pdfrwt>
<totfact> 0.12345846E+01</totfact>
</mgrwt>
</event>
<event>
 4    5  0.8511149E-008  0.6748135E+03  0.7818608E-02  0.1012424E+00
          2   -1    0    0  501    0  0.00000000000E+00  0.00000000000E+00  0.21267254598E+04  0.21267254598E+04  0.25500000000E-02 0. -1.
         -2   -1    0    0    0  501 -0.00000000000E+00 -0.00000000000E+00 -0.29896162711E+03  0.29896162712E+03  0.25500000000E-02 0.  1.
    8880023    1    1    2    0    0 -0.14678063023E+03  0.42935205724E+01  0.96723319336E+02  0.68171005163E+03  0.65864270000E+03 0.  1.
    8880022    1    1    2    0    0  0.14678063023E+03 -0.42935205724E+01  0.17310405134E+04  0.17439770353E+04  0.15294330000E+03 0.  0.
<mgrwt>
<rscale>  0 0.50522475E+03</rscale>
<asrwt>0</asrwt>
<pdfrwt beam="1">  1        2 0.32718855E+00 0.67481345E+03</pdfrwt>
<pdfrwt beam="2">  1       -2 0.45994094E-01 0.67481345E+03</pdfrwt>
<totfact> 0.26642881E+01</totfact>
</mgrwt>
</event>
<event>
 4    5  0.8511149E-008  0.8047590E+03  0.7818608E-02  0.9700599E-01
         -2   -1    0    0    0  501 -0.00000000000E+00  0.00000000000E+00  0.35407320020E+03  0.35407320021E+03  0.25500000000E-02 0.  1.
          2   -1    0    0  501    0  0.00000000000E+00 -0.00000000000E+00 -0.14830765439E+04  0.14830765439E+04  0.25500000000E-02 0. -1.
    8880023    1    1    2    0    0 -0.41502277353E+03 -0.20391893512E+03 -0.26849666913E+03  0.84836755139E+03  0.65864270000E+03 0.  1.
    8880022    1    1    2    0    0  0.41502277353E+03  0.20391893512E+03 -0.86050667455E+03  0.98878219271E+03  0.15294330000E+03 0.  0.
<mgrwt>
<rscale>  0 0.70981136E+03</rscale>
<asrwt>0</asrwt>
<pdfrwt beam="1">  1        2 0.22816562E+00 0.80475900E+03</pdfrwt>
<pdfrwt beam="2">  1       -2 0.54472801E-01 0.80475900E+03</pdfrwt>
<totfact> 0.41831981E+01</totfact>
</mgrwt>
</event>
<event>
 4    5  0.8511149E-008  0.6707840E+03  0.7818608E-02  0.1015107E+00
         -2   -1    0    0    0  501 -0.00000000000E+00  0.00000000000E+00  0.70237065097E+02  0.70237065143E+02  0.25500000000E-02 0.  1.
          2   -1    0    0  501    0  0.00000000000E+00 -0.00000000000E+00 -0.28192022237E+04  0.28192022237E+04  0.25500000000E-02 0. -1.
    8880023    1    1    2    0    0 -0.11265878366E+03  0.58727778565E+02 -0.18262085228E+04  0.19455047490E+04  0.65864270000E+03 0.  0.
    8880022    1    1    2    0    0  0.11265878366E+03 -0.58727778565E+02 -0.92275663581E+03  0.94393453982E+03  0.15294330000E+03 0.  1.
<mgrwt>
<rscale>  0 0.49494444E+03</rscale>
<asrwt>0</asrwt>
<pdfrwt beam="1">  1        2 0.43372333E+00 0.67078399E+03</pdfrwt>
<pdfrwt beam="2">  1       -2 0.10805704E-01 0.67078399E+03</pdfrwt>
<totfact> 0.14414546E+02</totfact>
</mgrwt>
</event>
<event>
 4    5  0.8511149E-008  0.9365962E+03  0.7818608E-02  0.9469667E-01
          2   -1    0    0  501    0  0.00000000000E+00  0.00000000000E+00  0.22124019287E+04  0.22124019287E+04  0.25500000000E-02 0. -1.
         -2   -1    0    0    0  501 -0.00000000000E+00 -0.00000000000E+00 -0.52242977310E+03  0.52242977310E+03  0.25500000000E-02 0.  1.
    8880023    1    1    2    0    0 -0.61783503882E+03 -0.24835897433E+03  0.27005836449E+02  0.93698550511E+03  0.65864270000E+03 0.  1.
    8880022    1    1    2    0    0  0.61783503882E+03  0.24835897433E+03  0.16629663191E+04  0.17978461967E+04  0.15294330000E+03 0.  0.
<mgrwt>
<rscale>  0 0.86557552E+03</rscale>
<asrwt>0</asrwt>
<pdfrwt beam="1">  1        2 0.34036953E+00 0.93659624E+03</pdfrwt>
<pdfrwt beam="2">  1       -2 0.80373811E-01 0.93659624E+03</pdfrwt>
<totfact> 0.70428406E+00</totfact>
</mgrwt>
</event>
<event>
 4    5  0.8511149E-008  0.6679190E+03  0.7818608E-02  0.1017201E+00
         -2   -1    0    0    0  501 -0.00000000000E+00  0.00000000000E+00  0.19559409427E+03  0.19559409429E+03  0.25500000000E-02 0.  1.
          2   -1    0    0  501    0  0.00000000000E+00 -0.00000000000E+00 -0.15152617778E+04  0.15152617778E+04  0.25500000000E-02 0. -1.
    8880023    1    1    2    0    0  0.92065208370E+02 -0.61883363523E+02 -0.41428491992E+03  0.78596930882E+03  0.65864270000E+03 0.  1.
    8880022    1    1    2    0    0 -0.92065208370E+02  0.61883363523E+02 -0.90538276358E+03  0.92488656325E+03  0.15294330000E+03 0.  0.
<mgrwt>
<rscale>  0 0.48710447E+03</rscale>
<asrwt>0</asrwt>
<pdfrwt beam="1">  1        2 0.23311719E+00 0.66791898E+03</pdfrwt>
<pdfrwt beam="2">  1       -2 0.30091400E-01 0.66791898E+03</pdfrwt>
<totfact> 0.12997521E+02</totfact>
</mgrwt>
</event>
<event>
 4    5  0.8511149E-008  0.7476712E+03  0.7818608E-02  0.9838140E-01
         -2   -1    0    0    0  501 -0.00000000000E+00  0.00000000000E+00  0.53128874586E+03  0.53128874586E+03  0.25500000000E-02 0.  1.
          2   -1    0    0  501    0  0.00000000000E+00 -0.00000000000E+00 -0.10808302943E+04  0.10808302943E+04  0.25500000000E-02 0. -1.
    8880023    1    1    2    0    0  0.34995493888E+03 -0.52283473974E+02  0.19589788093E+03  0.77290892537E+03  0.65864270000E+03 0.  1.
    8880022    1    1    2    0    0 -0.34995493888E+03  0.52283473974E+02 -0.74543942938E+03  0.83921011481E+03  0.15294330000E+03 0.  0.
<mgrwt>
<rscale>  0 0.63355311E+03</rscale>
<asrwt>0</asrwt>
<pdfrwt beam="1">  1        2 0.16628158E+00 0.74767120E+03</pdfrwt>
<pdfrwt beam="2">  1       -2 0.81736730E-01 0.74767120E+03</pdfrwt>
<totfact> 0.29997704E+01</totfact>
</mgrwt>
</event>
<event>
 4    5  0.8511149E-008  0.9790619E+03  0.7818608E-02  0.9409479E-01
          2   -1    0    0  501    0  0.00000000000E+00  0.00000000000E+00  0.38345122342E+04  0.38345122342E+04  0.25500000000E-02 0. -1.
         -2   -1    0    0    0  501 -0.00000000000E+00 -0.00000000000E+00 -0.38844194096E+03  0.38844194097E+03  0.25500000000E-02 0.  1.
    8880023    1    1    2    0    0 -0.71132955322E+03 -0.13697570369E+03  0.35023510044E+03  0.10398206136E+04  0.65864270000E+03 0.  0.
    8880022    1    1    2    0    0  0.71132955322E+03  0.13697570369E+03  0.30958351928E+04  0.31831335616E+04  0.15294330000E+03 0.  0.
<mgrwt>
<rscale>  0 0.91299717E+03</rscale>
<asrwt>0</asrwt>
<pdfrwt beam="1">  1        2 0.58992497E+00 0.97906194E+03</pdfrwt>
<pdfrwt beam="2">  1       -2 0.59760298E-01 0.97906194E+03</pdfrwt>
<totfact> 0.12700264E+00</totfact>
</mgrwt>
</event>
<event>
 4    5  0.8511149E-008  0.6753289E+03  0.7818608E-02  0.1012100E+00
         -2   -1    0    0    0  501 -0.00000000000E+00  0.00000000000E+00  0.11909777853E+04  0.11909777853E+04  0.25500000000E-02 0.  1.
          2   -1    0    0  501    0  0.00000000000E+00 -0.00000000000E+00 -0.26630721361E+03  0.26630721362E+03  0.25500000000E-02 0. -1.
    8880023    1    1    2    0    0  0.14768660996E+03 -0.21157210103E+02  0.10200162924E+04  0.12233161510E+04  0.65864270000E+03 0.  1.
    8880022    1    1    2    0    0 -0.14768660996E+03  0.21157210103E+02 -0.95345720745E+02  0.23396884788E+03  0.15294330000E+03 0.  0.
<mgrwt>
<rscale>  0 0.50648589E+03</rscale>
<asrwt>0</asrwt>
<pdfrwt beam="1">  1        2 0.40970341E-01 0.67532893E+03</pdfrwt>
<pdfrwt beam="2">  1       -2 0.18322735E+00 0.67532893E+03</pdfrwt>
<totfact> 0.22057134E+01</totfact>
</mgrwt>
</event>
<event>
 4    5  0.8511149E-008  0.8006598E+03  0.7818608E-02  0.9709371E-01
          2   -1    0    0  501    0  0.00000000000E+00  0.00000000000E+00  0.34123331800E+04  0.34123331800E+04  0.25500000000E-02 0. -1.
         -2   -1    0    0    0  501 -0.00000000000E+00 -0.00000000000E+00 -0.57244811363E+03  0.57244811363E+03  0.25500000000E-02 0.  1.
    8880023    1    1    2    0    0  0.28326691509E+03 -0.35637877280E+03 -0.26469268704E+03  0.84327836432E+03  0.65864270000E+03 0.  0.
    8880022    1    1    2    0    0 -0.28326691509E+03  0.35637877280E+03  0.31045777534E+04  0.31415029293E+04  0.15294330000E+03 0.  0.
<mgrwt>
<rscale>  0 0.70461568E+03</rscale>
<asrwt>0</asrwt>
<pdfrwt beam="1">  1        2 0.52497434E+00 0.80065984E+03</pdfrwt>
<pdfrwt beam="2">  1       -2 0.88068940E-01 0.80065984E+03</pdfrwt>
<totfact> 0.11138711E+00</totfact>
</mgrwt>
</event>
<event>
 4    5  0.8511149E-008  0.6806020E+03  0.7818608E-02  0.1008985E+00
          2   -1    0    0  501    0  0.00000000000E+00  0.00000000000E+00  0.74835046716E+03  0.74835046716E+03  0.25500000000E-02 0. -1.
         -2   -1    0    0    0  501 -0.00000000000E+00 -0.00000000000E+00 -0.36334299055E+03  0.36334299056E+03  0.25500000000E-02 0.  1.
    8880023    1    1    2    0    0  0.10987708661E+03  0.13166610961E+03  0.20631628062E+02  0.68091468549E+03  0.65864270000E+03 0.  1.
    8880022    1    1    2    0    0 -0.10987708661E+03 -0.13166610961E+03  0.36437584855E+03  0.43077877223E+03  0.15294330000E+03 0. -1.
<mgrwt>
<rscale>  0 0.51879978E+03</rscale>
<asrwt>0</asrwt>
<pdfrwt beam="1">  1        2 0.11513084E+00 0.68060205E+03</pdfrwt>
<pdfrwt beam="2">  1       -2 0.55898922E-01 0.68060205E+03</pdfrwt>
<totfact> 0.11486544E+02</totfact>
</mgrwt>
</event>
<event>
 4    5  0.8511149E-008  0.7422825E+03  0.7818608E-02  0.9853348E-01
          2   -1    0    0  501    0  0.00000000000E+00  0.00000000000E+00  0.79397114715E+03  0.79397114715E+03  0.25500000000E-02 0. -1.
         -2   -1    0    0    0  501 -0.00000000000E+00 -0.00000000000E+00 -0.17522966344E+04  0.17522966344E+04  0.25500000000E-02 0.  1.
    8880023    1    1    2    0    0  0.21096084802E+03 -0.26957107728E+03 -0.16221329010E+04  0.17838997729E+04  0.65864270000E+03 0.  1.
    8880022    1    1    2    0    0 -0.21096084802E+03  0.26957107728E+03  0.66380741371E+03  0.76236800865E+03  0.15294330000E+03 0.  0.
<mgrwt>
<rscale>  0 0.62576524E+03</rscale>
<asrwt>0</asrwt>
<pdfrwt beam="1">  1        2 0.12214941E+00 0.74228246E+03</pdfrwt>
<pdfrwt beam="2">  1       -2 0.26958410E+00 0.74228246E+03</pdfrwt>
<totfact> 0.17601488E+00</totfact>
</mgrwt>
</event>
<event>
 4    5  0.8511149E-008  0.6753980E+03  0.7818608E-02  0.1012057E+00
         -2   -1    0    0    0  501 -0.00000000000E+00  0.00000000000E+00  0.11147113471E+04  0.11147113471E+04  0.25500000000E-02 0.  1.
          2   -1    0    0  501    0  0.00000000000E+00 -0.00000000000E+00 -0.84230354247E+03  0.84230354247E+03  0.25500000000E-02 0. -1.
    8880023    1    1    2    0    0  0.54663233786E+02 -0.13915513336E+03  0.99548097954E+03  0.12029733194E+04  0.65864270000E+03 0.  1.
    8880022    1    1    2    0    0 -0.54663233786E+02  0.13915513336E+03 -0.72307317492E+03  0.75404157018E+03  0.15294330000E+03 0.  0.
<mgrwt>
<rscale>  0 0.50665395E+03</rscale>
<asrwt>0</asrwt>
<pdfrwt beam="1">  1        2 0.12958516E+00 0.67539798E+03</pdfrwt>
<pdfrwt beam="2">  1       -2 0.17149405E+00 0.67539798E+03</pdfrwt>
<totfact> 0.68747950E+00</totfact>
</mgrwt>
</event>
<event>
 4    5  0.8511149E-008  0.7502168E+03  0.7818608E-02  0.9831127E-01
          2   -1    0    0  501    0  0.00000000000E+00  0.00000000000E+00  0.16630212722E+04  0.16630212722E+04  0.25500000000E-02 0. -1.
         -2   -1    0    0    0  501 -0.00000000000E+00 -0.00000000000E+00 -0.60937785303E+03  0.60937785303E+03  0.25500000000E-02 0.  1.
    8880023    1    1    2    0    0  0.14809667209E+03  0.32723440803E+03 -0.34104872120E+03  0.82409915579E+03  0.65864270000E+03 0.  1.
    8880022    1    1    2    0    0 -0.14809667209E+03 -0.32723440803E+03  0.13946921403E+04  0.14482999694E+04  0.15294330000E+03 0.  0.
<mgrwt>
<rscale>  0 0.63718502E+03</rscale>
<asrwt>0</asrwt>
<pdfrwt beam="1">  1        2 0.25584942E+00 0.75021676E+03</pdfrwt>
<pdfrwt beam="2">  1       -2 0.93750441E-01 0.75021676E+03</pdfrwt>
<totfact> 0.10159989E+01</totfact>
</mgrwt>
</event>
<event>
 4    5  0.8511149E-008  0.6705962E+03  0.7818608E-02  0.1015239E+00
          2   -1    0    0  501    0  0.00000000000E+00  0.00000000000E+00  0.19179589014E+04  0.19179589014E+04  0.25500000000E-02 0. -1.
         -2   -1    0    0    0  501 -0.00000000000E+00 -0.00000000000E+00 -0.18668628367E+03  0.18668628369E+03  0.25500000000E-02 0.  1.
    8880023    1    1    2    0    0  0.11910318475E+03  0.41273950071E+02  0.44873536780E+03  0.80688459159E+03  0.65864270000E+03 0.  1.
    8880022    1    1    2    0    0 -0.11910318475E+03 -0.41273950071E+02  0.12825372500E+04  0.12977605935E+04  0.15294330000E+03 0.  0.
<mgrwt>
<rscale>  0 0.49444538E+03</rscale>
<asrwt>0</asrwt>
<pdfrwt beam="1">  1        2 0.29507059E+00 0.67059624E+03</pdfrwt>
<pdfrwt beam="2">  1       -2 0.28720967E-01 0.67059624E+03</pdfrwt>
<totfact> 0.85360777E+01</totfact>
</mgrwt>
</event>
<event>
 4    5  0.8511149E-008  0.1179879E+04  0.7818608E-02  0.9176933E-01
         -2   -1    0    0    0  501 -0.00000000000E+00  0.00000000000E+00  0.17947703817E+04  0.17947703817E+04  0.25500000000E-02 0.  1.
          2   -1    0    0  501    0  0.00000000000E+00 -0.00000000000E+00 -0.92929265600E+03  0.92929265601E+03  0.25500000000E-02 0. -1.
    8880023    1    1    2    0    0 -0.86247605061E+03 -0.46307718953E+03  0.11955546546E+04  0.16797221674E+04  0.65864270000E+03 0.  0.
    8880022    1    1    2    0    0  0.86247605061E+03  0.46307718953E+03 -0.33007692890E+03  0.10443408703E+04  0.15294330000E+03 0.  0.
<mgrwt>
<rscale>  0 0.11294719E+04</rscale>
<asrwt>0</asrwt>
<pdfrwt beam="1">  1        2 0.14296810E+00 0.11798795E+04</pdfrwt>
<pdfrwt beam="2">  1       -2 0.27611852E+00 0.11798795E+04</pdfrwt>
<totfact> 0.12200630E+00</totfact>
</mgrwt>
</event>
<event>
 4    5  0.8511149E-008  0.6882236E+03  0.7818608E-02  0.1005009E+00
         -2   -1    0    0    0  501 -0.00000000000E+00  0.00000000000E+00  0.36804062232E+03  0.36804062233E+03  0.25500000000E-02 0.  1.
          2   -1    0    0  501    0  0.00000000000E+00 -0.00000000000E+00 -0.79322646276E+03  0.79322646276E+03  0.25500000000E-02 0. -1.
    8880023    1    1    2    0    0 -0.41921036735E+01 -0.19955943198E+03 -0.25053549663E+02  0.68867948077E+03  0.65864270000E+03 0.  1.
    8880022    1    1    2    0    0  0.41921036735E+01  0.19955943198E+03 -0.40013229077E+03  0.47258760432E+03  0.15294330000E+03 0.  0.
<mgrwt>
<rscale>  0 0.53507581E+03</rscale>
<asrwt>0</asrwt>
<pdfrwt beam="1">  1        2 0.12203484E+00 0.68822362E+03</pdfrwt>
<pdfrwt beam="2">  1       -2 0.56621634E-01 0.68822362E+03</pdfrwt>
<totfact> 0.10361160E+02</totfact>
</mgrwt>
</event>
<event>
 4    5  0.8511149E-008  0.7079890E+03  0.7818608E-02  0.9965546E-01
          2   -1    0    0  501    0  0.00000000000E+00  0.00000000000E+00  0.13129110990E+04  0.13129110990E+04  0.25500000000E-02 0. -1.
         -2   -1    0    0    0  501 -0.00000000000E+00 -0.00000000000E+00 -0.48964258930E+03  0.48964258930E+03  0.25500000000E-02 0.  1.
    8880023    1    1    2    0    0  0.25626257542E+03  0.42043846058E+02 -0.20010557847E+03  0.73572456895E+03  0.65864270000E+03 0.  0.
    8880022    1    1    2    0    0 -0.25626257542E+03 -0.42043846058E+02  0.10233740882E+04  0.10668291194E+04  0.15294330000E+03 0.  0.
<mgrwt>
<rscale>  0 0.57187149E+03</rscale>
<asrwt>0</asrwt>
<pdfrwt beam="1">  1        2 0.20198632E+00 0.70798898E+03</pdfrwt>
<pdfrwt beam="2">  1       -2 0.75329630E-01 0.70798898E+03</pdfrwt>
<totfact> 0.26344613E+01</totfact>
</mgrwt>
</event>
<event>
 4    5  0.8511149E-008  0.9471869E+03  0.7818608E-02  0.9454173E-01
          2   -1    0    0  501    0  0.00000000000E+00  0.00000000000E+00  0.10388919369E+04  0.10388919369E+04  0.25500000000E-02 0. -1.
         -2   -1    0    0    0  501 -0.00000000000E+00 -0.00000000000E+00 -0.14170371627E+04  0.14170371627E+04  0.25500000000E-02 0.  1.
    8880023    1    1    2    0    0  0.22939383732E+03  0.64088321042E+03  0.69578365990E+03  0.11752778096E+04  0.65864270000E+03 0. -1.
    8880022    1    1    2    0    0 -0.22939383732E+03 -0.64088321042E+03 -0.10739288858E+04  0.12806512900E+04  0.15294330000E+03 0.  0.
<mgrwt>
<rscale>  0 0.87748437E+03</rscale>
<asrwt>0</asrwt>
<pdfrwt beam="1">  1        2 0.15982953E+00 0.94718690E+03</pdfrwt>
<pdfrwt beam="2">  1       -2 0.21800572E+00 0.94718690E+03</pdfrwt>
<totfact> 0.24203584E+00</totfact>
</mgrwt>
</event>
<event>
 4    5  0.8511149E-008  0.7482227E+03  0.7818608E-02  0.9836611E-01
         -2   -1    0    0    0  501 -0.00000000000E+00  0.00000000000E+00  0.26543404415E+03  0.26543404417E+03  0.25500000000E-02 0.  1.
          2   -1    0    0  501    0  0.00000000000E+00 -0.00000000000E+00 -0.15437555413E+04  0.15437555413E+04  0.25500000000E-02 0. -1.
    8880023    1    1    2    0    0  0.25379027719E+03  0.24822884839E+03 -0.39744169257E+03  0.84722911378E+03  0.65864270000E+03 0.  0.
    8880022    1    1    2    0    0 -0.25379027719E+03 -0.24822884839E+03 -0.88087980454E+03  0.96196047166E+03  0.15294330000E+03 0.  0.
<mgrwt>
<rscale>  0 0.63434249E+03</rscale>
<asrwt>0</asrwt>
<pdfrwt beam="1">  1        2 0.23750085E+00 0.74822274E+03</pdfrwt>
<pdfrwt beam="2">  1       -2 0.40836007E-01 0.74822274E+03</pdfrwt>
<totfact> 0.69533715E+01</totfact>
</mgrwt>
</event>
<event>
 4    5  0.8511149E-008  0.1046973E+04  0.7818608E-02  0.9322529E-01
         -2   -1    0    0    0  501 -0.00000000000E+00  0.00000000000E+00  0.10787054516E+04  0.10787054516E+04  0.25500000000E-02 0.  1.
          2   -1    0    0  501    0  0.00000000000E+00 -0.00000000000E+00 -0.15873600527E+04  0.15873600527E+04  0.25500000000E-02 0. -1.
    8880023    1    1    2    0    0 -0.69349602256E+03 -0.42591742576E+03  0.65712474676E+03  0.12361090267E+04  0.65864270000E+03 0.  0.
    8880022    1    1    2    0    0  0.69349602256E+03  0.42591742576E+03 -0.11657793478E+04  0.14299564775E+04  0.15294330000E+03 0.  0.
<mgrwt>
<rscale>  0 0.98734992E+03</rscale>
<asrwt>0</asrwt>
<pdfrwt beam="1">  1        2 0.24420924E+00 0.10469731E+04</pdfrwt>
<pdfrwt beam="2">  1       -2 0.16595468E+00 0.10469731E+04</pdfrwt>
<totfact> 0.25505735E+00</totfact>
</mgrwt>
</event>
<event>
 4    5  0.8511149E-008  0.7196060E+03  0.7818608E-02  0.9923921E-01
          2   -1    0    0  501    0  0.00000000000E+00  0.00000000000E+00  0.45398606077E+04  0.45398606078E+04  0.25500000000E-02 0. -1.
         -2   -1    0    0    0  501 -0.00000000000E+00 -0.00000000000E+00 -0.56873023242E+03  0.56873023242E+03  0.25500000000E-02 0.  1.
    8880023    1    1    2    0    0 -0.78637319280E+02  0.27899592138E+03 -0.33235111299E+03  0.79264747568E+03  0.65864270000E+03 0.  1.
    8880022    1    1    2    0    0  0.78637319280E+02 -0.27899592138E+03  0.43034814883E+04  0.43159433645E+04  0.15294330000E+03 0.  0.
<mgrwt>
<rscale>  0 0.59115829E+03</rscale>
<asrwt>0</asrwt>
<pdfrwt beam="1">  1        2 0.69844012E+00 0.71960597E+03</pdfrwt>
<pdfrwt beam="2">  1       -2 0.87496955E-01 0.71960597E+03</pdfrwt>
<totfact> 0.14683709E-01</totfact>
</mgrwt>
</event>
<event>
 4    5  0.8511149E-008  0.1395837E+04  0.7818608E-02  0.8986924E-01
         -2   -1    0    0    0  501 -0.00000000000E+00  0.00000000000E+00  0.26255166839E+04  0.26255166839E+04  0.25500000000E-02 0.  1.
          2   -1    0    0  501    0  0.00000000000E+00 -0.00000000000E+00 -0.94476042042E+03  0.94476042042E+03  0.25500000000E-02 0. -1.
    8880023    1    1    2    0    0 -0.59780591442E+03 -0.10757228879E+04  0.18512113606E+04  0.23184791030E+04  0.65864270000E+03 0.  0.
    8880022    1    1    2    0    0  0.59780591442E+03  0.10757228879E+04 -0.17045509717E+03  0.12517980013E+04  0.15294330000E+03 0.  0.
<mgrwt>
<rscale>  0 0.13551696E+04</rscale>
<asrwt>0</asrwt>
<pdfrwt beam="1">  1        2 0.14534776E+00 0.13958373E+04</pdfrwt>
<pdfrwt beam="2">  1       -2 0.40392564E+00 0.13958373E+04</pdfrwt>
<totfact> 0.18422474E-01</totfact>
</mgrwt>
</event>
<event>
 4    5  0.8511149E-008  0.1205821E+04  0.7818608E-02  0.9151484E-01
         -2   -1    0    0    0  501 -0.00000000000E+00  0.00000000000E+00  0.65055857278E+03  0.65055857279E+03  0.25500000000E-02 0.  1.
          2   -1    0    0  501    0  0.00000000000E+00 -0.00000000000E+00 -0.23795300821E+04  0.23795300821E+04  0.25500000000E-02 0. -1.
    8880023    1    1    2    0    0 -0.85284459797E+03 -0.54115721172E+03 -0.24816093052E+03  0.12310926406E+04  0.65864270000E+03 0.  0.
    8880022    1    1    2    0    0  0.85284459797E+03  0.54115721172E+03 -0.14808105788E+04  0.17989960143E+04  0.15294330000E+03 0.  0.
<mgrwt>
<rscale>  0 0.11568533E+04</rscale>
<asrwt>0</asrwt>
<pdfrwt beam="1">  1        2 0.36608155E+00 0.12058214E+04</pdfrwt>
<pdfrwt beam="2">  1       -2 0.10008594E+00 0.12058214E+04</pdfrwt>
<totfact> 0.33041457E+00</totfact>
</mgrwt>
</event>
<event>
 4    5  0.8511149E-008  0.8398306E+03  0.7818608E-02  0.9630500E-01
          2   -1    0    0  501    0  0.00000000000E+00  0.00000000000E+00  0.54232792122E+03  0.54232792123E+03  0.25500000000E-02 0. -1.
         -2   -1    0    0    0  501 -0.00000000000E+00 -0.00000000000E+00 -0.32591666342E+04  0.32591666342E+04  0.25500000000E-02 0.  1.
    8880023    1    1    2    0    0  0.10719162829E+03 -0.50991686755E+03 -0.30505941931E+04  0.31640860283E+04  0.65864270000E+03 0.  1.
    8880022    1    1    2    0    0 -0.10719162829E+03  0.50991686755E+03  0.33375548012E+03  0.63740852717E+03  0.15294330000E+03 0.  0.
<mgrwt>
<rscale>  0 0.75309984E+03</rscale>
<asrwt>0</asrwt>
<pdfrwt beam="1">  1        2 0.83435067E-01 0.83983062E+03</pdfrwt>
<pdfrwt beam="2">  1       -2 0.50141024E+00 0.83983062E+03</pdfrwt>
<totfact> 0.94071077E-02</totfact>
</mgrwt>
</event>
<event>
 4    5  0.8511149E-008  0.7401502E+03  0.7818608E-02  0.9859510E-01
          2   -1    0    0  501    0  0.00000000000E+00  0.00000000000E+00  0.34983830948E+04  0.34983830948E+04  0.25500000000E-02 0. -1.
         -2   -1    0    0    0  501 -0.00000000000E+00 -0.00000000000E+00 -0.11647797483E+03  0.11647797485E+03  0.25500000000E-02 0.  1.
    8880023    1    1    2    0    0  0.13848881199E+03 -0.30794966060E+03  0.12639735953E+04  0.14647360173E+04  0.65864270000E+03 0.  1.
    8880022    1    1    2    0    0 -0.13848881199E+03  0.30794966060E+03  0.21179315247E+04  0.21501250524E+04  0.15294330000E+03 0.  0.
<mgrwt>
<rscale>  0 0.62264391E+03</rscale>
<asrwt>0</asrwt>
<pdfrwt beam="1">  1        2 0.53821283E+00 0.74015022E+03</pdfrwt>
<pdfrwt beam="2">  1       -2 0.17919687E-01 0.74015022E+03</pdfrwt>
<totfact> 0.22711331E+01</totfact>
</mgrwt>
</event>
<event>
 4    5  0.8586046E-008  0.1324403E+04  0.7818608E-02  0.9044768E-01
          2   -1    0    0  501    0  0.00000000000E+00  0.00000000000E+00  0.21476637645E+04  0.21476637645E+04  0.25500000000E-02 0. -1.
         -2   -1    0    0    0  501 -0.00000000000E+00 -0.00000000000E+00 -0.19403230870E+04  0.19403230870E+04  0.25500000000E-02 0.  1.
    8880023    1    1    2    0    0 -0.36226763121E+03  0.10904102653E+04 -0.15147687662E+04  0.20121051177E+04  0.65864270000E+03 0.  0.
    8880022    1    1    2    0    0  0.36226763121E+03 -0.10904102653E+04  0.17221094437E+04  0.20758817338E+04  0.15294330000E+03 0.  0.
<mgrwt>
<rscale>  0 0.12810019E+04</rscale>
<asrwt>0</asrwt>
<pdfrwt beam="1">  1        2 0.33040981E+00 0.13244027E+04</pdfrwt>
<pdfrwt beam="2">  1       -2 0.29851124E+00 0.13244027E+04</pdfrwt>
<totfact> 0.17214173E-01</totfact>
</mgrwt>
</event>
<event>
 4    5  0.8511149E-008  0.7611821E+03  0.7818608E-02  0.9802057E-01
         -2   -1    0    0    0  501 -0.00000000000E+00  0.00000000000E+00  0.42673471479E+03  0.42673471480E+03  0.25500000000E-02 0.  1.
          2   -1    0    0  501    0  0.00000000000E+00 -0.00000000000E+00 -0.14282032274E+04  0.14282032274E+04  0.25500000000E-02 0. -1.
    8880023    1    1    2    0    0 -0.20343529436E+02 -0.38101724758E+03  0.11998466814E+02  0.76127667218E+03  0.65864270000E+03 0.  1.
    8880022    1    1    2    0    0  0.20343529436E+02  0.38101724758E+03 -0.10134669794E+04  0.10936612700E+04  0.15294330000E+03 0.  0.
<mgrwt>
<rscale>  0 0.65252286E+03</rscale>
<asrwt>0</asrwt>
<pdfrwt beam="1">  1        2 0.21972357E+00 0.76118211E+03</pdfrwt>
<pdfrwt beam="2">  1       -2 0.65651495E-01 0.76118211E+03</pdfrwt>
<totfact> 0.30412443E+01</totfact>
</mgrwt>
</event>
<event>
 4    5  0.8511149E-008  0.1317635E+04  0.7818608E-02  0.9050479E-01
         -2   -1    0    0    0  501 -0.00000000000E+00  0.00000000000E+00  0.11867330304E+04  0.11867330304E+04  0.25500000000E-02 0.  1.
          2   -1    0    0  501    0  0.00000000000E+00 -0.00000000000E+00 -0.27920786259E+04  0.27920786259E+04  0.25500000000E-02 0. -1.
    8880023    1    1    2    0    0  0.92055411805E+03 -0.67448564085E+03  0.63291440050E+03  0.14617597643E+04  0.65864270000E+03 0.  0.
    8880022    1    1    2    0    0 -0.92055411805E+03  0.67448564085E+03 -0.22382599960E+04  0.25170518920E+04  0.15294330000E+03 0.  0.
<mgrwt>
<rscale>  0 0.12739537E+04</rscale>
<asrwt>0</asrwt>
<pdfrwt beam="1">  1        2 0.42955056E+00 0.13176346E+04</pdfrwt>
<pdfrwt beam="2">  1       -2 0.18257431E+00 0.13176346E+04</pdfrwt>
<totfact> 0.39233223E-01</totfact>
</mgrwt>
</event>
<event>
 4    5  0.8511149E-008  0.9672458E+03  0.7818608E-02  0.9425724E-01
          2   -1    0    0  501    0  0.00000000000E+00  0.00000000000E+00  0.17968119886E+04  0.17968119886E+04  0.25500000000E-02 0. -1.
         -2   -1    0    0    0  501 -0.00000000000E+00 -0.00000000000E+00 -0.14442928584E+04  0.14442928584E+04  0.25500000000E-02 0.  1.
    8880023    1    1    2    0    0 -0.12115395498E+03  0.69790823535E+03 -0.11919795265E+04  0.15350503521E+04  0.65864270000E+03 0.  0.
    8880022    1    1    2    0    0  0.12115395498E+03 -0.69790823535E+03  0.15444986567E+04  0.17060544949E+04  0.15294330000E+03 0.  0.
<mgrwt>
<rscale>  0 0.89988626E+03</rscale>
<asrwt>0</asrwt>
<pdfrwt beam="1">  1        2 0.27643261E+00 0.96724578E+03</pdfrwt>
<pdfrwt beam="2">  1       -2 0.22219890E+00 0.96724578E+03</pdfrwt>
<totfact> 0.83174769E-01</totfact>
</mgrwt>
</event>
<event>
 4    5  0.8511149E-008  0.1157913E+04  0.7818608E-02  0.9199160E-01
          2   -1    0    0  501    0  0.00000000000E+00  0.00000000000E+00  0.23170630977E+04  0.23170630977E+04  0.25500000000E-02 0. -1.
         -2   -1    0    0    0  501 -0.00000000000E+00 -0.00000000000E+00 -0.84358102952E+03  0.84358102953E+03  0.25500000000E-02 0.  1.
    8880023    1    1    2    0    0 -0.35351649321E+03 -0.88429594391E+03 -0.25094269574E+03  0.11847935137E+04  0.65864270000E+03 0.  0.
    8880022    1    1    2    0    0  0.35351649321E+03  0.88429594391E+03  0.17244247639E+04  0.19758506135E+04  0.15294330000E+03 0.  0.
<mgrwt>
<rscale>  0 0.11062099E+04</rscale>
<asrwt>0</asrwt>
<pdfrwt beam="1">  1        2 0.35647124E+00 0.11579134E+04</pdfrwt>
<pdfrwt beam="2">  1       -2 0.12978170E+00 0.11579134E+04</pdfrwt>
<totfact> 0.19001329E+00</totfact>
</mgrwt>
</event>
<event>
 4    5  0.8511149E-008  0.6661426E+03  0.7818608E-02  0.1018593E+00
          2   -1    0    0  501    0  0.00000000000E+00  0.00000000000E+00  0.49965609777E+03  0.49965609777E+03  0.25500000000E-02 0. -1.
         -2   -1    0    0    0  501 -0.00000000000E+00 -0.00000000000E+00 -0.16561800596E+04  0.16561800596E+04  0.25500000000E-02 0.  1.
    8880023    1    1    2    0    0 -0.12305534018E+01 -0.99670442554E+02 -0.15691153888E+04  0.17046609696E+04  0.65864270000E+03 0.  1.
    8880022    1    1    2    0    0  0.12305534018E+01  0.99670442554E+02  0.41259142705E+03  0.45117518778E+03  0.15294330000E+03 0.  0.
<mgrwt>
<rscale>  0 0.48197611E+03</rscale>
<asrwt>0</asrwt>
<pdfrwt beam="1">  1        2 0.76870170E-01 0.66614257E+03</pdfrwt>
<pdfrwt beam="2">  1       -2 0.25479693E+00 0.66614257E+03</pdfrwt>
<totfact> 0.38590296E+00</totfact>
</mgrwt>
</event>
<event>
 4    5  0.8511149E-008  0.1253483E+04  0.7818608E-02  0.9106809E-01
         -2   -1    0    0    0  501 -0.00000000000E+00  0.00000000000E+00  0.93011341687E+03  0.93011341687E+03  0.25500000000E-02 0.  1.
          2   -1    0    0  501    0  0.00000000000E+00 -0.00000000000E+00 -0.14964676985E+04  0.14964676985E+04  0.25500000000E-02 0. -1.
    8880023    1    1    2    0    0  0.35851718319E+03  0.10044270883E+04 -0.11599465063E+03  0.12588380800E+04  0.65864270000E+03 0.  0.
    8880022    1    1    2    0    0 -0.35851718319E+03 -0.10044270883E+04 -0.45035963099E+03  0.11677430354E+04  0.15294330000E+03 0.  0.
<mgrwt>
<rscale>  0 0.12069337E+04</rscale>
<asrwt>0</asrwt>
<pdfrwt beam="1">  1        2 0.23022580E+00 0.12534826E+04</pdfrwt>
<pdfrwt beam="2">  1       -2 0.14309437E+00 0.12534826E+04</pdfrwt>
<totfact> 0.41869699E+00</totfact>
</mgrwt>
</event>
<event>
 4    5  0.8511149E-008  0.8195580E+03  0.7818608E-02  0.9670001E-01
         -2   -1    0    0    0  501 -0.00000000000E+00  0.00000000000E+00  0.39960493552E+03  0.39960493553E+03  0.25500000000E-02 0.  1.
          2   -1    0    0  501    0  0.00000000000E+00 -0.00000000000E+00 -0.15742769699E+04  0.15742769699E+04  0.25500000000E-02 0. -1.
    8880023    1    1    2    0    0  0.47238445557E+03  0.12131789386E+03 -0.15614951513E+03  0.83430089450E+03  0.65864270000E+03 0.  1.
    8880022    1    1    2    0    0 -0.47238445557E+03 -0.12131789386E+03 -0.10185225193E+04  0.11395810109E+04  0.15294330000E+03 0.  0.
<mgrwt>
<rscale>  0 0.72831325E+03</rscale>
<asrwt>0</asrwt>
<pdfrwt beam="1">  1        2 0.24219645E+00 0.81955800E+03</pdfrwt>
<pdfrwt beam="2">  1       -2 0.61477683E-01 0.81955800E+03</pdfrwt>
<totfact> 0.28826985E+01</totfact>
</mgrwt>
</event>
<event>
 4    5  0.8511149E-008  0.2207719E+04  0.7818608E-02  0.8525295E-01
         -2   -1    0    0    0  501 -0.00000000000E+00  0.00000000000E+00  0.11780280922E+04  0.11780280922E+04  0.25500000000E-02 0.  1.
          2   -1    0    0  501    0  0.00000000000E+00 -0.00000000000E+00 -0.44101957052E+04  0.44101957052E+04  0.25500000000E-02 0. -1.
    8880023    1    1    2    0    0  0.15739746163E+04  0.14010056533E+04 -0.25392079452E+04  0.33647585543E+04  0.65864270000E+03 0.  0.
    8880022    1    1    2    0    0 -0.15739746163E+04 -0.14010056533E+04 -0.69295966778E+03  0.22234652432E+04  0.15294330000E+03 0.  0.
<mgrwt>
<rscale>  0 0.21835772E+04</rscale>
<asrwt>0</asrwt>
<pdfrwt beam="1">  1        2 0.67849164E+00 0.22077190E+04</pdfrwt>
<pdfrwt beam="2">  1       -2 0.18123509E+00 0.22077190E+04</pdfrwt>
<totfact> 0.23529390E-02</totfact>
</mgrwt>
</event>
<event>
 4    5  0.8511149E-008  0.1201442E+04  0.7818608E-02  0.9155722E-01
         -2   -1    0    0    0  501 -0.00000000000E+00  0.00000000000E+00  0.17665584967E+04  0.17665584967E+04  0.25500000000E-02 0.  1.
          2   -1    0    0  501    0  0.00000000000E+00 -0.00000000000E+00 -0.11703932487E+04  0.11703932487E+04  0.25500000000E-02 0. -1.
    8880023    1    1    2    0    0 -0.92419108818E+03  0.39436343374E+03  0.12457555864E+04  0.17307133999E+04  0.65864270000E+03 0.  0.
    8880022    1    1    2    0    0  0.92419108818E+03 -0.39436343374E+03 -0.64959033844E+03  0.12062383455E+04  0.15294330000E+03 0.  0.
<mgrwt>
<rscale>  0 0.11522370E+04</rscale>
<asrwt>0</asrwt>
<pdfrwt beam="1">  1        2 0.18006050E+00 0.12014416E+04</pdfrwt>
<pdfrwt beam="2">  1       -2 0.27177823E+00 0.12014416E+04</pdfrwt>
<totfact> 0.90874145E-01</totfact>
</mgrwt>
</event>
<event>
 4    5  0.8511149E-008  0.1535573E+04  0.7818608E-02  0.8884917E-01
         -2   -1    0    0    0  501 -0.00000000000E+00  0.00000000000E+00  0.11924967098E+04  0.11924967098E+04  0.25500000000E-02 0.  1.
          2   -1    0    0  501    0  0.00000000000E+00 -0.00000000000E+00 -0.20966790623E+04  0.20966790623E+04  0.25500000000E-02 0. -1.
    8880023    1    1    2    0    0 -0.98717805246E+03  0.97450162854E+03  0.14617875203E+03  0.15425149481E+04  0.65864270000E+03 0.  0.
    8880022    1    1    2    0    0  0.98717805246E+03 -0.97450162854E+03 -0.10503611045E+04  0.17466608240E+04  0.15294330000E+03 0.  0.
<mgrwt>
<rscale>  0 0.14993028E+04</rscale>
<asrwt>0</asrwt>
<pdfrwt beam="1">  1        2 0.32256601E+00 0.15355729E+04</pdfrwt>
<pdfrwt beam="2">  1       -2 0.18346103E+00 0.15355729E+04</pdfrwt>
<totfact> 0.94941851E-01</totfact>
</mgrwt>
</event>
<event>
 4    5  0.8511149E-008  0.7531437E+03  0.7818608E-02  0.9823192E-01
         -2   -1    0    0    0  501 -0.00000000000E+00  0.00000000000E+00  0.12854248922E+03  0.12854248925E+03  0.25500000000E-02 0.  1.
          2   -1    0    0  501    0  0.00000000000E+00 -0.00000000000E+00 -0.26194900696E+04  0.26194900696E+04  0.25500000000E-02 0. -1.
    8880023    1    1    2    0    0 -0.21361207100E+03 -0.29628554821E+03 -0.14421099299E+04  0.16269316209E+04  0.65864270000E+03 0. -1.
    8880022    1    1    2    0    0  0.21361207100E+03  0.29628554821E+03 -0.10488376505E+04  0.11211009380E+04  0.15294330000E+03 0.  1.
<mgrwt>
<rscale>  0 0.64132628E+03</rscale>
<asrwt>0</asrwt>
<pdfrwt beam="1">  1        2 0.40299843E+00 0.75314371E+03</pdfrwt>
<pdfrwt beam="2">  1       -2 0.19775770E-01 0.75314371E+03</pdfrwt>
<totfact> 0.67247716E+01</totfact>
</mgrwt>
</event>
<event>
 4    5  0.8511149E-008  0.9921694E+03  0.7818608E-02  0.9391875E-01
          2   -1    0    0  501    0  0.00000000000E+00  0.00000000000E+00  0.18029196108E+04  0.18029196108E+04  0.25500000000E-02 0. -1.
         -2   -1    0    0    0  501 -0.00000000000E+00 -0.00000000000E+00 -0.47208770200E+03  0.47208770201E+03  0.25500000000E-02 0.  1.
    8880023    1    1    2    0    0  0.16038440827E+03 -0.72447687580E+03  0.11036493011E+04  0.14840626294E+04  0.65864270000E+03 0.  0.
    8880022    1    1    2    0    0 -0.16038440827E+03  0.72447687580E+03  0.22718260777E+03  0.79094468345E+03  0.15294330000E+03 0.  1.
<mgrwt>
<rscale>  0 0.92747372E+03</rscale>
<asrwt>0</asrwt>
<pdfrwt beam="1">  1        2 0.27737225E+00 0.99216939E+03</pdfrwt>
<pdfrwt beam="2">  1       -2 0.72628877E-01 0.99216939E+03</pdfrwt>
<totfact> 0.14755605E+01</totfact>
</mgrwt>
</event>
<event>
 4    5  0.8511149E-008  0.9680287E+03  0.7818608E-02  0.9424636E-01
         -2   -1    0    0    0  501 -0.00000000000E+00  0.00000000000E+00  0.82965969089E+03  0.82965969090E+03  0.25500000000E-02 0.  1.
          2   -1    0    0  501    0  0.00000000000E+00 -0.00000000000E+00 -0.90422871518E+03  0.90422871519E+03  0.25500000000E-02 0. -1.
    8880023    1    1    2    0    0  0.63096909727E+03  0.32426420189E+03 -0.22245346688E+03  0.99325979760E+03  0.65864270000E+03 0.  1.
    8880022    1    1    2    0    0 -0.63096909727E+03 -0.32426420189E+03  0.14788444259E+03  0.74062860849E+03  0.15294330000E+03 0. -1.
<mgrwt>
<rscale>  0 0.90075680E+03</rscale>
<asrwt>0</asrwt>
<pdfrwt beam="1">  1        2 0.13911211E+00 0.96802866E+03</pdfrwt>
<pdfrwt beam="2">  1       -2 0.12763995E+00 0.96802866E+03</pdfrwt>
<totfact> 0.13184891E+01</totfact>
</mgrwt>
</event>
<event>
 4    5  0.8511149E-008  0.9519971E+03  0.7818608E-02  0.9447247E-01
          2   -1    0    0  501    0  0.00000000000E+00  0.00000000000E+00  0.77198364391E+03  0.77198364392E+03  0.25500000000E-02 0. -1.
         -2   -1    0    0    0  501 -0.00000000000E+00 -0.00000000000E+00 -0.11332013623E+04  0.11332013623E+04  0.25500000000E-02 0.  1.
    8880023    1    1    2    0    0  0.60720638938E+03 -0.32216245891E+03 -0.64075036749E+03  0.11475449834E+04  0.65864270000E+03 0.  1.
    8880022    1    1    2    0    0 -0.60720638938E+03  0.32216245891E+03  0.27953264911E+03  0.75764002281E+03  0.15294330000E+03 0.  0.
<mgrwt>
<rscale>  0 0.88287410E+03</rscale>
<asrwt>0</asrwt>
<pdfrwt beam="1">  1        2 0.11876671E+00 0.95199709E+03</pdfrwt>
<pdfrwt beam="2">  1       -2 0.17433867E+00 0.95199709E+03</pdfrwt>
<totfact> 0.71460257E+00</totfact>
</mgrwt>
</event>
<event>
 4    5  0.8511149E-008  0.6900881E+03  0.7818608E-02  0.1004111E+00
          2   -1    0    0  501    0  0.00000000000E+00  0.00000000000E+00  0.21576458877E+04  0.21576458877E+04  0.25500000000E-02 0. -1.
         -2   -1    0    0    0  501 -0.00000000000E+00 -0.00000000000E+00 -0.21750356932E+03  0.21750356934E+03  0.25500000000E-02 0.  1.
    8880023    1    1    2    0    0 -0.16910008264E+03  0.11754362499E+03  0.36773074210E+03  0.78195105133E+03  0.65864270000E+03 0.  0.
    8880022    1    1    2    0    0  0.16910008264E+03 -0.11754362499E+03  0.15724115763E+04  0.15931984057E+04  0.15294330000E+03 0.  0.
<mgrwt>
<rscale>  0 0.53883910E+03</rscale>
<asrwt>0</asrwt>
<pdfrwt beam="1">  1        2 0.33194552E+00 0.69008807E+03</pdfrwt>
<pdfrwt beam="2">  1       -2 0.33462088E-01 0.69008807E+03</pdfrwt>
<totfact> 0.47412257E+01</totfact>
</mgrwt>
</event>
<event>
 4    5  0.8511149E-008  0.8503883E+03  0.7818608E-02  0.9610895E-01
          2   -1    0    0  501    0  0.00000000000E+00  0.00000000000E+00  0.38856544883E+03  0.38856544884E+03  0.25500000000E-02 0. -1.
         -2   -1    0    0    0  501 -0.00000000000E+00 -0.00000000000E+00 -0.32139826319E+04  0.32139826319E+04  0.25500000000E-02 0.  1.
    8880023    1    1    2    0    0 -0.17191877075E+03  0.50969996301E+03 -0.29147106334E+04  0.30362309528E+04  0.65864270000E+03 0.  0.
    8880022    1    1    2    0    0  0.17191877075E+03 -0.50969996301E+03  0.89293450400E+02  0.56631712788E+03  0.15294330000E+03 0.  0.
<mgrwt>
<rscale>  0 0.76579267E+03</rscale>
<asrwt>0</asrwt>
<pdfrwt beam="1">  1        2 0.59779302E-01 0.85038834E+03</pdfrwt>
<pdfrwt beam="2">  1       -2 0.49445885E+00 0.85038834E+03</pdfrwt>
<totfact> 0.15257214E-01</totfact>
</mgrwt>
</event>
<event>
 4    5  0.8511149E-008  0.9270706E+03  0.7818608E-02  0.9483902E-01
          2   -1    0    0  501    0  0.00000000000E+00  0.00000000000E+00  0.14542385753E+04  0.14542385753E+04  0.25500000000E-02 0. -1.
         -2   -1    0    0    0  501 -0.00000000000E+00 -0.00000000000E+00 -0.55821519127E+03  0.55821519127E+03  0.25500000000E-02 0.  1.
    8880023    1    1    2    0    0  0.35764748008E+03  0.54565373078E+03  0.96577993387E+03  0.13387273064E+04  0.65864270000E+03 0. -1.
    8880022    1    1    2    0    0 -0.35764748008E+03 -0.54565373078E+03 -0.69756549828E+02  0.67372646020E+03  0.15294330000E+03 0.  0.
<mgrwt>
<rscale>  0 0.85481160E+03</rscale>
<asrwt>0</asrwt>
<pdfrwt beam="1">  1        2 0.22372901E+00 0.92707061E+03</pdfrwt>
<pdfrwt beam="2">  1       -2 0.85879261E-01 0.92707061E+03</pdfrwt>
<totfact> 0.15912850E+01</totfact>
</mgrwt>
</event>
<event>
 4    5  0.8511149E-008  0.1139076E+04  0.7818608E-02  0.9218748E-01
          2   -1    0    0  501    0  0.00000000000E+00  0.00000000000E+00  0.34989106167E+04  0.34989106167E+04  0.25500000000E-02 0. -1.
         -2   -1    0    0    0  501 -0.00000000000E+00 -0.00000000000E+00 -0.87253129168E+03  0.87253129169E+03  0.25500000000E-02 0.  1.
    8880023    1    1    2    0    0  0.40542231900E+03  0.83625130463E+03 -0.39581559127E+03  0.12058870966E+04  0.65864270000E+03 0.  0.
    8880022    1    1    2    0    0 -0.40542231900E+03 -0.83625130463E+03  0.30221949163E+04  0.31655548118E+04  0.15294330000E+03 0.  0.
<mgrwt>
<rscale>  0 0.10861993E+04</rscale>
<asrwt>0</asrwt>
<pdfrwt beam="1">  1        2 0.53829394E+00 0.11390758E+04</pdfrwt>
<pdfrwt beam="2">  1       -2 0.13423558E+00 0.11390758E+04</pdfrwt>
<totfact> 0.32796482E-01</totfact>
</mgrwt>
</event>
<event>
 4    5  0.8511149E-008  0.7877994E+03  0.7818608E-02  0.9737825E-01
          2   -1    0    0  501    0  0.00000000000E+00  0.00000000000E+00  0.26921479232E+04  0.26921479232E+04  0.25500000000E-02 0. -1.
         -2   -1    0    0    0  501 -0.00000000000E+00 -0.00000000000E+00 -0.26743855479E+03  0.26743855480E+03  0.25500000000E-02 0.  1.
    8880023    1    1    2    0    0  0.54398135355E+02  0.42878720399E+03  0.39984002284E+03  0.88345903898E+03  0.65864270000E+03 0.  1.
    8880022    1    1    2    0    0 -0.54398135355E+02 -0.42878720399E+03  0.20248693456E+04  0.20761274390E+04  0.15294330000E+03 0.  0.
<mgrwt>
<rscale>  0 0.68808676E+03</rscale>
<asrwt>0</asrwt>
<pdfrwt beam="1">  1        2 0.41417661E+00 0.78779936E+03</pdfrwt>
<pdfrwt beam="2">  1       -2 0.41144392E-01 0.78779936E+03</pdfrwt>
<totfact> 0.15705768E+01</totfact>
</mgrwt>
</event>
<event>
 4    5  0.8511149E-008  0.6873099E+03  0.7818608E-02  0.1005458E+00
         -2   -1    0    0    0  501 -0.00000000000E+00  0.00000000000E+00  0.52882392277E+03  0.52882392277E+03  0.25500000000E-02 0.  1.
          2   -1    0    0  501    0  0.00000000000E+00 -0.00000000000E+00 -0.14800100566E+04  0.14800100566E+04  0.25500000000E-02 0. -1.
    8880023    1    1    2    0    0 -0.63562721153E+02 -0.18586157604E+03  0.28776413042E+03  0.74511955148E+03  0.65864270000E+03 0.  0.
    8880022    1    1    2    0    0  0.63562721153E+02  0.18586157604E+03 -0.12389502642E+04  0.12637144279E+04  0.15294330000E+03 0.  0.
<mgrwt>
<rscale>  0 0.53320321E+03</rscale>
<asrwt>0</asrwt>
<pdfrwt beam="1">  1        2 0.22769385E+00 0.68730994E+03</pdfrwt>
<pdfrwt beam="2">  1       -2 0.81357527E-01 0.68730994E+03</pdfrwt>
<totfact> 0.17895674E+01</totfact>
</mgrwt>
</event>
<event>
 4    5  0.8511149E-008  0.1936721E+04  0.7818608E-02  0.8650454E-01
          2   -1    0    0  501    0  0.00000000000E+00  0.00000000000E+00  0.15770449451E+04  0.15770449451E+04  0.25500000000E-02 0. -1.
         -2   -1    0    0    0  501 -0.00000000000E+00 -0.00000000000E+00 -0.28531875640E+04  0.28531875640E+04  0.25500000000E-02 0.  1.
    8880023    1    1    2    0    0 -0.12025797355E+03  0.18173101023E+04 -0.16737926639E+04  0.25597793022E+04  0.65864270000E+03 0.  0.
    8880022    1    1    2    0    0  0.12025797355E+03 -0.18173101023E+04  0.39765004504E+03  0.18704532069E+04  0.15294330000E+03 0.  0.
<mgrwt>
<rscale>  0 0.19088695E+04</rscale>
<asrwt>0</asrwt>
<pdfrwt beam="1">  1        2 0.24262230E+00 0.19367210E+04</pdfrwt>
<pdfrwt beam="2">  1       -2 0.43895193E+00 0.19367210E+04</pdfrwt>
<totfact> 0.42243090E-02</totfact>
</mgrwt>
</event>
<event>
 4    5  0.8511149E-008  0.8398622E+03  0.7818608E-02  0.9630440E-01
         -2   -1    0    0    0  501 -0.00000000000E+00  0.00000000000E+00  0.11133556571E+04  0.11133556571E+04  0.25500000000E-02 0.  1.
          2   -1    0    0  501    0  0.00000000000E+00 -0.00000000000E+00 -0.11843347888E+04  0.11843347888E+04  0.25500000000E-02 0. -1.
    8880023    1    1    2    0    0  0.52103051280E+03 -0.92430825117E+01  0.87125428926E+03  0.12101456411E+04  0.65864270000E+03 0.  1.
    8880022    1    1    2    0    0 -0.52103051280E+03  0.92430825117E+01 -0.94223342100E+03  0.10875448048E+04  0.15294330000E+03 0.  0.
<mgrwt>
<rscale>  0 0.75313796E+03</rscale>
<asrwt>0</asrwt>
<pdfrwt beam="1">  1        2 0.18220535E+00 0.83986215E+03</pdfrwt>
<pdfrwt beam="2">  1       -2 0.17128548E+00 0.83986215E+03</pdfrwt>
<totfact> 0.40810897E+00</totfact>
</mgrwt>
</event>
<event>
 4    5  0.8511149E-008  0.1433051E+04  0.7818608E-02  0.8958418E-01
         -2   -1    0    0    0  501 -0.00000000000E+00  0.00000000000E+00  0.49692985471E+04  0.49692985471E+04  0.25500000000E-02 0.  1.
          2   -1    0    0  501    0  0.00000000000E+00 -0.00000000000E+00 -0.71381883176E+03  0.71381883176E+03  0.25500000000E-02 0. -1.
    8880023    1    1    2    0    0  0.42352961193E+03  0.12001865467E+04  0.41574409504E+04  0.43974936659E+04  0.65864270000E+03 0.  0.
    8880022    1    1    2    0    0 -0.42352961193E+03 -0.12001865467E+04  0.98038764923E+02  0.12856237130E+04  0.15294330000E+03 0.  0.
<mgrwt>
<rscale>  0 0.13936641E+04</rscale>
<asrwt>0</asrwt>
<pdfrwt beam="1">  1        2 0.10981828E+00 0.14330510E+04</pdfrwt>
<pdfrwt beam="2">  1       -2 0.76450747E+00 0.14330510E+04</pdfrwt>
<totfact> 0.47699485E-03</totfact>
</mgrwt>
</event>
<event>
 4    5  0.8511149E-008  0.7777663E+03  0.7818608E-02  0.9761110E-01
          2   -1    0    0  501    0  0.00000000000E+00  0.00000000000E+00  0.11121170108E+04  0.11121170108E+04  0.25500000000E-02 0. -1.
         -2   -1    0    0    0  501 -0.00000000000E+00 -0.00000000000E+00 -0.34946009338E+03  0.34946009339E+03  0.25500000000E-02 0.  1.
    8880023    1    1    2    0    0 -0.39787537313E+03  0.11316098521E+03  0.33364128744E+03  0.84630782584E+03  0.65864270000E+03 0.  1.
    8880022    1    1    2    0    0  0.39787537313E+03 -0.11316098521E+03  0.42901563002E+03  0.61526927840E+03  0.15294330000E+03 0.  0.
<mgrwt>
<rscale>  0 0.67492003E+03</rscale>
<asrwt>0</asrwt>
<pdfrwt beam="1">  1        2 0.17109493E+00 0.77776631E+03</pdfrwt>
<pdfrwt beam="2">  1       -2 0.53763091E-01 0.77776631E+03</pdfrwt>
<totfact> 0.70732958E+01</totfact>
</mgrwt>
</event>
<event>
 4    5  0.8511149E-008  0.6715566E+03  0.7818608E-02  0.1014571E+00
          2   -1    0    0  501    0  0.00000000000E+00  0.00000000000E+00  0.74097265659E+03  0.74097265659E+03  0.25500000000E-02 0. -1.
         -2   -1    0    0    0  501 -0.00000000000E+00 -0.00000000000E+00 -0.15073700047E+04  0.15073700047E+04  0.25500000000E-02 0.  1.
    8880023    1    1    2    0    0  0.11416478327E+03  0.64377217429E+02 -0.14165664089E+04  0.15676889427E+04  0.65864270000E+03 0.  0.
    8880022    1    1    2    0    0 -0.11416478327E+03 -0.64377217429E+02  0.65016906086E+03  0.68065371856E+03  0.15294330000E+03 0. -1.
<mgrwt>
<rscale>  0 0.49697798E+03</rscale>
<asrwt>0</asrwt>
<pdfrwt beam="1">  1        2 0.11399579E+00 0.67155657E+03</pdfrwt>
<pdfrwt beam="2">  1       -2 0.23190308E+00 0.67155657E+03</pdfrwt>
<totfact> 0.32944393E+00</totfact>
</mgrwt>
</event>
<event>
 4    5  0.8511149E-008  0.6774453E+03  0.7818608E-02  0.1010807E+00
          2   -1    0    0  501    0  0.00000000000E+00  0.00000000000E+00  0.28994363892E+03  0.28994363894E+03  0.25500000000E-02 0. -1.
         -2   -1    0    0    0  501 -0.00000000000E+00 -0.00000000000E+00 -0.14224045334E+04  0.14224045334E+04  0.25500000000E-02 0.  1.
    8880023    1    1    2    0    0  0.30894549625E+02 -0.15545875105E+03 -0.12793226718E+04  0.14476182513E+04  0.65864270000E+03 0.  1.
    8880022    1    1    2    0    0 -0.30894549625E+02  0.15545875105E+03  0.14686177732E+03  0.26472992110E+03  0.15294330000E+03 0.  0.
<mgrwt>
<rscale>  0 0.51155054E+03</rscale>
<asrwt>0</asrwt>
<pdfrwt beam="1">  1        2 0.44606715E-01 0.67744528E+03</pdfrwt>
<pdfrwt beam="2">  1       -2 0.21883146E+00 0.67744528E+03</pdfrwt>
<totfact> 0.11790023E+01</totfact>
</mgrwt>
</event>
<event>
 4    5  0.8511149E-008  0.1104638E+04  0.7818608E-02  0.9255910E-01
         -2   -1    0    0    0  501 -0.00000000000E+00  0.00000000000E+00  0.66805609336E+03  0.66805609337E+03  0.25500000000E-02 0.  1.
          2   -1    0    0  501    0  0.00000000000E+00 -0.00000000000E+00 -0.20409911006E+04  0.20409911006E+04  0.25500000000E-02 0. -1.
    8880023    1    1    2    0    0 -0.65757262623E+03  0.59498991606E+03 -0.45803621884E+02  0.11055871458E+04  0.65864270000E+03 0.  0.
    8880022    1    1    2    0    0  0.65757262623E+03 -0.59498991606E+03 -0.13271313854E+04  0.16034600482E+04  0.15294330000E+03 0.  0.
<mgrwt>
<rscale>  0 0.10494521E+04</rscale>
<asrwt>0</asrwt>
<pdfrwt beam="1">  1        2 0.31399863E+00 0.11046379E+04</pdfrwt>
<pdfrwt beam="2">  1       -2 0.10277786E+00 0.11046379E+04</pdfrwt>
<totfact> 0.48495955E+00</totfact>
</mgrwt>
</event>
<event>
 4    5  0.8511149E-008  0.1283737E+04  0.7818608E-02  0.9079732E-01
          2   -1    0    0  501    0  0.00000000000E+00  0.00000000000E+00  0.13503407462E+04  0.13503407462E+04  0.25500000000E-02 0. -1.
         -2   -1    0    0    0  501 -0.00000000000E+00 -0.00000000000E+00 -0.17320547831E+04  0.17320547831E+04  0.25500000000E-02 0.  1.
    8880023    1    1    2    0    0  0.10905139286E+04 -0.15795872146E+03 -0.11555869742E+04  0.17272414560E+04  0.65864270000E+03 0.  0.
    8880022    1    1    2    0    0 -0.10905139286E+04  0.15795872146E+03  0.77387293737E+03  0.13551540733E+04  0.15294330000E+03 0.  0.
<mgrwt>
<rscale>  0 0.12385915E+04</rscale>
<asrwt>0</asrwt>
<pdfrwt beam="1">  1        2 0.20774473E+00 0.12837374E+04</pdfrwt>
<pdfrwt beam="2">  1       -2 0.26646997E+00 0.12837374E+04</pdfrwt>
<totfact> 0.75849446E-01</totfact>
</mgrwt>
</event>
<event>
 4    5  0.8511149E-008  0.8699958E+03  0.7818608E-02  0.9576024E-01
          2   -1    0    0  501    0  0.00000000000E+00  0.00000000000E+00  0.42100276401E+04  0.42100276401E+04  0.25500000000E-02 0. -1.
         -2   -1    0    0    0  501 -0.00000000000E+00 -0.00000000000E+00 -0.55000305229E+03  0.55000305229E+03  0.25500000000E-02 0.  1.
    8880023    1    1    2    0    0  0.43357734596E+03 -0.36755017106E+03 -0.16880400523E+03  0.88622087632E+03  0.65864270000E+03 0.  1.
    8880022    1    1    2    0    0 -0.43357734596E+03  0.36755017106E+03  0.38288285930E+04  0.38738098160E+04  0.15294330000E+03 0.  0.
<mgrwt>
<rscale>  0 0.78903579E+03</rscale>
<asrwt>0</asrwt>
<pdfrwt beam="1">  1        2 0.64769655E+00 0.86999578E+03</pdfrwt>
<pdfrwt beam="2">  1       -2 0.84615856E-01 0.86999578E+03</pdfrwt>
<totfact> 0.30289324E-01</totfact>
</mgrwt>
</event>
<event>
 4    5  0.8511149E-008  0.9980239E+03  0.7818608E-02  0.9384148E-01
          2   -1    0    0  501    0  0.00000000000E+00  0.00000000000E+00  0.10980510252E+04  0.10980510252E+04  0.25500000000E-02 0. -1.
         -2   -1    0    0    0  501 -0.00000000000E+00 -0.00000000000E+00 -0.15891544349E+04  0.15891544349E+04  0.25500000000E-02 0.  1.
    8880023    1    1    2    0    0  0.30505884455E+02  0.74920684761E+03 -0.12566550131E+04  0.16047534196E+04  0.65864270000E+03 0.  1.
    8880022    1    1    2    0    0 -0.30505884455E+02 -0.74920684761E+03  0.76555160340E+03  0.10824520405E+04  0.15294330000E+03 0. -1.
<mgrwt>
<rscale>  0 0.93391836E+03</rscale>
<asrwt>0</asrwt>
<pdfrwt beam="1">  1        2 0.16893093E+00 0.99802391E+03</pdfrwt>
<pdfrwt beam="2">  1       -2 0.24448530E+00 0.99802391E+03</pdfrwt>
<totfact> 0.15127026E+00</totfact>
</mgrwt>
</event>
<event>
 4    5  0.8511149E-008  0.6716476E+03  0.7818608E-02  0.1014508E+00
         -2   -1    0    0    0  501 -0.00000000000E+00  0.00000000000E+00  0.16230298153E+03  0.16230298155E+03  0.25500000000E-02 0.  1.
          2   -1    0    0  501    0  0.00000000000E+00 -0.00000000000E+00 -0.19473155834E+04  0.19473155834E+04  0.25500000000E-02 0. -1.
    8880023    1    1    2    0    0 -0.10060343462E+03  0.84730296692E+02 -0.57873824131E+03  0.88659372457E+03  0.65864270000E+03 0.  1.
    8880022    1    1    2    0    0  0.10060343462E+03 -0.84730296692E+02 -0.12062743606E+04  0.12230248404E+04  0.15294330000E+03 0.  0.
<mgrwt>
<rscale>  0 0.49721546E+03</rscale>
<asrwt>0</asrwt>
<pdfrwt beam="1">  1        2 0.29958700E+00 0.67164759E+03</pdfrwt>
<pdfrwt beam="2">  1       -2 0.24969691E-01 0.67164759E+03</pdfrwt>
<totfact> 0.10614159E+02</totfact>
</mgrwt>
</event>
<event>
 4    5  0.8511149E-008  0.1586719E+04  0.7818608E-02  0.8850710E-01
          2   -1    0    0  501    0  0.00000000000E+00  0.00000000000E+00  0.14393087620E+04  0.14393087620E+04  0.25500000000E-02 0. -1.
         -2   -1    0    0    0  501 -0.00000000000E+00 -0.00000000000E+00 -0.17509062097E+04  0.17509062097E+04  0.25500000000E-02 0.  1.
    8880023    1    1    2    0    0  0.30395721759E+03 -0.14111968032E+04 -0.62457567326E+03  0.17052188673E+04  0.65864270000E+03 0.  0.
    8880022    1    1    2    0    0 -0.30395721759E+03  0.14111968032E+04  0.31297822553E+03  0.14849961044E+04  0.15294330000E+03 0.  0.
<mgrwt>
<rscale>  0 0.15518141E+04</rscale>
<asrwt>0</asrwt>
<pdfrwt beam="1">  1        2 0.22143212E+00 0.15867188E+04</pdfrwt>
<pdfrwt beam="2">  1       -2 0.26937019E+00 0.15867188E+04</pdfrwt>
<totfact> 0.62707021E-01</totfact>
</mgrwt>
</event>
<event>
 4    5  0.9327676E-008  0.1117428E+04  0.7818608E-02  0.9241896E-01
         -2   -1    0    0    0  501 -0.00000000000E+00  0.00000000000E+00  0.19556126326E+04  0.19556126326E+04  0.25500000000E-02 0.  1.
          2   -1    0    0  501    0  0.00000000000E+00 -0.00000000000E+00 -0.17456256207E+04  0.17456256207E+04  0.25500000000E-02 0. -1.
    8880023    1    1    2    0    0 -0.49311978365E+03  0.75608699180E+03  0.16512240527E+04  0.19937867836E+04  0.65864270000E+03 0.  1.
    8880022    1    1    2    0    0  0.49311978365E+03 -0.75608699180E+03 -0.14412370408E+04  0.17074514696E+04  0.15294330000E+03 0.  0.
<mgrwt>
<rscale>  0 0.10631261E+04</rscale>
<asrwt>0</asrwt>
<pdfrwt beam="1">  1        2 0.26855779E+00 0.11174278E+04</pdfrwt>
<pdfrwt beam="2">  1       -2 0.30086348E+00 0.11174278E+04</pdfrwt>
<totfact> 0.28700073E-01</totfact>
</mgrwt>
</event>
<event>
 4    5  0.8511149E-008  0.1170652E+04  0.7818608E-02  0.9186193E-01
         -2   -1    0    0    0  501 -0.00000000000E+00  0.00000000000E+00  0.11744189574E+04  0.11744189574E+04  0.25500000000E-02 0.  1.
          2   -1    0    0  501    0  0.00000000000E+00 -0.00000000000E+00 -0.14026447375E+04  0.14026447375E+04  0.25500000000E-02 0. -1.
    8880023    1    1    2    0    0 -0.20016457792E+03 -0.94686269969E+03  0.58044100523E+03  0.13066509852E+04  0.65864270000E+03 0.  1.
    8880022    1    1    2    0    0  0.20016457792E+03  0.94686269969E+03 -0.80866678533E+03  0.12704127097E+04  0.15294330000E+03 0.  0.
<mgrwt>
<rscale>  0 0.11197086E+04</rscale>
<asrwt>0</asrwt>
<pdfrwt beam="1">  1        2 0.21579150E+00 0.11706515E+04</pdfrwt>
<pdfrwt beam="2">  1       -2 0.18067984E+00 0.11706515E+04</pdfrwt>
<totfact> 0.25180237E+00</totfact>
</mgrwt>
</event>
<event>
 4    5  0.8511149E-008  0.8990368E+03  0.7818608E-02  0.9527580E-01
          2   -1    0    0  501    0  0.00000000000E+00  0.00000000000E+00  0.81650521125E+03  0.81650521125E+03  0.25500000000E-02 0. -1.
         -2   -1    0    0    0  501 -0.00000000000E+00 -0.00000000000E+00 -0.11699485911E+04  0.11699485911E+04  0.25500000000E-02 0.  1.
    8880023    1    1    2    0    0 -0.54729849374E+03  0.27371758759E+03 -0.80816303282E+03  0.12088815711E+04  0.65864270000E+03 0.  1.
    8880022    1    1    2    0    0  0.54729849374E+03 -0.27371758759E+03  0.45471965299E+03  0.77757223126E+03  0.15294330000E+03 0.  0.
<mgrwt>
<rscale>  0 0.82280672E+03</rscale>
<asrwt>0</asrwt>
<pdfrwt beam="1">  1        2 0.12561619E+00 0.89903680E+03</pdfrwt>
<pdfrwt beam="2">  1       -2 0.17999209E+00 0.89903680E+03</pdfrwt>
<totfact> 0.60900834E+00</totfact>
</mgrwt>
</event>
<event>
 4    5  0.8511149E-008  0.7556855E+03  0.7818608E-02  0.9816408E-01
         -2   -1    0    0    0  501 -0.00000000000E+00  0.00000000000E+00  0.55755129796E+03  0.55755129797E+03  0.25500000000E-02 0.  1.
          2   -1    0    0  501    0  0.00000000000E+00 -0.00000000000E+00 -0.78798387486E+03  0.78798387486E+03  0.25500000000E-02 0. -1.
    8880023    1    1    2    0    0 -0.33411187660E+03 -0.16006118639E+03  0.17473106524E+03  0.77562328543E+03  0.65864270000E+03 0.  1.
    8880022    1    1    2    0    0  0.33411187660E+03  0.16006118639E+03 -0.40516364214E+03  0.56991188740E+03  0.15294330000E+03 0.  0.
<mgrwt>
<rscale>  0 0.64489378E+03</rscale>
<asrwt>0</asrwt>
<pdfrwt beam="1">  1        2 0.12122829E+00 0.75568547E+03</pdfrwt>
<pdfrwt beam="2">  1       -2 0.85777122E-01 0.75568547E+03</pdfrwt>
<totfact> 0.42028162E+01</totfact>
</mgrwt>
</event>
<event>
 4    5  0.8511149E-008  0.1304133E+04  0.7818608E-02  0.9061999E-01
         -2   -1    0    0    0  501 -0.00000000000E+00  0.00000000000E+00  0.18239974101E+04  0.18239974101E+04  0.25500000000E-02 0.  1.
          2   -1    0    0  501    0  0.00000000000E+00 -0.00000000000E+00 -0.15271481561E+04  0.15271481561E+04  0.25500000000E-02 0. -1.
    8880023    1    1    2    0    0 -0.99110497387E+02 -0.11212182804E+04  0.12958074917E+04  0.18384451541E+04  0.65864270000E+03 0.  0.
    8880022    1    1    2    0    0  0.99110497387E+02  0.11212182804E+04 -0.99895823774E+03  0.15127004121E+04  0.15294330000E+03 0.  0.
<mgrwt>
<rscale>  0 0.12598815E+04</rscale>
<asrwt>0</asrwt>
<pdfrwt beam="1">  1        2 0.23494587E+00 0.13041332E+04</pdfrwt>
<pdfrwt beam="2">  1       -2 0.28061499E+00 0.13041332E+04</pdfrwt>
<totfact> 0.49173068E-01</totfact>
</mgrwt>
</event>
<event>
 4    5  0.8511149E-008  0.7996820E+03  0.7818608E-02  0.9711484E-01
         -2   -1    0    0    0  501 -0.00000000000E+00  0.00000000000E+00  0.35746716491E+03  0.35746716491E+03  0.25500000000E-02 0.  1.
          2   -1    0    0  501    0  0.00000000000E+00 -0.00000000000E+00 -0.30527022337E+04  0.30527022337E+04  0.25500000000E-02 0. -1.
    8880023    1    1    2    0    0  0.29272877957E+03 -0.34639718087E+03 -0.14166518350E+03  0.81213322539E+03  0.65864270000E+03 0.  0.
    8880022    1    1    2    0    0 -0.29272877957E+03  0.34639718087E+03 -0.25535698853E+04  0.25980361732E+04  0.15294330000E+03 0.  0.
<mgrwt>
<rscale>  0 0.70337138E+03</rscale>
<asrwt>0</asrwt>
<pdfrwt beam="1">  1        2 0.46964648E+00 0.79968203E+03</pdfrwt>
<pdfrwt beam="2">  1       -2 0.54994950E-01 0.79968203E+03</pdfrwt>
<totfact> 0.53051273E+00</totfact>
</mgrwt>
</event>
<event>
 4    5  0.8511149E-008  0.9370270E+03  0.7818608E-02  0.9469030E-01
          2   -1    0    0  501    0  0.00000000000E+00  0.00000000000E+00  0.10802843082E+04  0.10802843082E+04  0.25500000000E-02 0. -1.
         -2   -1    0    0    0  501 -0.00000000000E+00 -0.00000000000E+00 -0.10431199022E+04  0.10431199022E+04  0.25500000000E-02 0.  1.
    8880023    1    1    2    0    0  0.58538545903E+03  0.31864283658E+03 -0.66056369976E+03  0.11464571517E+04  0.65864270000E+03 0.  1.
    8880022    1    1    2    0    0 -0.58538545903E+03 -0.31864283658E+03  0.69772810580E+03  0.97694705874E+03  0.15294330000E+03 0.  0.
<mgrwt>
<rscale>  0 0.86606106E+03</rscale>
<asrwt>0</asrwt>
<pdfrwt beam="1">  1        2 0.16619759E+00 0.93702700E+03</pdfrwt>
<pdfrwt beam="2">  1       -2 0.16047998E+00 0.93702700E+03</pdfrwt>
<totfact> 0.55852795E+00</totfact>
</mgrwt>
</event>
<event>
 4    5  0.8511149E-008  0.7230490E+03  0.7818608E-02  0.9912401E-01
         -2   -1    0    0    0  501 -0.00000000000E+00  0.00000000000E+00  0.48579489183E+03  0.48579489184E+03  0.25500000000E-02 0.  1.
          2   -1    0    0  501    0  0.00000000000E+00 -0.00000000000E+00 -0.79938369221E+03  0.79938369221E+03  0.25500000000E-02 0. -1.
    8880023    1    1    2    0    0 -0.20590945425E+03  0.21584949260E+03  0.12434680641E+03  0.73366343873E+03  0.65864270000E+03 0.  0.
    8880022    1    1    2    0    0  0.20590945425E+03 -0.21584949260E+03 -0.43793560679E+03  0.55151514532E+03  0.15294330000E+03 0.  0.
<mgrwt>
<rscale>  0 0.59664032E+03</rscale>
<asrwt>0</asrwt>
<pdfrwt beam="1">  1        2 0.12298211E+00 0.72304904E+03</pdfrwt>
<pdfrwt beam="2">  1       -2 0.74737676E-01 0.72304904E+03</pdfrwt>
<totfact> 0.56358103E+01</totfact>
</mgrwt>
</event>
<event>
 4    5  0.8511149E-008  0.7466956E+03  0.7818608E-02  0.9840856E-01
         -2   -1    0    0    0  501 -0.00000000000E+00  0.00000000000E+00  0.10851173233E+03  0.10851173236E+03  0.25500000000E-02 0.  1.
          2   -1    0    0  501    0  0.00000000000E+00 -0.00000000000E+00 -0.34366058649E+04  0.34366058649E+04  0.25500000000E-02 0. -1.
    8880023    1    1    2    0    0  0.29115801272E+03 -0.19741096978E+03 -0.14806920328E+04  0.16583133544E+04  0.65864270000E+03 0.  1.
    8880022    1    1    2    0    0 -0.29115801272E+03  0.19741096978E+03 -0.18474020998E+04  0.18868042428E+04  0.15294330000E+03 0.  0.
<mgrwt>
<rscale>  0 0.63215336E+03</rscale>
<asrwt>0</asrwt>
<pdfrwt beam="1">  1        2 0.52870851E+00 0.74669558E+03</pdfrwt>
<pdfrwt beam="2">  1       -2 0.16694115E-01 0.74669558E+03</pdfrwt>
<totfact> 0.28211871E+01</totfact>
</mgrwt>
</event>
<event>
 4    5  0.8511149E-008  0.1092112E+04  0.7818608E-02  0.9269890E-01
          2   -1    0    0  501    0  0.00000000000E+00  0.00000000000E+00  0.32198801352E+04  0.32198801352E+04  0.25500000000E-02 0. -1.
         -2   -1    0    0    0  501 -0.00000000000E+00 -0.00000000000E+00 -0.12098927392E+04  0.12098927392E+04  0.25500000000E-02 0.  1.
    8880023    1    1    2    0    0  0.66460957955E+03  0.56319808615E+03 -0.88311373421E+03  0.14044920973E+04  0.65864270000E+03 0.  1.
    8880022    1    1    2    0    0 -0.66460957955E+03 -0.56319808615E+03  0.28931011302E+04  0.30252807771E+04  0.15294330000E+03 0.  0.
<mgrwt>
<rscale>  0 0.10360275E+04</rscale>
<asrwt>0</asrwt>
<pdfrwt beam="1">  1        2 0.49536617E+00 0.10921118E+04</pdfrwt>
<pdfrwt beam="2">  1       -2 0.18613735E+00 0.10921118E+04</pdfrwt>
<totfact> 0.20822786E-01</totfact>
</mgrwt>
</event>
<event>
 4    5  0.8511149E-008  0.1415693E+04  0.7818608E-02  0.8971584E-01
          2   -1    0    0  501    0  0.00000000000E+00  0.00000000000E+00  0.22165752622E+04  0.22165752622E+04  0.25500000000E-02 0. -1.
         -2   -1    0    0    0  501 -0.00000000000E+00 -0.00000000000E+00 -0.10734608975E+04  0.10734608975E+04  0.25500000000E-02 0.  1.
    8880023    1    1    2    0    0  0.69902675334E+03 -0.10400666495E+04  0.14117711932E+04  0.19993211711E+04  0.65864270000E+03 0.  0.
    8880022    1    1    2    0    0 -0.69902675334E+03  0.10400666495E+04 -0.26865682854E+03  0.12907149886E+04  0.15294330000E+03 0.  0.
<mgrwt>
<rscale>  0 0.13757199E+04</rscale>
<asrwt>0</asrwt>
<pdfrwt beam="1">  1        2 0.34101157E+00 0.14156932E+04</pdfrwt>
<pdfrwt beam="2">  1       -2 0.16514783E+00 0.14156932E+04</pdfrwt>
<totfact> 0.11093913E+00</totfact>
</mgrwt>
</event>
<event>
 4    5  0.8511149E-008  0.7602017E+03  0.7818608E-02  0.9804585E-01
         -2   -1    0    0    0  501 -0.00000000000E+00  0.00000000000E+00  0.46999229434E+03  0.46999229435E+03  0.25500000000E-02 0.  1.
          2   -1    0    0  501    0  0.00000000000E+00 -0.00000000000E+00 -0.25723575491E+04  0.25723575491E+04  0.25500000000E-02 0. -1.
    8880023    1    1    2    0    0  0.36368313451E+03  0.10877069131E+03  0.13133898258E+03  0.77146394616E+03  0.65864270000E+03 0.  0.
    8880022    1    1    2    0    0 -0.36368313451E+03 -0.10877069131E+03 -0.22337042373E+04  0.22708858973E+04  0.15294330000E+03 0.  0.
<mgrwt>
<rscale>  0 0.65117040E+03</rscale>
<asrwt>0</asrwt>
<pdfrwt beam="1">  1        2 0.39574731E+00 0.76020174E+03</pdfrwt>
<pdfrwt beam="2">  1       -2 0.72306509E-01 0.76020174E+03</pdfrwt>
<totfact> 0.57423755E+00</totfact>
</mgrwt>
</event>
<event>
 4    5  0.8511149E-008  0.8525511E+03  0.7818608E-02  0.9606953E-01
         -2   -1    0    0    0  501 -0.00000000000E+00  0.00000000000E+00  0.61848971922E+03  0.61848971922E+03  0.25500000000E-02 0.  1.
          2   -1    0    0  501    0  0.00000000000E+00 -0.00000000000E+00 -0.10729914236E+04  0.10729914236E+04  0.25500000000E-02 0. -1.
    8880023    1    1    2    0    0 -0.53510056663E+03 -0.81856858889E+02  0.15010445609E+03  0.86566432048E+03  0.65864270000E+03 0.  1.
    8880022    1    1    2    0    0  0.53510056663E+03  0.81856858889E+02 -0.60460616045E+03  0.82581682232E+03  0.15294330000E+03 0.  0.
<mgrwt>
<rscale>  0 0.76837660E+03</rscale>
<asrwt>0</asrwt>
<pdfrwt beam="1">  1        2 0.16507560E+00 0.85255109E+03</pdfrwt>
<pdfrwt beam="2">  1       -2 0.95152264E-01 0.85255109E+03</pdfrwt>
<totfact> 0.21173296E+01</totfact>
</mgrwt>
</event>
<event>
 4    5  0.8511149E-008  0.1159514E+04  0.7818608E-02  0.9197519E-01
          2   -1    0    0  501    0  0.00000000000E+00  0.00000000000E+00  0.45151467433E+04  0.45151467433E+04  0.25500000000E-02 0. -1.
         -2   -1    0    0    0  501 -0.00000000000E+00 -0.00000000000E+00 -0.66375936227E+03  0.66375936227E+03  0.25500000000E-02 0.  1.
    8880023    1    1    2    0    0 -0.24757263830E+03  0.92161244725E+03 -0.49015038058E+02  0.11605491779E+04  0.65864270000E+03 0.  0.
    8880022    1    1    2    0    0  0.24757263830E+03 -0.92161244725E+03  0.39004024191E+04  0.40183569276E+04  0.15294330000E+03 0.  0.
<mgrwt>
<rscale>  0 0.11079071E+04</rscale>
<asrwt>0</asrwt>
<pdfrwt beam="1">  1        2 0.69463795E+00 0.11595137E+04</pdfrwt>
<pdfrwt beam="2">  1       -2 0.10211683E+00 0.11595137E+04</pdfrwt>
<totfact> 0.97015368E-02</totfact>
</mgrwt>
</event>
<event>
 4    5  0.8511149E-008  0.7975978E+03  0.7818608E-02  0.9716014E-01
          2   -1    0    0  501    0  0.00000000000E+00  0.00000000000E+00  0.50047079195E+03  0.50047079196E+03  0.25500000000E-02 0. -1.
         -2   -1    0    0    0  501 -0.00000000000E+00 -0.00000000000E+00 -0.92367002635E+03  0.92367002636E+03  0.25500000000E-02 0.  1.
    8880023    1    1    2    0    0  0.74017492079E+02  0.44370424975E+03 -0.50214332354E+03  0.94250208170E+03  0.65864270000E+03 0.  1.
    8880022    1    1    2    0    0 -0.74017492079E+02 -0.44370424975E+03  0.78944089138E+02  0.48163873661E+03  0.15294330000E+03 0.  0.
<mgrwt>
<rscale>  0 0.70071259E+03</rscale>
<asrwt>0</asrwt>
<pdfrwt beam="1">  1        2 0.76995507E-01 0.79759780E+03</pdfrwt>
<pdfrwt beam="2">  1       -2 0.14210308E+00 0.79759780E+03</pdfrwt>
<totfact> 0.21445746E+01</totfact>
</mgrwt>
</event>
<event>
 4    5  0.8511149E-008  0.1143662E+04  0.7818608E-02  0.9213933E-01
         -2   -1    0    0    0  501 -0.00000000000E+00  0.00000000000E+00  0.11439210596E+04  0.11439210596E+04  0.25500000000E-02 0.  1.
          2   -1    0    0  501    0  0.00000000000E+00 -0.00000000000E+00 -0.14810850953E+04  0.14810850953E+04  0.25500000000E-02 0. -1.
    8880023    1    1    2    0    0 -0.78161759291E+03 -0.51305601151E+03  0.60077951099E+03  0.12918586454E+04  0.65864270000E+03 0.  1.
    8880022    1    1    2    0    0  0.78161759291E+03  0.51305601151E+03 -0.93794354662E+03  0.13331475095E+04  0.15294330000E+03 0.  0.
<mgrwt>
<rscale>  0 0.10910766E+04</rscale>
<asrwt>0</asrwt>
<pdfrwt beam="1">  1        2 0.22785925E+00 0.11436620E+04</pdfrwt>
<pdfrwt beam="2">  1       -2 0.17598785E+00 0.11436620E+04</pdfrwt>
<totfact> 0.24562348E+00</totfact>
</mgrwt>
</event>
<event>
 4    5  0.8511149E-008  0.1803795E+04  0.7818608E-02  0.8720440E-01
         -2   -1    0    0    0  501 -0.00000000000E+00  0.00000000000E+00  0.21012046922E+04  0.21012046922E+04  0.25500000000E-02 0.  1.
          2   -1    0    0  501    0  0.00000000000E+00 -0.00000000000E+00 -0.24725866520E+04  0.24725866520E+04  0.25500000000E-02 0. -1.
    8880023    1    1    2    0    0 -0.12787787304E+04 -0.10883897335E+04  0.12814345088E+04  0.22126345970E+04  0.65864270000E+03 0.  0.
    8880022    1    1    2    0    0  0.12787787304E+04  0.10883897335E+04 -0.16528164686E+04  0.23611567472E+04  0.15294330000E+03 0.  0.
<mgrwt>
<rscale>  0 0.17736482E+04</rscale>
<asrwt>0</asrwt>
<pdfrwt beam="1">  1        2 0.38039795E+00 0.18037953E+04</pdfrwt>
<pdfrwt beam="2">  1       -2 0.32326226E+00 0.18037953E+04</pdfrwt>
<totfact> 0.74616894E-02</totfact>
</mgrwt>
</event>
<event>
 4    5  0.8511149E-008  0.7459648E+03  0.7818608E-02  0.9842901E-01
         -2   -1    0    0    0  501 -0.00000000000E+00  0.00000000000E+00  0.12020611591E+04  0.12020611591E+04  0.25500000000E-02 0.  1.
          2   -1    0    0  501    0  0.00000000000E+00 -0.00000000000E+00 -0.26859164452E+03  0.26859164453E+03  0.25500000000E-02 0. -1.
    8880023    1    1    2    0    0  0.34447276632E+03  0.63181193347E+02  0.69909451045E+03  0.10223486151E+04  0.65864270000E+03 0.  0.
    8880022    1    1    2    0    0 -0.34447276632E+03 -0.63181193347E+02  0.23437500416E+03  0.44830418860E+03  0.15294330000E+03 0. -1.
<mgrwt>
<rscale>  0 0.63110208E+03</rscale>
<asrwt>0</asrwt>
<pdfrwt beam="1">  1        2 0.41321791E-01 0.74596485E+03</pdfrwt>
<pdfrwt beam="2">  1       -2 0.18493249E+00 0.74596485E+03</pdfrwt>
<totfact> 0.21150914E+01</totfact>
</mgrwt>
</event>
<event>
 4    5  0.8511149E-008  0.1064400E+04  0.7818608E-02  0.9301768E-01
          2   -1    0    0  501    0  0.00000000000E+00  0.00000000000E+00  0.16820897215E+04  0.16820897215E+04  0.25500000000E-02 0. -1.
         -2   -1    0    0    0  501 -0.00000000000E+00 -0.00000000000E+00 -0.11034724508E+04  0.11034724508E+04  0.25500000000E-02 0.  1.
    8880023    1    1    2    0    0  0.68817392070E+03  0.47492501960E+03 -0.68272407484E+03  0.12645392394E+04  0.65864270000E+03 0.  1.
    8880022    1    1    2    0    0 -0.68817392070E+03 -0.47492501960E+03  0.12613413455E+04  0.15210229329E+04  0.15294330000E+03 0.  0.
<mgrwt>
<rscale>  0 0.10062028E+04</rscale>
<asrwt>0</asrwt>
<pdfrwt beam="1">  1        2 0.25878303E+00 0.10644000E+04</pdfrwt>
<pdfrwt beam="2">  1       -2 0.16976499E+00 0.10644000E+04</pdfrwt>
<totfact> 0.21169342E+00</totfact>
</mgrwt>
</event>
<event>
 4    5  0.8511149E-008  0.1262289E+04  0.7818608E-02  0.9098830E-01
          2   -1    0    0  501    0  0.00000000000E+00  0.00000000000E+00  0.15886882996E+04  0.15886882996E+04  0.25500000000E-02 0. -1.
         -2   -1    0    0    0  501 -0.00000000000E+00 -0.00000000000E+00 -0.15399961230E+04  0.15399961230E+04  0.25500000000E-02 0.  1.
    8880023    1    1    2    0    0  0.53102649005E+03 -0.93678893619E+03 -0.10056376140E+04  0.16139020606E+04  0.65864270000E+03 0.  0.
    8880022    1    1    2    0    0 -0.53102649005E+03  0.93678893619E+03  0.10543297906E+04  0.15147823621E+04  0.15294330000E+03 0.  0.
<mgrwt>
<rscale>  0 0.12161581E+04</rscale>
<asrwt>0</asrwt>
<pdfrwt beam="1">  1        2 0.24441358E+00 0.12622887E+04</pdfrwt>
<pdfrwt beam="2">  1       -2 0.23692248E+00 0.12622887E+04</pdfrwt>
<totfact> 0.84413963E-01</totfact>
</mgrwt>
</event>
<event>
 4    5  0.8511149E-008  0.1158208E+04  0.7818608E-02  0.9198858E-01
         -2   -1    0    0    0  501 -0.00000000000E+00  0.00000000000E+00  0.86417499352E+03  0.86417499352E+03  0.25500000000E-02 0.  1.
          2   -1    0    0  501    0  0.00000000000E+00 -0.00000000000E+00 -0.25857560240E+04  0.25857560240E+04  0.25500000000E-02 0. -1.
    8880023    1    1    2    0    0 -0.95236914053E+03  0.25073784600E+02  0.31161428764E+03  0.11993954081E+04  0.65864270000E+03 0.  0.
    8880022    1    1    2    0    0  0.95236914053E+03 -0.25073784600E+02 -0.20331953181E+04  0.22505356094E+04  0.15294330000E+03 0.  0.
<mgrwt>
<rscale>  0 0.11065225E+04</rscale>
<asrwt>0</asrwt>
<pdfrwt beam="1">  1        2 0.39780862E+00 0.11582080E+04</pdfrwt>
<pdfrwt beam="2">  1       -2 0.13295000E+00 0.11582080E+04</pdfrwt>
<totfact> 0.12544674E+00</totfact>
</mgrwt>
</event>
<event>
 4    5  0.8511149E-008  0.6740375E+03  0.7818608E-02  0.1012920E+00
          2   -1    0    0  501    0  0.00000000000E+00  0.00000000000E+00  0.11428568546E+04  0.11428568546E+04  0.25500000000E-02 0. -1.
         -2   -1    0    0    0  501 -0.00000000000E+00 -0.00000000000E+00 -0.36626380769E+03  0.36626380770E+03  0.25500000000E-02 0.  1.
    8880023    1    1    2    0    0  0.11994465798E+03  0.78291541377E+02 -0.31035473987E+02  0.67475157898E+03  0.65864270000E+03 0.  1.
    8880022    1    1    2    0    0 -0.11994465798E+03 -0.78291541377E+02  0.80762852090E+03  0.83436908333E+03  0.15294330000E+03 0.  0.
<mgrwt>
<rscale>  0 0.50330461E+03</rscale>
<asrwt>0</asrwt>
<pdfrwt beam="1">  1        2 0.17582413E+00 0.67403746E+03</pdfrwt>
<pdfrwt beam="2">  1       -2 0.56348279E-01 0.67403746E+03</pdfrwt>
<totfact> 0.62047785E+01</totfact>
</mgrwt>
</event>
<event>
 4    5  0.8511149E-008  0.1149876E+04  0.7818608E-02  0.9207456E-01
         -2   -1    0    0    0  501 -0.00000000000E+00  0.00000000000E+00  0.97874714069E+03  0.97874714070E+03  0.25500000000E-02 0.  1.
          2   -1    0    0  501    0  0.00000000000E+00 -0.00000000000E+00 -0.18341716686E+04  0.18341716686E+04  0.25500000000E-02 0. -1.
    8880023    1    1    2    0    0  0.75553715156E+03  0.56353255234E+03  0.41603291445E+03  0.12228241562E+04  0.65864270000E+03 0.  0.
    8880022    1    1    2    0    0 -0.75553715156E+03 -0.56353255234E+03 -0.12714574424E+04  0.15900946531E+04  0.15294330000E+03 0.  0.
<mgrwt>
<rscale>  0 0.10976797E+04</rscale>
<asrwt>0</asrwt>
<pdfrwt beam="1">  1        2 0.28218026E+00 0.11498763E+04</pdfrwt>
<pdfrwt beam="2">  1       -2 0.15057648E+00 0.11498763E+04</pdfrwt>
<totfact> 0.23955621E+00</totfact>
</mgrwt>
</event>
<event>
 4    5  0.8511149E-008  0.1102207E+04  0.7818608E-02  0.9258603E-01
          2   -1    0    0  501    0  0.00000000000E+00  0.00000000000E+00  0.92875849145E+03  0.92875849145E+03  0.25500000000E-02 0. -1.
         -2   -1    0    0    0  501 -0.00000000000E+00 -0.00000000000E+00 -0.18367696967E+04  0.18367696967E+04  0.25500000000E-02 0.  1.
    8880023    1    1    2    0    0  0.10478482787E+03 -0.87753588031E+03 -0.13686174418E+04  0.17572629256E+04  0.65864270000E+03 0.  0.
    8880022    1    1    2    0    0 -0.10478482787E+03  0.87753588031E+03  0.46060623660E+03  0.10082652625E+04  0.15294330000E+03 0.  0.
<mgrwt>
<rscale>  0 0.10468489E+04</rscale>
<asrwt>0</asrwt>
<pdfrwt beam="1">  1        2 0.14288592E+00 0.11022066E+04</pdfrwt>
<pdfrwt beam="2">  1       -2 0.28257995E+00 0.11022066E+04</pdfrwt>
<totfact> 0.11259005E+00</totfact>
</mgrwt>
</event>
<event>
 4    5  0.8511149E-008  0.1725639E+04  0.7818608E-02  0.8764825E-01
          2   -1    0    0  501    0  0.00000000000E+00  0.00000000000E+00  0.18986227122E+04  0.18986227122E+04  0.25500000000E-02 0. -1.
         -2   -1    0    0    0  501 -0.00000000000E+00 -0.00000000000E+00 -0.15283157058E+04  0.15283157058E+04  0.25500000000E-02 0.  1.
    8880023    1    1    2    0    0  0.66023569647E+02 -0.15936311119E+04 -0.17472906231E+03  0.17344623616E+04  0.65864270000E+03 0. -1.
    8880022    1    1    2    0    0 -0.66023569647E+02  0.15936311119E+04  0.54503606873E+03  0.16924760565E+04  0.15294330000E+03 0.  0.
<mgrwt>
<rscale>  0 0.16939452E+04</rscale>
<asrwt>0</asrwt>
<pdfrwt beam="1">  1        2 0.29209580E+00 0.17256388E+04</pdfrwt>
<pdfrwt beam="2">  1       -2 0.23512549E+00 0.17256388E+04</pdfrwt>
<totfact> 0.55459270E-01</totfact>
</mgrwt>
</event>
<event>
 4    5  0.8511149E-008  0.7506188E+03  0.7818608E-02  0.9830029E-01
         -2   -1    0    0    0  501 -0.00000000000E+00  0.00000000000E+00  0.38877210222E+03  0.38877210223E+03  0.25500000000E-02 0.  1.
          2   -1    0    0  501    0  0.00000000000E+00 -0.00000000000E+00 -0.24340234277E+04  0.24340234277E+04  0.25500000000E-02 0. -1.
    8880023    1    1    2    0    0 -0.25778111216E+03 -0.25133097124E+03 -0.10403003104E+02  0.75069087355E+03  0.65864270000E+03 0.  1.
    8880022    1    1    2    0    0  0.25778111216E+03  0.25133097124E+03 -0.20348483224E+04  0.20721046564E+04  0.15294330000E+03 0.  0.
<mgrwt>
<rscale>  0 0.63775600E+03</rscale>
<asrwt>0</asrwt>
<pdfrwt beam="1">  1        2 0.37446513E+00 0.75061879E+03</pdfrwt>
<pdfrwt beam="2">  1       -2 0.59811094E-01 0.75061879E+03</pdfrwt>
<totfact> 0.10369836E+01</totfact>
</mgrwt>
</event>
<event>
 4    5  0.8511149E-008  0.7381784E+03  0.7818608E-02  0.9865285E-01
          2   -1    0    0  501    0  0.00000000000E+00  0.00000000000E+00  0.99203147094E+03  0.99203147094E+03  0.25500000000E-02 0. -1.
         -2   -1    0    0    0  501 -0.00000000000E+00 -0.00000000000E+00 -0.87688019744E+03  0.87688019744E+03  0.25500000000E-02 0.  1.
    8880023    1    1    2    0    0  0.30210725158E+03  0.14081306353E+03 -0.67344325849E+03  0.99921626237E+03  0.65864270000E+03 0.  1.
    8880022    1    1    2    0    0 -0.30210725158E+03 -0.14081306353E+03  0.78859453200E+03  0.86969540601E+03  0.15294330000E+03 0.  0.
<mgrwt>
<rscale>  0 0.61973602E+03</rscale>
<asrwt>0</asrwt>
<pdfrwt beam="1">  1        2 0.15262023E+00 0.73817838E+03</pdfrwt>
<pdfrwt beam="2">  1       -2 0.13490465E+00 0.73817838E+03</pdfrwt>
<totfact> 0.10263664E+01</totfact>
</mgrwt>
</event>
<event>
 4    5  0.8511149E-008  0.7435515E+03  0.7818608E-02  0.9849720E-01
          2   -1    0    0  501    0  0.00000000000E+00  0.00000000000E+00  0.13583521758E+04  0.13583521758E+04  0.25500000000E-02 0. -1.
         -2   -1    0    0    0  501 -0.00000000000E+00 -0.00000000000E+00 -0.69750730076E+03  0.69750730076E+03  0.25500000000E-02 0.  1.
    8880023    1    1    2    0    0  0.34487128941E+03 -0.11066410452E+02 -0.45920966667E+03  0.87392356412E+03  0.65864270000E+03 0.  1.
    8880022    1    1    2    0    0 -0.34487128941E+03  0.11066410452E+02  0.11200545417E+04  0.11819359124E+04  0.15294330000E+03 0.  0.
<mgrwt>
<rscale>  0 0.62761199E+03</rscale>
<asrwt>0</asrwt>
<pdfrwt beam="1">  1        2 0.20897725E+00 0.74355153E+03</pdfrwt>
<pdfrwt beam="2">  1       -2 0.10730882E+00 0.74355153E+03</pdfrwt>
<totfact> 0.10911977E+01</totfact>
</mgrwt>
</event>
<event>
 4    5  0.8511149E-008  0.1406673E+04  0.7818608E-02  0.8978515E-01
         -2   -1    0    0    0  501 -0.00000000000E+00  0.00000000000E+00  0.15379733889E+04  0.15379733889E+04  0.25500000000E-02 0.  1.
          2   -1    0    0  501    0  0.00000000000E+00 -0.00000000000E+00 -0.12360675636E+04  0.12360675636E+04  0.25500000000E-02 0. -1.
    8880023    1    1    2    0    0  0.12308028519E+04 -0.17332827658E+03  0.52605055827E+03  0.15018181474E+04  0.65864270000E+03 0.  0.
    8880022    1    1    2    0    0 -0.12308028519E+04  0.17332827658E+03 -0.22414473296E+03  0.12722228052E+04  0.15294330000E+03 0.  0.
<mgrwt>
<rscale>  0 0.13663873E+04</rscale>
<asrwt>0</asrwt>
<pdfrwt beam="1">  1        2 0.19016424E+00 0.14066729E+04</pdfrwt>
<pdfrwt beam="2">  1       -2 0.23661129E+00 0.14066729E+04</pdfrwt>
<totfact> 0.13339848E+00</totfact>
</mgrwt>
</event>
<event>
 4    5  0.8511149E-008  0.7151578E+03  0.7818608E-02  0.9939324E-01
         -2   -1    0    0    0  501 -0.00000000000E+00  0.00000000000E+00  0.38510945257E+03  0.38510945258E+03  0.25500000000E-02 0.  1.
          2   -1    0    0  501    0  0.00000000000E+00 -0.00000000000E+00 -0.28219577942E+04  0.28219577942E+04  0.25500000000E-02 0. -1.
    8880023    1    1    2    0    0  0.19538281002E+03  0.19866069402E+03  0.33896441408E+02  0.71596067546E+03  0.65864270000E+03 0.  0.
    8880022    1    1    2    0    0 -0.19538281002E+03 -0.19866069402E+03 -0.24707447830E+04  0.24911065713E+04  0.15294330000E+03 0. -1.
<mgrwt>
<rscale>  0 0.58392744E+03</rscale>
<asrwt>0</asrwt>
<pdfrwt beam="1">  1        2 0.43414734E+00 0.71515783E+03</pdfrwt>
<pdfrwt beam="2">  1       -2 0.59247610E-01 0.71515783E+03</pdfrwt>
<totfact> 0.63612906E+00</totfact>
</mgrwt>
</event>
<event>
 4    5  0.8511149E-008  0.9821836E+03  0.7818608E-02  0.9405247E-01
          2   -1    0    0  501    0  0.00000000000E+00  0.00000000000E+00  0.25064279013E+04  0.25064279013E+04  0.25500000000E-02 0. -1.
         -2   -1    0    0    0  501 -0.00000000000E+00 -0.00000000000E+00 -0.56771610240E+03  0.56771610240E+03  0.25500000000E-02 0.  1.
    8880023    1    1    2    0    0 -0.48015494989E+03 -0.54801975993E+03 -0.16148010897E+02  0.98231634298E+03  0.65864270000E+03 0.  0.
    8880022    1    1    2    0    0  0.48015494989E+03  0.54801975993E+03  0.19548598098E+04  0.20918276607E+04  0.15294330000E+03 0.  0.
<mgrwt>
<rscale>  0 0.91645111E+03</rscale>
<asrwt>0</asrwt>
<pdfrwt beam="1">  1        2 0.38560429E+00 0.98218361E+03</pdfrwt>
<pdfrwt beam="2">  1       -2 0.87340939E-01 0.98218361E+03</pdfrwt>
<totfact> 0.39559765E+00</totfact>
</mgrwt>
</event>
<event>
 4    5  0.8511149E-008  0.2555073E+04  0.7818608E-02  0.8390825E-01
          2   -1    0    0  501    0  0.00000000000E+00  0.00000000000E+00  0.14900227286E+04  0.14900227286E+04  0.25500000000E-02 0. -1.
         -2   -1    0    0    0  501 -0.00000000000E+00 -0.00000000000E+00 -0.44823904250E+04  0.44823904250E+04  0.25500000000E-02 0.  1.
    8880023    1    1    2    0    0 -0.23317932197E+04 -0.81075670734E+03 -0.22098165992E+04  0.33781186578E+04  0.65864270000E+03 0.  0.
    8880022    1    1    2    0    0  0.23317932197E+04  0.81075670734E+03 -0.78255109713E+03  0.25942944958E+04  0.15294330000E+03 0.  0.
<mgrwt>
<rscale>  0 0.25344191E+04</rscale>
<asrwt>0</asrwt>
<pdfrwt beam="1">  1        2 0.22923427E+00 0.25550727E+04</pdfrwt>
<pdfrwt beam="2">  1       -2 0.68959852E+00 0.25550727E+04</pdfrwt>
<totfact> 0.26431550E-03</totfact>
</mgrwt>
</event>
<event>
 4    5  0.8511149E-008  0.7604694E+03  0.7818608E-02  0.9803894E-01
          2   -1    0    0  501    0  0.00000000000E+00  0.00000000000E+00  0.12930625751E+04  0.12930625751E+04  0.25500000000E-02 0. -1.
         -2   -1    0    0    0  501 -0.00000000000E+00 -0.00000000000E+00 -0.26589658030E+03  0.26589658031E+03  0.25500000000E-02 0.  1.
    8880023    1    1    2    0    0 -0.33672548028E+03 -0.17640694897E+03  0.71544335363E+03  0.10441134322E+04  0.65864270000E+03 0. -1.
    8880022    1    1    2    0    0  0.33672548028E+03  0.17640694897E+03  0.31172264116E+03  0.51484572324E+03  0.15294330000E+03 0.  1.
<mgrwt>
<rscale>  0 0.65153995E+03</rscale>
<asrwt>0</asrwt>
<pdfrwt beam="1">  1        2 0.19893270E+00 0.76046937E+03</pdfrwt>
<pdfrwt beam="2">  1       -2 0.40907166E-01 0.76046937E+03</pdfrwt>
<totfact> 0.95881206E+01</totfact>
</mgrwt>
</event>
<event>
 4    5  0.8511149E-008  0.7103013E+03  0.7818608E-02  0.9956884E-01
          2   -1    0    0  501    0  0.00000000000E+00  0.00000000000E+00  0.22898061203E+04  0.22898061203E+04  0.25500000000E-02 0. -1.
         -2   -1    0    0    0  501 -0.00000000000E+00 -0.00000000000E+00 -0.37917210564E+03  0.37917210565E+03  0.25500000000E-02 0.  1.
    8880023    1    1    2    0    0  0.26478623338E+03 -0.24617036949E+02 -0.23477283523E+02  0.71068919860E+03  0.65864270000E+03 0.  1.
    8880022    1    1    2    0    0 -0.26478623338E+03  0.24617036949E+02  0.19341112981E+04  0.19582890273E+04  0.15294330000E+03 0.  0.
<mgrwt>
<rscale>  0 0.57581913E+03</rscale>
<asrwt>0</asrwt>
<pdfrwt beam="1">  1        2 0.35227786E+00 0.71030131E+03</pdfrwt>
<pdfrwt beam="2">  1       -2 0.58334171E-01 0.71030131E+03</pdfrwt>
<totfact> 0.13243133E+01</totfact>
</mgrwt>
</event>
<event>
 4    5  0.8511149E-008  0.1004854E+04  0.7818608E-02  0.9375235E-01
         -2   -1    0    0    0  501 -0.00000000000E+00  0.00000000000E+00  0.57549628842E+03  0.57549628843E+03  0.25500000000E-02 0.  1.
          2   -1    0    0  501    0  0.00000000000E+00 -0.00000000000E+00 -0.14520739309E+04  0.14520739309E+04  0.25500000000E-02 0. -1.
    8880023    1    1    2    0    0 -0.26008380210E+03 -0.71293550426E+03 -0.26016706813E+03  0.10379873443E+04  0.65864270000E+03 0.  0.
    8880022    1    1    2    0    0  0.26008380210E+03  0.71293550426E+03 -0.61641057434E+03  0.98958287501E+03  0.15294330000E+03 0.  0.
<mgrwt>
<rscale>  0 0.94142072E+03</rscale>
<asrwt>0</asrwt>
<pdfrwt beam="1">  1        2 0.22339599E+00 0.10048536E+04</pdfrwt>
<pdfrwt beam="2">  1       -2 0.88537891E-01 0.10048536E+04</pdfrwt>
<totfact> 0.14766137E+01</totfact>
</mgrwt>
</event>
<event>
 4    5  0.8511149E-008  0.1155702E+04  0.7818608E-02  0.9201434E-01
         -2   -1    0    0    0  501 -0.00000000000E+00  0.00000000000E+00  0.96718397378E+03  0.96718397378E+03  0.25500000000E-02 0.  1.
          2   -1    0    0  501    0  0.00000000000E+00 -0.00000000000E+00 -0.17532241058E+04  0.17532241058E+04  0.25500000000E-02 0. -1.
    8880023    1    1    2    0    0 -0.88213864464E+03 -0.35166476846E+03  0.37282958324E+03  0.12143511857E+04  0.65864270000E+03 0.  0.
    8880022    1    1    2    0    0  0.88213864464E+03  0.35166476846E+03 -0.11588697153E+04  0.15060568939E+04  0.15294330000E+03 0. -1.
<mgrwt>
<rscale>  0 0.11038638E+04</rscale>
<asrwt>0</asrwt>
<pdfrwt beam="1">  1        2 0.26972678E+00 0.11557019E+04</pdfrwt>
<pdfrwt beam="2">  1       -2 0.14879753E+00 0.11557019E+04</pdfrwt>
<totfact> 0.27393429E+00</totfact>
</mgrwt>
</event>
<event>
 4    5  0.8511149E-008  0.6896290E+03  0.7818608E-02  0.1004329E+00
         -2   -1    0    0    0  501 -0.00000000000E+00  0.00000000000E+00  0.39350963224E+03  0.39350963225E+03  0.25500000000E-02 0.  1.
          2   -1    0    0  501    0  0.00000000000E+00 -0.00000000000E+00 -0.23578348942E+04  0.23578348942E+04  0.25500000000E-02 0. -1.
    8880023    1    1    2    0    0  0.60052575288E+01 -0.20430815383E+03  0.77185170178E+02  0.69393489723E+03  0.65864270000E+03 0.  1.
    8880022    1    1    2    0    0 -0.60052575288E+01  0.20430815383E+03 -0.20415104321E+04  0.20574096292E+04  0.15294330000E+03 0.  0.
<mgrwt>
<rscale>  0 0.53791938E+03</rscale>
<asrwt>0</asrwt>
<pdfrwt beam="1">  1        2 0.36274382E+00 0.68962895E+03</pdfrwt>
<pdfrwt beam="2">  1       -2 0.60539945E-01 0.68962895E+03</pdfrwt>
<totfact> 0.11266782E+01</totfact>
</mgrwt>
</event>
<event>
 4    5  0.8511149E-008  0.1308349E+04  0.7818608E-02  0.9058384E-01
         -2   -1    0    0    0  501 -0.00000000000E+00  0.00000000000E+00  0.15458213059E+04  0.15458213059E+04  0.25500000000E-02 0.  1.
          2   -1    0    0  501    0  0.00000000000E+00 -0.00000000000E+00 -0.13337111707E+04  0.13337111707E+04  0.25500000000E-02 0. -1.
    8880023    1    1    2    0    0 -0.18529908564E+03  0.11151819065E+04  0.86184930438E+03  0.15667038218E+04  0.65864270000E+03 0.  0.
    8880022    1    1    2    0    0  0.18529908564E+03 -0.11151819065E+04 -0.64973916920E+03  0.13128286547E+04  0.15294330000E+03 0.  0.
<mgrwt>
<rscale>  0 0.12642771E+04</rscale>
<asrwt>0</asrwt>
<pdfrwt beam="1">  1        2 0.20518633E+00 0.13083488E+04</pdfrwt>
<pdfrwt beam="2">  1       -2 0.23781866E+00 0.13083488E+04</pdfrwt>
<totfact> 0.11592764E+00</totfact>
</mgrwt>
</event>
<event>
 4    5  0.8511149E-008  0.1027492E+04  0.7818608E-02  0.9346441E-01
          2   -1    0    0  501    0  0.00000000000E+00  0.00000000000E+00  0.26080262395E+04  0.26080262395E+04  0.25500000000E-02 0. -1.
         -2   -1    0    0    0  501 -0.00000000000E+00 -0.00000000000E+00 -0.40327702317E+03  0.40327702317E+03  0.25500000000E-02 0.  1.
    8880023    1    1    2    0    0  0.27262969429E+03  0.74000199815E+03  0.53515527766E+03  0.11585038994E+04  0.65864270000E+03 0. -1.
    8880022    1    1    2    0    0 -0.27262969429E+03 -0.74000199815E+03  0.16695939387E+04  0.18527993633E+04  0.15294330000E+03 0.  0.
<mgrwt>
<rscale>  0 0.96617524E+03</rscale>
<asrwt>0</asrwt>
<pdfrwt beam="1">  1        2 0.40123481E+00 0.10274921E+04</pdfrwt>
<pdfrwt beam="2">  1       -2 0.62042618E-01 0.10274921E+04</pdfrwt>
<totfact> 0.73354962E+00</totfact>
</mgrwt>
</event>
<event>
 4    5  0.8511149E-008  0.1017499E+04  0.7818608E-02  0.9359013E-01
         -2   -1    0    0    0  501 -0.00000000000E+00  0.00000000000E+00  0.57082664606E+03  0.57082664607E+03  0.25500000000E-02 0.  1.
          2   -1    0    0  501    0  0.00000000000E+00 -0.00000000000E+00 -0.15440599696E+04  0.15440599696E+04  0.25500000000E-02 0. -1.
    8880023    1    1    2    0    0  0.54357617090E+03  0.55318984430E+03 -0.26001545787E+03  0.10501963159E+04  0.65864270000E+03 0.  0.
    8880022    1    1    2    0    0 -0.54357617090E+03 -0.55318984430E+03 -0.71321786562E+03  0.10646902997E+04  0.15294330000E+03 0.  0.
<mgrwt>
<rscale>  0 0.95526876E+03</rscale>
<asrwt>0</asrwt>
<pdfrwt beam="1">  1        2 0.23754769E+00 0.10174990E+04</pdfrwt>
<pdfrwt beam="2">  1       -2 0.87819484E-01 0.10174990E+04</pdfrwt>
<totfact> 0.13339461E+01</totfact>
</mgrwt>
</event>
<event>
 4    5  0.8511149E-008  0.9982097E+03  0.7818608E-02  0.9383904E-01
         -2   -1    0    0    0  501 -0.00000000000E+00  0.00000000000E+00  0.15731354253E+03  0.15731354255E+03  0.25500000000E-02 0.  1.
          2   -1    0    0  501    0  0.00000000000E+00 -0.00000000000E+00 -0.53278985475E+04  0.53278985475E+04  0.25500000000E-02 0. -1.
    8880023    1    1    2    0    0  0.94578714884E+02 -0.74408827324E+03 -0.21710553493E+04  0.23895405474E+04  0.65864270000E+03 0.  0.
    8880022    1    1    2    0    0 -0.94578714884E+02  0.74408827324E+03 -0.29995296557E+04  0.30956715427E+04  0.15294330000E+03 0.  0.
<mgrwt>
<rscale>  0 0.93412273E+03</rscale>
<asrwt>0</asrwt>
<pdfrwt beam="1">  1        2 0.81967656E+00 0.99820975E+03</pdfrwt>
<pdfrwt beam="2">  1       -2 0.24202088E-01 0.99820975E+03</pdfrwt>
<totfact> 0.20254266E-01</totfact>
</mgrwt>
</event>
<event>
 4    5  0.8511149E-008  0.7361813E+03  0.7818608E-02  0.9871214E-01
         -2   -1    0    0    0  501 -0.00000000000E+00  0.00000000000E+00  0.30360733083E+03  0.30360733084E+03  0.25500000000E-02 0.  1.
          2   -1    0    0  501    0  0.00000000000E+00 -0.00000000000E+00 -0.21747660479E+04  0.21747660479E+04  0.25500000000E-02 0. -1.
    8880023    1    1    2    0    0  0.90613460547E+02 -0.31613579115E+03 -0.19243492943E+03  0.76091658282E+03  0.65864270000E+03 0.  1.
    8880022    1    1    2    0    0 -0.90613460547E+02  0.31613579115E+03 -0.16787237876E+04  0.17174567959E+04  0.15294330000E+03 0.  0.
<mgrwt>
<rscale>  0 0.61676904E+03</rscale>
<asrwt>0</asrwt>
<pdfrwt beam="1">  1        2 0.33457938E+00 0.73618126E+03</pdfrwt>
<pdfrwt beam="2">  1       -2 0.46708822E-01 0.73618126E+03</pdfrwt>
<totfact> 0.24092223E+01</totfact>
</mgrwt>
</event>
<event>
 4    5  0.8511149E-008  0.9296948E+03  0.7818608E-02  0.9479951E-01
         -2   -1    0    0    0  501 -0.00000000000E+00  0.00000000000E+00  0.53460545295E+03  0.53460545295E+03  0.25500000000E-02 0.  1.
          2   -1    0    0  501    0  0.00000000000E+00 -0.00000000000E+00 -0.21047506722E+04  0.21047506722E+04  0.25500000000E-02 0. -1.
    8880023    1    1    2    0    0  0.22162027088E+03  0.61758125890E+03  0.11681286311E+01  0.92969550209E+03  0.65864270000E+03 0.  0.
    8880022    1    1    2    0    0 -0.22162027088E+03 -0.61758125890E+03 -0.15713133479E+04  0.17096606231E+04  0.15294330000E+03 0.  0.
<mgrwt>
<rscale>  0 0.85778207E+03</rscale>
<asrwt>0</asrwt>
<pdfrwt beam="1">  1        2 0.32380779E+00 0.92969477E+03</pdfrwt>
<pdfrwt beam="2">  1       -2 0.82246994E-01 0.92969477E+03</pdfrwt>
<totfact> 0.76749924E+00</totfact>
</mgrwt>
</event>
<event>
 4    5  0.8511149E-008  0.1307975E+04  0.7818608E-02  0.9058703E-01
          2   -1    0    0  501    0  0.00000000000E+00  0.00000000000E+00  0.42980159644E+04  0.42980159644E+04  0.25500000000E-02 0. -1.
         -2   -1    0    0    0  501 -0.00000000000E+00 -0.00000000000E+00 -0.44806144496E+03  0.44806144497E+03  0.25500000000E-02 0.  1.
    8880023    1    1    2    0    0  0.11247696790E+04 -0.10900499293E+03  0.91188563155E+03  0.15944699842E+04  0.65864270000E+03 0.  0.
    8880022    1    1    2    0    0 -0.11247696790E+04  0.10900499293E+03  0.29380688879E+04  0.31516074251E+04  0.15294330000E+03 0.  0.
<mgrwt>
<rscale>  0 0.12638876E+04</rscale>
<asrwt>0</asrwt>
<pdfrwt beam="1">  1        2 0.66123322E+00 0.13079752E+04</pdfrwt>
<pdfrwt beam="2">  1       -2 0.68932531E-01 0.13079752E+04</pdfrwt>
<totfact> 0.36981523E-01</totfact>
</mgrwt>
</event>
<event>
 4    5  0.8511149E-008  0.1091808E+04  0.7818608E-02  0.9270233E-01
         -2   -1    0    0    0  501 -0.00000000000E+00  0.00000000000E+00  0.79507779334E+03  0.79507779335E+03  0.25500000000E-02 0.  1.
          2   -1    0    0  501    0  0.00000000000E+00 -0.00000000000E+00 -0.33531091161E+04  0.33531091161E+04  0.25500000000E-02 0. -1.
    8880023    1    1    2    0    0 -0.12850735952E+03  0.86123126035E+03  0.31974816649E+03  0.11376653820E+04  0.65864270000E+03 0.  0.
    8880022    1    1    2    0    0  0.12850735952E+03 -0.86123126035E+03 -0.28777794892E+04  0.30105215274E+04  0.15294330000E+03 0.  0.
<mgrwt>
<rscale>  0 0.10357009E+04</rscale>
<asrwt>0</asrwt>
<pdfrwt beam="1">  1        2 0.51586294E+00 0.10918075E+04</pdfrwt>
<pdfrwt beam="2">  1       -2 0.12231966E+00 0.10918075E+04</pdfrwt>
<totfact> 0.52526575E-01</totfact>
</mgrwt>
</event>
<event>
 4    5  0.8511149E-008  0.7957232E+03  0.7818608E-02  0.9720121E-01
         -2   -1    0    0    0  501 -0.00000000000E+00  0.00000000000E+00  0.17436047175E+03  0.17436047177E+03  0.25500000000E-02 0.  1.
          2   -1    0    0  501    0  0.00000000000E+00 -0.00000000000E+00 -0.31179472827E+04  0.31179472827E+04  0.25500000000E-02 0. -1.
    8880023    1    1    2    0    0 -0.37289391130E+03 -0.24559175360E+03 -0.92912053863E+03  0.12232907913E+04  0.65864270000E+03 0.  0.
    8880022    1    1    2    0    0  0.37289391130E+03  0.24559175360E+03 -0.20144662724E+04  0.20690169632E+04  0.15294330000E+03 0.  0.
<mgrwt>
<rscale>  0 0.69831342E+03</rscale>
<asrwt>0</asrwt>
<pdfrwt beam="1">  1        2 0.47968416E+00 0.79572318E+03</pdfrwt>
<pdfrwt beam="2">  1       -2 0.26824690E-01 0.79572318E+03</pdfrwt>
<totfact> 0.19496331E+01</totfact>
</mgrwt>
</event>
<event>
 4    5  0.8511149E-008  0.1648253E+04  0.7818608E-02  0.8811475E-01
         -2   -1    0    0    0  501 -0.00000000000E+00  0.00000000000E+00  0.10701364476E+04  0.10701364476E+04  0.25500000000E-02 0.  1.
          2   -1    0    0  501    0  0.00000000000E+00 -0.00000000000E+00 -0.33044124416E+04  0.33044124416E+04  0.25500000000E-02 0. -1.
    8880023    1    1    2    0    0  0.39087518092E+03 -0.14595012852E+04  0.29554000719E+02  0.16485178354E+04  0.65864270000E+03 0.  0.
    8880022    1    1    2    0    0 -0.39087518092E+03  0.14595012852E+04 -0.22638299947E+04  0.27260310538E+04  0.15294330000E+03 0.  0.
<mgrwt>
<rscale>  0 0.16148523E+04</rscale>
<asrwt>0</asrwt>
<pdfrwt beam="1">  1        2 0.50837114E+00 0.16482529E+04</pdfrwt>
<pdfrwt beam="2">  1       -2 0.16463638E+00 0.16482529E+04</pdfrwt>
<totfact> 0.24027177E-01</totfact>
</mgrwt>
</event>
<event>
 4    5  0.8511149E-008  0.6897275E+03  0.7818608E-02  0.1004282E+00
          2   -1    0    0  501    0  0.00000000000E+00  0.00000000000E+00  0.51018785017E+03  0.51018785018E+03  0.25500000000E-02 0. -1.
         -2   -1    0    0    0  501 -0.00000000000E+00 -0.00000000000E+00 -0.14796678789E+04  0.14796678789E+04  0.25500000000E-02 0.  1.
    8880023    1    1    2    0    0 -0.12423839379E+03  0.16272279324E+03 -0.13589883968E+04  0.15239991978E+04  0.65864270000E+03 0.  1.
    8880022    1    1    2    0    0  0.12423839379E+03 -0.16272279324E+03  0.38950836808E+03  0.46585653129E+03  0.15294330000E+03 0.  0.
<mgrwt>
<rscale>  0 0.53811727E+03</rscale>
<asrwt>0</asrwt>
<pdfrwt beam="1">  1        2 0.78490439E-01 0.68972755E+03</pdfrwt>
<pdfrwt beam="2">  1       -2 0.22764121E+00 0.68972755E+03</pdfrwt>
<totfact> 0.54933398E+00</totfact>
</mgrwt>
</event>
<event>
 4    5  0.8511149E-008  0.6889340E+03  0.7818608E-02  0.1004663E+00
          2   -1    0    0  501    0  0.00000000000E+00  0.00000000000E+00  0.19778133684E+04  0.19778133684E+04  0.25500000000E-02 0. -1.
         -2   -1    0    0    0  501 -0.00000000000E+00 -0.00000000000E+00 -0.13146697459E+03  0.13146697461E+03  0.25500000000E-02 0.  1.
    8880023    1    1    2    0    0 -0.52072943845E+02 -0.19521338944E+03  0.92281256039E+03  0.11516132540E+04  0.65864270000E+03 0.  0.
    8880022    1    1    2    0    0  0.52072943845E+02  0.19521338944E+03  0.92353383347E+03  0.95766708906E+03  0.15294330000E+03 0.  0.
<mgrwt>
<rscale>  0 0.53651866E+03</rscale>
<asrwt>0</asrwt>
<pdfrwt beam="1">  1        2 0.30427896E+00 0.68893401E+03</pdfrwt>
<pdfrwt beam="2">  1       -2 0.20225690E-01 0.68893401E+03</pdfrwt>
<totfact> 0.14821736E+02</totfact>
</mgrwt>
</event>
<event>
 4    5  0.8511149E-008  0.1234393E+04  0.7818608E-02  0.9124394E-01
         -2   -1    0    0    0  501 -0.00000000000E+00  0.00000000000E+00  0.92837990791E+03  0.92837990791E+03  0.25500000000E-02 0.  1.
          2   -1    0    0  501    0  0.00000000000E+00 -0.00000000000E+00 -0.30689775887E+04  0.30689775887E+04  0.25500000000E-02 0. -1.
    8880023    1    1    2    0    0 -0.10357366103E+04 -0.13102077437E+03  0.35787382264E+03  0.12852239682E+04  0.65864270000E+03 0.  0.
    8880022    1    1    2    0    0  0.10357366103E+04  0.13102077437E+03 -0.24984715034E+04  0.27121335284E+04  0.15294330000E+03 0.  0.
<mgrwt>
<rscale>  0 0.11869082E+04</rscale>
<asrwt>0</asrwt>
<pdfrwt beam="1">  1        2 0.47215039E+00 0.12343934E+04</pdfrwt>
<pdfrwt beam="2">  1       -2 0.14282768E+00 0.12343934E+04</pdfrwt>
<totfact> 0.52716808E-01</totfact>
</mgrwt>
</event>
<event>
 4    5  0.8511149E-008  0.9478643E+03  0.7818608E-02  0.9453194E-01
         -2   -1    0    0    0  501 -0.00000000000E+00  0.00000000000E+00  0.10232506065E+04  0.10232506065E+04  0.25500000000E-02 0.  1.
          2   -1    0    0  501    0  0.00000000000E+00 -0.00000000000E+00 -0.11438914215E+04  0.11438914215E+04  0.25500000000E-02 0. -1.
    8880023    1    1    2    0    0  0.43764157738E+03 -0.52259583607E+03  0.63278717290E+03  0.11396781873E+04  0.65864270000E+03 0.  1.
    8880022    1    1    2    0    0 -0.43764157738E+03  0.52259583607E+03 -0.75342798782E+03  0.10274638407E+04  0.15294330000E+03 0.  0.
<mgrwt>
<rscale>  0 0.87824411E+03</rscale>
<asrwt>0</asrwt>
<pdfrwt beam="1">  1        2 0.17598330E+00 0.94786432E+03</pdfrwt>
<pdfrwt beam="2">  1       -2 0.15742317E+00 0.94786432E+03</pdfrwt>
<totfact> 0.53725534E+00</totfact>
</mgrwt>
</event>
<event>
 4    5  0.8511149E-008  0.1807919E+04  0.7818608E-02  0.8718169E-01
          2   -1    0    0  501    0  0.00000000000E+00  0.00000000000E+00  0.26610861753E+04  0.26610861753E+04  0.25500000000E-02 0. -1.
         -2   -1    0    0    0  501 -0.00000000000E+00 -0.00000000000E+00 -0.21313538314E+04  0.21313538314E+04  0.25500000000E-02 0.  1.
    8880023    1    1    2    0    0  0.12789942931E+04  0.10949581254E+04 -0.13559183785E+04  0.22598859603E+04  0.65864270000E+03 0.  0.
    8880022    1    1    2    0    0 -0.12789942931E+04 -0.10949581254E+04  0.18856507224E+04  0.25325540464E+04  0.15294330000E+03 0.  0.
<mgrwt>
<rscale>  0 0.17778488E+04</rscale>
<asrwt>0</asrwt>
<pdfrwt beam="1">  1        2 0.40939787E+00 0.18079187E+04</pdfrwt>
<pdfrwt beam="2">  1       -2 0.32790059E+00 0.18079187E+04</pdfrwt>
<totfact> 0.54110829E-02</totfact>
</mgrwt>
</event>
<event>
 4    5  0.8511149E-008  0.1037880E+04  0.7818608E-02  0.9333595E-01
         -2   -1    0    0    0  501 -0.00000000000E+00  0.00000000000E+00  0.10734413574E+04  0.10734413574E+04  0.25500000000E-02 0.  1.
          2   -1    0    0  501    0  0.00000000000E+00 -0.00000000000E+00 -0.12614336580E+04  0.12614336580E+04  0.25500000000E-02 0. -1.
    8880023    1    1    2    0    0 -0.60724009990E+03 -0.52406476482E+03  0.60106426624E+03  0.11993635292E+04  0.65864270000E+03 0.  1.
    8880022    1    1    2    0    0  0.60724009990E+03  0.52406476482E+03 -0.78905656685E+03  0.11355114862E+04  0.15294330000E+03 0.  0.
<mgrwt>
<rscale>  0 0.97747986E+03</rscale>
<asrwt>0</asrwt>
<pdfrwt beam="1">  1        2 0.19406672E+00 0.10378799E+04</pdfrwt>
<pdfrwt beam="2">  1       -2 0.16514483E+00 0.10378799E+04</pdfrwt>
<totfact> 0.39711390E+00</totfact>
</mgrwt>
</event>
<event>
 4    5  0.1155371E-007  0.8962383E+03  0.7818608E-02  0.9532097E-01
          2   -1    0    0  501    0  0.00000000000E+00  0.00000000000E+00  0.24948750399E+04  0.24948750399E+04  0.25500000000E-02 0. -1.
         -2   -1    0    0    0  501 -0.00000000000E+00 -0.00000000000E+00 -0.16197975153E+04  0.16197975153E+04  0.25500000000E-02 0.  1.
    8880023    1    1    2    0    0 -0.45150749697E+03 -0.40690775177E+03 -0.14510883024E+04  0.17055498837E+04  0.65864270000E+03 0.  0.
    8880022    1    1    2    0    0  0.45150749697E+03  0.40690775177E+03  0.23261658271E+04  0.24091226715E+04  0.15294330000E+03 0.  0.
<mgrwt>
<rscale>  0 0.81958211E+03</rscale>
<asrwt>0</asrwt>
<pdfrwt beam="1">  1        2 0.38382692E+00 0.89623833E+03</pdfrwt>
<pdfrwt beam="2">  1       -2 0.24919962E+00 0.89623833E+03</pdfrwt>
<totfact> 0.23518429E-01</totfact>
</mgrwt>
</event>
<event>
 4    5  0.8511149E-008  0.1536412E+04  0.7818608E-02  0.8884343E-01
         -2   -1    0    0    0  501 -0.00000000000E+00  0.00000000000E+00  0.12559101926E+04  0.12559101926E+04  0.25500000000E-02 0.  1.
          2   -1    0    0  501    0  0.00000000000E+00 -0.00000000000E+00 -0.22712264402E+04  0.22712264402E+04  0.25500000000E-02 0. -1.
    8880023    1    1    2    0    0 -0.36204490662E+03 -0.13400285001E+04  0.34821460391E+03  0.15753782124E+04  0.65864270000E+03 0.  0.
    8880022    1    1    2    0    0  0.36204490662E+03  0.13400285001E+04 -0.13635308516E+04  0.19517584204E+04  0.15294330000E+03 0.  0.
<mgrwt>
<rscale>  0 0.15001656E+04</rscale>
<asrwt>0</asrwt>
<pdfrwt beam="1">  1        2 0.34941945E+00 0.15364124E+04</pdfrwt>
<pdfrwt beam="2">  1       -2 0.19321695E+00 0.15364124E+04</pdfrwt>
<totfact> 0.64996088E-01</totfact>
</mgrwt>
</event>
<event>
 4    5  0.8511149E-008  0.6665436E+03  0.7818608E-02  0.1018272E+00
         -2   -1    0    0    0  501 -0.00000000000E+00  0.00000000000E+00  0.37011721418E+03  0.37011721419E+03  0.25500000000E-02 0.  1.
          2   -1    0    0  501    0  0.00000000000E+00 -0.00000000000E+00 -0.12446085915E+04  0.12446085915E+04  0.25500000000E-02 0. -1.
    8880023    1    1    2    0    0 -0.45178520801E+02 -0.91809678258E+02  0.53479712930E+02  0.66868557762E+03  0.65864270000E+03 0.  1.
    8880022    1    1    2    0    0  0.45178520801E+02  0.91809678258E+02 -0.92797109025E+03  0.94604022806E+03  0.15294330000E+03 0.  0.
<mgrwt>
<rscale>  0 0.48315348E+03</rscale>
<asrwt>0</asrwt>
<pdfrwt beam="1">  1        2 0.19147824E+00 0.66654356E+03</pdfrwt>
<pdfrwt beam="2">  1       -2 0.56941110E-01 0.66654356E+03</pdfrwt>
<totfact> 0.52900507E+01</totfact>
</mgrwt>
</event>
<event>
 4    5  0.8511149E-008  0.7914192E+03  0.7818608E-02  0.9729666E-01
          2   -1    0    0  501    0  0.00000000000E+00  0.00000000000E+00  0.12345104161E+04  0.12345104161E+04  0.25500000000E-02 0. -1.
         -2   -1    0    0    0  501 -0.00000000000E+00 -0.00000000000E+00 -0.64244322463E+03  0.64244322463E+03  0.25500000000E-02 0.  1.
    8880023    1    1    2    0    0  0.12700800686E+03 -0.42000374738E+03 -0.31974011986E+03  0.85356788373E+03  0.65864270000E+03 0.  0.
    8880022    1    1    2    0    0 -0.12700800686E+03  0.42000374738E+03  0.91180731136E+03  0.10233857570E+04  0.15294330000E+03 0. -1.
<mgrwt>
<rscale>  0 0.69277630E+03</rscale>
<asrwt>0</asrwt>
<pdfrwt beam="1">  1        2 0.18992468E+00 0.79141922E+03</pdfrwt>
<pdfrwt beam="2">  1       -2 0.98837419E-01 0.79141922E+03</pdfrwt>
<totfact> 0.15570762E+01</totfact>
</mgrwt>
</event>
<event>
 4    5  0.8511149E-008  0.1829217E+04  0.7818608E-02  0.8706544E-01
         -2   -1    0    0    0  501 -0.00000000000E+00  0.00000000000E+00  0.27042493107E+04  0.27042493107E+04  0.25500000000E-02 0.  1.
          2   -1    0    0  501    0  0.00000000000E+00 -0.00000000000E+00 -0.16099175424E+04  0.16099175424E+04  0.25500000000E-02 0. -1.
    8880023    1    1    2    0    0  0.66445618094E+03 -0.15718537867E+04  0.16997003041E+04  0.24970017367E+04  0.65864270000E+03 0.  0.
    8880022    1    1    2    0    0 -0.66445618094E+03  0.15718537867E+04 -0.60536853569E+03  0.18171651164E+04  0.15294330000E+03 0.  0.
<mgrwt>
<rscale>  0 0.17995398E+04</rscale>
<asrwt>0</asrwt>
<pdfrwt beam="1">  1        2 0.24767963E+00 0.18292175E+04</pdfrwt>
<pdfrwt beam="2">  1       -2 0.41603835E+00 0.18292175E+04</pdfrwt>
<totfact> 0.58095247E-02</totfact>
</mgrwt>
</event>
<event>
 4    5  0.8511149E-008  0.7149213E+03  0.7818608E-02  0.9940161E-01
          2   -1    0    0  501    0  0.00000000000E+00  0.00000000000E+00  0.21688103146E+04  0.21688103146E+04  0.25500000000E-02 0. -1.
         -2   -1    0    0    0  501 -0.00000000000E+00 -0.00000000000E+00 -0.16507163694E+03  0.16507163696E+03  0.25500000000E-02 0.  1.
    8880023    1    1    2    0    0 -0.13031301578E+03 -0.24560301432E+03  0.73218545163E+03  0.10233318448E+04  0.65864270000E+03 0.  1.
    8880022    1    1    2    0    0  0.13031301578E+03  0.24560301432E+03  0.12715532260E+04  0.13105501068E+04  0.15294330000E+03 0. -1.
<mgrwt>
<rscale>  0 0.58353799E+03</rscale>
<asrwt>0</asrwt>
<pdfrwt beam="1">  1        2 0.33366312E+00 0.71492134E+03</pdfrwt>
<pdfrwt beam="2">  1       -2 0.25395637E-01 0.71492134E+03</pdfrwt>
<totfact> 0.77539419E+01</totfact>
</mgrwt>
</event>
<event>
 4    5  0.8511149E-008  0.1216142E+04  0.7818608E-02  0.9141588E-01
          2   -1    0    0  501    0  0.00000000000E+00  0.00000000000E+00  0.17592416535E+04  0.17592416535E+04  0.25500000000E-02 0. -1.
         -2   -1    0    0    0  501 -0.00000000000E+00 -0.00000000000E+00 -0.15392077778E+04  0.15392077778E+04  0.25500000000E-02 0.  1.
    8880023    1    1    2    0    0 -0.29595429284E+03  0.97857195334E+03 -0.10876299407E+04  0.16315456186E+04  0.65864270000E+03 0.  1.
    8880022    1    1    2    0    0  0.29595429284E+03 -0.97857195334E+03  0.13076638164E+04  0.16669038127E+04  0.15294330000E+03 0.  0.
<mgrwt>
<rscale>  0 0.11677218E+04</rscale>
<asrwt>0</asrwt>
<pdfrwt beam="1">  1        2 0.27065256E+00 0.12161424E+04</pdfrwt>
<pdfrwt beam="2">  1       -2 0.23680120E+00 0.12161424E+04</pdfrwt>
<totfact> 0.68318576E-01</totfact>
</mgrwt>
</event>
<event>
 4    5  0.8511149E-008  0.9242234E+03  0.7818608E-02  0.9488213E-01
         -2   -1    0    0    0  501 -0.00000000000E+00  0.00000000000E+00  0.24426464037E+04  0.24426464037E+04  0.25500000000E-02 0.  1.
          2   -1    0    0  501    0  0.00000000000E+00 -0.00000000000E+00 -0.81970923319E+03  0.81970923320E+03  0.25500000000E-02 0. -1.
    8880023    1    1    2    0    0  0.28702268338E+03 -0.58137474666E+03  0.21966735410E+04  0.23831834736E+04  0.65864270000E+03 0.  0.
    8880022    1    1    2    0    0 -0.28702268338E+03  0.58137474666E+03 -0.57373637051E+03  0.87917216328E+03  0.15294330000E+03 0.  0.
<mgrwt>
<rscale>  0 0.85158398E+03</rscale>
<asrwt>0</asrwt>
<pdfrwt beam="1">  1        2 0.12610911E+00 0.92422336E+03</pdfrwt>
<pdfrwt beam="2">  1       -2 0.37579175E+00 0.92422336E+03</pdfrwt>
<totfact> 0.36524229E-01</totfact>
</mgrwt>
</event>
<event>
 4    5  0.8511149E-008  0.1072547E+04  0.7818608E-02  0.9292255E-01
         -2   -1    0    0    0  501 -0.00000000000E+00  0.00000000000E+00  0.89055222164E+03  0.89055222164E+03  0.25500000000E-02 0.  1.
          2   -1    0    0  501    0  0.00000000000E+00 -0.00000000000E+00 -0.23730106259E+04  0.23730106259E+04  0.25500000000E-02 0. -1.
    8880023    1    1    2    0    0  0.23510749015E+03  0.81318629330E+03  0.43856048477E+03  0.11587462986E+04  0.65864270000E+03 0.  0.
    8880022    1    1    2    0    0 -0.23510749015E+03 -0.81318629330E+03 -0.19210188890E+04  0.21048165489E+04  0.15294330000E+03 0.  0.
<mgrwt>
<rscale>  0 0.10149902E+04</rscale>
<asrwt>0</asrwt>
<pdfrwt beam="1">  1        2 0.36507856E+00 0.10725473E+04</pdfrwt>
<pdfrwt beam="2">  1       -2 0.13700803E+00 0.10725473E+04</pdfrwt>
<totfact> 0.15547918E+00</totfact>
</mgrwt>
</event>
<event>
 4    5  0.8511149E-008  0.7533980E+03  0.7818608E-02  0.9822509E-01
         -2   -1    0    0    0  501 -0.00000000000E+00  0.00000000000E+00  0.23743305530E+03  0.23743305532E+03  0.25500000000E-02 0.  1.
          2   -1    0    0  501    0  0.00000000000E+00 -0.00000000000E+00 -0.13926891816E+04  0.13926891816E+04  0.25500000000E-02 0. -1.
    8880023    1    1    2    0    0 -0.17535830850E+03  0.32101057367E+03 -0.77163733816E+03  0.10784399439E+04  0.65864270000E+03 0.  1.
    8880022    1    1    2    0    0  0.17535830850E+03 -0.32101057367E+03 -0.38361878815E+03  0.55168229299E+03  0.15294330000E+03 0. -1.
<mgrwt>
<rscale>  0 0.64168435E+03</rscale>
<asrwt>0</asrwt>
<pdfrwt beam="1">  1        2 0.21425987E+00 0.75339799E+03</pdfrwt>
<pdfrwt beam="2">  1       -2 0.36528163E-01 0.75339799E+03</pdfrwt>
<totfact> 0.10479778E+02</totfact>
</mgrwt>
</event>
<event>
 4    5  0.8511149E-008  0.8313353E+03  0.7818608E-02  0.9646740E-01
          2   -1    0    0  501    0  0.00000000000E+00  0.00000000000E+00  0.54259223193E+03  0.54259223194E+03  0.25500000000E-02 0. -1.
         -2   -1    0    0    0  501 -0.00000000000E+00 -0.00000000000E+00 -0.16974659501E+04  0.16974659501E+04  0.25500000000E-02 0.  1.
    8880023    1    1    2    0    0  0.49742092340E+03 -0.99401355480E+02 -0.14216456930E+04  0.16468742779E+04  0.65864270000E+03 0.  0.
    8880022    1    1    2    0    0 -0.49742092340E+03  0.99401355480E+02  0.26677197487E+03  0.59318390411E+03  0.15294330000E+03 0.  0.
<mgrwt>
<rscale>  0 0.74278384E+03</rscale>
<asrwt>0</asrwt>
<pdfrwt beam="1">  1        2 0.83475729E-01 0.83133532E+03</pdfrwt>
<pdfrwt beam="2">  1       -2 0.26114860E+00 0.83133532E+03</pdfrwt>
<totfact> 0.31351011E+00</totfact>
</mgrwt>
</event>
<event>
 4    5  0.8511149E-008  0.7405324E+03  0.7818608E-02  0.9858399E-01
         -2   -1    0    0    0  501 -0.00000000000E+00  0.00000000000E+00  0.41721417119E+03  0.41721417120E+03  0.25500000000E-02 0.  1.
          2   -1    0    0  501    0  0.00000000000E+00 -0.00000000000E+00 -0.16865553456E+04  0.16865553456E+04  0.25500000000E-02 0. -1.
    8880023    1    1    2    0    0  0.31002479017E+03  0.13587749120E+03  0.41130170366E+02  0.74167375598E+03  0.65864270000E+03 0.  0.
    8880022    1    1    2    0    0 -0.31002479017E+03 -0.13587749120E+03 -0.13104713448E+04  0.13620957608E+04  0.15294330000E+03 0.  0.
<mgrwt>
<rscale>  0 0.62320514E+03</rscale>
<asrwt>0</asrwt>
<pdfrwt beam="1">  1        2 0.25947005E+00 0.74053242E+03</pdfrwt>
<pdfrwt beam="2">  1       -2 0.64186796E-01 0.74053242E+03</pdfrwt>
<totfact> 0.23016044E+01</totfact>
</mgrwt>
</event>
<event>
 4    5  0.1114153E-007  0.7608669E+03  0.7818608E-02  0.9802868E-01
         -2   -1    0    0    0  501 -0.00000000000E+00  0.00000000000E+00  0.12294117020E+04  0.12294117020E+04  0.25500000000E-02 0.  1.
          2   -1    0    0  501    0  0.00000000000E+00 -0.00000000000E+00 -0.24182762132E+04  0.24182762132E+04  0.25500000000E-02 0. -1.
    8880023    1    1    2    0    0  0.37897367017E+03  0.38563534644E+02  0.10915828099E+04  0.13305906305E+04  0.65864270000E+03 0.  1.
    8880022    1    1    2    0    0 -0.37897367017E+03 -0.38563534644E+02 -0.22804473212E+04  0.23170972846E+04  0.15294330000E+03 0.  0.
<mgrwt>
<rscale>  0 0.65208835E+03</rscale>
<asrwt>0</asrwt>
<pdfrwt beam="1">  1        2 0.37204249E+00 0.76086687E+03</pdfrwt>
<pdfrwt beam="2">  1       -2 0.18914026E+00 0.76086687E+03</pdfrwt>
<totfact> 0.64097751E-01</totfact>
</mgrwt>
</event>
<event>
 4    5  0.8511149E-008  0.8407364E+03  0.7818608E-02  0.9628793E-01
          2   -1    0    0  501    0  0.00000000000E+00  0.00000000000E+00  0.11778254009E+04  0.11778254009E+04  0.25500000000E-02 0. -1.
         -2   -1    0    0    0  501 -0.00000000000E+00 -0.00000000000E+00 -0.82370475414E+03  0.82370475414E+03  0.25500000000E-02 0.  1.
    8880023    1    1    2    0    0 -0.43566537254E+03 -0.28848432095E+03 -0.50770155721E+03  0.98213980559E+03  0.65864270000E+03 0.  0.
    8880022    1    1    2    0    0  0.43566537254E+03  0.28848432095E+03  0.86182220394E+03  0.10193903494E+04  0.15294330000E+03 0.  0.
<mgrwt>
<rscale>  0 0.75419419E+03</rscale>
<asrwt>0</asrwt>
<pdfrwt beam="1">  1        2 0.18120391E+00 0.84073642E+03</pdfrwt>
<pdfrwt beam="2">  1       -2 0.12672381E+00 0.84073642E+03</pdfrwt>
<totfact> 0.91258318E+00</totfact>
</mgrwt>
</event>
<event>
 4    5  0.8511149E-008  0.8382897E+03  0.7818608E-02  0.9633414E-01
          2   -1    0    0  501    0  0.00000000000E+00  0.00000000000E+00  0.26623664973E+03  0.26623664975E+03  0.25500000000E-02 0. -1.
         -2   -1    0    0    0  501 -0.00000000000E+00 -0.00000000000E+00 -0.18792251930E+04  0.18792251930E+04  0.25500000000E-02 0.  1.
    8880023    1    1    2    0    0 -0.50538276052E+03 -0.11622287874E+03 -0.12060542756E+04  0.14687738472E+04  0.65864270000E+03 0. -1.
    8880022    1    1    2    0    0  0.50538276052E+03  0.11622287874E+03 -0.40693426773E+03  0.67668799564E+03  0.15294330000E+03 0.  1.
<mgrwt>
<rscale>  0 0.75123582E+03</rscale>
<asrwt>0</asrwt>
<pdfrwt beam="1">  1        2 0.40959486E-01 0.83828975E+03</pdfrwt>
<pdfrwt beam="2">  1       -2 0.28911156E+00 0.83828975E+03</pdfrwt>
<totfact> 0.47654723E+00</totfact>
</mgrwt>
</event>
<event>
 4    5  0.8511149E-008  0.9391788E+03  0.7818608E-02  0.9465857E-01
         -2   -1    0    0    0  501 -0.00000000000E+00  0.00000000000E+00  0.56481240212E+03  0.56481240212E+03  0.25500000000E-02 0.  1.
          2   -1    0    0  501    0  0.00000000000E+00 -0.00000000000E+00 -0.17414177573E+04  0.17414177573E+04  0.25500000000E-02 0. -1.
    8880023    1    1    2    0    0  0.18953222520E+03  0.64212465776E+03  0.54051376076E+01  0.93919431550E+03  0.65864270000E+03 0.  0.
    8880022    1    1    2    0    0 -0.18953222520E+03 -0.64212465776E+03 -0.11820104928E+04  0.13670358440E+04  0.15294330000E+03 0.  0.
<mgrwt>
<rscale>  0 0.86848499E+03</rscale>
<asrwt>0</asrwt>
<pdfrwt beam="1">  1        2 0.26791042E+00 0.93917876E+03</pdfrwt>
<pdfrwt beam="2">  1       -2 0.86894216E-01 0.93917876E+03</pdfrwt>
<totfact> 0.10710815E+01</totfact>
</mgrwt>
</event>
<event>
 4    5  0.8511149E-008  0.6831317E+03  0.7818608E-02  0.1007605E+00
         -2   -1    0    0    0  501 -0.00000000000E+00  0.00000000000E+00  0.70773254645E+03  0.70773254646E+03  0.25500000000E-02 0.  1.
          2   -1    0    0  501    0  0.00000000000E+00 -0.00000000000E+00 -0.64949302184E+03  0.64949302185E+03  0.25500000000E-02 0. -1.
    8880023    1    1    2    0    0 -0.18107493881E+03  0.83999634996E+01  0.50627725746E+03  0.85028557587E+03  0.65864270000E+03 0.  1.
    8880022    1    1    2    0    0  0.18107493881E+03 -0.83999634996E+01 -0.44803773285E+03  0.50693999243E+03  0.15294330000E+03 0.  0.
<mgrwt>
<rscale>  0 0.52437741E+03</rscale>
<asrwt>0</asrwt>
<pdfrwt beam="1">  1        2 0.99922004E-01 0.68313169E+03</pdfrwt>
<pdfrwt beam="2">  1       -2 0.10888193E+00 0.68313169E+03</pdfrwt>
<totfact> 0.30884903E+01</totfact>
</mgrwt>
</event>
<event>
 4    5  0.8511149E-008  0.7207915E+03  0.7818608E-02  0.9919917E-01
         -2   -1    0    0    0  501 -0.00000000000E+00  0.00000000000E+00  0.11854696653E+03  0.11854696656E+03  0.25500000000E-02 0.  1.
          2   -1    0    0  501    0  0.00000000000E+00 -0.00000000000E+00 -0.27489756318E+04  0.27489756318E+04  0.25500000000E-02 0. -1.
    8880023    1    1    2    0    0 -0.10354943886E+03 -0.27387522124E+03 -0.12033364612E+04  0.14026970336E+04  0.65864270000E+03 0.  1.
    8880022    1    1    2    0    0  0.10354943886E+03  0.27387522124E+03 -0.14270922041E+04  0.14648255647E+04  0.15294330000E+03 0.  0.
<mgrwt>
<rscale>  0 0.59305661E+03</rscale>
<asrwt>0</asrwt>
<pdfrwt beam="1">  1        2 0.42291928E+00 0.72079146E+03</pdfrwt>
<pdfrwt beam="2">  1       -2 0.18237997E-01 0.72079146E+03</pdfrwt>
<totfact> 0.65382658E+01</totfact>
</mgrwt>
</event>
<event>
 4    5  0.8511149E-008  0.1245303E+04  0.7818608E-02  0.9114295E-01
          2   -1    0    0  501    0  0.00000000000E+00  0.00000000000E+00  0.19863676831E+04  0.19863676831E+04  0.25500000000E-02 0. -1.
         -2   -1    0    0    0  501 -0.00000000000E+00 -0.00000000000E+00 -0.73541557827E+03  0.73541557827E+03  0.25500000000E-02 0.  1.
    8880023    1    1    2    0    0 -0.54070414233E+03 -0.90807892786E+03  0.27540977564E+03  0.12753936881E+04  0.65864270000E+03 0.  0.
    8880022    1    1    2    0    0  0.54070414233E+03  0.90807892786E+03  0.97554232920E+03  0.14463895733E+04  0.15294330000E+03 0.  0.
<mgrwt>
<rscale>  0 0.11983575E+04</rscale>
<asrwt>0</asrwt>
<pdfrwt beam="1">  1        2 0.30559502E+00 0.12453026E+04</pdfrwt>
<pdfrwt beam="2">  1       -2 0.11314086E+00 0.12453026E+04</pdfrwt>
<totfact> 0.40574728E+00</totfact>
</mgrwt>
</event>
<event>
 4    5  0.8511149E-008  0.6813532E+03  0.7818608E-02  0.1008568E+00
         -2   -1    0    0    0  501 -0.00000000000E+00  0.00000000000E+00  0.17675976091E+03  0.17675976093E+03  0.25500000000E-02 0.  1.
          2   -1    0    0  501    0  0.00000000000E+00 -0.00000000000E+00 -0.16777226930E+04  0.16777226930E+04  0.25500000000E-02 0. -1.
    8880023    1    1    2    0    0 -0.10797849021E+03 -0.13701329312E+03 -0.55002679696E+03  0.87565500083E+03  0.65864270000E+03 0.  1.
    8880022    1    1    2    0    0  0.10797849021E+03  0.13701329312E+03 -0.95093613512E+03  0.97882745310E+03  0.15294330000E+03 0.  0.
<mgrwt>
<rscale>  0 0.52047620E+03</rscale>
<asrwt>0</asrwt>
<pdfrwt beam="1">  1        2 0.25811117E+00 0.68135321E+03</pdfrwt>
<pdfrwt beam="2">  1       -2 0.27193810E-01 0.68135321E+03</pdfrwt>
<totfact> 0.12731645E+02</totfact>
</mgrwt>
</event>
<event>
 4    5  0.8511149E-008  0.8389686E+03  0.7818608E-02  0.9632128E-01
          2   -1    0    0  501    0  0.00000000000E+00  0.00000000000E+00  0.17247014546E+04  0.17247014546E+04  0.25500000000E-02 0. -1.
         -2   -1    0    0    0  501 -0.00000000000E+00 -0.00000000000E+00 -0.30863634131E+03  0.30863634132E+03  0.25500000000E-02 0.  1.
    8880023    1    1    2    0    0  0.27655801121E+03  0.43997028046E+03  0.52242687043E+03  0.98833102879E+03  0.65864270000E+03 0.  1.
    8880022    1    1    2    0    0 -0.27655801121E+03 -0.43997028046E+03  0.89363824290E+03  0.10450067672E+04  0.15294330000E+03 0.  0.
<mgrwt>
<rscale>  0 0.75205747E+03</rscale>
<asrwt>0</asrwt>
<pdfrwt beam="1">  1        2 0.26533868E+00 0.83896865E+03</pdfrwt>
<pdfrwt beam="2">  1       -2 0.47482514E-01 0.83896865E+03</pdfrwt>
<totfact> 0.40582656E+01</totfact>
</mgrwt>
</event>
<event>
 4    5  0.8511149E-008  0.1017674E+04  0.7818608E-02  0.9358791E-01
         -2   -1    0    0    0  501 -0.00000000000E+00  0.00000000000E+00  0.99144148100E+03  0.99144148100E+03  0.25500000000E-02 0.  1.
          2   -1    0    0  501    0  0.00000000000E+00 -0.00000000000E+00 -0.27502364183E+04  0.27502364183E+04  0.25500000000E-02 0. -1.
    8880023    1    1    2    0    0  0.47461756661E+03  0.61366807184E+03  0.64924493372E+03  0.12071369132E+04  0.65864270000E+03 0.  1.
    8880022    1    1    2    0    0 -0.47461756661E+03 -0.61366807184E+03 -0.24080398710E+04  0.25345409861E+04  0.15294330000E+03 0.  0.
<mgrwt>
<rscale>  0 0.95546010E+03</rscale>
<asrwt>0</asrwt>
<pdfrwt beam="1">  1        2 0.42311329E+00 0.10176741E+04</pdfrwt>
<pdfrwt beam="2">  1       -2 0.15252946E+00 0.10176741E+04</pdfrwt>
<totfact> 0.71571875E-01</totfact>
</mgrwt>
</event>
<event>
 4    5  0.8511149E-008  0.9825697E+03  0.7818608E-02  0.9404726E-01
          2   -1    0    0  501    0  0.00000000000E+00  0.00000000000E+00  0.13130711192E+04  0.13130711192E+04  0.25500000000E-02 0. -1.
         -2   -1    0    0    0  501 -0.00000000000E+00 -0.00000000000E+00 -0.11189060614E+04  0.11189060614E+04  0.25500000000E-02 0.  1.
    8880023    1    1    2    0    0 -0.44988962187E+03  0.57378775197E+03 -0.74509505376E+03  0.12331301235E+04  0.65864270000E+03 0.  0.
    8880022    1    1    2    0    0  0.44988962187E+03 -0.57378775197E+03  0.93926011156E+03  0.11988470571E+04  0.15294330000E+03 0.  0.
<mgrwt>
<rscale>  0 0.91687804E+03</rscale>
<asrwt>0</asrwt>
<pdfrwt beam="1">  1        2 0.20201094E+00 0.98256972E+03</pdfrwt>
<pdfrwt beam="2">  1       -2 0.17213939E+00 0.98256972E+03</pdfrwt>
<totfact> 0.33219344E+00</totfact>
</mgrwt>
</event>
<event>
 4    5  0.8511149E-008  0.9384635E+03  0.7818608E-02  0.9466911E-01
         -2   -1    0    0    0  501 -0.00000000000E+00  0.00000000000E+00  0.73910590792E+03  0.73910590793E+03  0.25500000000E-02 0.  1.
          2   -1    0    0  501    0  0.00000000000E+00 -0.00000000000E+00 -0.96607587159E+03  0.96607587159E+03  0.25500000000E-02 0. -1.
    8880023    1    1    2    0    0  0.55269279487E+03 -0.37607739400E+03  0.10308688822E+03  0.94410838603E+03  0.65864270000E+03 0.  0.
    8880022    1    1    2    0    0 -0.55269279487E+03  0.37607739400E+03 -0.33005685188E+03  0.76107339349E+03  0.15294330000E+03 0.  0.
<mgrwt>
<rscale>  0 0.86767954E+03</rscale>
<asrwt>0</asrwt>
<pdfrwt beam="1">  1        2 0.14862706E+00 0.93846350E+03</pdfrwt>
<pdfrwt beam="2">  1       -2 0.11370860E+00 0.93846350E+03</pdfrwt>
<totfact> 0.16031916E+01</totfact>
</mgrwt>
</event>
<event>
 4    5  0.8511149E-008  0.1253370E+04  0.7818608E-02  0.9106911E-01
          2   -1    0    0  501    0  0.00000000000E+00  0.00000000000E+00  0.19003699037E+04  0.19003699037E+04  0.25500000000E-02 0. -1.
         -2   -1    0    0    0  501 -0.00000000000E+00 -0.00000000000E+00 -0.84860021827E+03  0.84860021828E+03  0.25500000000E-02 0.  1.
    8880023    1    1    2    0    0 -0.34933262720E+02  0.10657890595E+04  0.14440417426E+02  0.12534533833E+04  0.65864270000E+03 0.  1.
    8880022    1    1    2    0    0  0.34933262720E+02 -0.10657890595E+04  0.10373292680E+04  0.14955167386E+04  0.15294330000E+03 0. -1.
<mgrwt>
<rscale>  0 0.12068159E+04</rscale>
<asrwt>0</asrwt>
<pdfrwt beam="1">  1        2 0.29236460E+00 0.12533702E+04</pdfrwt>
<pdfrwt beam="2">  1       -2 0.13055388E+00 0.12533702E+04</pdfrwt>
<totfact> 0.31607932E+00</totfact>
</mgrwt>
</event>
<event>
 4    5  0.8511149E-008  0.6873575E+03  0.7818608E-02  0.1005435E+00
          2   -1    0    0  501    0  0.00000000000E+00  0.00000000000E+00  0.18306696570E+04  0.18306696570E+04  0.25500000000E-02 0. -1.
         -2   -1    0    0    0  501 -0.00000000000E+00 -0.00000000000E+00 -0.13736364660E+03  0.13736364662E+03  0.25500000000E-02 0.  1.
    8880023    1    1    2    0    0 -0.75243113295E+02  0.18162758472E+03  0.87520307937E+03  0.11128525248E+04  0.65864270000E+03 0. -1.
    8880022    1    1    2    0    0  0.75243113295E+02 -0.18162758472E+03  0.81810293106E+03  0.85518077882E+03  0.15294330000E+03 0.  0.
<mgrwt>
<rscale>  0 0.53330114E+03</rscale>
<asrwt>0</asrwt>
<pdfrwt beam="1">  1        2 0.28164148E+00 0.68735748E+03</pdfrwt>
<pdfrwt beam="2">  1       -2 0.21132869E-01 0.68735748E+03</pdfrwt>
<totfact> 0.16500415E+02</totfact>
</mgrwt>
</event>
<event>
 4    5  0.8511149E-008  0.6633188E+03  0.7818608E-02  0.1020988E+00
         -2   -1    0    0    0  501 -0.00000000000E+00  0.00000000000E+00  0.15179350013E+03  0.15179350015E+03  0.25500000000E-02 0.  1.
          2   -1    0    0  501    0  0.00000000000E+00 -0.00000000000E+00 -0.19211836519E+04  0.19211836519E+04  0.25500000000E-02 0. -1.
    8880023    1    1    2    0    0  0.50549796131E+02  0.60218796483E+02 -0.61082931459E+03  0.90172293038E+03  0.65864270000E+03 0.  1.
    8880022    1    1    2    0    0 -0.50549796131E+02 -0.60218796483E+02 -0.11585608371E+04  0.11712542216E+04  0.15294330000E+03 0.  0.
<mgrwt>
<rscale>  0 0.47331915E+03</rscale>
<asrwt>0</asrwt>
<pdfrwt beam="1">  1        2 0.29556670E+00 0.66331877E+03</pdfrwt>
<pdfrwt beam="2">  1       -2 0.23352847E-01 0.66331877E+03</pdfrwt>
<totfact> 0.12375948E+02</totfact>
</mgrwt>
</event>
<event>
 4    5  0.8511149E-008  0.8316885E+03  0.7818608E-02  0.9646056E-01
          2   -1    0    0  501    0  0.00000000000E+00  0.00000000000E+00  0.14556939407E+04  0.14556939407E+04  0.25500000000E-02 0. -1.
         -2   -1    0    0    0  501 -0.00000000000E+00 -0.00000000000E+00 -0.90782365041E+03  0.90782365042E+03  0.25500000000E-02 0.  1.
    8880023    1    1    2    0    0 -0.14469303147E+03  0.48678477964E+03 -0.64864513866E+03  0.10547256597E+04  0.65864270000E+03 0.  0.
    8880022    1    1    2    0    0  0.14469303147E+03 -0.48678477964E+03  0.11965154289E+04  0.13087919314E+04  0.15294330000E+03 0.  0.
<mgrwt>
<rscale>  0 0.74321462E+03</rscale>
<asrwt>0</asrwt>
<pdfrwt beam="1">  1        2 0.22395291E+00 0.83168846E+03</pdfrwt>
<pdfrwt beam="2">  1       -2 0.13966518E+00 0.83168846E+03</pdfrwt>
<totfact> 0.49252609E+00</totfact>
</mgrwt>
</event>
<event>
 4    5  0.8511149E-008  0.7706547E+03  0.7818608E-02  0.9778266E-01
         -2   -1    0    0    0  501 -0.00000000000E+00  0.00000000000E+00  0.19637187961E+04  0.19637187961E+04  0.25500000000E-02 0.  1.
          2   -1    0    0  501    0  0.00000000000E+00 -0.00000000000E+00 -0.10798245988E+04  0.10798245988E+04  0.25500000000E-02 0. -1.
    8880023    1    1    2    0    0  0.38737799784E+03 -0.10018341298E+03  0.18405423344E+04  0.19953708228E+04  0.65864270000E+03 0.  1.
    8880022    1    1    2    0    0 -0.38737799784E+03  0.10018341298E+03 -0.95664813713E+03  0.10481725720E+04  0.15294330000E+03 0.  0.
<mgrwt>
<rscale>  0 0.66542090E+03</rscale>
<asrwt>0</asrwt>
<pdfrwt beam="1">  1        2 0.16612686E+00 0.77065468E+03</pdfrwt>
<pdfrwt beam="2">  1       -2 0.30211058E+00 0.77065468E+03</pdfrwt>
<totfact> 0.72210600E-01</totfact>
</mgrwt>
</event>
<event>
 4    5  0.8511149E-008  0.7927521E+03  0.7818608E-02  0.9726692E-01
         -2   -1    0    0    0  501 -0.00000000000E+00  0.00000000000E+00  0.78603129896E+03  0.78603129897E+03  0.25500000000E-02 0.  1.
          2   -1    0    0  501    0  0.00000000000E+00 -0.00000000000E+00 -0.58987190030E+03  0.58987190030E+03  0.25500000000E-02 0. -1.
    8880023    1    1    2    0    0  0.12095722084E+03  0.42428175400E+03  0.37360784747E+03  0.87637816381E+03  0.65864270000E+03 0.  0.
    8880022    1    1    2    0    0 -0.12095722084E+03 -0.42428175400E+03 -0.17744844881E+03  0.49952503546E+03  0.15294330000E+03 0.  0.
<mgrwt>
<rscale>  0 0.69449543E+03</rscale>
<asrwt>0</asrwt>
<pdfrwt beam="1">  1        2 0.90749523E-01 0.79275208E+03</pdfrwt>
<pdfrwt beam="2">  1       -2 0.12092789E+00 0.79275208E+03</pdfrwt>
<totfact> 0.26620096E+01</totfact>
</mgrwt>
</event>
<event>
 4    5  0.8511149E-008  0.7048074E+03  0.7818608E-02  0.9977814E-01
         -2   -1    0    0    0  501 -0.00000000000E+00  0.00000000000E+00  0.14919462631E+04  0.14919462631E+04  0.25500000000E-02 0.  1.
          2   -1    0    0  501    0  0.00000000000E+00 -0.00000000000E+00 -0.16082346448E+04  0.16082346448E+04  0.25500000000E-02 0. -1.
    8880023    1    1    2    0    0  0.24385162750E+03  0.58988874581E+02  0.13937487366E+04  0.15618223492E+04  0.65864270000E+03 0.  1.
    8880022    1    1    2    0    0 -0.24385162750E+03 -0.58988874581E+02 -0.15100371182E+04  0.15383585587E+04  0.15294330000E+03 0.  0.
<mgrwt>
<rscale>  0 0.56633863E+03</rscale>
<asrwt>0</asrwt>
<pdfrwt beam="1">  1        2 0.24742072E+00 0.70480743E+03</pdfrwt>
<pdfrwt beam="2">  1       -2 0.22953019E+00 0.70480743E+03</pdfrwt>
<totfact> 0.99703798E-01</totfact>
</mgrwt>
</event>
<event>
 4    5  0.1183394E-007  0.1045262E+04  0.7818608E-02  0.9324599E-01
         -2   -1    0    0    0  501 -0.00000000000E+00  0.00000000000E+00  0.15648704117E+04  0.15648704117E+04  0.25500000000E-02 0.  1.
          2   -1    0    0  501    0  0.00000000000E+00 -0.00000000000E+00 -0.27526227121E+04  0.27526227121E+04  0.25500000000E-02 0. -1.
    8880023    1    1    2    0    0 -0.56242133528E+03  0.58518797658E+03  0.13162468603E+04  0.16807970519E+04  0.65864270000E+03 0.  1.
    8880022    1    1    2    0    0  0.56242133528E+03 -0.58518797658E+03 -0.25039991606E+04  0.26366960719E+04  0.15294330000E+03 0.  0.
<mgrwt>
<rscale>  0 0.98549460E+03</rscale>
<asrwt>0</asrwt>
<pdfrwt beam="1">  1        2 0.42348042E+00 0.10452621E+04</pdfrwt>
<pdfrwt beam="2">  1       -2 0.24074929E+00 0.10452621E+04</pdfrwt>
<totfact> 0.18220687E-01</totfact>
</mgrwt>
</event>
<event>
 4    5  0.8511149E-008  0.6864944E+03  0.7818608E-02  0.1005865E+00
          2   -1    0    0  501    0  0.00000000000E+00  0.00000000000E+00  0.32540618287E+03  0.32540618288E+03  0.25500000000E-02 0. -1.
         -2   -1    0    0    0  501 -0.00000000000E+00 -0.00000000000E+00 -0.10469159008E+04  0.10469159008E+04  0.25500000000E-02 0.  1.
    8880023    1    1    2    0    0  0.16650242699E+02 -0.19283954739E+03 -0.85126837791E+03  0.10935869326E+04  0.65864270000E+03 0.  1.
    8880022    1    1    2    0    0 -0.16650242699E+02  0.19283954739E+03  0.12975865997E+03  0.27873515112E+03  0.15294330000E+03 0.  0.
<mgrwt>
<rscale>  0 0.53151514E+03</rscale>
<asrwt>0</asrwt>
<pdfrwt beam="1">  1        2 0.50062490E-01 0.68649438E+03</pdfrwt>
<pdfrwt beam="2">  1       -2 0.16106398E+00 0.68649438E+03</pdfrwt>
<totfact> 0.25251585E+01</totfact>
</mgrwt>
</event>
<event>
 4    5  0.8511149E-008  0.7222753E+03  0.7818608E-02  0.9914961E-01
          2   -1    0    0  501    0  0.00000000000E+00  0.00000000000E+00  0.21043478874E+03  0.21043478876E+03  0.25500000000E-02 0. -1.
         -2   -1    0    0    0  501 -0.00000000000E+00 -0.00000000000E+00 -0.24538608274E+04  0.24538608274E+04  0.25500000000E-02 0.  1.
    8880023    1    1    2    0    0  0.40811117228E+02 -0.29360833895E+03 -0.22146979134E+04  0.23294996153E+04  0.65864270000E+03 0.  1.
    8880022    1    1    2    0    0 -0.40811117228E+02  0.29360833895E+03 -0.28728125299E+02  0.33479600086E+03  0.15294330000E+03 0.  0.
<mgrwt>
<rscale>  0 0.59541661E+03</rscale>
<asrwt>0</asrwt>
<pdfrwt beam="1">  1        2 0.32374585E-01 0.72227530E+03</pdfrwt>
<pdfrwt beam="2">  1       -2 0.37751703E+00 0.72227530E+03</pdfrwt>
<totfact> 0.18008695E+00</totfact>
</mgrwt>
</event>
<event>
 4    5  0.8511149E-008  0.7906080E+03  0.7818608E-02  0.9731484E-01
         -2   -1    0    0    0  501 -0.00000000000E+00  0.00000000000E+00  0.15620069760E+04  0.15620069760E+04  0.25500000000E-02 0.  1.
          2   -1    0    0  501    0  0.00000000000E+00 -0.00000000000E+00 -0.84363661630E+03  0.84363661630E+03  0.25500000000E-02 0. -1.
    8880023    1    1    2    0    0 -0.35159497910E+03 -0.26006108379E+03  0.13844459853E+04  0.15942872041E+04  0.65864270000E+03 0.  1.
    8880022    1    1    2    0    0  0.35159497910E+03  0.26006108379E+03 -0.66607562561E+03  0.81135638821E+03  0.15294330000E+03 0.  0.
<mgrwt>
<rscale>  0 0.69172800E+03</rscale>
<asrwt>0</asrwt>
<pdfrwt beam="1">  1        2 0.12979025E+00 0.79060800E+03</pdfrwt>
<pdfrwt beam="2">  1       -2 0.24030876E+00 0.79060800E+03</pdfrwt>
<totfact> 0.24209377E+00</totfact>
</mgrwt>
</event>
<event>
 4    5  0.8511149E-008  0.7334468E+03  0.7818608E-02  0.9879464E-01
          2   -1    0    0  501    0  0.00000000000E+00  0.00000000000E+00  0.20421915194E+04  0.20421915194E+04  0.25500000000E-02 0. -1.
         -2   -1    0    0    0  501 -0.00000000000E+00 -0.00000000000E+00 -0.20182078039E+03  0.20182078041E+03  0.25500000000E-02 0.  1.
    8880023    1    1    2    0    0 -0.13058250849E+03  0.29509690135E+03  0.58304074346E+03  0.93695287369E+03  0.65864270000E+03 0.  1.
    8880022    1    1    2    0    0  0.13058250849E+03 -0.29509690135E+03  0.12573299956E+04  0.13070594262E+04  0.15294330000E+03 0.  0.
<mgrwt>
<rscale>  0 0.61266933E+03</rscale>
<asrwt>0</asrwt>
<pdfrwt beam="1">  1        2 0.31418331E+00 0.73344678E+03</pdfrwt>
<pdfrwt beam="2">  1       -2 0.31049351E-01 0.73344678E+03</pdfrwt>
<totfact> 0.62752910E+01</totfact>
</mgrwt>
</event>
<event>
 4    5  0.8511149E-008  0.7418982E+03  0.7818608E-02  0.9854452E-01
         -2   -1    0    0    0  501 -0.00000000000E+00  0.00000000000E+00  0.58295276422E+03  0.58295276422E+03  0.25500000000E-02 0.  1.
          2   -1    0    0  501    0  0.00000000000E+00 -0.00000000000E+00 -0.29635744601E+04  0.29635744601E+04  0.25500000000E-02 0. -1.
    8880023    1    1    2    0    0 -0.33851447440E+03 -0.44841363855E+02  0.32872751640E+03  0.81146459170E+03  0.65864270000E+03 0.  0.
    8880022    1    1    2    0    0  0.33851447440E+03  0.44841363855E+02 -0.27093492123E+04  0.27350626326E+04  0.15294330000E+03 0.  0.
<mgrwt>
<rscale>  0 0.62520452E+03</rscale>
<asrwt>0</asrwt>
<pdfrwt beam="1">  1        2 0.45593452E+00 0.74189824E+03</pdfrwt>
<pdfrwt beam="2">  1       -2 0.89685042E-01 0.74189824E+03</pdfrwt>
<totfact> 0.20877692E+00</totfact>
</mgrwt>
</event>
<event>
 4    5  0.8511149E-008  0.9237544E+03  0.7818608E-02  0.9488926E-01
          2   -1    0    0  501    0  0.00000000000E+00  0.00000000000E+00  0.18299848674E+04  0.18299848674E+04  0.25500000000E-02 0. -1.
         -2   -1    0    0    0  501 -0.00000000000E+00 -0.00000000000E+00 -0.40091612044E+03  0.40091612044E+03  0.25500000000E-02 0.  1.
    8880023    1    1    2    0    0  0.21197415633E+00  0.64769735619E+03  0.40284166252E+03  0.10077715621E+04  0.65864270000E+03 0.  0.
    8880022    1    1    2    0    0 -0.21197415633E+00 -0.64769735619E+03  0.10262270844E+04  0.12231294257E+04  0.15294330000E+03 0.  0.
<mgrwt>
<rscale>  0 0.85105185E+03</rscale>
<asrwt>0</asrwt>
<pdfrwt beam="1">  1        2 0.28153613E+00 0.92375436E+03</pdfrwt>
<pdfrwt beam="2">  1       -2 0.61679404E-01 0.92375436E+03</pdfrwt>
<totfact> 0.20471959E+01</totfact>
</mgrwt>
</event>
<event>
 4    5  0.8511149E-008  0.1001677E+04  0.7818608E-02  0.9379367E-01
         -2   -1    0    0    0  501 -0.00000000000E+00  0.00000000000E+00  0.41453977995E+03  0.41453977996E+03  0.25500000000E-02 0.  1.
          2   -1    0    0  501    0  0.00000000000E+00 -0.00000000000E+00 -0.21131672385E+04  0.21131672385E+04  0.25500000000E-02 0. -1.
    8880023    1    1    2    0    0 -0.35589184050E+03 -0.66549764801E+03 -0.54399696112E+03  0.11398635978E+04  0.65864270000E+03 0.  1.
    8880022    1    1    2    0    0  0.35589184050E+03  0.66549764801E+03 -0.11546304975E+04  0.13878434207E+04  0.15294330000E+03 0. -1.
<mgrwt>
<rscale>  0 0.93793305E+03</rscale>
<asrwt>0</asrwt>
<pdfrwt beam="1">  1        2 0.32510265E+00 0.10016768E+04</pdfrwt>
<pdfrwt beam="2">  1       -2 0.63775352E-01 0.10016768E+04</pdfrwt>
<totfact> 0.13201149E+01</totfact>
</mgrwt>
</event>
<event>
 4    5  0.8511149E-008  0.1079432E+04  0.7818608E-02  0.9284309E-01
         -2   -1    0    0    0  501 -0.00000000000E+00  0.00000000000E+00  0.10024113969E+04  0.10024113969E+04  0.25500000000E-02 0.  1.
          2   -1    0    0  501    0  0.00000000000E+00 -0.00000000000E+00 -0.11796894233E+04  0.11796894233E+04  0.25500000000E-02 0. -1.
    8880023    1    1    2    0    0  0.52765934767E+03  0.67300780670E+03 -0.57904091340E+03  0.12249336638E+04  0.65864270000E+03 0. -1.
    8880022    1    1    2    0    0 -0.52765934767E+03 -0.67300780670E+03  0.40176288697E+03  0.95716715647E+03  0.15294330000E+03 0.  0.
<mgrwt>
<rscale>  0 0.10224035E+04</rscale>
<asrwt>0</asrwt>
<pdfrwt beam="1">  1        2 0.18149068E+00 0.10794323E+04</pdfrwt>
<pdfrwt beam="2">  1       -2 0.15421714E+00 0.10794323E+04</pdfrwt>
<totfact> 0.53312185E+00</totfact>
</mgrwt>
</event>
<event>
 4    5  0.8511149E-008  0.7401150E+03  0.7818608E-02  0.9859612E-01
         -2   -1    0    0    0  501 -0.00000000000E+00  0.00000000000E+00  0.17360882659E+04  0.17360882659E+04  0.25500000000E-02 0.  1.
          2   -1    0    0  501    0  0.00000000000E+00 -0.00000000000E+00 -0.37427219475E+03  0.37427219476E+03  0.25500000000E-02 0. -1.
    8880023    1    1    2    0    0  0.25308619836E+03  0.22339973643E+03  0.15328603292E+04  0.17021842030E+04  0.65864270000E+03 0.  1.
    8880022    1    1    2    0    0 -0.25308619836E+03 -0.22339973643E+03 -0.17104425805E+03  0.40817625759E+03  0.15294330000E+03 0.  0.
<mgrwt>
<rscale>  0 0.62259221E+03</rscale>
<asrwt>0</asrwt>
<pdfrwt beam="1">  1        2 0.57580338E-01 0.74011504E+03</pdfrwt>
<pdfrwt beam="2">  1       -2 0.26709050E+00 0.74011504E+03</pdfrwt>
<totfact> 0.44723251E+00</totfact>
</mgrwt>
</event>
<event>
 4    5  0.8511149E-008  0.1070925E+04  0.7818608E-02  0.9294140E-01
         -2   -1    0    0    0  501 -0.00000000000E+00  0.00000000000E+00  0.13772445451E+04  0.13772445451E+04  0.25500000000E-02 0.  1.
          2   -1    0    0  501    0  0.00000000000E+00 -0.00000000000E+00 -0.87963945325E+03  0.87963945325E+03  0.25500000000E-02 0. -1.
    8880023    1    1    2    0    0  0.77781684557E+03 -0.32874054224E+03  0.81091861182E+03  0.13433050996E+04  0.65864270000E+03 0.  0.
    8880022    1    1    2    0    0 -0.77781684557E+03  0.32874054224E+03 -0.31331352000E+03  0.91357889872E+03  0.15294330000E+03 0.  0.
<mgrwt>
<rscale>  0 0.10132414E+04</rscale>
<asrwt>0</asrwt>
<pdfrwt beam="1">  1        2 0.13532915E+00 0.10709246E+04</pdfrwt>
<pdfrwt beam="2">  1       -2 0.21188378E+00 0.10709246E+04</pdfrwt>
<totfact> 0.33239478E+00</totfact>
</mgrwt>
</event>
<event>
 4    5  0.8511149E-008  0.1683082E+04  0.7818608E-02  0.8790127E-01
         -2   -1    0    0    0  501 -0.00000000000E+00  0.00000000000E+00  0.27057071614E+04  0.27057071614E+04  0.25500000000E-02 0.  1.
          2   -1    0    0  501    0  0.00000000000E+00 -0.00000000000E+00 -0.18144512646E+04  0.18144512646E+04  0.25500000000E-02 0. -1.
    8880023    1    1    2    0    0 -0.12243250341E+04 -0.94867432893E+03 -0.10865995962E+04  0.20033630875E+04  0.65864270000E+03 0.  0.
    8880022    1    1    2    0    0  0.12243250341E+04  0.94867432893E+03  0.19778554930E+04  0.25167953385E+04  0.15294330000E+03 0.  0.
<mgrwt>
<rscale>  0 0.16504732E+04</rscale>
<asrwt>0</asrwt>
<pdfrwt beam="1">  1        2 0.27914635E+00 0.16830820E+04</pdfrwt>
<pdfrwt beam="2">  1       -2 0.41626264E+00 0.16830820E+04</pdfrwt>
<totfact> 0.45164195E-02</totfact>
</mgrwt>
</event>
<event>
 4    5  0.8511149E-008  0.7538442E+03  0.7818608E-02  0.9821313E-01
         -2   -1    0    0    0  501 -0.00000000000E+00  0.00000000000E+00  0.19303733599E+03  0.19303733601E+03  0.25500000000E-02 0.  1.
          2   -1    0    0  501    0  0.00000000000E+00 -0.00000000000E+00 -0.19155128316E+04  0.19155128316E+04  0.25500000000E-02 0. -1.
    8880023    1    1    2    0    0  0.19699496990E+03  0.30929576724E+03 -0.77509715442E+03  0.10812292518E+04  0.65864270000E+03 0.  0.
    8880022    1    1    2    0    0 -0.19699496990E+03 -0.30929576724E+03 -0.94737834123E+03  0.10273209159E+04  0.15294330000E+03 0.  0.
<mgrwt>
<rscale>  0 0.64231208E+03</rscale>
<asrwt>0</asrwt>
<pdfrwt beam="1">  1        2 0.29469427E+00 0.75384421E+03</pdfrwt>
<pdfrwt beam="2">  1       -2 0.29698053E-01 0.75384421E+03</pdfrwt>
<totfact> 0.79740278E+01</totfact>
</mgrwt>
</event>
<event>
 4    5  0.8511149E-008  0.6851509E+03  0.7818608E-02  0.1006548E+00
         -2   -1    0    0    0  501 -0.00000000000E+00  0.00000000000E+00  0.90724195700E+03  0.90724195700E+03  0.25500000000E-02 0.  1.
          2   -1    0    0  501    0  0.00000000000E+00 -0.00000000000E+00 -0.17622811397E+04  0.17622811397E+04  0.25500000000E-02 0. -1.
    8880023    1    1    2    0    0 -0.12341835760E+03 -0.14279177563E+03  0.76754078593E+03  0.10288589051E+04  0.65864270000E+03 0.  1.
    8880022    1    1    2    0    0  0.12341835760E+03  0.14279177563E+03 -0.16225799686E+04  0.16406641916E+04  0.15294330000E+03 0.  0.
<mgrwt>
<rscale>  0 0.52869885E+03</rscale>
<asrwt>0</asrwt>
<pdfrwt beam="1">  1        2 0.27112018E+00 0.68515092E+03</pdfrwt>
<pdfrwt beam="2">  1       -2 0.13957569E+00 0.68515092E+03</pdfrwt>
<totfact> 0.34199706E+00</totfact>
</mgrwt>
</event>
<event>
 4    5  0.8511149E-008  0.8019806E+03  0.7818608E-02  0.9706530E-01
          2   -1    0    0  501    0  0.00000000000E+00  0.00000000000E+00  0.34853967405E+04  0.34853967405E+04  0.25500000000E-02 0. -1.
         -2   -1    0    0    0  501 -0.00000000000E+00 -0.00000000000E+00 -0.19139810439E+03  0.19139810441E+03  0.25500000000E-02 0.  1.
    8880023    1    1    2    0    0 -0.70144097286E+02  0.45215323314E+03  0.78640235777E+03  0.11232104056E+04  0.65864270000E+03 0.  0.
    8880022    1    1    2    0    0  0.70144097286E+02 -0.45215323314E+03  0.25075962783E+04  0.25535844393E+04  0.15294330000E+03 0.  0.
<mgrwt>
<rscale>  0 0.70629340E+03</rscale>
<asrwt>0</asrwt>
<pdfrwt beam="1">  1        2 0.53621486E+00 0.80198064E+03</pdfrwt>
<pdfrwt beam="2">  1       -2 0.29445864E-01 0.80198064E+03</pdfrwt>
<totfact> 0.94456859E+00</totfact>
</mgrwt>
</event>
<event>
 4    5  0.8511149E-008  0.8398688E+03  0.7818608E-02  0.9630428E-01
          2   -1    0    0  501    0  0.00000000000E+00  0.00000000000E+00  0.13269979361E+04  0.13269979361E+04  0.25500000000E-02 0. -1.
         -2   -1    0    0    0  501 -0.00000000000E+00 -0.00000000000E+00 -0.54792625050E+03  0.54792625050E+03  0.25500000000E-02 0.  1.
    8880023    1    1    2    0    0 -0.27751838390E+03 -0.44108147098E+03 -0.95665841806E+02  0.84529963741E+03  0.65864270000E+03 0.  0.
    8880022    1    1    2    0    0  0.27751838390E+03  0.44108147098E+03  0.87473752743E+03  0.10296245492E+04  0.15294330000E+03 0.  0.
<mgrwt>
<rscale>  0 0.75314594E+03</rscale>
<asrwt>0</asrwt>
<pdfrwt beam="1">  1        2 0.20415352E+00 0.83986875E+03</pdfrwt>
<pdfrwt beam="2">  1       -2 0.84296348E-01 0.83986875E+03</pdfrwt>
<totfact> 0.19793486E+01</totfact>
</mgrwt>
</event>
<event>
 4    5  0.8511149E-008  0.8228695E+03  0.7818608E-02  0.9663369E-01
         -2   -1    0    0    0  501 -0.00000000000E+00  0.00000000000E+00  0.43122792898E+03  0.43122792899E+03  0.25500000000E-02 0.  1.
          2   -1    0    0  501    0  0.00000000000E+00 -0.00000000000E+00 -0.24762536739E+04  0.24762536739E+04  0.25500000000E-02 0. -1.
    8880023    1    1    2    0    0  0.20537311958E+03 -0.44847059106E+03 -0.25811848886E+02  0.82327422351E+03  0.65864270000E+03 0.  0.
    8880022    1    1    2    0    0 -0.20537311958E+03  0.44847059106E+03 -0.20192138960E+04  0.20842073793E+04  0.15294330000E+03 0.  0.
<mgrwt>
<rscale>  0 0.73240316E+03</rscale>
<asrwt>0</asrwt>
<pdfrwt beam="1">  1        2 0.38096210E+00 0.82286949E+03</pdfrwt>
<pdfrwt beam="2">  1       -2 0.66342760E-01 0.82286949E+03</pdfrwt>
<totfact> 0.77771466E+00</totfact>
</mgrwt>
</event>
<event>
 4    5  0.8511149E-008  0.9375962E+03  0.7818608E-02  0.9468190E-01
         -2   -1    0    0    0  501 -0.00000000000E+00  0.00000000000E+00  0.31985058938E+03  0.31985058939E+03  0.25500000000E-02 0.  1.
          2   -1    0    0  501    0  0.00000000000E+00 -0.00000000000E+00 -0.32797599895E+04  0.32797599895E+04  0.25500000000E-02 0. -1.
    8880023    1    1    2    0    0 -0.64395966935E+03  0.17490654928E+03 -0.53409776043E+03  0.10790491095E+04  0.65864270000E+03 0.  1.
    8880022    1    1    2    0    0  0.64395966935E+03 -0.17490654928E+03 -0.24258116397E+04  0.25205614694E+04  0.15294330000E+03 0.  0.
<mgrwt>
<rscale>  0 0.86670246E+03</rscale>
<asrwt>0</asrwt>
<pdfrwt beam="1">  1        2 0.50457844E+00 0.93759616E+03</pdfrwt>
<pdfrwt beam="2">  1       -2 0.49207785E-01 0.93759616E+03</pdfrwt>
<totfact> 0.46741274E+00</totfact>
</mgrwt>
</event>
<event>
 4    5  0.8555391E-008  0.1618455E+04  0.7818608E-02  0.8830224E-01
          2   -1    0    0  501    0  0.00000000000E+00  0.00000000000E+00  0.22504393714E+04  0.22504393714E+04  0.25500000000E-02 0. -1.
         -2   -1    0    0    0  501 -0.00000000000E+00 -0.00000000000E+00 -0.20672534557E+04  0.20672534557E+04  0.25500000000E-02 0.  1.
    8880023    1    1    2    0    0 -0.57154940574E+03  0.13634212724E+04 -0.14045005062E+04  0.21428994768E+04  0.65864270000E+03 0.  0.
    8880022    1    1    2    0    0  0.57154940574E+03 -0.13634212724E+04  0.15876864219E+04  0.21747933503E+04  0.15294330000E+03 0.  0.
<mgrwt>
<rscale>  0 0.15843437E+04</rscale>
<asrwt>0</asrwt>
<pdfrwt beam="1">  1        2 0.34622144E+00 0.16184550E+04</pdfrwt>
<pdfrwt beam="2">  1       -2 0.31803899E+00 0.16184550E+04</pdfrwt>
<totfact> 0.11008475E-01</totfact>
</mgrwt>
</event>
<event>
 4    5  0.8511149E-008  0.9316640E+03  0.7818608E-02  0.9477001E-01
         -2   -1    0    0    0  501 -0.00000000000E+00  0.00000000000E+00  0.84866177031E+03  0.84866177031E+03  0.25500000000E-02 0.  1.
          2   -1    0    0  501    0  0.00000000000E+00 -0.00000000000E+00 -0.20737541220E+04  0.20737541220E+04  0.25500000000E-02 0. -1.
    8880023    1    1    2    0    0 -0.65877594605E+03 -0.14204532275E+02 -0.18051036392E+04  0.20313534577E+04  0.65864270000E+03 0. -1.
    8880022    1    1    2    0    0  0.65877594605E+03  0.14204532275E+02  0.58001128743E+03  0.89106243463E+03  0.15294330000E+03 0.  0.
<mgrwt>
<rscale>  0 0.86000851E+03</rscale>
<asrwt>0</asrwt>
<pdfrwt beam="1">  1        2 0.31903909E+00 0.93166395E+03</pdfrwt>
<pdfrwt beam="2">  1       -2 0.13056335E+00 0.93166395E+03</pdfrwt>
<totfact> 0.26341170E+00</totfact>
</mgrwt>
</event>
<event>
 4    5  0.8511149E-008  0.1599063E+04  0.7818608E-02  0.8842677E-01
         -2   -1    0    0    0  501 -0.00000000000E+00  0.00000000000E+00  0.17490052594E+04  0.17490052594E+04  0.25500000000E-02 0.  1.
          2   -1    0    0  501    0  0.00000000000E+00 -0.00000000000E+00 -0.26309667314E+04  0.26309667314E+04  0.25500000000E-02 0. -1.
    8880023    1    1    2    0    0  0.14365530150E+04  0.24394252933E+03  0.10812576110E+04  0.19303162306E+04  0.65864270000E+03 0.  1.
    8880022    1    1    2    0    0 -0.14365530150E+04 -0.24394252933E+03 -0.19632190830E+04  0.24496557602E+04  0.15294330000E+03 0.  0.
<mgrwt>
<rscale>  0 0.15644716E+04</rscale>
<asrwt>0</asrwt>
<pdfrwt beam="1">  1        2 0.40476411E+00 0.15990631E+04</pdfrwt>
<pdfrwt beam="2">  1       -2 0.26907773E+00 0.15990631E+04</pdfrwt>
<totfact> 0.13278717E-01</totfact>
</mgrwt>
</event>
<event>
 4    5  0.8511149E-008  0.8610677E+03  0.7818608E-02  0.9591667E-01
         -2   -1    0    0    0  501 -0.00000000000E+00  0.00000000000E+00  0.51853157716E+03  0.51853157717E+03  0.25500000000E-02 0.  1.
          2   -1    0    0  501    0  0.00000000000E+00 -0.00000000000E+00 -0.12010248476E+04  0.12010248476E+04  0.25500000000E-02 0. -1.
    8880023    1    1    2    0    0 -0.70968430359E+02  0.55008263031E+03 -0.47056921067E+02  0.86235258355E+03  0.65864270000E+03 0.  0.
    8880022    1    1    2    0    0  0.70968430359E+02 -0.55008263031E+03 -0.63543634934E+03  0.85720384119E+03  0.15294330000E+03 0.  0.
<mgrwt>
<rscale>  0 0.77850178E+03</rscale>
<asrwt>0</asrwt>
<pdfrwt beam="1">  1        2 0.18477305E+00 0.86106772E+03</pdfrwt>
<pdfrwt beam="2">  1       -2 0.79774089E-01 0.86106772E+03</pdfrwt>
<totfact> 0.26513829E+01</totfact>
</mgrwt>
</event>
<event>
 4    5  0.8511149E-008  0.7179553E+03  0.7818608E-02  0.9929566E-01
          2   -1    0    0  501    0  0.00000000000E+00  0.00000000000E+00  0.35960059240E+04  0.35960059240E+04  0.25500000000E-02 0. -1.
         -2   -1    0    0    0  501 -0.00000000000E+00 -0.00000000000E+00 -0.35539131736E+03  0.35539131737E+03  0.25500000000E-02 0.  1.
    8880023    1    1    2    0    0 -0.23048554905E+03 -0.16889659907E+03  0.23854852085E+02  0.71835152240E+03  0.65864270000E+03 0.  1.
    8880022    1    1    2    0    0  0.23048554905E+03  0.16889659907E+03  0.32167597545E+04  0.32330457190E+04  0.15294330000E+03 0.  0.
<mgrwt>
<rscale>  0 0.58849541E+03</rscale>
<asrwt>0</asrwt>
<pdfrwt beam="1">  1        2 0.55323165E+00 0.71795533E+03</pdfrwt>
<pdfrwt beam="2">  1       -2 0.54675591E-01 0.71795533E+03</pdfrwt>
<totfact> 0.24037275E+00</totfact>
</mgrwt>
</event>
<event>
 4    5  0.8511149E-008  0.6688345E+03  0.7818608E-02  0.1016512E+00
          2   -1    0    0  501    0  0.00000000000E+00  0.00000000000E+00  0.13438556227E+04  0.13438556227E+04  0.25500000000E-02 0. -1.
         -2   -1    0    0    0  501 -0.00000000000E+00 -0.00000000000E+00 -0.49538669199E+03  0.49538669199E+03  0.25500000000E-02 0.  1.
    8880023    1    1    2    0    0 -0.71314978832E+02  0.91889033199E+02 -0.25751102533E+03  0.71669488282E+03  0.65864270000E+03 0.  1.
    8880022    1    1    2    0    0  0.71314978832E+02 -0.91889033199E+02  0.11059799561E+04  0.11225474319E+04  0.15294330000E+03 0.  0.
<mgrwt>
<rscale>  0 0.48966414E+03</rscale>
<asrwt>0</asrwt>
<pdfrwt beam="1">  1        2 0.20674702E+00 0.66883453E+03</pdfrwt>
<pdfrwt beam="2">  1       -2 0.76213337E-01 0.66883453E+03</pdfrwt>
<totfact> 0.24765890E+01</totfact>
</mgrwt>
</event>
<event>
 4    5  0.8511149E-008  0.6675057E+03  0.7818608E-02  0.1017518E+00
         -2   -1    0    0    0  501 -0.00000000000E+00  0.00000000000E+00  0.77771663470E+02  0.77771663512E+02  0.25500000000E-02 0.  1.
          2   -1    0    0  501    0  0.00000000000E+00 -0.00000000000E+00 -0.27334021350E+04  0.27334021350E+04  0.25500000000E-02 0. -1.
    8880023    1    1    2    0    0  0.26053844713E+02 -0.10523718360E+03 -0.15191024321E+04  0.16592878211E+04  0.65864270000E+03 0.  1.
    8880022    1    1    2    0    0 -0.26053844713E+02  0.10523718360E+03 -0.11365280394E+04  0.11518859774E+04  0.15294330000E+03 0.  0.
<mgrwt>
<rscale>  0 0.48593108E+03</rscale>
<asrwt>0</asrwt>
<pdfrwt beam="1">  1        2 0.42052333E+00 0.66750571E+03</pdfrwt>
<pdfrwt beam="2">  1       -2 0.11964873E-01 0.66750571E+03</pdfrwt>
<totfact> 0.13697340E+02</totfact>
</mgrwt>
</event>
<event>
 4    5  0.8511149E-008  0.1146076E+04  0.7818608E-02  0.9211411E-01
          2   -1    0    0  501    0  0.00000000000E+00  0.00000000000E+00  0.19795193190E+04  0.19795193190E+04  0.25500000000E-02 0. -1.
         -2   -1    0    0    0  501 -0.00000000000E+00 -0.00000000000E+00 -0.60427292941E+03  0.60427292941E+03  0.25500000000E-02 0.  1.
    8880023    1    1    2    0    0 -0.12939860906E+03 -0.92894305331E+03  0.37930315023E+03  0.12072117802E+04  0.65864270000E+03 0.  1.
    8880022    1    1    2    0    0  0.12939860906E+03  0.92894305331E+03  0.99594323939E+03  0.13765804682E+04  0.15294330000E+03 0.  0.
<mgrwt>
<rscale>  0 0.10936420E+04</rscale>
<asrwt>0</asrwt>
<pdfrwt beam="1">  1        2 0.30454143E+00 0.11460757E+04</pdfrwt>
<pdfrwt beam="2">  1       -2 0.92965067E-01 0.11460757E+04</pdfrwt>
<totfact> 0.66232792E+00</totfact>
</mgrwt>
</event>
<event>
 4    5  0.8511149E-008  0.8438781E+03  0.7818608E-02  0.9622911E-01
          2   -1    0    0  501    0  0.00000000000E+00  0.00000000000E+00  0.22512405525E+04  0.22512405525E+04  0.25500000000E-02 0. -1.
         -2   -1    0    0    0  501 -0.00000000000E+00 -0.00000000000E+00 -0.64549348036E+03  0.64549348036E+03  0.25500000000E-02 0.  1.
    8880023    1    1    2    0    0  0.20986404970E+03 -0.48402182458E+03 -0.31365503830E+03  0.90028314176E+03  0.65864270000E+03 0.  0.
    8880022    1    1    2    0    0 -0.20986404970E+03  0.48402182458E+03  0.19194021105E+04  0.19964508911E+04  0.15294330000E+03 0.  0.
<mgrwt>
<rscale>  0 0.75798185E+03</rscale>
<asrwt>0</asrwt>
<pdfrwt beam="1">  1        2 0.34634470E+00 0.84387810E+03</pdfrwt>
<pdfrwt beam="2">  1       -2 0.99306689E-01 0.84387810E+03</pdfrwt>
<totfact> 0.41654354E+00</totfact>
</mgrwt>
</event>
<event>
 4    5  0.8511149E-008  0.9507404E+03  0.7818608E-02  0.9449050E-01
         -2   -1    0    0    0  501 -0.00000000000E+00  0.00000000000E+00  0.11615023986E+04  0.11615023986E+04  0.25500000000E-02 0.  1.
          2   -1    0    0  501    0  0.00000000000E+00 -0.00000000000E+00 -0.10938482902E+04  0.10938482902E+04  0.25500000000E-02 0. -1.
    8880023    1    1    2    0    0  0.54642179849E+02  0.68345548986E+03  0.79854182026E+03  0.12416023596E+04  0.65864270000E+03 0.  0.
    8880022    1    1    2    0    0 -0.54642179849E+02 -0.68345548986E+03 -0.73088771189E+03  0.10137483291E+04  0.15294330000E+03 0.  0.
<mgrwt>
<rscale>  0 0.88146717E+03</rscale>
<asrwt>0</asrwt>
<pdfrwt beam="1">  1        2 0.16828435E+00 0.95074044E+03</pdfrwt>
<pdfrwt beam="2">  1       -2 0.17869268E+00 0.95074044E+03</pdfrwt>
<totfact> 0.40556626E+00</totfact>
</mgrwt>
</event>
<event>
 4    5  0.8511149E-008  0.9656922E+03  0.7818608E-02  0.9427887E-01
         -2   -1    0    0    0  501 -0.00000000000E+00  0.00000000000E+00  0.24481637091E+03  0.24481637093E+03  0.25500000000E-02 0.  1.
          2   -1    0    0  501    0  0.00000000000E+00 -0.00000000000E+00 -0.29494600312E+04  0.29494600312E+04  0.25500000000E-02 0. -1.
    8880023    1    1    2    0    0  0.70582443942E+03  0.23729055586E+02 -0.17257748490E+04  0.19775895031E+04  0.65864270000E+03 0. -1.
    8880022    1    1    2    0    0 -0.70582443942E+03 -0.23729055586E+02 -0.97886881132E+03  0.12166868990E+04  0.15294330000E+03 0.  1.
<mgrwt>
<rscale>  0 0.89815793E+03</rscale>
<asrwt>0</asrwt>
<pdfrwt beam="1">  1        2 0.45376306E+00 0.96569219E+03</pdfrwt>
<pdfrwt beam="2">  1       -2 0.37664059E-01 0.96569219E+03</pdfrwt>
<totfact> 0.12779495E+01</totfact>
</mgrwt>
</event>
<event>
 4    5  0.8511149E-008  0.6676204E+03  0.7818608E-02  0.1017429E+00
         -2   -1    0    0    0  501 -0.00000000000E+00  0.00000000000E+00  0.33023145214E+03  0.33023145215E+03  0.25500000000E-02 0.  1.
          2   -1    0    0  501    0  0.00000000000E+00 -0.00000000000E+00 -0.71010396494E+03  0.71010396494E+03  0.25500000000E-02 0. -1.
    8880023    1    1    2    0    0 -0.51882721088E+02  0.95994580978E+02 -0.61222602611E+02  0.67042165065E+03  0.65864270000E+03 0.  1.
    8880022    1    1    2    0    0  0.51882721088E+02 -0.95994580978E+02 -0.31864991019E+03  0.36991376644E+03  0.15294330000E+03 0.  0.
<mgrwt>
<rscale>  0 0.48625784E+03</rscale>
<asrwt>0</asrwt>
<pdfrwt beam="1">  1        2 0.10924676E+00 0.66762039E+03</pdfrwt>
<pdfrwt beam="2">  1       -2 0.50804839E-01 0.66762039E+03</pdfrwt>
<totfact> 0.14963889E+02</totfact>
</mgrwt>
</event>
<event>
 4    5  0.9966310E-008  0.8134081E+03  0.7818608E-02  0.9682521E-01
         -2   -1    0    0    0  501 -0.00000000000E+00  0.00000000000E+00  0.11727386198E+04  0.11727386198E+04  0.25500000000E-02 0.  1.
          2   -1    0    0  501    0  0.00000000000E+00 -0.00000000000E+00 -0.31778909485E+04  0.31778909485E+04  0.25500000000E-02 0. -1.
    8880023    1    1    2    0    0 -0.51063090534E+02  0.47456839398E+03  0.10084624105E+04  0.12956192494E+04  0.65864270000E+03 0.  1.
    8880022    1    1    2    0    0  0.51063090534E+02 -0.47456839398E+03 -0.30136147392E+04  0.30550103190E+04  0.15294330000E+03 0.  0.
<mgrwt>
<rscale>  0 0.72067079E+03</rscale>
<asrwt>0</asrwt>
<pdfrwt beam="1">  1        2 0.48890629E+00 0.81340814E+03</pdfrwt>
<pdfrwt beam="2">  1       -2 0.18042133E+00 0.81340814E+03</pdfrwt>
<totfact> 0.25667685E-01</totfact>
</mgrwt>
</event>
<event>
 4    5  0.8511149E-008  0.1029255E+04  0.7818608E-02  0.9344246E-01
         -2   -1    0    0    0  501 -0.00000000000E+00  0.00000000000E+00  0.48912890668E+03  0.48912890668E+03  0.25500000000E-02 0.  1.
          2   -1    0    0  501    0  0.00000000000E+00 -0.00000000000E+00 -0.29608865127E+04  0.29608865127E+04  0.25500000000E-02 0. -1.
    8880023    1    1    2    0    0 -0.78394245330E+03 -0.10483309045E+03 -0.21186273655E+03  0.10508338462E+04  0.65864270000E+03 0.  0.
    8880022    1    1    2    0    0  0.78394245330E+03  0.10483309045E+03 -0.22598948695E+04  0.23991815732E+04  0.15294330000E+03 0.  0.
<mgrwt>
<rscale>  0 0.96809603E+03</rscale>
<asrwt>0</asrwt>
<pdfrwt beam="1">  1        2 0.45552099E+00 0.10292550E+04</pdfrwt>
<pdfrwt beam="2">  1       -2 0.75250603E-01 0.10292550E+04</pdfrwt>
<totfact> 0.29670831E+00</totfact>
</mgrwt>
</event>
<event>
 4    5  0.8511149E-008  0.7015883E+03  0.7818608E-02  0.9990675E-01
         -2   -1    0    0    0  501 -0.00000000000E+00  0.00000000000E+00  0.55461394169E+03  0.55461394170E+03  0.25500000000E-02 0.  1.
          2   -1    0    0  501    0  0.00000000000E+00 -0.00000000000E+00 -0.14539643537E+04  0.14539643537E+04  0.25500000000E-02 0. -1.
    8880023    1    1    2    0    0  0.10217240780E+03 -0.21903587616E+03  0.30915817109E+03  0.76668435290E+03  0.65864270000E+03 0.  1.
    8880022    1    1    2    0    0 -0.10217240780E+03  0.21903587616E+03 -0.12085085831E+04  0.12418939425E+04  0.15294330000E+03 0.  0.
<mgrwt>
<rscale>  0 0.56061012E+03</rscale>
<asrwt>0</asrwt>
<pdfrwt beam="1">  1        2 0.22368682E+00 0.70158829E+03</pdfrwt>
<pdfrwt beam="2">  1       -2 0.85325222E-01 0.70158829E+03</pdfrwt>
<totfact> 0.16580447E+01</totfact>
</mgrwt>
</event>
<event>
 4    5  0.1070702E-007  0.1125995E+04  0.7818608E-02  0.9232651E-01
          2   -1    0    0  501    0  0.00000000000E+00  0.00000000000E+00  0.23905779387E+04  0.23905779387E+04  0.25500000000E-02 0. -1.
         -2   -1    0    0    0  501 -0.00000000000E+00 -0.00000000000E+00 -0.20981142870E+04  0.20981142870E+04  0.25500000000E-02 0.  1.
    8880023    1    1    2    0    0  0.89916547755E+03  0.15986127856E+03 -0.18437674200E+04  0.21604033627E+04  0.65864270000E+03 0.  0.
    8880022    1    1    2    0    0 -0.89916547755E+03 -0.15986127856E+03  0.21362310718E+04  0.23282888630E+04  0.15294330000E+03 0.  0.
<mgrwt>
<rscale>  0 0.10722675E+04</rscale>
<asrwt>0</asrwt>
<pdfrwt beam="1">  1        2 0.36778122E+00 0.11259948E+04</pdfrwt>
<pdfrwt beam="2">  1       -2 0.32278681E+00 0.11259948E+04</pdfrwt>
<totfact> 0.92192275E-02</totfact>
</mgrwt>
</event>
<event>
 4    5  0.8511149E-008  0.9669081E+03  0.7818608E-02  0.9426193E-01
         -2   -1    0    0    0  501 -0.00000000000E+00  0.00000000000E+00  0.76469412273E+03  0.76469412274E+03  0.25500000000E-02 0.  1.
          2   -1    0    0  501    0  0.00000000000E+00 -0.00000000000E+00 -0.19406949124E+04  0.19406949124E+04  0.25500000000E-02 0. -1.
    8880023    1    1    2    0    0  0.70438342370E+03  0.70320560221E+02  0.34027554974E+03  0.10250359237E+04  0.65864270000E+03 0.  1.
    8880022    1    1    2    0    0 -0.70438342370E+03 -0.70320560221E+02 -0.15162763394E+04  0.16803531114E+04  0.15294330000E+03 0.  0.
<mgrwt>
<rscale>  0 0.89951065E+03</rscale>
<asrwt>0</asrwt>
<pdfrwt beam="1">  1        2 0.29856845E+00 0.96690806E+03</pdfrwt>
<pdfrwt beam="2">  1       -2 0.11764525E+00 0.96690806E+03</pdfrwt>
<totfact> 0.40306000E+00</totfact>
</mgrwt>
</event>
<event>
 4    5  0.8511149E-008  0.7099155E+03  0.7818608E-02  0.9958315E-01
          2   -1    0    0  501    0  0.00000000000E+00  0.00000000000E+00  0.11587061770E+04  0.11587061771E+04  0.25500000000E-02 0. -1.
         -2   -1    0    0    0  501 -0.00000000000E+00 -0.00000000000E+00 -0.24700706197E+03  0.24700706199E+03  0.25500000000E-02 0.  1.
    8880023    1    1    2    0    0  0.26098027411E+03 -0.45376783366E+02  0.41480248412E+03  0.82221716294E+03  0.65864270000E+03 0. -1.
    8880022    1    1    2    0    0 -0.26098027411E+03  0.45376783366E+02  0.49689663096E+03  0.58349607609E+03  0.15294330000E+03 0.  0.
<mgrwt>
<rscale>  0 0.57516450E+03</rscale>
<asrwt>0</asrwt>
<pdfrwt beam="1">  1        2 0.17826249E+00 0.70991546E+03</pdfrwt>
<pdfrwt beam="2">  1       -2 0.38001087E-01 0.70991546E+03</pdfrwt>
<totfact> 0.13324771E+02</totfact>
</mgrwt>
</event>
<event>
 4    5  0.8511149E-008  0.6821626E+03  0.7818608E-02  0.1008126E+00
          2   -1    0    0  501    0  0.00000000000E+00  0.00000000000E+00  0.49342902021E+03  0.49342902022E+03  0.25500000000E-02 0. -1.
         -2   -1    0    0    0  501 -0.00000000000E+00 -0.00000000000E+00 -0.16830878229E+04  0.16830878229E+04  0.25500000000E-02 0.  1.
    8880023    1    1    2    0    0 -0.17583109693E+03 -0.24881088668E+02 -0.15801405132E+04  0.17211013598E+04  0.65864270000E+03 0.  1.
    8880022    1    1    2    0    0  0.17583109693E+03  0.24881088668E+02  0.39048171045E+03  0.45541548330E+03  0.15294330000E+03 0.  0.
<mgrwt>
<rscale>  0 0.52226325E+03</rscale>
<asrwt>0</asrwt>
<pdfrwt beam="1">  1        2 0.75912157E-01 0.68216263E+03</pdfrwt>
<pdfrwt beam="2">  1       -2 0.25893659E+00 0.68216263E+03</pdfrwt>
<totfact> 0.36881594E+00</totfact>
</mgrwt>
</event>
<event>
 4    5  0.8511149E-008  0.1452305E+04  0.7818608E-02  0.8944070E-01
         -2   -1    0    0    0  501 -0.00000000000E+00  0.00000000000E+00  0.12488030534E+04  0.12488030534E+04  0.25500000000E-02 0.  1.
          2   -1    0    0  501    0  0.00000000000E+00 -0.00000000000E+00 -0.21281858458E+04  0.21281858458E+04  0.25500000000E-02 0. -1.
    8880023    1    1    2    0    0  0.16621068818E+03 -0.12836489593E+04  0.44487643678E+03  0.15189160259E+04  0.65864270000E+03 0.  0.
    8880022    1    1    2    0    0 -0.16621068818E+03  0.12836489593E+04 -0.13242592291E+04  0.18580728733E+04  0.15294330000E+03 0.  0.
<mgrwt>
<rscale>  0 0.14135473E+04</rscale>
<asrwt>0</asrwt>
<pdfrwt beam="1">  1        2 0.32741321E+00 0.14523054E+04</pdfrwt>
<pdfrwt beam="2">  1       -2 0.19212355E+00 0.14523054E+04</pdfrwt>
<totfact> 0.80272142E-01</totfact>
</mgrwt>
</event>
<event>
 4    5  0.8511149E-008  0.8933611E+03  0.7818608E-02  0.9536774E-01
         -2   -1    0    0    0  501 -0.00000000000E+00  0.00000000000E+00  0.45387612533E+03  0.45387612534E+03  0.25500000000E-02 0.  1.
          2   -1    0    0  501    0  0.00000000000E+00 -0.00000000000E+00 -0.14865497957E+04  0.14865497957E+04  0.25500000000E-02 0. -1.
    8880023    1    1    2    0    0 -0.37450356253E+02  0.60239636669E+03 -0.22617664392E+03  0.92154760718E+03  0.65864270000E+03 0.  1.
    8880022    1    1    2    0    0  0.37450356253E+02 -0.60239636669E+03 -0.80649702646E+03  0.10188783139E+04  0.15294330000E+03 0.  0.
<mgrwt>
<rscale>  0 0.81626062E+03</rscale>
<asrwt>0</asrwt>
<pdfrwt beam="1">  1        2 0.22869997E+00 0.89336114E+03</pdfrwt>
<pdfrwt beam="2">  1       -2 0.69827097E-01 0.89336114E+03</pdfrwt>
<totfact> 0.24331348E+01</totfact>
</mgrwt>
</event>
<event>
 4    5  0.8511149E-008  0.1338640E+04  0.7818608E-02  0.9032890E-01
          2   -1    0    0  501    0  0.00000000000E+00  0.00000000000E+00  0.22808169061E+04  0.22808169061E+04  0.25500000000E-02 0. -1.
         -2   -1    0    0    0  501 -0.00000000000E+00 -0.00000000000E+00 -0.11820527739E+04  0.11820527739E+04  0.25500000000E-02 0.  1.
    8880023    1    1    2    0    0  0.11438151668E+04  0.22323705478E+03 -0.54228534961E+03  0.14443100516E+04  0.65864270000E+03 0.  0.
    8880022    1    1    2    0    0 -0.11438151668E+04 -0.22323705478E+03  0.16410494819E+04  0.20185596284E+04  0.15294330000E+03 0.  0.
<mgrwt>
<rscale>  0 0.12958161E+04</rscale>
<asrwt>0</asrwt>
<pdfrwt beam="1">  1        2 0.35089491E+00 0.13386404E+04</pdfrwt>
<pdfrwt beam="2">  1       -2 0.18185427E+00 0.13386404E+04</pdfrwt>
<totfact> 0.78358517E-01</totfact>
</mgrwt>
</event>
<event>
 4    5  0.8511149E-008  0.8171048E+03  0.7818608E-02  0.9674964E-01
         -2   -1    0    0    0  501 -0.00000000000E+00  0.00000000000E+00  0.53501286712E+03  0.53501286713E+03  0.25500000000E-02 0.  1.
          2   -1    0    0  501    0  0.00000000000E+00 -0.00000000000E+00 -0.16564156742E+04  0.16564156742E+04  0.25500000000E-02 0. -1.
    8880023    1    1    2    0    0  0.41196607477E+03  0.25324682137E+03  0.14260941670E+03  0.82945623832E+03  0.65864270000E+03 0.  1.
    8880022    1    1    2    0    0 -0.41196607477E+03 -0.25324682137E+03 -0.12640122238E+04  0.13619723030E+04  0.15294330000E+03 0.  0.
<mgrwt>
<rscale>  0 0.72527210E+03</rscale>
<asrwt>0</asrwt>
<pdfrwt beam="1">  1        2 0.25483318E+00 0.81710477E+03</pdfrwt>
<pdfrwt beam="2">  1       -2 0.82309673E-01 0.81710477E+03</pdfrwt>
<totfact> 0.13692920E+01</totfact>
</mgrwt>
</event>
<event>
 4    5  0.8511149E-008  0.7770924E+03  0.7818608E-02  0.9762712E-01
          2   -1    0    0  501    0  0.00000000000E+00  0.00000000000E+00  0.22435900538E+04  0.22435900538E+04  0.25500000000E-02 0. -1.
         -2   -1    0    0    0  501 -0.00000000000E+00 -0.00000000000E+00 -0.12568651179E+04  0.12568651179E+04  0.25500000000E-02 0.  1.
    8880023    1    1    2    0    0  0.33225227457E+03  0.24427618609E+03 -0.11117316675E+04  0.13563996224E+04  0.65864270000E+03 0.  1.
    8880022    1    1    2    0    0 -0.33225227457E+03 -0.24427618609E+03  0.20984566034E+04  0.21440555493E+04  0.15294330000E+03 0.  0.
<mgrwt>
<rscale>  0 0.67402615E+03</rscale>
<asrwt>0</asrwt>
<pdfrwt beam="1">  1        2 0.34516770E+00 0.77709242E+03</pdfrwt>
<pdfrwt beam="2">  1       -2 0.19336387E+00 0.77709242E+03</pdfrwt>
<totfact> 0.74932833E-01</totfact>
</mgrwt>
</event>
<event>
 4    5  0.8511149E-008  0.1010504E+04  0.7818608E-02  0.9367942E-01
         -2   -1    0    0    0  501 -0.00000000000E+00  0.00000000000E+00  0.67313317396E+03  0.67313317397E+03  0.25500000000E-02 0.  1.
          2   -1    0    0  501    0  0.00000000000E+00 -0.00000000000E+00 -0.23298636688E+04  0.23298636688E+04  0.25500000000E-02 0. -1.
    8880023    1    1    2    0    0 -0.67629580493E+03 -0.36046102385E+03  0.16206907877E+03  0.10234181736E+04  0.65864270000E+03 0.  1.
    8880022    1    1    2    0    0  0.67629580493E+03  0.36046102385E+03 -0.18187995736E+04  0.19795786692E+04  0.15294330000E+03 0.  0.
<mgrwt>
<rscale>  0 0.94761518E+03</rscale>
<asrwt>0</asrwt>
<pdfrwt beam="1">  1        2 0.35844056E+00 0.10105040E+04</pdfrwt>
<pdfrwt beam="2">  1       -2 0.10355895E+00 0.10105040E+04</pdfrwt>
<totfact> 0.33255259E+00</totfact>
</mgrwt>
</event>
<event>
 4    5  0.8511149E-008  0.6955890E+03  0.7818608E-02  0.1001602E+00
         -2   -1    0    0    0  501 -0.00000000000E+00  0.00000000000E+00  0.35327444079E+03  0.35327444080E+03  0.25500000000E-02 0.  1.
          2   -1    0    0  501    0  0.00000000000E+00 -0.00000000000E+00 -0.19898778340E+04  0.19898778341E+04  0.25500000000E-02 0. -1.
    8880023    1    1    2    0    0  0.20906098383E+03  0.79544623807E+02 -0.11573536209E+02  0.69568527018E+03  0.65864270000E+03 0.  1.
    8880022    1    1    2    0    0 -0.20906098383E+03 -0.79544623807E+02 -0.16250298571E+04  0.16474670047E+04  0.15294330000E+03 0.  0.
<mgrwt>
<rscale>  0 0.54953504E+03</rscale>
<asrwt>0</asrwt>
<pdfrwt beam="1">  1        2 0.30613504E+00 0.69558899E+03</pdfrwt>
<pdfrwt beam="2">  1       -2 0.54349915E-01 0.69558899E+03</pdfrwt>
<totfact> 0.22463394E+01</totfact>
</mgrwt>
</event>
<event>
 4    5  0.8511149E-008  0.9311021E+03  0.7818608E-02  0.9477842E-01
          2   -1    0    0  501    0  0.00000000000E+00  0.00000000000E+00  0.15564150619E+04  0.15564150619E+04  0.25500000000E-02 0. -1.
         -2   -1    0    0    0  501 -0.00000000000E+00 -0.00000000000E+00 -0.65440492284E+03  0.65440492285E+03  0.25500000000E-02 0.  1.
    8880023    1    1    2    0    0  0.49932365932E+02 -0.65623757868E+03 -0.16721492473E+03  0.94599790600E+03  0.65864270000E+03 0.  0.
    8880022    1    1    2    0    0 -0.49932365932E+02  0.65623757868E+03  0.10692250638E+04  0.12648220787E+04  0.15294330000E+03 0.  0.
<mgrwt>
<rscale>  0 0.85937354E+03</rscale>
<asrwt>0</asrwt>
<pdfrwt beam="1">  1        2 0.23944847E+00 0.93110215E+03</pdfrwt>
<pdfrwt beam="2">  1       -2 0.10067768E+00 0.93110215E+03</pdfrwt>
<totfact> 0.96199201E+00</totfact>
</mgrwt>
</event>
<event>
 4    5  0.8511149E-008  0.9665828E+03  0.7818608E-02  0.9426646E-01
         -2   -1    0    0    0  501 -0.00000000000E+00  0.00000000000E+00  0.63941722472E+03  0.63941722473E+03  0.25500000000E-02 0.  1.
          2   -1    0    0  501    0  0.00000000000E+00 -0.00000000000E+00 -0.13730991627E+04  0.13730991627E+04  0.25500000000E-02 0. -1.
    8880023    1    1    2    0    0 -0.66248140641E+03  0.24817419557E+03  0.21058852742E+02  0.96681214656E+03  0.65864270000E+03 0.  0.
    8880022    1    1    2    0    0  0.66248140641E+03 -0.24817419557E+03 -0.75474079072E+03  0.10457042409E+04  0.15294330000E+03 0.  0.
<mgrwt>
<rscale>  0 0.89914881E+03</rscale>
<asrwt>0</asrwt>
<pdfrwt beam="1">  1        2 0.21124602E+00 0.96658277E+03</pdfrwt>
<pdfrwt beam="2">  1       -2 0.98371881E-01 0.96658277E+03</pdfrwt>
<totfact> 0.12850884E+01</totfact>
</mgrwt>
</event>
<event>
 4    5  0.8511149E-008  0.2299258E+04  0.7818608E-02  0.8487385E-01
         -2   -1    0    0    0  501 -0.00000000000E+00  0.00000000000E+00  0.17284537116E+04  0.17284537116E+04  0.25500000000E-02 0.  1.
          2   -1    0    0  501    0  0.00000000000E+00 -0.00000000000E+00 -0.32996902548E+04  0.32996902548E+04  0.25500000000E-02 0. -1.
    8880023    1    1    2    0    0 -0.16012097051E+03 -0.21970754620E+04  0.31714314391E+02  0.22994771829E+04  0.65864270000E+03 0.  0.
    8880022    1    1    2    0    0  0.16012097051E+03  0.21970754620E+04 -0.16029508576E+04  0.27286667836E+04  0.15294330000E+03 0.  0.
<mgrwt>
<rscale>  0 0.22761491E+04</rscale>
<asrwt>0</asrwt>
<pdfrwt beam="1">  1        2 0.50764465E+00 0.22992585E+04</pdfrwt>
<pdfrwt beam="2">  1       -2 0.26591596E+00 0.22992585E+04</pdfrwt>
<totfact> 0.49236573E-02</totfact>
</mgrwt>
</event>
<event>
 4    5  0.8511149E-008  0.7336019E+03  0.7818608E-02  0.9878992E-01
         -2   -1    0    0    0  501 -0.00000000000E+00  0.00000000000E+00  0.13053907085E+04  0.13053907085E+04  0.25500000000E-02 0.  1.
          2   -1    0    0  501    0  0.00000000000E+00 -0.00000000000E+00 -0.27515426758E+03  0.27515426759E+03  0.25500000000E-02 0. -1.
    8880023    1    1    2    0    0  0.14814835959E+03 -0.28707757616E+03  0.97300078371E+03  0.12185656333E+04  0.65864270000E+03 0.  1.
    8880022    1    1    2    0    0 -0.14814835959E+03  0.28707757616E+03  0.57235657239E+02  0.36197934286E+03  0.15294330000E+03 0.  0.
<mgrwt>
<rscale>  0 0.61290301E+03</rscale>
<asrwt>0</asrwt>
<pdfrwt beam="1">  1        2 0.42331426E-01 0.73360185E+03</pdfrwt>
<pdfrwt beam="2">  1       -2 0.20082934E+00 0.73360185E+03</pdfrwt>
<totfact> 0.16178376E+01</totfact>
</mgrwt>
</event>
<event>
 4    5  0.8511149E-008  0.8186005E+03  0.7818608E-02  0.9671933E-01
         -2   -1    0    0    0  501 -0.00000000000E+00  0.00000000000E+00  0.14971285046E+04  0.14971285046E+04  0.25500000000E-02 0.  1.
          2   -1    0    0  501    0  0.00000000000E+00 -0.00000000000E+00 -0.54670408365E+03  0.54670408366E+03  0.25500000000E-02 0. -1.
    8880023    1    1    2    0    0  0.40604289202E+03  0.26725585224E+03  0.12185664359E+04  0.14679955333E+04  0.65864270000E+03 0.  1.
    8880022    1    1    2    0    0 -0.40604289202E+03 -0.26725585224E+03 -0.26814201495E+03  0.57583705500E+03  0.15294330000E+03 0.  0.
<mgrwt>
<rscale>  0 0.72712740E+03</rscale>
<asrwt>0</asrwt>
<pdfrwt beam="1">  1        2 0.84108320E-01 0.81860047E+03</pdfrwt>
<pdfrwt beam="2">  1       -2 0.23032746E+00 0.81860047E+03</pdfrwt>
<totfact> 0.47967787E+00</totfact>
</mgrwt>
</event>
<event>
 4    5  0.8511149E-008  0.1227139E+04  0.7818608E-02  0.9131182E-01
          2   -1    0    0  501    0  0.00000000000E+00  0.00000000000E+00  0.25983853883E+04  0.25983853883E+04  0.25500000000E-02 0. -1.
         -2   -1    0    0    0  501 -0.00000000000E+00 -0.00000000000E+00 -0.59058321838E+03  0.59058321839E+03  0.25500000000E-02 0.  1.
    8880023    1    1    2    0    0  0.94532731073E+03  0.42239376323E+03  0.43945372938E+03  0.13034531070E+04  0.65864270000E+03 0.  0.
    8880022    1    1    2    0    0 -0.94532731073E+03 -0.42239376323E+03  0.15683484405E+04  0.18855154997E+04  0.15294330000E+03 0.  0.
<mgrwt>
<rscale>  0 0.11792870E+04</rscale>
<asrwt>0</asrwt>
<pdfrwt beam="1">  1        2 0.39975159E+00 0.12271391E+04</pdfrwt>
<pdfrwt beam="2">  1       -2 0.90858958E-01 0.12271391E+04</pdfrwt>
<totfact> 0.30989320E+00</totfact>
</mgrwt>
</event>
<event>
 4    5  0.8511149E-008  0.7673996E+03  0.7818608E-02  0.9786314E-01
         -2   -1    0    0    0  501 -0.00000000000E+00  0.00000000000E+00  0.97293843702E+03  0.97293843702E+03  0.25500000000E-02 0.  1.
          2   -1    0    0  501    0  0.00000000000E+00 -0.00000000000E+00 -0.12621504517E+04  0.12621504517E+04  0.25500000000E-02 0. -1.
    8880023    1    1    2    0    0 -0.31027320348E+03 -0.24253360174E+03  0.77465354148E+03  0.10904083292E+04  0.65864270000E+03 0.  1.
    8880022    1    1    2    0    0  0.31027320348E+03  0.24253360174E+03 -0.10638655562E+04  0.11446805596E+04  0.15294330000E+03 0.  0.
<mgrwt>
<rscale>  0 0.66102214E+03</rscale>
<asrwt>0</asrwt>
<pdfrwt beam="1">  1        2 0.19417699E+00 0.76739964E+03</pdfrwt>
<pdfrwt beam="2">  1       -2 0.14968284E+00 0.76739964E+03</pdfrwt>
<totfact> 0.53459516E+00</totfact>
</mgrwt>
</event>
<event>
 4    5  0.8511149E-008  0.7246257E+03  0.7818608E-02  0.9907234E-01
         -2   -1    0    0    0  501 -0.00000000000E+00  0.00000000000E+00  0.42988898139E+03  0.42988898139E+03  0.25500000000E-02 0.  1.
          2   -1    0    0  501    0  0.00000000000E+00 -0.00000000000E+00 -0.66918600624E+03  0.66918600624E+03  0.25500000000E-02 0. -1.
    8880023    1    1    2    0    0  0.12171915002E+02 -0.30186766002E+03 -0.23027296451E+03  0.76033419240E+03  0.65864270000E+03 0.  1.
    8880022    1    1    2    0    0 -0.12171915002E+02  0.30186766002E+03 -0.90240603466E+01  0.33874079524E+03  0.15294330000E+03 0. -1.
<mgrwt>
<rscale>  0 0.59911977E+03</rscale>
<asrwt>0</asrwt>
<pdfrwt beam="1">  1        2 0.10295169E+00 0.72462573E+03</pdfrwt>
<pdfrwt beam="2">  1       -2 0.66136766E-01 0.72462573E+03</pdfrwt>
<totfact> 0.92426540E+01</totfact>
</mgrwt>
</event>
<event>
 4    5  0.8511149E-008  0.1315839E+04  0.7818608E-02  0.9052001E-01
         -2   -1    0    0    0  501 -0.00000000000E+00  0.00000000000E+00  0.10719766572E+04  0.10719766572E+04  0.25500000000E-02 0.  1.
          2   -1    0    0  501    0  0.00000000000E+00 -0.00000000000E+00 -0.30919748064E+04  0.30919748064E+04  0.25500000000E-02 0. -1.
    8880023    1    1    2    0    0  0.91991265567E+03 -0.67185093012E+03  0.48936688720E+03  0.14038921336E+04  0.65864270000E+03 0.  0.
    8880022    1    1    2    0    0 -0.91991265567E+03  0.67185093012E+03 -0.25093650363E+04  0.27600593300E+04  0.15294330000E+03 0.  0.
<mgrwt>
<rscale>  0 0.12720835E+04</rscale>
<asrwt>0</asrwt>
<pdfrwt beam="1">  1        2 0.47568843E+00 0.13158393E+04</pdfrwt>
<pdfrwt beam="2">  1       -2 0.16491949E+00 0.13158393E+04</pdfrwt>
<totfact> 0.34214082E-01</totfact>
</mgrwt>
</event>
<event>
 4    5  0.8511149E-008  0.1232321E+04  0.7818608E-02  0.9126326E-01
         -2   -1    0    0    0  501 -0.00000000000E+00  0.00000000000E+00  0.46366913566E+03  0.46366913567E+03  0.25500000000E-02 0.  1.
          2   -1    0    0  501    0  0.00000000000E+00 -0.00000000000E+00 -0.34894944732E+04  0.34894944732E+04  0.25500000000E-02 0. -1.
    8880023    1    1    2    0    0 -0.10076195556E+04 -0.26364540342E+03 -0.74217463694E+03  0.14385546446E+04  0.65864270000E+03 0.  0.
    8880022    1    1    2    0    0  0.10076195556E+04  0.26364540342E+03 -0.22836507006E+04  0.25146089642E+04  0.15294330000E+03 0.  0.
<mgrwt>
<rscale>  0 0.11847322E+04</rscale>
<asrwt>0</asrwt>
<pdfrwt beam="1">  1        2 0.53684529E+00 0.12323215E+04</pdfrwt>
<pdfrwt beam="2">  1       -2 0.71333715E-01 0.12323215E+04</pdfrwt>
<totfact> 0.14749626E+00</totfact>
</mgrwt>
</event>
<event>
 4    5  0.8511149E-008  0.1100807E+04  0.7818608E-02  0.9260158E-01
         -2   -1    0    0    0  501 -0.00000000000E+00  0.00000000000E+00  0.12245158429E+04  0.12245158429E+04  0.25500000000E-02 0.  1.
          2   -1    0    0  501    0  0.00000000000E+00 -0.00000000000E+00 -0.17230365273E+04  0.17230365273E+04  0.25500000000E-02 0. -1.
    8880023    1    1    2    0    0 -0.87488984011E+03  0.11195450726E+03  0.80676833555E+03  0.13647898730E+04  0.65864270000E+03 0.  1.
    8880022    1    1    2    0    0  0.87488984011E+03 -0.11195450726E+03 -0.13052890200E+04  0.15827624972E+04  0.15294330000E+03 0.  0.
<mgrwt>
<rscale>  0 0.10453500E+04</rscale>
<asrwt>0</asrwt>
<pdfrwt beam="1">  1        2 0.26508254E+00 0.11008071E+04</pdfrwt>
<pdfrwt beam="2">  1       -2 0.18838705E+00 0.11008071E+04</pdfrwt>
<totfact> 0.14857682E+00</totfact>
</mgrwt>
</event>
<event>
 4    5  0.8511149E-008  0.2693095E+04  0.7818608E-02  0.8343636E-01
          2   -1    0    0  501    0  0.00000000000E+00  0.00000000000E+00  0.31490876483E+04  0.31490876484E+04  0.25500000000E-02 0. -1.
         -2   -1    0    0    0  501 -0.00000000000E+00 -0.00000000000E+00 -0.23505649923E+04  0.23505649923E+04  0.25500000000E-02 0.  1.
    8880023    1    1    2    0    0 -0.22128408159E+04 -0.13864648517E+04 -0.19825827935E+03  0.27003825309E+04  0.65864270000E+03 0.  0.
    8880022    1    1    2    0    0  0.22128408159E+04  0.13864648517E+04  0.99678093540E+03  0.27992701098E+04  0.15294330000E+03 0.  0.
<mgrwt>
<rscale>  0 0.26735562E+04</rscale>
<asrwt>0</asrwt>
<pdfrwt beam="1">  1        2 0.48447502E+00 0.26930948E+04</pdfrwt>
<pdfrwt beam="2">  1       -2 0.36162538E+00 0.26930948E+04</pdfrwt>
<totfact> 0.15111925E-02</totfact>
</mgrwt>
</event>
<event>
 4    5  0.8511149E-008  0.7139273E+03  0.7818608E-02  0.9943696E-01
         -2   -1    0    0    0  501 -0.00000000000E+00  0.00000000000E+00  0.15151610237E+04  0.15151610237E+04  0.25500000000E-02 0.  1.
          2   -1    0    0  501    0  0.00000000000E+00 -0.00000000000E+00 -0.48149116376E+03  0.48149116377E+03  0.25500000000E-02 0. -1.
    8880023    1    1    2    0    0  0.27144675252E+03 -0.46889870260E+02  0.13643797220E+04  0.15398779924E+04  0.65864270000E+03 0.  0.
    8880022    1    1    2    0    0 -0.27144675252E+03  0.46889870260E+02 -0.33070986207E+03  0.45677419506E+03  0.15294330000E+03 0.  0.
<mgrwt>
<rscale>  0 0.58189516E+03</rscale>
<asrwt>0</asrwt>
<pdfrwt beam="1">  1        2 0.74075563E-01 0.71392731E+03</pdfrwt>
<pdfrwt beam="2">  1       -2 0.23310170E+00 0.71392731E+03</pdfrwt>
<totfact> 0.54185530E+00</totfact>
</mgrwt>
</event>
<event>
 4    5  0.8511149E-008  0.7468067E+03  0.7818608E-02  0.9840545E-01
         -2   -1    0    0    0  501 -0.00000000000E+00  0.00000000000E+00  0.50511576887E+03  0.50511576887E+03  0.25500000000E-02 0.  1.
          2   -1    0    0  501    0  0.00000000000E+00 -0.00000000000E+00 -0.15616701563E+04  0.15616701563E+04  0.25500000000E-02 0. -1.
    8880023    1    1    2    0    0 -0.31035050597E+03  0.16611041612E+03  0.18322840632E+03  0.76895576079E+03  0.65864270000E+03 0.  1.
    8880022    1    1    2    0    0  0.31035050597E+03 -0.16611041612E+03 -0.12397827938E+04  0.12978301644E+04  0.15294330000E+03 0.  0.
<mgrwt>
<rscale>  0 0.63231308E+03</rscale>
<asrwt>0</asrwt>
<pdfrwt beam="1">  1        2 0.24025695E+00 0.74680674E+03</pdfrwt>
<pdfrwt beam="2">  1       -2 0.77710119E-01 0.74680674E+03</pdfrwt>
<totfact> 0.17731907E+01</totfact>
</mgrwt>
</event>
<event>
 4    5  0.8511149E-008  0.1332875E+04  0.7818608E-02  0.9037677E-01
         -2   -1    0    0    0  501 -0.00000000000E+00  0.00000000000E+00  0.12281316898E+04  0.12281316898E+04  0.25500000000E-02 0.  1.
          2   -1    0    0  501    0  0.00000000000E+00 -0.00000000000E+00 -0.20801606913E+04  0.20801606913E+04  0.25500000000E-02 0. -1.
    8880023    1    1    2    0    0 -0.11416948794E+04 -0.19819013912E+03  0.58528995953E+03  0.14557201214E+04  0.65864270000E+03 0.  0.
    8880022    1    1    2    0    0  0.11416948794E+04  0.19819013912E+03 -0.14373189610E+04  0.18525722597E+04  0.15294330000E+03 0.  0.
<mgrwt>
<rscale>  0 0.12898196E+04</rscale>
<asrwt>0</asrwt>
<pdfrwt beam="1">  1        2 0.32002472E+00 0.13328754E+04</pdfrwt>
<pdfrwt beam="2">  1       -2 0.18894334E+00 0.13328754E+04</pdfrwt>
<totfact> 0.90871460E-01</totfact>
</mgrwt>
</event>
<event>
 4    5  0.8511149E-008  0.1012906E+04  0.7818608E-02  0.9364864E-01
          2   -1    0    0  501    0  0.00000000000E+00  0.00000000000E+00  0.16406752448E+04  0.16406752448E+04  0.25500000000E-02 0. -1.
         -2   -1    0    0    0  501 -0.00000000000E+00 -0.00000000000E+00 -0.87000214776E+03  0.87000214776E+03  0.25500000000E-02 0.  1.
    8880023    1    1    2    0    0  0.73928039785E+03 -0.21361766063E+03 -0.41029219681E+03  0.10928485277E+04  0.65864270000E+03 0.  0.
    8880022    1    1    2    0    0 -0.73928039785E+03  0.21361766063E+03  0.11809652938E+04  0.14178288648E+04  0.15294330000E+03 0.  0.
<mgrwt>
<rscale>  0 0.95024495E+03</rscale>
<asrwt>0</asrwt>
<pdfrwt beam="1">  1        2 0.25241158E+00 0.10129058E+04</pdfrwt>
<pdfrwt beam="2">  1       -2 0.13384648E+00 0.10129058E+04</pdfrwt>
<totfact> 0.42371267E+00</totfact>
</mgrwt>
</event>
<event>
 4    5  0.8511149E-008  0.1556558E+04  0.7818608E-02  0.8870697E-01
          2   -1    0    0  501    0  0.00000000000E+00  0.00000000000E+00  0.35738754782E+04  0.35738754782E+04  0.25500000000E-02 0. -1.
         -2   -1    0    0    0  501 -0.00000000000E+00 -0.00000000000E+00 -0.87687061206E+03  0.87687061207E+03  0.25500000000E-02 0.  1.
    8880023    1    1    2    0    0  0.11494954643E+04  0.81714359912E+03  0.18721191459E+03  0.15677761292E+04  0.65864270000E+03 0.  0.
    8880022    1    1    2    0    0 -0.11494954643E+04 -0.81714359912E+03  0.25097929516E+04  0.28829699611E+04  0.15294330000E+03 0.  0.
<mgrwt>
<rscale>  0 0.15208620E+04</rscale>
<asrwt>0</asrwt>
<pdfrwt beam="1">  1        2 0.54982699E+00 0.15565583E+04</pdfrwt>
<pdfrwt beam="2">  1       -2 0.13490317E+00 0.15565583E+04</pdfrwt>
<totfact> 0.27058977E-01</totfact>
</mgrwt>
</event>
<event>
 4    5  0.8511149E-008  0.1134928E+04  0.7818608E-02  0.9223130E-01
          2   -1    0    0  501    0  0.00000000000E+00  0.00000000000E+00  0.29571344213E+04  0.29571344213E+04  0.25500000000E-02 0. -1.
         -2   -1    0    0    0  501 -0.00000000000E+00 -0.00000000000E+00 -0.65640693504E+03  0.65640693505E+03  0.25500000000E-02 0.  1.
    8880023    1    1    2    0    0  0.11208245533E+03 -0.91743567398E+03  0.59933332007E+01  0.11349435312E+04  0.65864270000E+03 0.  1.
    8880022    1    1    2    0    0 -0.11208245533E+03  0.91743567398E+03  0.22947341531E+04  0.24785978252E+04  0.15294330000E+03 0.  0.
<mgrwt>
<rscale>  0 0.10817847E+04</rscale>
<asrwt>0</asrwt>
<pdfrwt beam="1">  1        2 0.45494375E+00 0.11349277E+04</pdfrwt>
<pdfrwt beam="2">  1       -2 0.10098568E+00 0.11349277E+04</pdfrwt>
<totfact> 0.14919911E+00</totfact>
</mgrwt>
</event>
<event>
 4    5  0.8511149E-008  0.8111033E+03  0.7818608E-02  0.9687283E-01
          2   -1    0    0  501    0  0.00000000000E+00  0.00000000000E+00  0.11186284152E+04  0.11186284152E+04  0.25500000000E-02 0. -1.
         -2   -1    0    0    0  501 -0.00000000000E+00 -0.00000000000E+00 -0.16492242773E+04  0.16492242774E+04  0.25500000000E-02 0.  1.
    8880023    1    1    2    0    0 -0.13651608120E+03 -0.45325680166E+03 -0.14847216333E+04  0.16918294545E+04  0.65864270000E+03 0.  1.
    8880022    1    1    2    0    0  0.13651608120E+03  0.45325680166E+03  0.95412577112E+03  0.10760232380E+04  0.15294330000E+03 0.  0.
<mgrwt>
<rscale>  0 0.71779008E+03</rscale>
<asrwt>0</asrwt>
<pdfrwt beam="1">  1        2 0.17209668E+00 0.81110331E+03</pdfrwt>
<pdfrwt beam="2">  1       -2 0.25372681E+00 0.81110331E+03</pdfrwt>
<totfact> 0.13266213E+00</totfact>
</mgrwt>
</event>
<event>
 4    5  0.8511149E-008  0.9494148E+03  0.7818608E-02  0.9450957E-01
         -2   -1    0    0    0  501 -0.00000000000E+00  0.00000000000E+00  0.26761651554E+04  0.26761651554E+04  0.25500000000E-02 0.  1.
          2   -1    0    0  501    0  0.00000000000E+00 -0.00000000000E+00 -0.43579506629E+03  0.43579506630E+03  0.25500000000E-02 0. -1.
    8880023    1    1    2    0    0 -0.86203159295E+02 -0.67834159439E+03  0.22160292230E+04  0.24108450856E+04  0.65864270000E+03 0.  0.
    8880022    1    1    2    0    0  0.86203159295E+02  0.67834159439E+03  0.24340866164E+02  0.70111513615E+03  0.15294330000E+03 0.  0.
<mgrwt>
<rscale>  0 0.87998217E+03</rscale>
<asrwt>0</asrwt>
<pdfrwt beam="1">  1        2 0.67045393E-01 0.94941482E+03</pdfrwt>
<pdfrwt beam="2">  1       -2 0.41171773E+00 0.94941482E+03</pdfrwt>
<totfact> 0.46174401E-01</totfact>
</mgrwt>
</event>
<event>
 4    5  0.8511149E-008  0.7210426E+03  0.7818608E-02  0.9919074E-01
          2   -1    0    0  501    0  0.00000000000E+00  0.00000000000E+00  0.15021825833E+04  0.15021825833E+04  0.25500000000E-02 0. -1.
         -2   -1    0    0    0  501 -0.00000000000E+00 -0.00000000000E+00 -0.12544808593E+04  0.12544808593E+04  0.25500000000E-02 0.  1.
    8880023    1    1    2    0    0 -0.26110926008E+03 -0.13384390750E+03 -0.11296341687E+04  0.13401402160E+04  0.65864270000E+03 0.  1.
    8880022    1    1    2    0    0  0.26110926008E+03  0.13384390750E+03  0.13773358926E+04  0.14165232266E+04  0.15294330000E+03 0.  0.
<mgrwt>
<rscale>  0 0.59345730E+03</rscale>
<asrwt>0</asrwt>
<pdfrwt beam="1">  1        2 0.23110501E+00 0.72104261E+03</pdfrwt>
<pdfrwt beam="2">  1       -2 0.19299706E+00 0.72104261E+03</pdfrwt>
<totfact> 0.19420637E+00</totfact>
</mgrwt>
</event>
<event>
 4    5  0.8511149E-008  0.1904663E+04  0.7818608E-02  0.8666748E-01
          2   -1    0    0  501    0  0.00000000000E+00  0.00000000000E+00  0.25437434918E+04  0.25437434918E+04  0.25500000000E-02 0. -1.
         -2   -1    0    0    0  501 -0.00000000000E+00 -0.00000000000E+00 -0.21455191245E+04  0.21455191245E+04  0.25500000000E-02 0.  1.
    8880023    1    1    2    0    0  0.12809396403E+04 -0.12462434786E+04  0.16352824138E+04  0.25103561399E+04  0.65864270000E+03 0.  0.
    8880022    1    1    2    0    0 -0.12809396403E+04  0.12462434786E+04 -0.12370580464E+04  0.21789064764E+04  0.15294330000E+03 0.  0.
<mgrwt>
<rscale>  0 0.18762916E+04</rscale>
<asrwt>0</asrwt>
<pdfrwt beam="1">  1        2 0.39134515E+00 0.19046625E+04</pdfrwt>
<pdfrwt beam="2">  1       -2 0.33007987E+00 0.19046625E+04</pdfrwt>
<totfact> 0.60836455E-02</totfact>
</mgrwt>
</event>
<event>
 4    5  0.8511149E-008  0.7398448E+03  0.7818608E-02  0.9860399E-01
         -2   -1    0    0    0  501 -0.00000000000E+00  0.00000000000E+00  0.54659056459E+03  0.54659056459E+03  0.25500000000E-02 0.  1.
          2   -1    0    0  501    0  0.00000000000E+00 -0.00000000000E+00 -0.74106436671E+03  0.74106436671E+03  0.25500000000E-02 0. -1.
    8880023    1    1    2    0    0 -0.26719558636E+03  0.20534525844E+03  0.17973317587E+03  0.76136349880E+03  0.65864270000E+03 0.  1.
    8880022    1    1    2    0    0  0.26719558636E+03 -0.20534525844E+03 -0.37420697800E+03  0.52629143251E+03  0.15294330000E+03 0.  0.
<mgrwt>
<rscale>  0 0.62219491E+03</rscale>
<asrwt>0</asrwt>
<pdfrwt beam="1">  1        2 0.11400990E+00 0.73984482E+03</pdfrwt>
<pdfrwt beam="2">  1       -2 0.84090856E-01 0.73984482E+03</pdfrwt>
<totfact> 0.47690691E+01</totfact>
</mgrwt>
</event>
<event>
 4    5  0.8511149E-008  0.6814500E+03  0.7818608E-02  0.1008515E+00
         -2   -1    0    0    0  501 -0.00000000000E+00  0.00000000000E+00  0.15847820314E+03  0.15847820316E+03  0.25500000000E-02 0.  1.
          2   -1    0    0  501    0  0.00000000000E+00 -0.00000000000E+00 -0.27340824298E+04  0.27340824298E+04  0.25500000000E-02 0. -1.
    8880023    1    1    2    0    0 -0.15760640680E+03  0.75658316036E+02 -0.61403389118E+03  0.91728500807E+03  0.65864270000E+03 0.  1.
    8880022    1    1    2    0    0  0.15760640680E+03 -0.75658316036E+02 -0.19615703355E+04  0.19752756249E+04  0.15294330000E+03 0.  0.
<mgrwt>
<rscale>  0 0.52069103E+03</rscale>
<asrwt>0</asrwt>
<pdfrwt beam="1">  1        2 0.42062803E+00 0.68145005E+03</pdfrwt>
<pdfrwt beam="2">  1       -2 0.24381264E-01 0.68145005E+03</pdfrwt>
<totfact> 0.40246619E+01</totfact>
</mgrwt>
</event>
<event>
 4    5  0.8511149E-008  0.8684699E+03  0.7818608E-02  0.9578671E-01
         -2   -1    0    0    0  501 -0.00000000000E+00  0.00000000000E+00  0.62000532570E+03  0.62000532570E+03  0.25500000000E-02 0.  1.
          2   -1    0    0  501    0  0.00000000000E+00 -0.00000000000E+00 -0.24559236949E+04  0.24559236949E+04  0.25500000000E-02 0. -1.
    8880023    1    1    2    0    0  0.16845006607E+03 -0.54042045415E+03  0.25437005990E+03  0.90495526169E+03  0.65864270000E+03 0.  1.
    8880022    1    1    2    0    0 -0.16845006607E+03  0.54042045415E+03 -0.20902884292E+04  0.21709737590E+04  0.15294330000E+03 0.  0.
<mgrwt>
<rscale>  0 0.78724093E+03</rscale>
<asrwt>0</asrwt>
<pdfrwt beam="1">  1        2 0.37783441E+00 0.86846986E+03</pdfrwt>
<pdfrwt beam="2">  1       -2 0.95385436E-01 0.86846986E+03</pdfrwt>
<totfact> 0.35027798E+00</totfact>
</mgrwt>
</event>
<event>
 4    5  0.8511149E-008  0.9060167E+03  0.7818608E-02  0.9516441E-01
          2   -1    0    0  501    0  0.00000000000E+00  0.00000000000E+00  0.23208014177E+04  0.23208014177E+04  0.25500000000E-02 0. -1.
         -2   -1    0    0    0  501 -0.00000000000E+00 -0.00000000000E+00 -0.72767332912E+03  0.72767332913E+03  0.25500000000E-02 0.  1.
    8880023    1    1    2    0    0  0.61449823619E+03  0.97200604495E+02 -0.37360535667E+03  0.98002408572E+03  0.65864270000E+03 0.  0.
    8880022    1    1    2    0    0 -0.61449823619E+03 -0.97200604495E+02  0.19667334452E+04  0.20684506611E+04  0.15294330000E+03 0.  0.
<mgrwt>
<rscale>  0 0.83082466E+03</rscale>
<asrwt>0</asrwt>
<pdfrwt beam="1">  1        2 0.35704637E+00 0.90601669E+03</pdfrwt>
<pdfrwt beam="2">  1       -2 0.11194974E+00 0.90601669E+03</pdfrwt>
<totfact> 0.28280590E+00</totfact>
</mgrwt>
</event>
<event>
 4    5  0.8511149E-008  0.8390872E+03  0.7818608E-02  0.9631904E-01
         -2   -1    0    0    0  501 -0.00000000000E+00  0.00000000000E+00  0.11699939960E+04  0.11699939960E+04  0.25500000000E-02 0.  1.
          2   -1    0    0  501    0  0.00000000000E+00 -0.00000000000E+00 -0.89830098467E+03  0.89830098467E+03  0.25500000000E-02 0. -1.
    8880023    1    1    2    0    0  0.38878336994E+03 -0.34511547436E+03  0.90543934176E+03  0.12344585077E+04  0.65864270000E+03 0.  0.
    8880022    1    1    2    0    0 -0.38878336994E+03  0.34511547436E+03 -0.63374633040E+03  0.83383647299E+03  0.15294330000E+03 0.  0.
<mgrwt>
<rscale>  0 0.75220095E+03</rscale>
<asrwt>0</asrwt>
<pdfrwt beam="1">  1        2 0.13820015E+00 0.83908725E+03</pdfrwt>
<pdfrwt beam="2">  1       -2 0.17999908E+00 0.83908725E+03</pdfrwt>
<totfact> 0.53783010E+00</totfact>
</mgrwt>
</event>
<event>
 4    5  0.8511149E-008  0.1626690E+04  0.7818608E-02  0.8824997E-01
         -2   -1    0    0    0  501 -0.00000000000E+00  0.00000000000E+00  0.13414452264E+04  0.13414452264E+04  0.25500000000E-02 0.  1.
          2   -1    0    0  501    0  0.00000000000E+00 -0.00000000000E+00 -0.21486813726E+04  0.21486813726E+04  0.25500000000E-02 0. -1.
    8880023    1    1    2    0    0 -0.12929381481E+04 -0.73526848747E+03  0.26775216948E+03  0.16485782463E+04  0.65864270000E+03 0.  0.
    8880022    1    1    2    0    0  0.12929381481E+04  0.73526848747E+03 -0.10749883156E+04  0.18415483527E+04  0.15294330000E+03 0.  0.
<mgrwt>
<rscale>  0 0.15927779E+04</rscale>
<asrwt>0</asrwt>
<pdfrwt beam="1">  1        2 0.33056636E+00 0.16266896E+04</pdfrwt>
<pdfrwt beam="2">  1       -2 0.20637619E+00 0.16266896E+04</pdfrwt>
<totfact> 0.61820767E-01</totfact>
</mgrwt>
</event>
<event>
 4    5  0.8511149E-008  0.6779975E+03  0.7818608E-02  0.1010480E+00
         -2   -1    0    0    0  501 -0.00000000000E+00  0.00000000000E+00  0.94400468156E+02  0.94400468191E+02  0.25500000000E-02 0.  1.
          2   -1    0    0  501    0  0.00000000000E+00 -0.00000000000E+00 -0.27614523303E+04  0.27614523303E+04  0.25500000000E-02 0. -1.
    8880023    1    1    2    0    0  0.16063783238E+03  0.81196716684E+01 -0.12546961925E+04  0.14261637999E+04  0.65864270000E+03 0.  1.
    8880022    1    1    2    0    0 -0.16063783238E+03 -0.81196716684E+01 -0.14123556696E+04  0.14296889986E+04  0.15294330000E+03 0.  0.
<mgrwt>
<rscale>  0 0.51284390E+03</rscale>
<asrwt>0</asrwt>
<pdfrwt beam="1">  1        2 0.42483876E+00 0.67799753E+03</pdfrwt>
<pdfrwt beam="2">  1       -2 0.14523151E-01 0.67799753E+03</pdfrwt>
<totfact> 0.95368926E+01</totfact>
</mgrwt>
</event>
<event>
 4    5  0.8511149E-008  0.1140170E+04  0.7818608E-02  0.9217597E-01
         -2   -1    0    0    0  501 -0.00000000000E+00  0.00000000000E+00  0.39156470664E+03  0.39156470665E+03  0.25500000000E-02 0.  1.
          2   -1    0    0  501    0  0.00000000000E+00 -0.00000000000E+00 -0.39262238230E+04  0.39262238230E+04  0.25500000000E-02 0. -1.
    8880023    1    1    2    0    0  0.76477790215E+03  0.53036951151E+03 -0.71799322964E+03  0.13474054855E+04  0.65864270000E+03 0.  0.
    8880022    1    1    2    0    0 -0.76477790215E+03 -0.53036951151E+03 -0.28166658867E+04  0.29703830441E+04  0.15294330000E+03 0.  0.
<mgrwt>
<rscale>  0 0.10873631E+04</rscale>
<asrwt>0</asrwt>
<pdfrwt beam="1">  1        2 0.60403441E+00 0.11401698E+04</pdfrwt>
<pdfrwt beam="2">  1       -2 0.60240727E-01 0.11401698E+04</pdfrwt>
<totfact> 0.10337323E+00</totfact>
</mgrwt>
</event>
<event>
 4    5  0.8511149E-008  0.7120367E+03  0.7818608E-02  0.9950514E-01
         -2   -1    0    0    0  501 -0.00000000000E+00  0.00000000000E+00  0.70774704316E+03  0.70774704317E+03  0.25500000000E-02 0.  1.
          2   -1    0    0  501    0  0.00000000000E+00 -0.00000000000E+00 -0.14737037236E+04  0.14737037236E+04  0.25500000000E-02 0. -1.
    8880023    1    1    2    0    0 -0.10013063804E+03  0.25131647369E+03  0.50507301694E+03  0.87298056870E+03  0.65864270000E+03 0.  1.
    8880022    1    1    2    0    0  0.10013063804E+03 -0.25131647369E+03 -0.12710296974E+04  0.13084701981E+04  0.15294330000E+03 0.  0.
<mgrwt>
<rscale>  0 0.57874393E+03</rscale>
<asrwt>0</asrwt>
<pdfrwt beam="1">  1        2 0.22672365E+00 0.71203674E+03</pdfrwt>
<pdfrwt beam="2">  1       -2 0.10888416E+00 0.71203674E+03</pdfrwt>
<totfact> 0.91101131E+00</totfact>
</mgrwt>
</event>
<event>
 4    5  0.8511149E-008  0.6700012E+03  0.7818608E-02  0.1015662E+00
         -2   -1    0    0    0  501 -0.00000000000E+00  0.00000000000E+00  0.11845870412E+04  0.11845870412E+04  0.25500000000E-02 0.  1.
          2   -1    0    0  501    0  0.00000000000E+00 -0.00000000000E+00 -0.10220911837E+04  0.10220911837E+04  0.25500000000E-02 0. -1.
    8880023    1    1    2    0    0  0.64422266620E+02 -0.10460018343E+03  0.10786274235E+04  0.12697790169E+04  0.65864270000E+03 0.  1.
    8880022    1    1    2    0    0 -0.64422266620E+02  0.10460018343E+03 -0.91613156599E+03  0.93689920805E+03  0.15294330000E+03 0.  0.
<mgrwt>
<rscale>  0 0.49285075E+03</rscale>
<asrwt>0</asrwt>
<pdfrwt beam="1">  1        2 0.15724480E+00 0.67000122E+03</pdfrwt>
<pdfrwt beam="2">  1       -2 0.18224416E+00 0.67000122E+03</pdfrwt>
<totfact> 0.44125602E+00</totfact>
</mgrwt>
</event>
<event>
 4    5  0.8511149E-008  0.1056086E+04  0.7818608E-02  0.9311601E-01
          2   -1    0    0  501    0  0.00000000000E+00  0.00000000000E+00  0.12392169815E+04  0.12392169815E+04  0.25500000000E-02 0. -1.
         -2   -1    0    0    0  501 -0.00000000000E+00 -0.00000000000E+00 -0.11717880546E+04  0.11717880546E+04  0.25500000000E-02 0.  1.
    8880023    1    1    2    0    0 -0.65858580387E+03  0.49776699409E+03 -0.70530156909E+03  0.12699479324E+04  0.65864270000E+03 0.  1.
    8880022    1    1    2    0    0  0.65858580387E+03 -0.49776699409E+03  0.77273049593E+03  0.11410571037E+04  0.15294330000E+03 0.  0.
<mgrwt>
<rscale>  0 0.99721842E+03</rscale>
<asrwt>0</asrwt>
<pdfrwt beam="1">  1        2 0.19064876E+00 0.10560859E+04</pdfrwt>
<pdfrwt beam="2">  1       -2 0.18027509E+00 0.10560859E+04</pdfrwt>
<totfact> 0.31930457E+00</totfact>
</mgrwt>
</event>
<event>
 4    5  0.8511149E-008  0.7901278E+03  0.7818608E-02  0.9732563E-01
         -2   -1    0    0    0  501 -0.00000000000E+00  0.00000000000E+00  0.72383158036E+03  0.72383158037E+03  0.25500000000E-02 0.  1.
          2   -1    0    0  501    0  0.00000000000E+00 -0.00000000000E+00 -0.20113571728E+04  0.20113571728E+04  0.25500000000E-02 0. -1.
    8880023    1    1    2    0    0 -0.32904799474E+03 -0.28673880458E+03  0.46897488350E+03  0.91882499558E+03  0.65864270000E+03 0.  1.
    8880022    1    1    2    0    0  0.32904799474E+03  0.28673880458E+03 -0.17565004759E+04  0.18163637575E+04  0.15294330000E+03 0.  0.
<mgrwt>
<rscale>  0 0.69110675E+03</rscale>
<asrwt>0</asrwt>
<pdfrwt beam="1">  1        2 0.30943956E+00 0.79012779E+03</pdfrwt>
<pdfrwt beam="2">  1       -2 0.11135871E+00 0.79012779E+03</pdfrwt>
<totfact> 0.43242218E+00</totfact>
</mgrwt>
</event>
<event>
 4    5  0.8511149E-008  0.1627896E+04  0.7818608E-02  0.8824235E-01
         -2   -1    0    0    0  501 -0.00000000000E+00  0.00000000000E+00  0.17933936019E+04  0.17933936019E+04  0.25500000000E-02 0.  1.
          2   -1    0    0  501    0  0.00000000000E+00 -0.00000000000E+00 -0.14476671027E+04  0.14476671027E+04  0.25500000000E-02 0. -1.
    8880023    1    1    2    0    0 -0.10474212875E+04  0.10578953779E+04 -0.21684797216E+03  0.16422750176E+04  0.65864270000E+03 0.  0.
    8880022    1    1    2    0    0  0.10474212875E+04 -0.10578953779E+04  0.56257447137E+03  0.15987856870E+04  0.15294330000E+03 0.  0.
<mgrwt>
<rscale>  0 0.15940130E+04</rscale>
<asrwt>0</asrwt>
<pdfrwt beam="1">  1        2 0.22271802E+00 0.16278956E+04</pdfrwt>
<pdfrwt beam="2">  1       -2 0.27590671E+00 0.16278956E+04</pdfrwt>
<totfact> 0.56351964E-01</totfact>
</mgrwt>
</event>
<event>
 4    5  0.8511149E-008  0.7196205E+03  0.7818608E-02  0.9923872E-01
         -2   -1    0    0    0  501 -0.00000000000E+00  0.00000000000E+00  0.56235221570E+03  0.56235221570E+03  0.25500000000E-02 0.  1.
          2   -1    0    0  501    0  0.00000000000E+00 -0.00000000000E+00 -0.11899441315E+04  0.11899441315E+04  0.25500000000E-02 0. -1.
    8880023    1    1    2    0    0 -0.35474384414E+02  0.28772390462E+03  0.29156696905E+03  0.77644380411E+03  0.65864270000E+03 0.  1.
    8880022    1    1    2    0    0  0.35474384414E+02 -0.28772390462E+03 -0.91915888490E+03  0.97585254314E+03  0.15294330000E+03 0.  0.
<mgrwt>
<rscale>  0 0.59118164E+03</rscale>
<asrwt>0</asrwt>
<pdfrwt beam="1">  1        2 0.18306833E+00 0.71962051E+03</pdfrwt>
<pdfrwt beam="2">  1       -2 0.86515726E-01 0.71962051E+03</pdfrwt>
<totfact> 0.22720580E+01</totfact>
</mgrwt>
</event>
<event>
 4    5  0.8511149E-008  0.1089273E+04  0.7818608E-02  0.9273095E-01
          2   -1    0    0  501    0  0.00000000000E+00  0.00000000000E+00  0.14700249437E+04  0.14700249437E+04  0.25500000000E-02 0. -1.
         -2   -1    0    0    0  501 -0.00000000000E+00 -0.00000000000E+00 -0.11244241319E+04  0.11244241319E+04  0.25500000000E-02 0.  1.
    8880023    1    1    2    0    0  0.83502333591E+03  0.23545899890E+03 -0.64728157086E+03  0.12670787465E+04  0.65864270000E+03 0.  1.
    8880022    1    1    2    0    0 -0.83502333591E+03 -0.23545899890E+03  0.99288238266E+03  0.13273703291E+04  0.15294330000E+03 0.  0.
<mgrwt>
<rscale>  0 0.10329801E+04</rscale>
<asrwt>0</asrwt>
<pdfrwt beam="1">  1        2 0.22615768E+00 0.10892727E+04</pdfrwt>
<pdfrwt beam="2">  1       -2 0.17298833E+00 0.10892727E+04</pdfrwt>
<totfact> 0.26316413E+00</totfact>
</mgrwt>
</event>
<event>
 4    5  0.8511149E-008  0.1025338E+04  0.7818608E-02  0.9349133E-01
          2   -1    0    0  501    0  0.00000000000E+00  0.00000000000E+00  0.91546848418E+03  0.91546848418E+03  0.25500000000E-02 0. -1.
         -2   -1    0    0    0  501 -0.00000000000E+00 -0.00000000000E+00 -0.97009803467E+03  0.97009803468E+03  0.25500000000E-02 0.  1.
    8880023    1    1    2    0    0 -0.74243557723E+02  0.78230188201E+03 -0.26260070923E+03  0.10584317074E+04  0.65864270000E+03 0.  0.
    8880022    1    1    2    0    0  0.74243557723E+02 -0.78230188201E+03  0.20797115873E+03  0.82713481147E+03  0.15294330000E+03 0.  1.
<mgrwt>
<rscale>  0 0.96382715E+03</rscale>
<asrwt>0</asrwt>
<pdfrwt beam="1">  1        2 0.14084131E+00 0.10253383E+04</pdfrwt>
<pdfrwt beam="2">  1       -2 0.14924585E+00 0.10253383E+04</pdfrwt>
<totfact> 0.85989158E+00</totfact>
</mgrwt>
</event>
<event>
 4    5  0.8511149E-008  0.1389319E+04  0.7818608E-02  0.8992027E-01
         -2   -1    0    0    0  501 -0.00000000000E+00  0.00000000000E+00  0.11313513318E+04  0.11313513318E+04  0.25500000000E-02 0.  1.
          2   -1    0    0  501    0  0.00000000000E+00 -0.00000000000E+00 -0.25665863905E+04  0.25665863905E+04  0.25500000000E-02 0. -1.
    8880023    1    1    2    0    0 -0.11593748403E+04 -0.39018907879E+03  0.43686666476E+03  0.14563860156E+04  0.65864270000E+03 0.  0.
    8880022    1    1    2    0    0  0.11593748403E+04  0.39018907879E+03 -0.18721017235E+04  0.22415517066E+04  0.15294330000E+03 0.  0.
<mgrwt>
<rscale>  0 0.13484177E+04</rscale>
<asrwt>0</asrwt>
<pdfrwt beam="1">  1        2 0.39485944E+00 0.13893192E+04</pdfrwt>
<pdfrwt beam="2">  1       -2 0.17405405E+00 0.13893192E+04</pdfrwt>
<totfact> 0.60598001E-01</totfact>
</mgrwt>
</event>
<event>
 4    5  0.8511149E-008  0.7822756E+03  0.7818608E-02  0.9750519E-01
         -2   -1    0    0    0  501 -0.00000000000E+00  0.00000000000E+00  0.11256439745E+04  0.11256439745E+04  0.25500000000E-02 0.  1.
          2   -1    0    0  501    0  0.00000000000E+00 -0.00000000000E+00 -0.12708778870E+04  0.12708778870E+04  0.25500000000E-02 0. -1.
    8880023    1    1    2    0    0 -0.90282696098E+02  0.41230315698E+03  0.93950966903E+03  0.12225520369E+04  0.65864270000E+03 0.  1.
    8880022    1    1    2    0    0  0.90282696098E+02 -0.41230315698E+03 -0.10847435815E+04  0.11739698246E+04  0.15294330000E+03 0.  0.
<mgrwt>
<rscale>  0 0.68086975E+03</rscale>
<asrwt>0</asrwt>
<pdfrwt beam="1">  1        2 0.19551967E+00 0.78227557E+03</pdfrwt>
<pdfrwt beam="2">  1       -2 0.17317600E+00 0.78227557E+03</pdfrwt>
<totfact> 0.35479871E+00</totfact>
</mgrwt>
</event>
<event>
 4    5  0.8511149E-008  0.8669257E+03  0.7818608E-02  0.9581361E-01
          2   -1    0    0  501    0  0.00000000000E+00  0.00000000000E+00  0.29327296963E+04  0.29327296963E+04  0.25500000000E-02 0. -1.
         -2   -1    0    0    0  501 -0.00000000000E+00 -0.00000000000E+00 -0.87218942391E+03  0.87218942391E+03  0.25500000000E-02 0.  1.
    8880023    1    1    2    0    0  0.25081460080E+03 -0.50481870684E+03 -0.61722026816E+03  0.10641996788E+04  0.65864270000E+03 0.  1.
    8880022    1    1    2    0    0 -0.25081460080E+03  0.50481870684E+03  0.26777605405E+04  0.27407194413E+04  0.15294330000E+03 0.  0.
<mgrwt>
<rscale>  0 0.78542228E+03</rscale>
<asrwt>0</asrwt>
<pdfrwt beam="1">  1        2 0.45118918E+00 0.86692566E+03</pdfrwt>
<pdfrwt beam="2">  1       -2 0.13418299E+00 0.86692566E+03</pdfrwt>
<totfact> 0.79932854E-01</totfact>
</mgrwt>
</event>
<event>
 4    5  0.8511149E-008  0.1140146E+04  0.7818608E-02  0.9217622E-01
         -2   -1    0    0    0  501 -0.00000000000E+00  0.00000000000E+00  0.45066916531E+03  0.45066916532E+03  0.25500000000E-02 0.  1.
          2   -1    0    0  501    0  0.00000000000E+00 -0.00000000000E+00 -0.32829075082E+04  0.32829075082E+04  0.25500000000E-02 0. -1.
    8880023    1    1    2    0    0 -0.91939834796E+03 -0.14432502277E+03 -0.55355059433E+03  0.12674192287E+04  0.65864270000E+03 0.  0.
    8880022    1    1    2    0    0  0.91939834796E+03  0.14432502277E+03 -0.22786877486E+04  0.24661574449E+04  0.15294330000E+03 0.  0.
<mgrwt>
<rscale>  0 0.10873379E+04</rscale>
<asrwt>0</asrwt>
<pdfrwt beam="1">  1        2 0.50506268E+00 0.11401461E+04</pdfrwt>
<pdfrwt beam="2">  1       -2 0.69333720E-01 0.11401461E+04</pdfrwt>
<totfact> 0.21889843E+00</totfact>
</mgrwt>
</event>
<event>
 4    5  0.8511149E-008  0.9096857E+03  0.7818608E-02  0.9510658E-01
          2   -1    0    0  501    0  0.00000000000E+00  0.00000000000E+00  0.16638289642E+04  0.16638289642E+04  0.25500000000E-02 0. -1.
         -2   -1    0    0    0  501 -0.00000000000E+00 -0.00000000000E+00 -0.42450116533E+03  0.42450116534E+03  0.25500000000E-02 0.  1.
    8880023    1    1    2    0    0 -0.55934953682E+03  0.28433420487E+03  0.31898760621E+03  0.96399229435E+03  0.65864270000E+03 0.  0.
    8880022    1    1    2    0    0  0.55934953682E+03 -0.28433420487E+03  0.92034019267E+03  0.11243378352E+04  0.15294330000E+03 0.  0.
<mgrwt>
<rscale>  0 0.83502558E+03</rscale>
<asrwt>0</asrwt>
<pdfrwt beam="1">  1        2 0.25597368E+00 0.90968569E+03</pdfrwt>
<pdfrwt beam="2">  1       -2 0.65307873E-01 0.90968569E+03</pdfrwt>
<totfact> 0.22386318E+01</totfact>
</mgrwt>
</event>
<event>
 4    5  0.8511149E-008  0.8946606E+03  0.7818608E-02  0.9534658E-01
         -2   -1    0    0    0  501 -0.00000000000E+00  0.00000000000E+00  0.57583608764E+03  0.57583608764E+03  0.25500000000E-02 0.  1.
          2   -1    0    0  501    0  0.00000000000E+00 -0.00000000000E+00 -0.49911256477E+04  0.49911256477E+04  0.25500000000E-02 0. -1.
    8880023    1    1    2    0    0 -0.30827186723E+03  0.52112947287E+03  0.19408817884E+03  0.91547140810E+03  0.65864270000E+03 0.  1.
    8880022    1    1    2    0    0  0.30827186723E+03 -0.52112947287E+03 -0.46093777389E+04  0.46514903272E+04  0.15294330000E+03 0.  0.
<mgrwt>
<rscale>  0 0.81776159E+03</rscale>
<asrwt>0</asrwt>
<pdfrwt beam="1">  1        2 0.76786545E+00 0.89466065E+03</pdfrwt>
<pdfrwt beam="2">  1       -2 0.88590171E-01 0.89466065E+03</pdfrwt>
<totfact> 0.43731615E-02</totfact>
</mgrwt>
</event>
<event>
 4    5  0.8511149E-008  0.6611006E+03  0.7818608E-02  0.1023056E+00
          2   -1    0    0  501    0  0.00000000000E+00  0.00000000000E+00  0.14663688071E+04  0.14663688071E+04  0.25500000000E-02 0. -1.
         -2   -1    0    0    0  501 -0.00000000000E+00 -0.00000000000E+00 -0.18202493539E+03  0.18202493541E+03  0.25500000000E-02 0.  1.
    8880023    1    1    2    0    0  0.31607101694E+01 -0.56866324704E+02  0.45355631510E+03  0.80172770078E+03  0.65864270000E+03 0.  1.
    8880022    1    1    2    0    0 -0.31607101694E+01  0.56866324704E+02  0.83078755658E+03  0.84666604169E+03  0.15294330000E+03 0.  0.
<mgrwt>
<rscale>  0 0.46599698E+03</rscale>
<asrwt>0</asrwt>
<pdfrwt beam="1">  1        2 0.22559520E+00 0.66110058E+03</pdfrwt>
<pdfrwt beam="2">  1       -2 0.28003837E-01 0.66110058E+03</pdfrwt>
<totfact> 0.15806354E+02</totfact>
</mgrwt>
</event>
<event>
 4    5  0.8511149E-008  0.6877919E+03  0.7818608E-02  0.1005220E+00
          2   -1    0    0  501    0  0.00000000000E+00  0.00000000000E+00  0.24093468557E+04  0.24093468557E+04  0.25500000000E-02 0. -1.
         -2   -1    0    0    0  501 -0.00000000000E+00 -0.00000000000E+00 -0.58350333828E+03  0.58350333828E+03  0.25500000000E-02 0.  1.
    8880023    1    1    2    0    0 -0.19691669311E+03 -0.21709959981E+02 -0.37122055332E+03  0.78157687521E+03  0.65864270000E+03 0.  1.
    8880022    1    1    2    0    0  0.19691669311E+03  0.21709959981E+02  0.21970640707E+04  0.22112733188E+04  0.15294330000E+03 0.  0.
<mgrwt>
<rscale>  0 0.53419342E+03</rscale>
<asrwt>0</asrwt>
<pdfrwt beam="1">  1        2 0.37066876E+00 0.68779191E+03</pdfrwt>
<pdfrwt beam="2">  1       -2 0.89769742E-01 0.68779191E+03</pdfrwt>
<totfact> 0.44232308E+00</totfact>
</mgrwt>
</event>
<event>
 4    5  0.8511149E-008  0.9186438E+03  0.7818608E-02  0.9496742E-01
          2   -1    0    0  501    0  0.00000000000E+00  0.00000000000E+00  0.71894110093E+03  0.71894110094E+03  0.25500000000E-02 0. -1.
         -2   -1    0    0    0  501 -0.00000000000E+00 -0.00000000000E+00 -0.13894788523E+04  0.13894788523E+04  0.25500000000E-02 0.  1.
    8880023    1    1    2    0    0 -0.56359706772E+03  0.30406354142E+03 -0.10119806441E+04  0.13667521071E+04  0.65864270000E+03 0. -1.
    8880022    1    1    2    0    0  0.56359706772E+03 -0.30406354142E+03  0.34144289275E+03  0.74166784613E+03  0.15294330000E+03 0.  0.
<mgrwt>
<rscale>  0 0.84524479E+03</rscale>
<asrwt>0</asrwt>
<pdfrwt beam="1">  1        2 0.11060632E+00 0.91864384E+03</pdfrwt>
<pdfrwt beam="2">  1       -2 0.21376598E+00 0.91864384E+03</pdfrwt>
<totfact> 0.43010354E+00</totfact>
</mgrwt>
</event>
<event>
 4    5  0.8511149E-008  0.1276838E+04  0.7818608E-02  0.9085824E-01
         -2   -1    0    0    0  501 -0.00000000000E+00  0.00000000000E+00  0.11901204935E+04  0.11901204935E+04  0.25500000000E-02 0.  1.
          2   -1    0    0  501    0  0.00000000000E+00 -0.00000000000E+00 -0.14615579352E+04  0.14615579352E+04  0.25500000000E-02 0. -1.
    8880023    1    1    2    0    0  0.53429361781E+03  0.95448157003E+03  0.42528293657E+03  0.13458010700E+04  0.65864270000E+03 0.  0.
    8880022    1    1    2    0    0 -0.53429361781E+03 -0.95448157003E+03 -0.69672037828E+03  0.13058773587E+04  0.15294330000E+03 0.  0.
<mgrwt>
<rscale>  0 0.12313803E+04</rscale>
<asrwt>0</asrwt>
<pdfrwt beam="1">  1        2 0.22485507E+00 0.12768379E+04</pdfrwt>
<pdfrwt beam="2">  1       -2 0.18309546E+00 0.12768379E+04</pdfrwt>
<totfact> 0.22188166E+00</totfact>
</mgrwt>
</event>
<event>
 4    5  0.8511149E-008  0.8214810E+03  0.7818608E-02  0.9666141E-01
          2   -1    0    0  501    0  0.00000000000E+00  0.00000000000E+00  0.39157483164E+03  0.39157483164E+03  0.25500000000E-02 0. -1.
         -2   -1    0    0    0  501 -0.00000000000E+00 -0.00000000000E+00 -0.15810112209E+04  0.15810112209E+04  0.25500000000E-02 0.  1.
    8880023    1    1    2    0    0  0.11908188292E+03  0.47627758946E+03 -0.12047262057E+04  0.14581482346E+04  0.65864270000E+03 0.  1.
    8880022    1    1    2    0    0 -0.11908188292E+03 -0.47627758946E+03  0.15289816418E+02  0.51443781798E+03  0.15294330000E+03 0.  0.
<mgrwt>
<rscale>  0 0.73069038E+03</rscale>
<asrwt>0</asrwt>
<pdfrwt beam="1">  1        2 0.60242283E-01 0.82148101E+03</pdfrwt>
<pdfrwt beam="2">  1       -2 0.24323249E+00 0.82148101E+03</pdfrwt>
<totfact> 0.58680703E+00</totfact>
</mgrwt>
</event>
<event>
 4    5  0.8511149E-008  0.1235133E+04  0.7818608E-02  0.9123705E-01
          2   -1    0    0  501    0  0.00000000000E+00  0.00000000000E+00  0.94154472567E+03  0.94154472568E+03  0.25500000000E-02 0. -1.
         -2   -1    0    0    0  501 -0.00000000000E+00 -0.00000000000E+00 -0.15687442063E+04  0.15687442063E+04  0.25500000000E-02 0.  1.
    8880023    1    1    2    0    0  0.83698164308E+03  0.62546292097E+03 -0.75339787575E+03  0.14467759681E+04  0.65864270000E+03 0.  0.
    8880022    1    1    2    0    0 -0.83698164308E+03 -0.62546292097E+03  0.12619839515E+03  0.10635129639E+04  0.15294330000E+03 0.  0.
<mgrwt>
<rscale>  0 0.11876844E+04</rscale>
<asrwt>0</asrwt>
<pdfrwt beam="1">  1        2 0.14485303E+00 0.12351325E+04</pdfrwt>
<pdfrwt beam="2">  1       -2 0.24134526E+00 0.12351325E+04</pdfrwt>
<totfact> 0.19404878E+00</totfact>
</mgrwt>
</event>
<event>
 4    5  0.8511149E-008  0.8704235E+03  0.7818608E-02  0.9575284E-01
         -2   -1    0    0    0  501 -0.00000000000E+00  0.00000000000E+00  0.13352922056E+04  0.13352922056E+04  0.25500000000E-02 0.  1.
          2   -1    0    0  501    0  0.00000000000E+00 -0.00000000000E+00 -0.94302837616E+03  0.94302837617E+03  0.25500000000E-02 0. -1.
    8880023    1    1    2    0    0  0.52417248861E+03  0.22151760963E+03  0.10705993135E+04  0.13797898193E+04  0.65864270000E+03 0.  1.
    8880022    1    1    2    0    0 -0.52417248861E+03 -0.22151760963E+03 -0.67833548403E+03  0.89853076247E+03  0.15294330000E+03 0.  0.
<mgrwt>
<rscale>  0 0.78953850E+03</rscale>
<asrwt>0</asrwt>
<pdfrwt beam="1">  1        2 0.14508129E+00 0.87042349E+03</pdfrwt>
<pdfrwt beam="2">  1       -2 0.20542957E+00 0.87042349E+03</pdfrwt>
<totfact> 0.33892620E+00</totfact>
</mgrwt>
</event>
<event>
 4    5  0.8511149E-008  0.2212521E+04  0.7818608E-02  0.8523257E-01
          2   -1    0    0  501    0  0.00000000000E+00  0.00000000000E+00  0.23996200119E+04  0.23996200119E+04  0.25500000000E-02 0. -1.
         -2   -1    0    0    0  501 -0.00000000000E+00 -0.00000000000E+00 -0.20523298675E+04  0.20523298675E+04  0.25500000000E-02 0.  1.
    8880023    1    1    2    0    0  0.20191363430E+04 -0.62010269550E+03 -0.31095858846E+03  0.22342659588E+04  0.65864270000E+03 0.  0.
    8880022    1    1    2    0    0 -0.20191363430E+04  0.62010269550E+03  0.65824873280E+03  0.22176839206E+04  0.15294330000E+03 0.  0.
<mgrwt>
<rscale>  0 0.21884358E+04</rscale>
<asrwt>0</asrwt>
<pdfrwt beam="1">  1        2 0.36917231E+00 0.22125210E+04</pdfrwt>
<pdfrwt beam="2">  1       -2 0.31574306E+00 0.22125210E+04</pdfrwt>
<totfact> 0.87922663E-02</totfact>
</mgrwt>
</event>
<event>
 4    5  0.8511149E-008  0.1036020E+04  0.7818608E-02  0.9335880E-01
          2   -1    0    0  501    0  0.00000000000E+00  0.00000000000E+00  0.13590799424E+04  0.13590799424E+04  0.25500000000E-02 0. -1.
         -2   -1    0    0    0  501 -0.00000000000E+00 -0.00000000000E+00 -0.85164589802E+03  0.85164589802E+03  0.25500000000E-02 0.  1.
    8880023    1    1    2    0    0  0.54335966938E+03  0.58675953168E+03 -0.28505815329E+03  0.10745207468E+04  0.65864270000E+03 0.  0.
    8880022    1    1    2    0    0 -0.54335966938E+03 -0.58675953168E+03  0.79249219762E+03  0.11362050936E+04  0.15294330000E+03 0.  0.
<mgrwt>
<rscale>  0 0.97545778E+03</rscale>
<asrwt>0</asrwt>
<pdfrwt beam="1">  1        2 0.20908922E+00 0.10360196E+04</pdfrwt>
<pdfrwt beam="2">  1       -2 0.13102245E+00 0.10360196E+04</pdfrwt>
<totfact> 0.64320715E+00</totfact>
</mgrwt>
</event>
<event>
 4    5  0.9151363E-008  0.1431871E+04  0.7818608E-02  0.8959305E-01
          2   -1    0    0  501    0  0.00000000000E+00  0.00000000000E+00  0.20986522129E+04  0.20986522129E+04  0.25500000000E-02 0. -1.
         -2   -1    0    0    0  501 -0.00000000000E+00 -0.00000000000E+00 -0.19572045743E+04  0.19572045743E+04  0.25500000000E-02 0.  1.
    8880023    1    1    2    0    0  0.10434099792E+04 -0.72645784358E+03 -0.14334200773E+04  0.20260673008E+04  0.65864270000E+03 0.  1.
    8880022    1    1    2    0    0 -0.10434099792E+04  0.72645784358E+03  0.15748677159E+04  0.20297894864E+04  0.15294330000E+03 0.  0.
<mgrwt>
<rscale>  0 0.13924451E+04</rscale>
<asrwt>0</asrwt>
<pdfrwt beam="1">  1        2 0.32286957E+00 0.14318714E+04</pdfrwt>
<pdfrwt beam="2">  1       -2 0.30110840E+00 0.14318714E+04</pdfrwt>
<totfact> 0.17423547E-01</totfact>
</mgrwt>
</event>
<event>
 4    5  0.8511149E-008  0.1091713E+04  0.7818608E-02  0.9270339E-01
          2   -1    0    0  501    0  0.00000000000E+00  0.00000000000E+00  0.66394170063E+03  0.66394170063E+03  0.25500000000E-02 0. -1.
         -2   -1    0    0    0  501 -0.00000000000E+00 -0.00000000000E+00 -0.23653717911E+04  0.23653717911E+04  0.25500000000E-02 0.  1.
    8880023    1    1    2    0    0  0.40473509869E+03 -0.77085485223E+03 -0.18351027793E+04  0.21352845525E+04  0.65864270000E+03 0.  1.
    8880022    1    1    2    0    0 -0.40473509869E+03  0.77085485223E+03  0.13367268888E+03  0.89402893918E+03  0.15294330000E+03 0.  0.
<mgrwt>
<rscale>  0 0.10355998E+04</rscale>
<asrwt>0</asrwt>
<pdfrwt beam="1">  1        2 0.10214488E+00 0.10917133E+04</pdfrwt>
<pdfrwt beam="2">  1       -2 0.36390335E+00 0.10917133E+04</pdfrwt>
<totfact> 0.55728474E-01</totfact>
</mgrwt>
</event>
<event>
 4    5  0.8511149E-008  0.6816237E+03  0.7818608E-02  0.1008420E+00
         -2   -1    0    0    0  501 -0.00000000000E+00  0.00000000000E+00  0.52483025908E+03  0.52483025908E+03  0.25500000000E-02 0.  1.
          2   -1    0    0  501    0  0.00000000000E+00 -0.00000000000E+00 -0.11195951476E+04  0.11195951476E+04  0.25500000000E-02 0. -1.
    8880023    1    1    2    0    0 -0.16515335971E+03 -0.59371916716E+02  0.28172351596E+03  0.73754932203E+03  0.65864270000E+03 0.  1.
    8880022    1    1    2    0    0  0.16515335971E+03  0.59371916716E+02 -0.87648840448E+03  0.90687608466E+03  0.15294330000E+03 0.  0.
<mgrwt>
<rscale>  0 0.52107558E+03</rscale>
<asrwt>0</asrwt>
<pdfrwt beam="1">  1        2 0.17224541E+00 0.68162370E+03</pdfrwt>
<pdfrwt beam="2">  1       -2 0.80743117E-01 0.68162370E+03</pdfrwt>
<totfact> 0.29404975E+01</totfact>
</mgrwt>
</event>
<event>
 4    5  0.8511149E-008  0.8381780E+03  0.7818608E-02  0.9633625E-01
          2   -1    0    0  501    0  0.00000000000E+00  0.00000000000E+00  0.12081768924E+04  0.12081768924E+04  0.25500000000E-02 0. -1.
         -2   -1    0    0    0  501 -0.00000000000E+00 -0.00000000000E+00 -0.44362217885E+03  0.44362217886E+03  0.25500000000E-02 0.  1.
    8880023    1    1    2    0    0  0.35005834355E+03 -0.38234963065E+03  0.18310902894E+03  0.85794592294E+03  0.65864270000E+03 0.  0.
    8880022    1    1    2    0    0 -0.35005834355E+03  0.38234963065E+03  0.58144568463E+03  0.79385314834E+03  0.15294330000E+03 0.  0.
<mgrwt>
<rscale>  0 0.75110047E+03</rscale>
<asrwt>0</asrwt>
<pdfrwt beam="1">  1        2 0.18587337E+00 0.83817796E+03</pdfrwt>
<pdfrwt beam="2">  1       -2 0.68249565E-01 0.83817796E+03</pdfrwt>
<totfact> 0.37159387E+01</totfact>
</mgrwt>
</event>
<event>
 4    5  0.8511149E-008  0.1063494E+04  0.7818608E-02  0.9302833E-01
          2   -1    0    0  501    0  0.00000000000E+00  0.00000000000E+00  0.96545738229E+03  0.96545738229E+03  0.25500000000E-02 0. -1.
         -2   -1    0    0    0  501 -0.00000000000E+00 -0.00000000000E+00 -0.99361549397E+03  0.99361549397E+03  0.25500000000E-02 0.  1.
    8880023    1    1    2    0    0 -0.77916995607E+03 -0.30017113253E+03 -0.22645831839E+03  0.10873371627E+04  0.65864270000E+03 0. -1.
    8880022    1    1    2    0    0  0.77916995607E+03  0.30017113253E+03  0.19830020671E+03  0.87173571353E+03  0.15294330000E+03 0.  0.
<mgrwt>
<rscale>  0 0.10052243E+04</rscale>
<asrwt>0</asrwt>
<pdfrwt beam="1">  1        2 0.14853190E+00 0.10634936E+04</pdfrwt>
<pdfrwt beam="2">  1       -2 0.15286392E+00 0.10634936E+04</pdfrwt>
<totfact> 0.74480335E+00</totfact>
</mgrwt>
</event>
<event>
 4    5  0.8511149E-008  0.8017723E+03  0.7818608E-02  0.9706977E-01
          2   -1    0    0  501    0  0.00000000000E+00  0.00000000000E+00  0.48003714365E+03  0.48003714365E+03  0.25500000000E-02 0. -1.
         -2   -1    0    0    0  501 -0.00000000000E+00 -0.00000000000E+00 -0.12159166587E+04  0.12159166588E+04  0.25500000000E-02 0.  1.
    8880023    1    1    2    0    0  0.30596123691E+03  0.33972973707E+03 -0.88223193518E+03  0.11921291736E+04  0.65864270000E+03 0.  1.
    8880022    1    1    2    0    0 -0.30596123691E+03 -0.33972973707E+03  0.14635242008E+03  0.50382462884E+03  0.15294330000E+03 0.  0.
<mgrwt>
<rscale>  0 0.70602896E+03</rscale>
<asrwt>0</asrwt>
<pdfrwt beam="1">  1        2 0.73851869E-01 0.80177227E+03</pdfrwt>
<pdfrwt beam="2">  1       -2 0.18706410E+00 0.80177227E+03</pdfrwt>
<totfact> 0.10600841E+01</totfact>
</mgrwt>
</event>
<event>
 4    5  0.8511149E-008  0.2215065E+04  0.7818608E-02  0.8522179E-01
          2   -1    0    0  501    0  0.00000000000E+00  0.00000000000E+00  0.28026733363E+04  0.28026733363E+04  0.25500000000E-02 0. -1.
         -2   -1    0    0    0  501 -0.00000000000E+00 -0.00000000000E+00 -0.22816693618E+04  0.22816693618E+04  0.25500000000E-02 0.  1.
    8880023    1    1    2    0    0  0.20520781685E+04 -0.51154410890E+03 -0.10441748519E+04  0.24488392174E+04  0.65864270000E+03 0.  0.
    8880022    1    1    2    0    0 -0.20520781685E+04  0.51154410890E+03  0.15651788263E+04  0.26355034807E+04  0.15294330000E+03 0.  0.
<mgrwt>
<rscale>  0 0.21910095E+04</rscale>
<asrwt>0</asrwt>
<pdfrwt beam="1">  1        2 0.43118051E+00 0.22150649E+04</pdfrwt>
<pdfrwt beam="2">  1       -2 0.35102606E+00 0.22150649E+04</pdfrwt>
<totfact> 0.30474418E-02</totfact>
</mgrwt>
</event>
<event>
 4    5  0.8511149E-008  0.8418512E+03  0.7818608E-02  0.9626699E-01
         -2   -1    0    0    0  501 -0.00000000000E+00  0.00000000000E+00  0.72020863663E+03  0.72020863663E+03  0.25500000000E-02 0.  1.
          2   -1    0    0  501    0  0.00000000000E+00 -0.00000000000E+00 -0.13087002292E+04  0.13087002292E+04  0.25500000000E-02 0. -1.
    8880023    1    1    2    0    0  0.49215059830E+03 -0.18080666940E+03  0.37483438825E+03  0.92152823505E+03  0.65864270000E+03 0.  1.
    8880022    1    1    2    0    0 -0.49215059830E+03  0.18080666940E+03 -0.96332598085E+03  0.11073806308E+04  0.15294330000E+03 0.  0.
<mgrwt>
<rscale>  0 0.75553961E+03</rscale>
<asrwt>0</asrwt>
<pdfrwt beam="1">  1        2 0.20133850E+00 0.84185122E+03</pdfrwt>
<pdfrwt beam="2">  1       -2 0.11080133E+00 0.84185122E+03</pdfrwt>
<totfact> 0.10654471E+01</totfact>
</mgrwt>
</event>
<event>
 4    5  0.8511149E-008  0.1077849E+04  0.7818608E-02  0.9286129E-01
          2   -1    0    0  501    0  0.00000000000E+00  0.00000000000E+00  0.74900528191E+03  0.74900528192E+03  0.25500000000E-02 0. -1.
         -2   -1    0    0    0  501 -0.00000000000E+00 -0.00000000000E+00 -0.21534931833E+04  0.21534931834E+04  0.25500000000E-02 0.  1.
    8880023    1    1    2    0    0 -0.78497658061E+03  0.33430469454E+03 -0.16773159407E+04  0.19937770267E+04  0.65864270000E+03 0.  0.
    8880022    1    1    2    0    0  0.78497658061E+03 -0.33430469454E+03  0.27282803929E+03  0.90872143858E+03  0.15294330000E+03 0.  0.
<mgrwt>
<rscale>  0 0.10206995E+04</rscale>
<asrwt>0</asrwt>
<pdfrwt beam="1">  1        2 0.11523158E+00 0.10778488E+04</pdfrwt>
<pdfrwt beam="2">  1       -2 0.33130664E+00 0.10778488E+04</pdfrwt>
<totfact> 0.76463839E-01</totfact>
</mgrwt>
</event>
<event>
 4    5  0.8511149E-008  0.7357492E+03  0.7818608E-02  0.9872507E-01
          2   -1    0    0  501    0  0.00000000000E+00  0.00000000000E+00  0.82365753596E+03  0.82365753596E+03  0.25500000000E-02 0. -1.
         -2   -1    0    0    0  501 -0.00000000000E+00 -0.00000000000E+00 -0.70012395167E+03  0.70012395167E+03  0.25500000000E-02 0.  1.
    8880023    1    1    2    0    0 -0.29879404415E+03 -0.13505111709E+03 -0.43764811304E+03  0.85607404011E+03  0.65864270000E+03 0.  1.
    8880022    1    1    2    0    0  0.29879404415E+03  0.13505111709E+03  0.56118169733E+03  0.66770744752E+03  0.15294330000E+03 0.  0.
<mgrwt>
<rscale>  0 0.61612420E+03</rscale>
<asrwt>0</asrwt>
<pdfrwt beam="1">  1        2 0.12671654E+00 0.73574920E+03</pdfrwt>
<pdfrwt beam="2">  1       -2 0.10771138E+00 0.73574920E+03</pdfrwt>
<totfact> 0.23266512E+01</totfact>
</mgrwt>
</event>
<event>
 4    5  0.8511149E-008  0.6847616E+03  0.7818608E-02  0.1006749E+00
          2   -1    0    0  501    0  0.00000000000E+00  0.00000000000E+00  0.26558709577E+04  0.26558709577E+04  0.25500000000E-02 0. -1.
         -2   -1    0    0    0  501 -0.00000000000E+00 -0.00000000000E+00 -0.12418217952E+03  0.12418217954E+03  0.25500000000E-02 0.  1.
    8880023    1    1    2    0    0  0.18727487054E+03 -0.40390403180E+01  0.90177272633E+03  0.11322952120E+04  0.65864270000E+03 0.  1.
    8880022    1    1    2    0    0 -0.18727487054E+03  0.40390403180E+01  0.16299160518E+04  0.16477579252E+04  0.15294330000E+03 0.  0.
<mgrwt>
<rscale>  0 0.52787404E+03</rscale>
<asrwt>0</asrwt>
<pdfrwt beam="1">  1        2 0.40859553E+00 0.68476156E+03</pdfrwt>
<pdfrwt beam="2">  1       -2 0.19104951E-01 0.68476156E+03</pdfrwt>
<totfact> 0.68683790E+01</totfact>
</mgrwt>
</event>
<event>
 4    5  0.8511149E-008  0.7320504E+03  0.7818608E-02  0.9883739E-01
          2   -1    0    0  501    0  0.00000000000E+00  0.00000000000E+00  0.12377120222E+04  0.12377120223E+04  0.25500000000E-02 0. -1.
         -2   -1    0    0    0  501 -0.00000000000E+00 -0.00000000000E+00 -0.29515696452E+03  0.29515696453E+03  0.25500000000E-02 0.  1.
    8880023    1    1    2    0    0 -0.18295502681E+03 -0.26194485841E+03  0.28423104392E+03  0.78529303020E+03  0.65864270000E+03 0.  1.
    8880022    1    1    2    0    0  0.18295502681E+03  0.26194485841E+03  0.65832401381E+03  0.74757595658E+03  0.15294330000E+03 0.  0.
<mgrwt>
<rscale>  0 0.61055848E+03</rscale>
<asrwt>0</asrwt>
<pdfrwt beam="1">  1        2 0.19041724E+00 0.73205045E+03</pdfrwt>
<pdfrwt beam="2">  1       -2 0.45408763E-01 0.73205045E+03</pdfrwt>
<totfact> 0.84198068E+01</totfact>
</mgrwt>
</event>
<event>
 4    5  0.8511149E-008  0.7442872E+03  0.7818608E-02  0.9847630E-01
         -2   -1    0    0    0  501 -0.00000000000E+00  0.00000000000E+00  0.45563193517E+03  0.45563193517E+03  0.25500000000E-02 0.  1.
          2   -1    0    0  501    0  0.00000000000E+00 -0.00000000000E+00 -0.16239857129E+04  0.16239857129E+04  0.25500000000E-02 0. -1.
    8880023    1    1    2    0    0  0.34656255656E+03  0.69023897027E+01  0.10448715200E+03  0.75158567029E+03  0.65864270000E+03 0.  1.
    8880022    1    1    2    0    0 -0.34656255656E+03 -0.69023897027E+01 -0.12728409297E+04  0.13280319778E+04  0.15294330000E+03 0.  0.
<mgrwt>
<rscale>  0 0.62867891E+03</rscale>
<asrwt>0</asrwt>
<pdfrwt beam="1">  1        2 0.24984395E+00 0.74428721E+03</pdfrwt>
<pdfrwt beam="2">  1       -2 0.70097222E-01 0.74428721E+03</pdfrwt>
<totfact> 0.20579040E+01</totfact>
</mgrwt>
</event>
<event>
 4    5  0.8511149E-008  0.9326345E+03  0.7818608E-02  0.9475552E-01
          2   -1    0    0  501    0  0.00000000000E+00  0.00000000000E+00  0.11166872153E+04  0.11166872153E+04  0.25500000000E-02 0. -1.
         -2   -1    0    0    0  501 -0.00000000000E+00 -0.00000000000E+00 -0.10974827600E+04  0.10974827600E+04  0.25500000000E-02 0.  1.
    8880023    1    1    2    0    0  0.37721787039E+03 -0.54194431758E+03 -0.74429919792E+03  0.11932260756E+04  0.65864270000E+03 0.  1.
    8880022    1    1    2    0    0 -0.37721787039E+03  0.54194431758E+03  0.76350365321E+03  0.10209438998E+04  0.15294330000E+03 0.  0.
<mgrwt>
<rscale>  0 0.86110507E+03</rscale>
<asrwt>0</asrwt>
<pdfrwt beam="1">  1        2 0.17179803E+00 0.93263453E+03</pdfrwt>
<pdfrwt beam="2">  1       -2 0.16884350E+00 0.93263453E+03</pdfrwt>
<totfact> 0.46144801E+00</totfact>
</mgrwt>
</event>
<event>
 4    5  0.8511149E-008  0.7789322E+03  0.7818608E-02  0.9758351E-01
          2   -1    0    0  501    0  0.00000000000E+00  0.00000000000E+00  0.92279783550E+03  0.92279783550E+03  0.25500000000E-02 0. -1.
         -2   -1    0    0    0  501 -0.00000000000E+00 -0.00000000000E+00 -0.47587819574E+03  0.47587819575E+03  0.25500000000E-02 0.  1.
    8880023    1    1    2    0    0  0.39692879031E+03  0.12398651619E+03  0.53756767162E+03  0.94642185552E+03  0.65864270000E+03 0. -1.
    8880022    1    1    2    0    0 -0.39692879031E+03 -0.12398651619E+03 -0.90648031858E+02  0.45225417573E+03  0.15294330000E+03 0.  0.
<mgrwt>
<rscale>  0 0.67646356E+03</rscale>
<asrwt>0</asrwt>
<pdfrwt beam="1">  1        2 0.14196890E+00 0.77893217E+03</pdfrwt>
<pdfrwt beam="2">  1       -2 0.73212030E-01 0.77893217E+03</pdfrwt>
<totfact> 0.48262596E+01</totfact>
</mgrwt>
</event>
<event>
 4    5  0.8511149E-008  0.7797992E+03  0.7818608E-02  0.9756309E-01
         -2   -1    0    0    0  501 -0.00000000000E+00  0.00000000000E+00  0.57338064439E+03  0.57338064439E+03  0.25500000000E-02 0.  1.
          2   -1    0    0  501    0  0.00000000000E+00 -0.00000000000E+00 -0.15141151808E+04  0.15141151808E+04  0.25500000000E-02 0. -1.
    8880023    1    1    2    0    0 -0.41191351005E+03  0.67851782336E+02  0.24804364169E+03  0.81829851434E+03  0.65864270000E+03 0.  0.
    8880022    1    1    2    0    0  0.41191351005E+03 -0.67851782336E+02 -0.11887781781E+04  0.12691973109E+04  0.15294330000E+03 0.  0.
<mgrwt>
<rscale>  0 0.67760907E+03</rscale>
<asrwt>0</asrwt>
<pdfrwt beam="1">  1        2 0.23294080E+00 0.77979921E+03</pdfrwt>
<pdfrwt beam="2">  1       -2 0.88212407E-01 0.77979921E+03</pdfrwt>
<totfact> 0.14080423E+01</totfact>
</mgrwt>
</event>
<event>
 4    5  0.8511149E-008  0.9371263E+03  0.7818608E-02  0.9468884E-01
          2   -1    0    0  501    0  0.00000000000E+00  0.00000000000E+00  0.17050832231E+04  0.17050832231E+04  0.25500000000E-02 0. -1.
         -2   -1    0    0    0  501 -0.00000000000E+00 -0.00000000000E+00 -0.49131898337E+03  0.49131898338E+03  0.25500000000E-02 0.  1.
    8880023    1    1    2    0    0  0.70251676060E+02  0.66291791136E+03  0.17597596016E+03  0.95350574199E+03  0.65864270000E+03 0.  1.
    8880022    1    1    2    0    0 -0.70251676060E+02 -0.66291791136E+03  0.10377882796E+04  0.12428964645E+04  0.15294330000E+03 0.  0.
<mgrwt>
<rscale>  0 0.86617295E+03</rscale>
<asrwt>0</asrwt>
<pdfrwt beam="1">  1        2 0.26232050E+00 0.93712628E+03</pdfrwt>
<pdfrwt beam="2">  1       -2 0.75587536E-01 0.93712628E+03</pdfrwt>
<totfact> 0.15376690E+01</totfact>
</mgrwt>
</event>
<event>
 4    5  0.8511149E-008  0.7927809E+03  0.7818608E-02  0.9726628E-01
          2   -1    0    0  501    0  0.00000000000E+00  0.00000000000E+00  0.98214758747E+03  0.98214758747E+03  0.25500000000E-02 0. -1.
         -2   -1    0    0    0  501 -0.00000000000E+00 -0.00000000000E+00 -0.65838254179E+03  0.65838254179E+03  0.25500000000E-02 0.  1.
    8880023    1    1    2    0    0  0.36371653690E+03 -0.24980317270E+03 -0.31175857057E+03  0.85187731329E+03  0.65864270000E+03 0.  1.
    8880022    1    1    2    0    0 -0.36371653690E+03  0.24980317270E+03  0.63552361625E+03  0.78865281597E+03  0.15294330000E+03 0.  0.
<mgrwt>
<rscale>  0 0.69453256E+03</rscale>
<asrwt>0</asrwt>
<pdfrwt beam="1">  1        2 0.15109963E+00 0.79278090E+03</pdfrwt>
<pdfrwt beam="2">  1       -2 0.10128962E+00 0.79278090E+03</pdfrwt>
<totfact> 0.20971450E+01</totfact>
</mgrwt>
</event>
<event>
 4    5  0.8511149E-008  0.8737428E+03  0.7818608E-02  0.9569570E-01
         -2   -1    0    0    0  501 -0.00000000000E+00  0.00000000000E+00  0.50261886375E+03  0.50261886375E+03  0.25500000000E-02 0.  1.
          2   -1    0    0  501    0  0.00000000000E+00 -0.00000000000E+00 -0.16812152660E+04  0.16812152660E+04  0.25500000000E-02 0. -1.
    8880023    1    1    2    0    0  0.54326135842E+03  0.18569691792E+03 -0.11057055517E+02  0.87381274517E+03  0.65864270000E+03 0.  0.
    8880022    1    1    2    0    0 -0.54326135842E+03 -0.18569691792E+03 -0.11675393467E+04  0.13100213846E+04  0.15294330000E+03 0.  0.
<mgrwt>
<rscale>  0 0.79343391E+03</rscale>
<asrwt>0</asrwt>
<pdfrwt beam="1">  1        2 0.25864850E+00 0.87374279E+03</pdfrwt>
<pdfrwt beam="2">  1       -2 0.77325980E-01 0.87374279E+03</pdfrwt>
<totfact> 0.15169809E+01</totfact>
</mgrwt>
</event>
<event>
 4    5  0.8511149E-008  0.7591068E+03  0.7818608E-02  0.9807425E-01
          2   -1    0    0  501    0  0.00000000000E+00  0.00000000000E+00  0.31331820830E+03  0.31331820831E+03  0.25500000000E-02 0. -1.
         -2   -1    0    0    0  501 -0.00000000000E+00 -0.00000000000E+00 -0.17901702520E+04  0.17901702520E+04  0.25500000000E-02 0.  1.
    8880023    1    1    2    0    0 -0.29087234222E+03 -0.24047067272E+03 -0.15149486263E+04  0.16944947360E+04  0.65864270000E+03 0.  0.
    8880022    1    1    2    0    0  0.29087234222E+03  0.24047067272E+03  0.38096582553E+02  0.40899372431E+03  0.15294330000E+03 0.  0.
<mgrwt>
<rscale>  0 0.64965567E+03</rscale>
<asrwt>0</asrwt>
<pdfrwt beam="1">  1        2 0.48202802E-01 0.75910676E+03</pdfrwt>
<pdfrwt beam="2">  1       -2 0.27541080E+00 0.75910676E+03</pdfrwt>
<totfact> 0.48499049E+00</totfact>
</mgrwt>
</event>
<event>
 4    5  0.8511149E-008  0.9978486E+03  0.7818608E-02  0.9384378E-01
          2   -1    0    0  501    0  0.00000000000E+00  0.00000000000E+00  0.11646551646E+04  0.11646551646E+04  0.25500000000E-02 0. -1.
         -2   -1    0    0    0  501 -0.00000000000E+00 -0.00000000000E+00 -0.85275819578E+03  0.85275819579E+03  0.25500000000E-02 0.  1.
    8880023    1    1    2    0    0 -0.51469651572E+03  0.54495799622E+03  0.63949861043E+03  0.11851836988E+04  0.65864270000E+03 0.  1.
    8880022    1    1    2    0    0  0.51469651572E+03 -0.54495799622E+03 -0.32760164164E+03  0.83222966155E+03  0.15294330000E+03 0.  0.
<mgrwt>
<rscale>  0 0.93372563E+03</rscale>
<asrwt>0</asrwt>
<pdfrwt beam="1">  1        2 0.17917772E+00 0.99784865E+03</pdfrwt>
<pdfrwt beam="2">  1       -2 0.13119357E+00 0.99784865E+03</pdfrwt>
<totfact> 0.83749735E+00</totfact>
</mgrwt>
</event>
<event>
 4    5  0.9584766E-008  0.1526606E+04  0.7818608E-02  0.8891074E-01
          2   -1    0    0  501    0  0.00000000000E+00  0.00000000000E+00  0.19474815139E+04  0.19474815139E+04  0.25500000000E-02 0. -1.
         -2   -1    0    0    0  501 -0.00000000000E+00 -0.00000000000E+00 -0.23931387356E+04  0.23931387356E+04  0.25500000000E-02 0.  1.
    8880023    1    1    2    0    0  0.13741023903E+04 -0.92503927497E+02 -0.18291621296E+04  0.23825109985E+04  0.65864270000E+03 0.  0.
    8880022    1    1    2    0    0 -0.13741023903E+04  0.92503927497E+02  0.13835049078E+04  0.19581092509E+04  0.15294330000E+03 0.  0.
<mgrwt>
<rscale>  0 0.14900841E+04</rscale>
<asrwt>0</asrwt>
<pdfrwt beam="1">  1        2 0.29961254E+00 0.15266056E+04</pdfrwt>
<pdfrwt beam="2">  1       -2 0.36817519E+00 0.15266056E+04</pdfrwt>
<totfact> 0.79813146E-02</totfact>
</mgrwt>
</event>
<event>
 4    5  0.8511149E-008  0.1199476E+04  0.7818608E-02  0.9157632E-01
         -2   -1    0    0    0  501 -0.00000000000E+00  0.00000000000E+00  0.11923245833E+04  0.11923245833E+04  0.25500000000E-02 0.  1.
          2   -1    0    0  501    0  0.00000000000E+00 -0.00000000000E+00 -0.26453338889E+04  0.26453338889E+04  0.25500000000E-02 0. -1.
    8880023    1    1    2    0    0  0.56249296598E+03 -0.82977956968E+03  0.74847712175E+03  0.14138460592E+04  0.65864270000E+03 0.  1.
    8880022    1    1    2    0    0 -0.56249296598E+03  0.82977956968E+03 -0.22014864273E+04  0.24238124131E+04  0.15294330000E+03 0.  0.
<mgrwt>
<rscale>  0 0.11501644E+04</rscale>
<asrwt>0</asrwt>
<pdfrwt beam="1">  1        2 0.40697444E+00 0.11994760E+04</pdfrwt>
<pdfrwt beam="2">  1       -2 0.18343455E+00 0.11994760E+04</pdfrwt>
<totfact> 0.48055320E-01</totfact>
</mgrwt>
</event>
<event>
 4    5  0.8511149E-008  0.8781344E+03  0.7818608E-02  0.9562086E-01
          2   -1    0    0  501    0  0.00000000000E+00  0.00000000000E+00  0.22617080178E+04  0.22617080178E+04  0.25500000000E-02 0. -1.
         -2   -1    0    0    0  501 -0.00000000000E+00 -0.00000000000E+00 -0.40919909317E+03  0.40919909318E+03  0.25500000000E-02 0.  1.
    8880023    1    1    2    0    0  0.34386411707E+03 -0.46804630687E+03  0.18346494075E+03  0.89709501566E+03  0.65864270000E+03 0.  1.
    8880022    1    1    2    0    0 -0.34386411707E+03  0.46804630687E+03  0.16690439839E+04  0.17738120953E+04  0.15294330000E+03 0.  0.
<mgrwt>
<rscale>  0 0.79857232E+03</rscale>
<asrwt>0</asrwt>
<pdfrwt beam="1">  1        2 0.34795508E+00 0.87813443E+03</pdfrwt>
<pdfrwt beam="2">  1       -2 0.62953706E-01 0.87813443E+03</pdfrwt>
<totfact> 0.11395967E+01</totfact>
</mgrwt>
</event>
<event>
 4    5  0.8511149E-008  0.1417290E+04  0.7818608E-02  0.8970363E-01
         -2   -1    0    0    0  501 -0.00000000000E+00  0.00000000000E+00  0.14564423878E+04  0.14564423878E+04  0.25500000000E-02 0.  1.
          2   -1    0    0  501    0  0.00000000000E+00 -0.00000000000E+00 -0.26013119712E+04  0.26013119712E+04  0.25500000000E-02 0. -1.
    8880023    1    1    2    0    0 -0.80145724627E+03  0.96569507760E+03  0.88171384955E+03  0.16691705183E+04  0.65864270000E+03 0.  1.
    8880022    1    1    2    0    0  0.80145724627E+03 -0.96569507760E+03 -0.20265834329E+04  0.23885838407E+04  0.15294330000E+03 0.  0.
<mgrwt>
<rscale>  0 0.13773714E+04</rscale>
<asrwt>0</asrwt>
<pdfrwt beam="1">  1        2 0.40020184E+00 0.14172900E+04</pdfrwt>
<pdfrwt beam="2">  1       -2 0.22406806E+00 0.14172900E+04</pdfrwt>
<totfact> 0.26840366E-01</totfact>
</mgrwt>
</event>
<event>
 4    5  0.8511149E-008  0.7044183E+03  0.7818608E-02  0.9979343E-01
          2   -1    0    0  501    0  0.00000000000E+00  0.00000000000E+00  0.79970094280E+03  0.79970094281E+03  0.25500000000E-02 0. -1.
         -2   -1    0    0    0  501 -0.00000000000E+00 -0.00000000000E+00 -0.11299999074E+04  0.11299999074E+04  0.25500000000E-02 0.  1.
    8880023    1    1    2    0    0  0.15130664355E+02  0.24933107772E+03 -0.98587322188E+03  0.12116728681E+04  0.65864270000E+03 0.  1.
    8880022    1    1    2    0    0 -0.15130664355E+02 -0.24933107772E+03  0.65557425728E+03  0.71802798215E+03  0.15294330000E+03 0.  0.
<mgrwt>
<rscale>  0 0.56565338E+03</rscale>
<asrwt>0</asrwt>
<pdfrwt beam="1">  1        2 0.12303091E+00 0.70441829E+03</pdfrwt>
<pdfrwt beam="2">  1       -2 0.17384614E+00 0.70441829E+03</pdfrwt>
<totfact> 0.70663855E+00</totfact>
</mgrwt>
</event>
<event>
 4    5  0.8511149E-008  0.7639753E+03  0.7818608E-02  0.9794922E-01
         -2   -1    0    0    0  501 -0.00000000000E+00  0.00000000000E+00  0.10269074797E+04  0.10269074797E+04  0.25500000000E-02 0.  1.
          2   -1    0    0  501    0  0.00000000000E+00 -0.00000000000E+00 -0.16982666399E+04  0.16982666399E+04  0.25500000000E-02 0. -1.
    8880023    1    1    2    0    0 -0.38520422056E+03  0.38286183614E+02  0.85294543794E+03  0.11450651727E+04  0.65864270000E+03 0.  0.
    8880022    1    1    2    0    0  0.38520422056E+03 -0.38286183614E+02 -0.15243045981E+04  0.15801089469E+04  0.15294330000E+03 0.  0.
<mgrwt>
<rscale>  0 0.65635751E+03</rscale>
<asrwt>0</asrwt>
<pdfrwt beam="1">  1        2 0.26127179E+00 0.76397535E+03</pdfrwt>
<pdfrwt beam="2">  1       -2 0.15798577E+00 0.76397535E+03</pdfrwt>
<totfact> 0.26367394E+00</totfact>
</mgrwt>
</event>
<event>
 4    5  0.8511149E-008  0.1057107E+04  0.7818608E-02  0.9310386E-01
         -2   -1    0    0    0  501 -0.00000000000E+00  0.00000000000E+00  0.94675533166E+03  0.94675533167E+03  0.25500000000E-02 0.  1.
          2   -1    0    0  501    0  0.00000000000E+00 -0.00000000000E+00 -0.28044558166E+04  0.28044558166E+04  0.25500000000E-02 0. -1.
    8880023    1    1    2    0    0  0.36012197791E+02 -0.82605553379E+03  0.55658747685E+03  0.11946817354E+04  0.65864270000E+03 0.  1.
    8880022    1    1    2    0    0 -0.36012197791E+02  0.82605553379E+03 -0.24142879618E+04  0.25565294128E+04  0.15294330000E+03 0.  0.
<mgrwt>
<rscale>  0 0.99832260E+03</rscale>
<asrwt>0</asrwt>
<pdfrwt beam="1">  1        2 0.43145474E+00 0.10571068E+04</pdfrwt>
<pdfrwt beam="2">  1       -2 0.14565467E+00 0.10571068E+04</pdfrwt>
<totfact> 0.74629356E-01</totfact>
</mgrwt>
</event>
<event>
 4    5  0.8511149E-008  0.6680399E+03  0.7818608E-02  0.1017109E+00
         -2   -1    0    0    0  501 -0.00000000000E+00  0.00000000000E+00  0.21586459636E+03  0.21586459638E+03  0.25500000000E-02 0.  1.
          2   -1    0    0  501    0  0.00000000000E+00 -0.00000000000E+00 -0.20936994785E+04  0.20936994785E+04  0.25500000000E-02 0. -1.
    8880023    1    1    2    0    0 -0.57392518639E+00  0.11165498537E+03 -0.32083070894E+03  0.74108684728E+03  0.65864270000E+03 0.  1.
    8880022    1    1    2    0    0  0.57392518639E+00 -0.11165498537E+03 -0.15570041732E+04  0.15684772276E+04  0.15294330000E+03 0.  0.
<mgrwt>
<rscale>  0 0.48744579E+03</rscale>
<asrwt>0</asrwt>
<pdfrwt beam="1">  1        2 0.32210760E+00 0.66803995E+03</pdfrwt>
<pdfrwt beam="2">  1       -2 0.33209939E-01 0.66803995E+03</pdfrwt>
<totfact> 0.52285043E+01</totfact>
</mgrwt>
</event>
<event>
 4    5  0.8511149E-008  0.7408147E+03  0.7818608E-02  0.9857580E-01
          2   -1    0    0  501    0  0.00000000000E+00  0.00000000000E+00  0.37803548265E+04  0.37803548265E+04  0.25500000000E-02 0. -1.
         -2   -1    0    0    0  501 -0.00000000000E+00 -0.00000000000E+00 -0.67935827570E+03  0.67935827571E+03  0.25500000000E-02 0.  1.
    8880023    1    1    2    0    0  0.30917648479E+03  0.13930565743E+03 -0.46480639790E+03  0.87455780754E+03  0.65864270000E+03 0.  0.
    8880022    1    1    2    0    0 -0.30917648479E+03 -0.13930565743E+03  0.35658029487E+04  0.35851552947E+04  0.15294330000E+03 0.  0.
<mgrwt>
<rscale>  0 0.62361911E+03</rscale>
<asrwt>0</asrwt>
<pdfrwt beam="1">  1        2 0.58159305E+00 0.74081467E+03</pdfrwt>
<pdfrwt beam="2">  1       -2 0.10451666E+00 0.74081467E+03</pdfrwt>
<totfact> 0.41753495E-01</totfact>
</mgrwt>
</event>
<event>
 4    5  0.8511149E-008  0.7671184E+03  0.7818608E-02  0.9787015E-01
          2   -1    0    0  501    0  0.00000000000E+00  0.00000000000E+00  0.15719747846E+04  0.15719747846E+04  0.25500000000E-02 0. -1.
         -2   -1    0    0    0  501 -0.00000000000E+00 -0.00000000000E+00 -0.91749024776E+03  0.91749024777E+03  0.25500000000E-02 0.  1.
    8880023    1    1    2    0    0 -0.20968475710E+03  0.33270523269E+03 -0.71974939145E+03  0.10519077250E+04  0.65864270000E+03 0.  0.
    8880022    1    1    2    0    0  0.20968475710E+03 -0.33270523269E+03  0.13742339283E+04  0.14375573073E+04  0.15294330000E+03 0.  0.
<mgrwt>
<rscale>  0 0.66064052E+03</rscale>
<asrwt>0</asrwt>
<pdfrwt beam="1">  1        2 0.24184227E+00 0.76711842E+03</pdfrwt>
<pdfrwt beam="2">  1       -2 0.14115235E+00 0.76711842E+03</pdfrwt>
<totfact> 0.41657796E+00</totfact>
</mgrwt>
</event>
<event>
 4    5  0.8511149E-008  0.7271041E+03  0.7818608E-02  0.9899242E-01
         -2   -1    0    0    0  501 -0.00000000000E+00  0.00000000000E+00  0.10306684731E+04  0.10306684731E+04  0.25500000000E-02 0.  1.
          2   -1    0    0  501    0  0.00000000000E+00 -0.00000000000E+00 -0.24827372488E+04  0.24827372488E+04  0.25500000000E-02 0. -1.
    8880023    1    1    2    0    0 -0.29692908882E+03  0.81873900836E+02  0.88828304884E+03  0.11479229942E+04  0.65864270000E+03 0.  1.
    8880022    1    1    2    0    0  0.29692908882E+03 -0.81873900836E+02 -0.23403518245E+04  0.23654827277E+04  0.15294330000E+03 0.  0.
<mgrwt>
<rscale>  0 0.60298021E+03</rscale>
<asrwt>0</asrwt>
<pdfrwt beam="1">  1        2 0.38195958E+00 0.72710414E+03</pdfrwt>
<pdfrwt beam="2">  1       -2 0.15856438E+00 0.72710414E+03</pdfrwt>
<totfact> 0.97269726E-01</totfact>
</mgrwt>
</event>
<event>
 4    5  0.8511149E-008  0.1721837E+04  0.7818608E-02  0.8767052E-01
         -2   -1    0    0    0  501 -0.00000000000E+00  0.00000000000E+00  0.25621483560E+04  0.25621483560E+04  0.25500000000E-02 0.  1.
          2   -1    0    0  501    0  0.00000000000E+00 -0.00000000000E+00 -0.15266401557E+04  0.15266401557E+04  0.25500000000E-02 0. -1.
    8880023    1    1    2    0    0  0.15459675139E+04  0.37536297118E+03  0.16420964029E+04  0.23793284172E+04  0.65864270000E+03 0.  1.
    8880022    1    1    2    0    0 -0.15459675139E+04 -0.37536297118E+03 -0.60658820259E+03  0.17094600945E+04  0.15294330000E+03 0.  0.
<mgrwt>
<rscale>  0 0.16900639E+04</rscale>
<asrwt>0</asrwt>
<pdfrwt beam="1">  1        2 0.23486772E+00 0.17218371E+04</pdfrwt>
<pdfrwt beam="2">  1       -2 0.39417667E+00 0.17218371E+04</pdfrwt>
<totfact> 0.91264398E-02</totfact>
</mgrwt>
</event>
<event>
 4    5  0.8511149E-008  0.7812767E+03  0.7818608E-02  0.9752846E-01
          2   -1    0    0  501    0  0.00000000000E+00  0.00000000000E+00  0.75226368186E+03  0.75226368186E+03  0.25500000000E-02 0. -1.
         -2   -1    0    0    0  501 -0.00000000000E+00 -0.00000000000E+00 -0.11427266948E+04  0.11427266948E+04  0.25500000000E-02 0.  1.
    8880023    1    1    2    0    0 -0.36772558005E+03 -0.20337410252E+03 -0.91666542835E+03  0.12044371472E+04  0.65864270000E+03 0.  1.
    8880022    1    1    2    0    0  0.36772558005E+03  0.20337410252E+03  0.52620241537E+03  0.69055322949E+03  0.15294330000E+03 0.  0.
<mgrwt>
<rscale>  0 0.67955650E+03</rscale>
<asrwt>0</asrwt>
<pdfrwt beam="1">  1        2 0.11573287E+00 0.78127673E+03</pdfrwt>
<pdfrwt beam="2">  1       -2 0.17580411E+00 0.78127673E+03</pdfrwt>
<totfact> 0.73487527E+00</totfact>
</mgrwt>
</event>
<event>
 4    5  0.8511149E-008  0.1024190E+04  0.7818608E-02  0.9350572E-01
         -2   -1    0    0    0  501 -0.00000000000E+00  0.00000000000E+00  0.51142119562E+03  0.51142119562E+03  0.25500000000E-02 0.  1.
          2   -1    0    0  501    0  0.00000000000E+00 -0.00000000000E+00 -0.17312904298E+04  0.17312904298E+04  0.25500000000E-02 0. -1.
    8880023    1    1    2    0    0 -0.11795515426E+03 -0.77539784538E+03 -0.95639317387E+03  0.14013041591E+04  0.65864270000E+03 0.  0.
    8880022    1    1    2    0    0  0.11795515426E+03  0.77539784538E+03 -0.26347606034E+03  0.84140746634E+03  0.15294330000E+03 0.  0.
<mgrwt>
<rscale>  0 0.96257492E+03</rscale>
<asrwt>0</asrwt>
<pdfrwt beam="1">  1        2 0.26635237E+00 0.10241901E+04</pdfrwt>
<pdfrwt beam="2">  1       -2 0.78680185E-01 0.10241901E+04</pdfrwt>
<totfact> 0.13475068E+01</totfact>
</mgrwt>
</event>
<event>
 4    5  0.8511149E-008  0.1071763E+04  0.7818608E-02  0.9293165E-01
         -2   -1    0    0    0  501 -0.00000000000E+00  0.00000000000E+00  0.19451163528E+04  0.19451163528E+04  0.25500000000E-02 0.  1.
          2   -1    0    0  501    0  0.00000000000E+00 -0.00000000000E+00 -0.89264773554E+03  0.89264773554E+03  0.25500000000E-02 0. -1.
    8880023    1    1    2    0    0  0.18898806012E+03 -0.82410512843E+03  0.15197849212E+04  0.18596833501E+04  0.65864270000E+03 0.  0.
    8880022    1    1    2    0    0 -0.18898806012E+03  0.82410512843E+03 -0.46731630396E+03  0.97808073825E+03  0.15294330000E+03 0.  0.
<mgrwt>
<rscale>  0 0.10141450E+04</rscale>
<asrwt>0</asrwt>
<pdfrwt beam="1">  1        2 0.13733042E+00 0.10717630E+04</pdfrwt>
<pdfrwt beam="2">  1       -2 0.29924867E+00 0.10717630E+04</pdfrwt>
<totfact> 0.94751435E-01</totfact>
</mgrwt>
</event>
<event>
 4    5  0.8511149E-008  0.9358216E+03  0.7818608E-02  0.9470814E-01
          2   -1    0    0  501    0  0.00000000000E+00  0.00000000000E+00  0.34206119461E+04  0.34206119461E+04  0.25500000000E-02 0. -1.
         -2   -1    0    0    0  501 -0.00000000000E+00 -0.00000000000E+00 -0.65490974609E+03  0.65490974609E+03  0.25500000000E-02 0.  1.
    8880023    1    1    2    0    0  0.43114021625E+03 -0.50603360282E+03 -0.26209438129E+03  0.97183103687E+03  0.65864270000E+03 0.  1.
    8880022    1    1    2    0    0 -0.43114021625E+03  0.50603360282E+03  0.30277965813E+04  0.31036906553E+04  0.15294330000E+03 0.  0.
<mgrwt>
<rscale>  0 0.86470211E+03</rscale>
<asrwt>0</asrwt>
<pdfrwt beam="1">  1        2 0.52624800E+00 0.93582162E+03</pdfrwt>
<pdfrwt beam="2">  1       -2 0.10075534E+00 0.93582162E+03</pdfrwt>
<totfact> 0.78114492E-01</totfact>
</mgrwt>
</event>
<event>
 4    5  0.8511149E-008  0.1135960E+04  0.7818608E-02  0.9222038E-01
          2   -1    0    0  501    0  0.00000000000E+00  0.00000000000E+00  0.22890590439E+04  0.22890590439E+04  0.25500000000E-02 0. -1.
         -2   -1    0    0    0  501 -0.00000000000E+00 -0.00000000000E+00 -0.96392287413E+03  0.96392287413E+03  0.25500000000E-02 0.  1.
    8880023    1    1    2    0    0 -0.90405408695E+03 -0.19819189354E+03 -0.46855531824E+03  0.12287994594E+04  0.65864270000E+03 0.  1.
    8880022    1    1    2    0    0  0.90405408695E+03  0.19819189354E+03  0.17936914880E+04  0.20241824587E+04  0.15294330000E+03 0.  0.
<mgrwt>
<rscale>  0 0.10828831E+04</rscale>
<asrwt>0</asrwt>
<pdfrwt beam="1">  1        2 0.35216293E+00 0.11359595E+04</pdfrwt>
<pdfrwt beam="2">  1       -2 0.14829583E+00 0.11359595E+04</pdfrwt>
<totfact> 0.13968742E+00</totfact>
</mgrwt>
</event>
<event>
 4    5  0.8511149E-008  0.7257761E+03  0.7818608E-02  0.9903505E-01
         -2   -1    0    0    0  501 -0.00000000000E+00  0.00000000000E+00  0.10232826871E+04  0.10232826871E+04  0.25500000000E-02 0.  1.
          2   -1    0    0  501    0  0.00000000000E+00 -0.00000000000E+00 -0.18786841569E+04  0.18786841569E+04  0.25500000000E-02 0. -1.
    8880023    1    1    2    0    0 -0.17001915073E+03 -0.25304977257E+03  0.87582485008E+03  0.11374621195E+04  0.65864270000E+03 0.  1.
    8880022    1    1    2    0    0  0.17001915073E+03  0.25304977257E+03 -0.17312263199E+04  0.17645047244E+04  0.15294330000E+03 0.  0.
<mgrwt>
<rscale>  0 0.60091708E+03</rscale>
<asrwt>0</asrwt>
<pdfrwt beam="1">  1        2 0.28902833E+00 0.72577607E+03</pdfrwt>
<pdfrwt beam="2">  1       -2 0.15742811E+00 0.72577607E+03</pdfrwt>
<totfact> 0.21364896E+00</totfact>
</mgrwt>
</event>
<event>
 4    5  0.8511149E-008  0.6600533E+03  0.7818608E-02  0.1024102E+00
         -2   -1    0    0    0  501 -0.00000000000E+00  0.00000000000E+00  0.41384180330E+03  0.41384180331E+03  0.25500000000E-02 0.  1.
          2   -1    0    0  501    0  0.00000000000E+00 -0.00000000000E+00 -0.18049443084E+04  0.18049443084E+04  0.25500000000E-02 0. -1.
    8880023    1    1    2    0    0  0.26409446340E+02  0.34097346393E+02  0.14391907507E+03  0.67556124394E+03  0.65864270000E+03 0.  1.
    8880022    1    1    2    0    0 -0.26409446340E+02 -0.34097346393E+02 -0.15350215802E+04  0.15432248678E+04  0.15294330000E+03 0.  0.
<mgrwt>
<rscale>  0 0.46234977E+03</rscale>
<asrwt>0</asrwt>
<pdfrwt beam="1">  1        2 0.27768373E+00 0.66005325E+03</pdfrwt>
<pdfrwt beam="2">  1       -2 0.63667971E-01 0.66005325E+03</pdfrwt>
<totfact> 0.20412445E+01</totfact>
</mgrwt>
</event>
<event>
 4    5  0.8511149E-008  0.7775682E+03  0.7818608E-02  0.9761581E-01
          2   -1    0    0  501    0  0.00000000000E+00  0.00000000000E+00  0.17995812770E+04  0.17995812770E+04  0.25500000000E-02 0. -1.
         -2   -1    0    0    0  501 -0.00000000000E+00 -0.00000000000E+00 -0.52085859573E+03  0.52085859573E+03  0.25500000000E-02 0.  1.
    8880023    1    1    2    0    0  0.16099602779E+03  0.38063417433E+03 -0.17871135810E+03  0.79784086847E+03  0.65864270000E+03 0.  0.
    8880022    1    1    2    0    0 -0.16099602779E+03 -0.38063417433E+03  0.14574340393E+04  0.15225990042E+04  0.15294330000E+03 0.  0.
<mgrwt>
<rscale>  0 0.67465738E+03</rscale>
<asrwt>0</asrwt>
<pdfrwt beam="1">  1        2 0.27685866E+00 0.77756820E+03</pdfrwt>
<pdfrwt beam="2">  1       -2 0.80132091E-01 0.77756820E+03</pdfrwt>
<totfact> 0.12206128E+01</totfact>
</mgrwt>
</event>
<event>
 4    5  0.8511149E-008  0.7027733E+03  0.7818608E-02  0.9985885E-01
         -2   -1    0    0    0  501 -0.00000000000E+00  0.00000000000E+00  0.28429640691E+03  0.28429640692E+03  0.25500000000E-02 0.  1.
          2   -1    0    0  501    0  0.00000000000E+00 -0.00000000000E+00 -0.26046678746E+04  0.26046678746E+04  0.25500000000E-02 0. -1.
    8880023    1    1    2    0    0 -0.37264829787E+02 -0.24226322122E+03 -0.17501069260E+03  0.72423689818E+03  0.65864270000E+03 0.  0.
    8880022    1    1    2    0    0  0.37264829787E+02  0.24226322122E+03 -0.21453607751E+04  0.21647273833E+04  0.15294330000E+03 0.  0.
<mgrwt>
<rscale>  0 0.56273498E+03</rscale>
<asrwt>0</asrwt>
<pdfrwt beam="1">  1        2 0.40071812E+00 0.70277332E+03</pdfrwt>
<pdfrwt beam="2">  1       -2 0.43737911E-01 0.70277332E+03</pdfrwt>
<totfact> 0.15857966E+01</totfact>
</mgrwt>
</event>
<event>
 4    5  0.8511149E-008  0.7219236E+03  0.7818608E-02  0.9916130E-01
         -2   -1    0    0    0  501 -0.00000000000E+00  0.00000000000E+00  0.18009493015E+04  0.18009493015E+04  0.25500000000E-02 0.  1.
          2   -1    0    0  501    0  0.00000000000E+00 -0.00000000000E+00 -0.25802641192E+03  0.25802641193E+03  0.25500000000E-02 0. -1.
    8880023    1    1    2    0    0 -0.20252350034E+03  0.21528521282E+03  0.15670063065E+04  0.17253064835E+04  0.65864270000E+03 0.  1.
    8880022    1    1    2    0    0  0.20252350034E+03 -0.21528521282E+03 -0.24083416897E+02  0.33366922998E+03  0.15294330000E+03 0.  0.
<mgrwt>
<rscale>  0 0.59485884E+03</rscale>
<asrwt>0</asrwt>
<pdfrwt beam="1">  1        2 0.39696370E-01 0.72192361E+03</pdfrwt>
<pdfrwt beam="2">  1       -2 0.27706913E+00 0.72192361E+03</pdfrwt>
<totfact> 0.59098317E+00</totfact>
</mgrwt>
</event>
<event>
 4    5  0.8511149E-008  0.1020905E+04  0.7818608E-02  0.9354704E-01
         -2   -1    0    0    0  501 -0.00000000000E+00  0.00000000000E+00  0.86382064525E+03  0.86382064525E+03  0.25500000000E-02 0.  1.
          2   -1    0    0  501    0  0.00000000000E+00 -0.00000000000E+00 -0.11877566735E+04  0.11877566735E+04  0.25500000000E-02 0. -1.
    8880023    1    1    2    0    0  0.57122924548E+03  0.53116358604E+03  0.27385793632E+03  0.10569985722E+04  0.65864270000E+03 0.  0.
    8880022    1    1    2    0    0 -0.57122924548E+03 -0.53116358604E+03 -0.59779396453E+03  0.99457874655E+03  0.15294330000E+03 0.  0.
<mgrwt>
<rscale>  0 0.95899002E+03</rscale>
<asrwt>0</asrwt>
<pdfrwt beam="1">  1        2 0.18273180E+00 0.10209054E+04</pdfrwt>
<pdfrwt beam="2">  1       -2 0.13289548E+00 0.10209054E+04</pdfrwt>
<totfact> 0.78313664E+00</totfact>
</mgrwt>
</event>
<event>
 4    5  0.8511149E-008  0.9691617E+03  0.7818608E-02  0.9423065E-01
         -2   -1    0    0    0  501 -0.00000000000E+00  0.00000000000E+00  0.12484699104E+04  0.12484699104E+04  0.25500000000E-02 0.  1.
          2   -1    0    0  501    0  0.00000000000E+00 -0.00000000000E+00 -0.94845229061E+03  0.94845229061E+03  0.25500000000E-02 0. -1.
    8880023    1    1    2    0    0  0.26902108821E+02 -0.71045085896E+03  0.84686499115E+03  0.12870332808E+04  0.65864270000E+03 0.  1.
    8880022    1    1    2    0    0 -0.26902108821E+02  0.71045085896E+03 -0.54684737138E+03  0.90988892017E+03  0.15294330000E+03 0.  0.
<mgrwt>
<rscale>  0 0.90201619E+03</rscale>
<asrwt>0</asrwt>
<pdfrwt beam="1">  1        2 0.14591574E+00 0.96916168E+03</pdfrwt>
<pdfrwt beam="2">  1       -2 0.19207229E+00 0.96916168E+03</pdfrwt>
<totfact> 0.40655889E+00</totfact>
</mgrwt>
</event>
<event>
 4    5  0.8511149E-008  0.2316621E+04  0.7818608E-02  0.8480410E-01
         -2   -1    0    0    0  501 -0.00000000000E+00  0.00000000000E+00  0.24254570066E+04  0.24254570067E+04  0.25500000000E-02 0.  1.
          2   -1    0    0  501    0  0.00000000000E+00 -0.00000000000E+00 -0.26297826807E+04  0.26297826807E+04  0.25500000000E-02 0. -1.
    8880023    1    1    2    0    0  0.81738107564E+01  0.22210035252E+04  0.10009764927E+04  0.25236258866E+04  0.65864270000E+03 0.  0.
    8880022    1    1    2    0    0 -0.81738107564E+01 -0.22210035252E+04 -0.12053021668E+04  0.25316138008E+04  0.15294330000E+03 0.  0.
<mgrwt>
<rscale>  0 0.22936974E+04</rscale>
<asrwt>0</asrwt>
<pdfrwt beam="1">  1        2 0.40458195E+00 0.23166212E+04</pdfrwt>
<pdfrwt beam="2">  1       -2 0.37314723E+00 0.23166212E+04</pdfrwt>
<totfact> 0.27680144E-02</totfact>
</mgrwt>
</event>
<event>
 4    5  0.8511149E-008  0.1404008E+04  0.7818608E-02  0.8980574E-01
         -2   -1    0    0    0  501 -0.00000000000E+00  0.00000000000E+00  0.57794939939E+03  0.57794939939E+03  0.25500000000E-02 0.  1.
          2   -1    0    0  501    0  0.00000000000E+00 -0.00000000000E+00 -0.40662710968E+04  0.40662710968E+04  0.25500000000E-02 0. -1.
    8880023    1    1    2    0    0 -0.12382902794E+04  0.63771468677E+02 -0.65824456286E+03  0.15506533227E+04  0.65864270000E+03 0.  1.
    8880022    1    1    2    0    0  0.12382902794E+04 -0.63771468677E+02 -0.28300771346E+04  0.30935671735E+04  0.15294330000E+03 0.  0.
<mgrwt>
<rscale>  0 0.13636297E+04</rscale>
<asrwt>0</asrwt>
<pdfrwt beam="1">  1        2 0.62558015E+00 0.14040085E+04</pdfrwt>
<pdfrwt beam="2">  1       -2 0.88915295E-01 0.14040085E+04</pdfrwt>
<totfact> 0.32365545E-01</totfact>
</mgrwt>
</event>
<event>
 4    5  0.8511149E-008  0.8513611E+03  0.7818608E-02  0.9609119E-01
         -2   -1    0    0    0  501 -0.00000000000E+00  0.00000000000E+00  0.35357745975E+03  0.35357745976E+03  0.25500000000E-02 0.  1.
          2   -1    0    0  501    0  0.00000000000E+00 -0.00000000000E+00 -0.36938151332E+04  0.36938151332E+04  0.25500000000E-02 0. -1.
    8880023    1    1    2    0    0  0.21469500870E+03 -0.49488536176E+03 -0.22293794173E+03  0.88006647486E+03  0.65864270000E+03 0.  0.
    8880022    1    1    2    0    0 -0.21469500870E+03  0.49488536176E+03 -0.31172997317E+04  0.31673261181E+04  0.15294330000E+03 0.  0.
<mgrwt>
<rscale>  0 0.76695549E+03</rscale>
<asrwt>0</asrwt>
<pdfrwt beam="1">  1        2 0.56827922E+00 0.85136107E+03</pdfrwt>
<pdfrwt beam="2">  1       -2 0.54396535E-01 0.85136107E+03</pdfrwt>
<totfact> 0.20118422E+00</totfact>
</mgrwt>
</event>
<event>
 4    5  0.8511149E-008  0.7387845E+03  0.7818608E-02  0.9863502E-01
         -2   -1    0    0    0  501 -0.00000000000E+00  0.00000000000E+00  0.49159361055E+03  0.49159361056E+03  0.25500000000E-02 0.  1.
          2   -1    0    0  501    0  0.00000000000E+00 -0.00000000000E+00 -0.16068307924E+04  0.16068307924E+04  0.25500000000E-02 0. -1.
    8880023    1    1    2    0    0  0.16090837578E+03  0.29342943877E+03  0.17291702106E+03  0.75875084407E+03  0.65864270000E+03 0.  1.
    8880022    1    1    2    0    0 -0.16090837578E+03 -0.29342943877E+03 -0.12881542029E+04  0.13396735589E+04  0.15294330000E+03 0.  0.
<mgrwt>
<rscale>  0 0.62063212E+03</rscale>
<asrwt>0</asrwt>
<pdfrwt beam="1">  1        2 0.24720473E+00 0.73878451E+03</pdfrwt>
<pdfrwt beam="2">  1       -2 0.75629787E-01 0.73878451E+03</pdfrwt>
<totfact> 0.17804468E+01</totfact>
</mgrwt>
</event>
<event>
 4    5  0.8511149E-008  0.6679758E+03  0.7818608E-02  0.1017157E+00
          2   -1    0    0  501    0  0.00000000000E+00  0.00000000000E+00  0.14340978133E+04  0.14340978133E+04  0.25500000000E-02 0. -1.
         -2   -1    0    0    0  501 -0.00000000000E+00 -0.00000000000E+00 -0.45005896573E+03  0.45005896574E+03  0.25500000000E-02 0.  1.
    8880023    1    1    2    0    0 -0.10834649761E+03 -0.25348260132E+02 -0.19040296400E+03  0.69458260329E+03  0.65864270000E+03 0.  1.
    8880022    1    1    2    0    0  0.10834649761E+03  0.25348260132E+02  0.11744418116E+04  0.11895741758E+04  0.15294330000E+03 0.  0.
<mgrwt>
<rscale>  0 0.48726499E+03</rscale>
<asrwt>0</asrwt>
<pdfrwt beam="1">  1        2 0.22063043E+00 0.66797583E+03</pdfrwt>
<pdfrwt beam="2">  1       -2 0.69239841E-01 0.66797583E+03</pdfrwt>
<totfact> 0.27199183E+01</totfact>
</mgrwt>
</event>
<event>
 4    5  0.8511149E-008  0.6956830E+03  0.7818608E-02  0.1001560E+00
          2   -1    0    0  501    0  0.00000000000E+00  0.00000000000E+00  0.31436803023E+04  0.31436803023E+04  0.25500000000E-02 0. -1.
         -2   -1    0    0    0  501 -0.00000000000E+00 -0.00000000000E+00 -0.22871108619E+03  0.22871108620E+03  0.25500000000E-02 0.  1.
    8880023    1    1    2    0    0  0.21608524573E+03 -0.58921435115E+02  0.32428864718E+03  0.76755319157E+03  0.65864270000E+03 0.  1.
    8880022    1    1    2    0    0 -0.21608524573E+03  0.58921435115E+02  0.25906805690E+04  0.26048381970E+04  0.15294330000E+03 0.  0.
<mgrwt>
<rscale>  0 0.54971293E+03</rscale>
<asrwt>0</asrwt>
<pdfrwt beam="1">  1        2 0.48364311E+00 0.69568296E+03</pdfrwt>
<pdfrwt beam="2">  1       -2 0.35186322E-01 0.69568296E+03</pdfrwt>
<totfact> 0.11529534E+01</totfact>
</mgrwt>
</event>
<event>
 4    5  0.8511149E-008  0.7168891E+03  0.7818608E-02  0.9933256E-01
          2   -1    0    0  501    0  0.00000000000E+00  0.00000000000E+00  0.93075858722E+03  0.93075858722E+03  0.25500000000E-02 0. -1.
         -2   -1    0    0    0  501 -0.00000000000E+00 -0.00000000000E+00 -0.52924558169E+03  0.52924558170E+03  0.25500000000E-02 0.  1.
    8880023    1    1    2    0    0 -0.26600236703E+03  0.96759898852E+02 -0.22864296648E+03  0.75246764028E+03  0.65864270000E+03 0.  1.
    8880022    1    1    2    0    0  0.26600236703E+03 -0.96759898852E+02  0.63015597200E+03  0.70753652863E+03  0.15294330000E+03 0.  0.
<mgrwt>
<rscale>  0 0.58676269E+03</rscale>
<asrwt>0</asrwt>
<pdfrwt beam="1">  1        2 0.14319363E+00 0.71688907E+03</pdfrwt>
<pdfrwt beam="2">  1       -2 0.81422399E-01 0.71688907E+03</pdfrwt>
<totfact> 0.37818778E+01</totfact>
</mgrwt>
</event>
<event>
 4    5  0.8511149E-008  0.8233892E+03  0.7818608E-02  0.9662334E-01
          2   -1    0    0  501    0  0.00000000000E+00  0.00000000000E+00  0.11078685296E+04  0.11078685296E+04  0.25500000000E-02 0. -1.
         -2   -1    0    0    0  501 -0.00000000000E+00 -0.00000000000E+00 -0.46893797758E+03  0.46893797758E+03  0.25500000000E-02 0.  1.
    8880023    1    1    2    0    0  0.18217329861E+03  0.45931742556E+03  0.99376842808E+02  0.82936455874E+03  0.65864270000E+03 0.  1.
    8880022    1    1    2    0    0 -0.18217329861E+03 -0.45931742556E+03  0.53955370921E+03  0.74744194844E+03  0.15294330000E+03 0.  0.
<mgrwt>
<rscale>  0 0.73304352E+03</rscale>
<asrwt>0</asrwt>
<pdfrwt beam="1">  1        2 0.17044131E+00 0.82338922E+03</pdfrwt>
<pdfrwt beam="2">  1       -2 0.72144305E-01 0.82338922E+03</pdfrwt>
<totfact> 0.37870055E+01</totfact>
</mgrwt>
</event>
<event>
 4    5  0.8511149E-008  0.9678205E+03  0.7818608E-02  0.9424925E-01
         -2   -1    0    0    0  501 -0.00000000000E+00  0.00000000000E+00  0.23519083609E+04  0.23519083609E+04  0.25500000000E-02 0.  1.
          2   -1    0    0  501    0  0.00000000000E+00 -0.00000000000E+00 -0.42236264826E+03  0.42236264827E+03  0.25500000000E-02 0. -1.
    8880023    1    1    2    0    0  0.34241107899E+02 -0.70830353618E+03  0.17909330157E+04  0.20357105948E+04  0.65864270000E+03 0.  1.
    8880022    1    1    2    0    0 -0.34241107899E+02  0.70830353618E+03  0.13861269689E+03  0.73856041431E+03  0.15294330000E+03 0.  0.
<mgrwt>
<rscale>  0 0.90052538E+03</rscale>
<asrwt>0</asrwt>
<pdfrwt beam="1">  1        2 0.64978870E-01 0.96782052E+03</pdfrwt>
<pdfrwt beam="2">  1       -2 0.36183205E+00 0.96782052E+03</pdfrwt>
<totfact> 0.99983560E-01</totfact>
</mgrwt>
</event>
<event>
 4    5  0.8511149E-008  0.9165874E+03  0.7818608E-02  0.9499911E-01
         -2   -1    0    0    0  501 -0.00000000000E+00  0.00000000000E+00  0.19909838800E+04  0.19909838800E+04  0.25500000000E-02 0.  1.
          2   -1    0    0  501    0  0.00000000000E+00 -0.00000000000E+00 -0.43475680283E+03  0.43475680284E+03  0.25500000000E-02 0. -1.
    8880023    1    1    2    0    0  0.25538808894E+03 -0.58403700910E+03  0.15127568450E+04  0.17687752210E+04  0.65864270000E+03 0.  1.
    8880022    1    1    2    0    0 -0.25538808894E+03  0.58403700910E+03  0.43470232150E+02  0.65696546185E+03  0.15294330000E+03 0.  0.
<mgrwt>
<rscale>  0 0.84290349E+03</rscale>
<asrwt>0</asrwt>
<pdfrwt beam="1">  1        2 0.66885662E-01 0.91658743E+03</pdfrwt>
<pdfrwt beam="2">  1       -2 0.30630521E+00 0.91658743E+03</pdfrwt>
<totfact> 0.21432389E+00</totfact>
</mgrwt>
</event>
<event>
 4    5  0.8511149E-008  0.1275455E+04  0.7818608E-02  0.9087051E-01
         -2   -1    0    0    0  501 -0.00000000000E+00  0.00000000000E+00  0.33294871274E+04  0.33294871274E+04  0.25500000000E-02 0.  1.
          2   -1    0    0  501    0  0.00000000000E+00 -0.00000000000E+00 -0.15844861746E+04  0.15844861746E+04  0.25500000000E-02 0. -1.
    8880023    1    1    2    0    0  0.10136552835E+04 -0.40679048408E+03  0.29900310935E+04  0.32507032590E+04  0.65864270000E+03 0.  1.
    8880022    1    1    2    0    0 -0.10136552835E+04  0.40679048408E+03 -0.12450301407E+04  0.16632700430E+04  0.15294330000E+03 0.  0.
<mgrwt>
<rscale>  0 0.12299345E+04</rscale>
<asrwt>0</asrwt>
<pdfrwt beam="1">  1        2 0.24376710E+00 0.12754551E+04</pdfrwt>
<pdfrwt beam="2">  1       -2 0.51222879E+00 0.12754551E+04</pdfrwt>
<totfact> 0.15173107E-02</totfact>
</mgrwt>
</event>
<event>
 4    5  0.8511149E-008  0.7980084E+03  0.7818608E-02  0.9715119E-01
         -2   -1    0    0    0  501 -0.00000000000E+00  0.00000000000E+00  0.25088453797E+03  0.25088453798E+03  0.25500000000E-02 0.  1.
          2   -1    0    0  501    0  0.00000000000E+00 -0.00000000000E+00 -0.18079545664E+04  0.18079545664E+04  0.25500000000E-02 0. -1.
    8880023    1    1    2    0    0 -0.45044664002E+03 -0.10248883257E+02 -0.62972165163E+03  0.10165464967E+04  0.65864270000E+03 0.  0.
    8880022    1    1    2    0    0  0.45044664002E+03  0.10248883257E+02 -0.92734837684E+03  0.10422926077E+04  0.15294330000E+03 0.  0.
<mgrwt>
<rscale>  0 0.70123710E+03</rscale>
<asrwt>0</asrwt>
<pdfrwt beam="1">  1        2 0.27814685E+00 0.79800841E+03</pdfrwt>
<pdfrwt beam="2">  1       -2 0.38597622E-01 0.79800841E+03</pdfrwt>
<totfact> 0.55283511E+01</totfact>
</mgrwt>
</event>
<event>
 4    5  0.8511149E-008  0.1550901E+04  0.7818608E-02  0.8874505E-01
         -2   -1    0    0    0  501 -0.00000000000E+00  0.00000000000E+00  0.15942247862E+04  0.15942247862E+04  0.25500000000E-02 0.  1.
          2   -1    0    0  501    0  0.00000000000E+00 -0.00000000000E+00 -0.21732344123E+04  0.21732344123E+04  0.25500000000E-02 0. -1.
    8880023    1    1    2    0    0  0.87872686149E+03 -0.10951353346E+04  0.84132649584E+03  0.17644043689E+04  0.65864270000E+03 0.  0.
    8880022    1    1    2    0    0 -0.87872686149E+03  0.10951353346E+04 -0.14203361219E+04  0.20030548296E+04  0.15294330000E+03 0.  0.
<mgrwt>
<rscale>  0 0.15150515E+04</rscale>
<asrwt>0</asrwt>
<pdfrwt beam="1">  1        2 0.33434376E+00 0.15509005E+04</pdfrwt>
<pdfrwt beam="2">  1       -2 0.24526535E+00 0.15509005E+04</pdfrwt>
<totfact> 0.34245567E-01</totfact>
</mgrwt>
</event>
<event>
 4    5  0.8511149E-008  0.9837229E+03  0.7818608E-02  0.9403170E-01
         -2   -1    0    0    0  501 -0.00000000000E+00  0.00000000000E+00  0.38388475236E+03  0.38388475237E+03  0.25500000000E-02 0.  1.
          2   -1    0    0  501    0  0.00000000000E+00 -0.00000000000E+00 -0.20248625885E+04  0.20248625885E+04  0.25500000000E-02 0. -1.
    8880023    1    1    2    0    0  0.64329900978E+03 -0.34650678712E+03 -0.69876173157E+03  0.12066394380E+04  0.65864270000E+03 0.  0.
    8880022    1    1    2    0    0 -0.64329900978E+03  0.34650678712E+03 -0.94221610458E+03  0.12021079029E+04  0.15294330000E+03 0.  0.
<mgrwt>
<rscale>  0 0.91815280E+03</rscale>
<asrwt>0</asrwt>
<pdfrwt beam="1">  1        2 0.31151732E+00 0.98372292E+03</pdfrwt>
<pdfrwt beam="2">  1       -2 0.59059194E-01 0.98372292E+03</pdfrwt>
<totfact> 0.17430119E+01</totfact>
</mgrwt>
</event>
<event>
 4    5  0.8511149E-008  0.9198658E+03  0.7818608E-02  0.9494865E-01
         -2   -1    0    0    0  501 -0.00000000000E+00  0.00000000000E+00  0.12630657348E+04  0.12630657348E+04  0.25500000000E-02 0.  1.
          2   -1    0    0  501    0  0.00000000000E+00 -0.00000000000E+00 -0.12602645543E+04  0.12602645543E+04  0.25500000000E-02 0. -1.
    8880023    1    1    2    0    0  0.50534547460E+03  0.39619297480E+03  0.97999382420E+03  0.13440762715E+04  0.65864270000E+03 0.  0.
    8880022    1    1    2    0    0 -0.50534547460E+03 -0.39619297480E+03 -0.97719264373E+03  0.11792540176E+04  0.15294330000E+03 0.  0.
<mgrwt>
<rscale>  0 0.84663480E+03</rscale>
<asrwt>0</asrwt>
<pdfrwt beam="1">  1        2 0.19388685E+00 0.91986582E+03</pdfrwt>
<pdfrwt beam="2">  1       -2 0.19431781E+00 0.91986582E+03</pdfrwt>
<totfact> 0.25350585E+00</totfact>
</mgrwt>
</event>
<event>
 4    5  0.8511149E-008  0.7068276E+03  0.7818608E-02  0.9969976E-01
         -2   -1    0    0    0  501 -0.00000000000E+00  0.00000000000E+00  0.10384153561E+04  0.10384153561E+04  0.25500000000E-02 0.  1.
          2   -1    0    0  501    0  0.00000000000E+00 -0.00000000000E+00 -0.11474498207E+04  0.11474498207E+04  0.25500000000E-02 0. -1.
    8880023    1    1    2    0    0 -0.43268417358E+02 -0.25282975941E+03  0.89379860169E+03  0.11395091881E+04  0.65864270000E+03 0.  0.
    8880022    1    1    2    0    0  0.43268417358E+02  0.25282975941E+03 -0.10028330663E+04  0.10463559887E+04  0.15294330000E+03 0.  0.
<mgrwt>
<rscale>  0 0.56986585E+03</rscale>
<asrwt>0</asrwt>
<pdfrwt beam="1">  1        2 0.17653074E+00 0.70682760E+03</pdfrwt>
<pdfrwt beam="2">  1       -2 0.15975621E+00 0.70682760E+03</pdfrwt>
<totfact> 0.52960847E+00</totfact>
</mgrwt>
</event>
<event>
 4    5  0.8511149E-008  0.6978219E+03  0.7818608E-02  0.1000636E+00
          2   -1    0    0  501    0  0.00000000000E+00  0.00000000000E+00  0.33476882124E+04  0.33476882124E+04  0.25500000000E-02 0. -1.
         -2   -1    0    0    0  501 -0.00000000000E+00 -0.00000000000E+00 -0.15417365110E+03  0.15417365112E+03  0.25500000000E-02 0.  1.
    8880023    1    1    2    0    0  0.19656241835E+03 -0.12045101613E+03  0.68400176342E+03  0.97714576713E+03  0.65864270000E+03 0.  1.
    8880022    1    1    2    0    0 -0.19656241835E+03  0.12045101613E+03  0.25095127979E+04  0.25247160964E+04  0.15294330000E+03 0.  0.
<mgrwt>
<rscale>  0 0.55372267E+03</rscale>
<asrwt>0</asrwt>
<pdfrwt beam="1">  1        2 0.51502889E+00 0.69782192E+03</pdfrwt>
<pdfrwt beam="2">  1       -2 0.23719026E-01 0.69782192E+03</pdfrwt>
<totfact> 0.17641352E+01</totfact>
</mgrwt>
</event>
<event>
 4    5  0.8511149E-008  0.7906509E+03  0.7818608E-02  0.9731388E-01
          2   -1    0    0  501    0  0.00000000000E+00  0.00000000000E+00  0.14282160462E+04  0.14282160462E+04  0.25500000000E-02 0. -1.
         -2   -1    0    0    0  501 -0.00000000000E+00 -0.00000000000E+00 -0.68949470081E+03  0.68949470081E+03  0.25500000000E-02 0.  1.
    8880023    1    1    2    0    0 -0.15850023711E+03  0.40767183530E+03 -0.40163007200E+03  0.88681202713E+03  0.65864270000E+03 0.  1.
    8880022    1    1    2    0    0  0.15850023711E+03 -0.40767183530E+03  0.11403514174E+04  0.12308987199E+04  0.15294330000E+03 0.  0.
<mgrwt>
<rscale>  0 0.69178349E+03</rscale>
<asrwt>0</asrwt>
<pdfrwt beam="1">  1        2 0.21972554E+00 0.79065091E+03</pdfrwt>
<pdfrwt beam="2">  1       -2 0.10607611E+00 0.79065091E+03</pdfrwt>
<totfact> 0.10181164E+01</totfact>
</mgrwt>
</event>
<event>
 4    5  0.8511149E-008  0.1290836E+04  0.7818608E-02  0.9073514E-01
         -2   -1    0    0    0  501 -0.00000000000E+00  0.00000000000E+00  0.13677314691E+04  0.13677314691E+04  0.25500000000E-02 0.  1.
          2   -1    0    0  501    0  0.00000000000E+00 -0.00000000000E+00 -0.15661300484E+04  0.15661300484E+04  0.25500000000E-02 0. -1.
    8880023    1    1    2    0    0 -0.61373221651E+03  0.92508349898E+03  0.72614756164E+03  0.14810628620E+04  0.65864270000E+03 0.  0.
    8880022    1    1    2    0    0  0.61373221651E+03 -0.92508349898E+03 -0.92454614097E+03  0.14527986555E+04  0.15294330000E+03 0.  0.
<mgrwt>
<rscale>  0 0.12460055E+04</rscale>
<asrwt>0</asrwt>
<pdfrwt beam="1">  1        2 0.24094308E+00 0.12908357E+04</pdfrwt>
<pdfrwt beam="2">  1       -2 0.21042023E+00 0.12908357E+04</pdfrwt>
<totfact> 0.12733818E+00</totfact>
</mgrwt>
</event>
<event>
 4    5  0.8511149E-008  0.1078252E+04  0.7818608E-02  0.9285665E-01
         -2   -1    0    0    0  501 -0.00000000000E+00  0.00000000000E+00  0.11965139754E+04  0.11965139754E+04  0.25500000000E-02 0.  1.
          2   -1    0    0  501    0  0.00000000000E+00 -0.00000000000E+00 -0.11221427467E+04  0.11221427468E+04  0.25500000000E-02 0. -1.
    8880023    1    1    2    0    0  0.59961770176E+03 -0.60767986204E+03  0.66731360811E+03  0.12680433198E+04  0.65864270000E+03 0.  0.
    8880022    1    1    2    0    0 -0.59961770176E+03  0.60767986204E+03 -0.59294237943E+03  0.10506134024E+04  0.15294330000E+03 0.  0.
<mgrwt>
<rscale>  0 0.10211330E+04</rscale>
<asrwt>0</asrwt>
<pdfrwt beam="1">  1        2 0.17263735E+00 0.10782516E+04</pdfrwt>
<pdfrwt beam="2">  1       -2 0.18407907E+00 0.10782516E+04</pdfrwt>
<totfact> 0.35289409E+00</totfact>
</mgrwt>
</event>
<event>
 4    5  0.8511149E-008  0.2034754E+04  0.7818608E-02  0.8602715E-01
         -2   -1    0    0    0  501 -0.00000000000E+00  0.00000000000E+00  0.18931199701E+04  0.18931199701E+04  0.25500000000E-02 0.  1.
          2   -1    0    0  501    0  0.00000000000E+00 -0.00000000000E+00 -0.30442441751E+04  0.30442441751E+04  0.25500000000E-02 0. -1.
    8880023    1    1    2    0    0  0.19245069802E+04  0.51834516486E+02  0.80527604009E+03  0.21883083971E+04  0.65864270000E+03 0.  0.
    8880022    1    1    2    0    0 -0.19245069802E+04 -0.51834516486E+02 -0.19564002452E+04  0.27490557481E+04  0.15294330000E+03 0.  0.
<mgrwt>
<rscale>  0 0.20083746E+04</rscale>
<asrwt>0</asrwt>
<pdfrwt beam="1">  1        2 0.46834526E+00 0.20347541E+04</pdfrwt>
<pdfrwt beam="2">  1       -2 0.29124923E+00 0.20347541E+04</pdfrwt>
<totfact> 0.51769895E-02</totfact>
</mgrwt>
</event>
<event>
 4    5  0.8511149E-008  0.7032208E+03  0.7818608E-02  0.9984093E-01
          2   -1    0    0  501    0  0.00000000000E+00  0.00000000000E+00  0.21334063532E+04  0.21334063532E+04  0.25500000000E-02 0. -1.
         -2   -1    0    0    0  501 -0.00000000000E+00 -0.00000000000E+00 -0.41599818254E+03  0.41599818255E+03  0.25500000000E-02 0.  1.
    8880023    1    1    2    0    0 -0.21567286531E+03 -0.11914070756E+03 -0.98854839669E+02  0.71013504252E+03  0.65864270000E+03 0.  1.
    8880022    1    1    2    0    0  0.21567286531E+03  0.11914070756E+03  0.18162630103E+04  0.18392694932E+04  0.15294330000E+03 0.  0.
<mgrwt>
<rscale>  0 0.56353240E+03</rscale>
<asrwt>0</asrwt>
<pdfrwt beam="1">  1        2 0.32821637E+00 0.70322080E+03</pdfrwt>
<pdfrwt beam="2">  1       -2 0.63999719E-01 0.70322080E+03</pdfrwt>
<totfact> 0.13285022E+01</totfact>
</mgrwt>
</event>
<event>
 4    5  0.8511149E-008  0.1113522E+04  0.7818608E-02  0.9246148E-01
          2   -1    0    0  501    0  0.00000000000E+00  0.00000000000E+00  0.10798813301E+04  0.10798813301E+04  0.25500000000E-02 0. -1.
         -2   -1    0    0    0  501 -0.00000000000E+00 -0.00000000000E+00 -0.14790953206E+04  0.14790953206E+04  0.25500000000E-02 0.  1.
    8880023    1    1    2    0    0  0.81341696773E+03 -0.38009835839E+03 -0.97617819986E+03  0.14808295005E+04  0.65864270000E+03 0.  1.
    8880022    1    1    2    0    0 -0.81341696773E+03  0.38009835839E+03  0.57696420938E+03  0.10781471501E+04  0.15294330000E+03 0.  0.
<mgrwt>
<rscale>  0 0.10589541E+04</rscale>
<asrwt>0</asrwt>
<pdfrwt beam="1">  1        2 0.16613559E+00 0.11135224E+04</pdfrwt>
<pdfrwt beam="2">  1       -2 0.22755313E+00 0.11135224E+04</pdfrwt>
<totfact> 0.19487884E+00</totfact>
</mgrwt>
</event>
<event>
 4    5  0.8511149E-008  0.8808974E+03  0.7818608E-02  0.9557421E-01
         -2   -1    0    0    0  501 -0.00000000000E+00  0.00000000000E+00  0.11814947923E+04  0.11814947923E+04  0.25500000000E-02 0.  1.
          2   -1    0    0  501    0  0.00000000000E+00 -0.00000000000E+00 -0.85107025179E+03  0.85107025179E+03  0.25500000000E-02 0. -1.
    8880023    1    1    2    0    0 -0.57694326261E+03  0.96469750248E+02  0.85832472237E+03  0.12299192966E+04  0.65864270000E+03 0.  1.
    8880022    1    1    2    0    0  0.57694326261E+03 -0.96469750248E+02 -0.52790018181E+03  0.80264574749E+03  0.15294330000E+03 0. -1.
<mgrwt>
<rscale>  0 0.80179630E+03</rscale>
<asrwt>0</asrwt>
<pdfrwt beam="1">  1        2 0.13093389E+00 0.88089735E+03</pdfrwt>
<pdfrwt beam="2">  1       -2 0.18176843E+00 0.88089735E+03</pdfrwt>
<totfact> 0.56086488E+00</totfact>
</mgrwt>
</event>
<event>
 4    5  0.8511149E-008  0.6657567E+03  0.7818608E-02  0.1018907E+00
          2   -1    0    0  501    0  0.00000000000E+00  0.00000000000E+00  0.40870056347E+03  0.40870056348E+03  0.25500000000E-02 0. -1.
         -2   -1    0    0    0  501 -0.00000000000E+00 -0.00000000000E+00 -0.94153759501E+03  0.94153759501E+03  0.25500000000E-02 0.  1.
    8880023    1    1    2    0    0 -0.45724119681E+02  0.85621837639E+02 -0.79161889003E+03  0.10343560642E+04  0.65864270000E+03 0.  1.
    8880022    1    1    2    0    0  0.45724119681E+02 -0.85621837639E+02  0.25878185850E+03  0.31588209431E+03  0.15294330000E+03 0.  0.
<mgrwt>
<rscale>  0 0.48083176E+03</rscale>
<asrwt>0</asrwt>
<pdfrwt beam="1">  1        2 0.62877010E-01 0.66575671E+03</pdfrwt>
<pdfrwt beam="2">  1       -2 0.14485194E+00 0.66575671E+03</pdfrwt>
<totfact> 0.25999091E+01</totfact>
</mgrwt>
</event>
<event>
 4    5  0.8511149E-008  0.2073378E+04  0.7818608E-02  0.8584713E-01
         -2   -1    0    0    0  501 -0.00000000000E+00  0.00000000000E+00  0.22265663768E+04  0.22265663768E+04  0.25500000000E-02 0.  1.
          2   -1    0    0  501    0  0.00000000000E+00 -0.00000000000E+00 -0.29438227100E+04  0.29438227100E+04  0.25500000000E-02 0. -1.
    8880023    1    1    2    0    0 -0.15306901527E+03 -0.19600147260E+04  0.12203252899E+04  0.24058453544E+04  0.65864270000E+03 0.  1.
    8880022    1    1    2    0    0  0.15306901527E+03  0.19600147260E+04 -0.19375816231E+04  0.27645437325E+04  0.15294330000E+03 0.  0.
<mgrwt>
<rscale>  0 0.20475353E+04</rscale>
<asrwt>0</asrwt>
<pdfrwt beam="1">  1        2 0.45289580E+00 0.20733784E+04</pdfrwt>
<pdfrwt beam="2">  1       -2 0.34254867E+00 0.20733784E+04</pdfrwt>
<totfact> 0.28644181E-02</totfact>
</mgrwt>
</event>
<event>
 4    5  0.8511149E-008  0.7302819E+03  0.7818608E-02  0.9889217E-01
         -2   -1    0    0    0  501 -0.00000000000E+00  0.00000000000E+00  0.35946561064E+03  0.35946561065E+03  0.25500000000E-02 0.  1.
          2   -1    0    0  501    0  0.00000000000E+00 -0.00000000000E+00 -0.10294279657E+04  0.10294279657E+04  0.25500000000E-02 0. -1.
    8880023    1    1    2    0    0 -0.23763701688E+03 -0.20743706276E+03 -0.12498258868E+03  0.74089968318E+03  0.65864270000E+03 0.  1.
    8880022    1    1    2    0    0  0.23763701688E+03  0.20743706276E+03 -0.54497976635E+03  0.64799389314E+03  0.15294330000E+03 0.  0.
<mgrwt>
<rscale>  0 0.60786742E+03</rscale>
<asrwt>0</asrwt>
<pdfrwt beam="1">  1        2 0.15837353E+00 0.73028193E+03</pdfrwt>
<pdfrwt beam="2">  1       -2 0.55302402E-01 0.73028193E+03</pdfrwt>
<totfact> 0.75353246E+01</totfact>
</mgrwt>
</event>
<event>
 4    5  0.8511149E-008  0.1326793E+04  0.7818608E-02  0.9042761E-01
          2   -1    0    0  501    0  0.00000000000E+00  0.00000000000E+00  0.22551940318E+04  0.22551940319E+04  0.25500000000E-02 0. -1.
         -2   -1    0    0    0  501 -0.00000000000E+00 -0.00000000000E+00 -0.99789959698E+03  0.99789959698E+03  0.25500000000E-02 0.  1.
    8880023    1    1    2    0    0  0.91297517457E+03  0.70217184272E+03 -0.24982084905E+03  0.13501072657E+04  0.65864270000E+03 0.  1.
    8880022    1    1    2    0    0 -0.91297517457E+03 -0.70217184272E+03  0.15071152839E+04  0.19029863631E+04  0.15294330000E+03 0.  0.
<mgrwt>
<rscale>  0 0.12834899E+04</rscale>
<asrwt>0</asrwt>
<pdfrwt beam="1">  1        2 0.34695292E+00 0.13267928E+04</pdfrwt>
<pdfrwt beam="2">  1       -2 0.15352302E+00 0.13267928E+04</pdfrwt>
<totfact> 0.13007250E+00</totfact>
</mgrwt>
</event>
<event>
 4    5  0.8511149E-008  0.6931296E+03  0.7818608E-02  0.1002699E+00
         -2   -1    0    0    0  501 -0.00000000000E+00  0.00000000000E+00  0.43108285807E+03  0.43108285807E+03  0.25500000000E-02 0.  1.
          2   -1    0    0  501    0  0.00000000000E+00 -0.00000000000E+00 -0.83000238082E+03  0.83000238082E+03  0.25500000000E-02 0. -1.
    8880023    1    1    2    0    0  0.75310459583E+02  0.20235299161E+03  0.96127824960E+02  0.69976364834E+03  0.65864270000E+03 0.  1.
    8880022    1    1    2    0    0 -0.75310459583E+02 -0.20235299161E+03 -0.49504734771E+03  0.56132159056E+03  0.15294330000E+03 0.  0.
<mgrwt>
<rscale>  0 0.54482355E+03</rscale>
<asrwt>0</asrwt>
<pdfrwt beam="1">  1        2 0.12769267E+00 0.69312957E+03</pdfrwt>
<pdfrwt beam="2">  1       -2 0.66320440E-01 0.69312957E+03</pdfrwt>
<totfact> 0.69755510E+01</totfact>
</mgrwt>
</event>
<event>
 4    5  0.8511149E-008  0.7153942E+03  0.7818608E-02  0.9938490E-01
          2   -1    0    0  501    0  0.00000000000E+00  0.00000000000E+00  0.18973350012E+04  0.18973350012E+04  0.25500000000E-02 0. -1.
         -2   -1    0    0    0  501 -0.00000000000E+00 -0.00000000000E+00 -0.18284263953E+03  0.18284263954E+03  0.25500000000E-02 0.  1.
    8880023    1    1    2    0    0 -0.27865768020E+03 -0.18126579994E+02  0.64131572818E+03  0.96076778938E+03  0.65864270000E+03 0.  1.
    8880022    1    1    2    0    0  0.27865768020E+03  0.18126579994E+02  0.10731766335E+04  0.11194098513E+04  0.15294330000E+03 0.  0.
<mgrwt>
<rscale>  0 0.58431620E+03</rscale>
<asrwt>0</asrwt>
<pdfrwt beam="1">  1        2 0.29189771E+00 0.71539421E+03</pdfrwt>
<pdfrwt beam="2">  1       -2 0.28129635E-01 0.71539421E+03</pdfrwt>
<totfact> 0.90539966E+01</totfact>
</mgrwt>
</event>
<event>
 4    5  0.8511149E-008  0.9591614E+03  0.7818608E-02  0.9437053E-01
         -2   -1    0    0    0  501 -0.00000000000E+00  0.00000000000E+00  0.99587977330E+03  0.99587977331E+03  0.25500000000E-02 0.  1.
          2   -1    0    0  501    0  0.00000000000E+00 -0.00000000000E+00 -0.13368235513E+04  0.13368235513E+04  0.25500000000E-02 0. -1.
    8880023    1    1    2    0    0 -0.20062503596E+03 -0.66777993738E+03  0.61518426338E+03  0.11394921386E+04  0.65864270000E+03 0.  0.
    8880022    1    1    2    0    0  0.20062503596E+03  0.66777993738E+03 -0.95612804139E+03  0.11932111860E+04  0.15294330000E+03 0.  0.
<mgrwt>
<rscale>  0 0.89088057E+03</rscale>
<asrwt>0</asrwt>
<pdfrwt beam="1">  1        2 0.20566516E+00 0.95916143E+03</pdfrwt>
<pdfrwt beam="2">  1       -2 0.15321227E+00 0.95916143E+03</pdfrwt>
<totfact> 0.44397378E+00</totfact>
</mgrwt>
</event>
<event>
 4    5  0.8511149E-008  0.1198214E+04  0.7818608E-02  0.9158860E-01
         -2   -1    0    0    0  501 -0.00000000000E+00  0.00000000000E+00  0.10540609863E+04  0.10540609863E+04  0.25500000000E-02 0.  1.
          2   -1    0    0  501    0  0.00000000000E+00 -0.00000000000E+00 -0.36899824013E+04  0.36899824013E+04  0.25500000000E-02 0. -1.
    8880023    1    1    2    0    0 -0.98903236408E+03  0.15401840228E+03  0.60950345732E+03  0.13443256139E+04  0.65864270000E+03 0.  1.
    8880022    1    1    2    0    0  0.98903236408E+03 -0.15401840228E+03 -0.32454248724E+04  0.33997177737E+04  0.15294330000E+03 0.  0.
<mgrwt>
<rscale>  0 0.11488335E+04</rscale>
<asrwt>0</asrwt>
<pdfrwt beam="1">  1        2 0.56768959E+00 0.11982140E+04</pdfrwt>
<pdfrwt beam="2">  1       -2 0.16216323E+00 0.11982140E+04</pdfrwt>
<totfact> 0.14399234E-01</totfact>
</mgrwt>
</event>
<event>
 4    5  0.8511149E-008  0.7684301E+03  0.7818608E-02  0.9783752E-01
          2   -1    0    0  501    0  0.00000000000E+00  0.00000000000E+00  0.13669003977E+04  0.13669003977E+04  0.25500000000E-02 0. -1.
         -2   -1    0    0    0  501 -0.00000000000E+00 -0.00000000000E+00 -0.37404489309E+03  0.37404489309E+03  0.25500000000E-02 0.  1.
    8880023    1    1    2    0    0 -0.39580096131E+03 -0.40303494451E+01  0.12994197820E+03  0.77933931548E+03  0.65864270000E+03 0.  0.
    8880022    1    1    2    0    0  0.39580096131E+03  0.40303494451E+01  0.86291352645E+03  0.96160597535E+03  0.15294330000E+03 0.  0.
<mgrwt>
<rscale>  0 0.66241833E+03</rscale>
<asrwt>0</asrwt>
<pdfrwt beam="1">  1        2 0.21029237E+00 0.76843012E+03</pdfrwt>
<pdfrwt beam="2">  1       -2 0.57545369E-01 0.76843012E+03</pdfrwt>
<totfact> 0.43545839E+01</totfact>
</mgrwt>
</event>
<event>
 4    5  0.8511149E-008  0.6850165E+03  0.7818608E-02  0.1006617E+00
          2   -1    0    0  501    0  0.00000000000E+00  0.00000000000E+00  0.29665863052E+04  0.29665863052E+04  0.25500000000E-02 0. -1.
         -2   -1    0    0    0  501 -0.00000000000E+00 -0.00000000000E+00 -0.11946835720E+03  0.11946835723E+03  0.25500000000E-02 0.  1.
    8880023    1    1    2    0    0 -0.13387601995E+03 -0.13234271125E+03  0.93752860744E+03  0.11611233690E+04  0.65864270000E+03 0.  1.
    8880022    1    1    2    0    0  0.13387601995E+03  0.13234271125E+03  0.19095893406E+04  0.19249312935E+04  0.15294330000E+03 0.  0.
<mgrwt>
<rscale>  0 0.52841451E+03</rscale>
<asrwt>0</asrwt>
<pdfrwt beam="1">  1        2 0.45639790E+00 0.68501649E+03</pdfrwt>
<pdfrwt beam="2">  1       -2 0.18379747E-01 0.68501649E+03</pdfrwt>
<totfact> 0.48123065E+01</totfact>
</mgrwt>
</event>
<event>
 4    5  0.8511149E-008  0.2128505E+04  0.7818608E-02  0.8559752E-01
          2   -1    0    0  501    0  0.00000000000E+00  0.00000000000E+00  0.52599744617E+04  0.52599744617E+04  0.25500000000E-02 0. -1.
         -2   -1    0    0    0  501 -0.00000000000E+00 -0.00000000000E+00 -0.12174863100E+04  0.12174863100E+04  0.25500000000E-02 0.  1.
    8880023    1    1    2    0    0  0.97379022554E+03 -0.17743890746E+04  0.20771932153E+03  0.21386167292E+04  0.65864270000E+03 0.  0.
    8880022    1    1    2    0    0 -0.97379022554E+03  0.17743890746E+04  0.38347688301E+04  0.43388440425E+04  0.15294330000E+03 0.  0.
<mgrwt>
<rscale>  0 0.21033895E+04</rscale>
<asrwt>0</asrwt>
<pdfrwt beam="1">  1        2 0.80922686E+00 0.21285052E+04</pdfrwt>
<pdfrwt beam="2">  1       -2 0.18730558E+00 0.21285052E+04</pdfrwt>
<totfact> 0.21790591E-03</totfact>
</mgrwt>
</event>
<event>
 4    5  0.8511149E-008  0.7631456E+03  0.7818608E-02  0.9797031E-01
          2   -1    0    0  501    0  0.00000000000E+00  0.00000000000E+00  0.10182103904E+04  0.10182103904E+04  0.25500000000E-02 0. -1.
         -2   -1    0    0    0  501 -0.00000000000E+00 -0.00000000000E+00 -0.69381019386E+03  0.69381019387E+03  0.25500000000E-02 0.  1.
    8880023    1    1    2    0    0 -0.73501427170E+02 -0.37838949116E+03 -0.41172175410E+03  0.86712517889E+03  0.65864270000E+03 0.  0.
    8880022    1    1    2    0    0  0.73501427170E+02  0.37838949116E+03  0.73612195066E+03  0.84489540540E+03  0.15294330000E+03 0.  0.
<mgrwt>
<rscale>  0 0.65522131E+03</rscale>
<asrwt>0</asrwt>
<pdfrwt beam="1">  1        2 0.15664775E+00 0.76314564E+03</pdfrwt>
<pdfrwt beam="2">  1       -2 0.10674003E+00 0.76314564E+03</pdfrwt>
<totfact> 0.17593101E+01</totfact>
</mgrwt>
</event>
<event>
 4    5  0.8511149E-008  0.7749878E+03  0.7818608E-02  0.9767745E-01
          2   -1    0    0  501    0  0.00000000000E+00  0.00000000000E+00  0.11878424458E+04  0.11878424458E+04  0.25500000000E-02 0. -1.
         -2   -1    0    0    0  501 -0.00000000000E+00 -0.00000000000E+00 -0.33320549163E+03  0.33320549164E+03  0.25500000000E-02 0.  1.
    8880023    1    1    2    0    0 -0.23883789825E+03  0.33128884389E+03  0.33946678204E+03  0.84607549432E+03  0.65864270000E+03 0. -1.
    8880022    1    1    2    0    0  0.23883789825E+03 -0.33128884389E+03  0.51517017216E+03  0.67497244315E+03  0.15294330000E+03 0.  0.
<mgrwt>
<rscale>  0 0.67122617E+03</rscale>
<asrwt>0</asrwt>
<pdfrwt beam="1">  1        2 0.18274499E+00 0.77498777E+03</pdfrwt>
<pdfrwt beam="2">  1       -2 0.51262383E-01 0.77498777E+03</pdfrwt>
<totfact> 0.70254569E+01</totfact>
</mgrwt>
</event>
<event>
 4    5  0.8511149E-008  0.1192950E+04  0.7818608E-02  0.9164006E-01
         -2   -1    0    0    0  501 -0.00000000000E+00  0.00000000000E+00  0.12598314332E+04  0.12598314332E+04  0.25500000000E-02 0.  1.
          2   -1    0    0  501    0  0.00000000000E+00 -0.00000000000E+00 -0.21132822572E+04  0.21132822572E+04  0.25500000000E-02 0. -1.
    8880023    1    1    2    0    0 -0.65203748763E+03 -0.75110985940E+03  0.80080611949E+03  0.14368088089E+04  0.65864270000E+03 0.  0.
    8880022    1    1    2    0    0  0.65203748763E+03  0.75110985940E+03 -0.16542569434E+04  0.19363048815E+04  0.15294330000E+03 0.  0.
<mgrwt>
<rscale>  0 0.11432791E+04</rscale>
<asrwt>0</asrwt>
<pdfrwt beam="1">  1        2 0.32512035E+00 0.11929498E+04</pdfrwt>
<pdfrwt beam="2">  1       -2 0.19382022E+00 0.11929498E+04</pdfrwt>
<totfact> 0.82137028E-01</totfact>
</mgrwt>
</event>
<event>
 4    5  0.8511149E-008  0.9154341E+03  0.7818608E-02  0.9501696E-01
          2   -1    0    0  501    0  0.00000000000E+00  0.00000000000E+00  0.18743073045E+04  0.18743073045E+04  0.25500000000E-02 0. -1.
         -2   -1    0    0    0  501 -0.00000000000E+00 -0.00000000000E+00 -0.34664024954E+03  0.34664024955E+03  0.25500000000E-02 0.  1.
    8880023    1    1    2    0    0 -0.18087188989E+02  0.63551727205E+03  0.63379968866E+03  0.11134278607E+04  0.65864270000E+03 0.  0.
    8880022    1    1    2    0    0  0.18087188989E+02 -0.63551727205E+03  0.89386736626E+03  0.11075196933E+04  0.15294330000E+03 0.  0.
<mgrwt>
<rscale>  0 0.84158919E+03</rscale>
<asrwt>0</asrwt>
<pdfrwt beam="1">  1        2 0.28835497E+00 0.91543408E+03</pdfrwt>
<pdfrwt beam="2">  1       -2 0.53329270E-01 0.91543408E+03</pdfrwt>
<totfact> 0.26292097E+01</totfact>
</mgrwt>
</event>
<event>
 4    5  0.8511149E-008  0.1387645E+04  0.7818608E-02  0.8993343E-01
          2   -1    0    0  501    0  0.00000000000E+00  0.00000000000E+00  0.18016237937E+04  0.18016237937E+04  0.25500000000E-02 0. -1.
         -2   -1    0    0    0  501 -0.00000000000E+00 -0.00000000000E+00 -0.15161182400E+04  0.15161182400E+04  0.25500000000E-02 0.  1.
    8880023    1    1    2    0    0 -0.12209363577E+04  0.32584162449E+02  0.11593287466E+04  0.18082037126E+04  0.65864270000E+03 0. -1.
    8880022    1    1    2    0    0  0.12209363577E+04 -0.32584162449E+02 -0.87382319299E+03  0.15095383211E+04  0.15294330000E+03 0.  0.
<mgrwt>
<rscale>  0 0.13466826E+04</rscale>
<asrwt>0</asrwt>
<pdfrwt beam="1">  1        2 0.27717289E+00 0.13876446E+04</pdfrwt>
<pdfrwt beam="2">  1       -2 0.23324896E+00 0.13876446E+04</pdfrwt>
<totfact> 0.66733560E-01</totfact>
</mgrwt>
</event>
<event>
 4    5  0.8511149E-008  0.1530899E+04  0.7818608E-02  0.8888120E-01
          2   -1    0    0  501    0  0.00000000000E+00  0.00000000000E+00  0.22787562013E+04  0.22787562013E+04  0.25500000000E-02 0. -1.
         -2   -1    0    0    0  501 -0.00000000000E+00 -0.00000000000E+00 -0.20704114407E+04  0.20704114407E+04  0.25500000000E-02 0.  1.
    8880023    1    1    2    0    0  0.62724017955E+03 -0.12314260446E+04 -0.15021923978E+04  0.21448152723E+04  0.65864270000E+03 0.  1.
    8880022    1    1    2    0    0 -0.62724017955E+03  0.12314260446E+04  0.17105371584E+04  0.22043523696E+04  0.15294330000E+03 0.  0.
<mgrwt>
<rscale>  0 0.14944979E+04</rscale>
<asrwt>0</asrwt>
<pdfrwt beam="1">  1        2 0.35057788E+00 0.15308986E+04</pdfrwt>
<pdfrwt beam="2">  1       -2 0.31852484E+00 0.15308986E+04</pdfrwt>
<totfact> 0.10650289E-01</totfact>
</mgrwt>
</event>
<event>
 4    5  0.8511149E-008  0.1057172E+04  0.7818608E-02  0.9310309E-01
          2   -1    0    0  501    0  0.00000000000E+00  0.00000000000E+00  0.34642786030E+04  0.34642786030E+04  0.25500000000E-02 0. -1.
         -2   -1    0    0    0  501 -0.00000000000E+00 -0.00000000000E+00 -0.67899695137E+03  0.67899695137E+03  0.25500000000E-02 0.  1.
    8880023    1    1    2    0    0 -0.82576380991E+03  0.43783855831E+02 -0.16992847119E+03  0.10707421666E+04  0.65864270000E+03 0.  1.
    8880022    1    1    2    0    0  0.82576380991E+03 -0.43783855831E+02  0.29552101228E+04  0.30725333877E+04  0.15294330000E+03 0.  0.
<mgrwt>
<rscale>  0 0.99839333E+03</rscale>
<asrwt>0</asrwt>
<pdfrwt beam="1">  1        2 0.53296594E+00 0.10571722E+04</pdfrwt>
<pdfrwt beam="2">  1       -2 0.10446107E+00 0.10571722E+04</pdfrwt>
<totfact> 0.65469554E-01</totfact>
</mgrwt>
</event>
<event>
 4    5  0.8511149E-008  0.8051475E+03  0.7818608E-02  0.9699775E-01
          2   -1    0    0  501    0  0.00000000000E+00  0.00000000000E+00  0.19758605604E+04  0.19758605604E+04  0.25500000000E-02 0. -1.
         -2   -1    0    0    0  501 -0.00000000000E+00 -0.00000000000E+00 -0.12148497212E+04  0.12148497212E+04  0.25500000000E-02 0.  1.
    8880023    1    1    2    0    0  0.44861068338E+03  0.11489471852E+03 -0.10454611412E+04  0.13195649077E+04  0.65864270000E+03 0.  1.
    8880022    1    1    2    0    0 -0.44861068338E+03 -0.11489471852E+03  0.18064719804E+04  0.18711453740E+04  0.15294330000E+03 0.  0.
<mgrwt>
<rscale>  0 0.71030214E+03</rscale>
<asrwt>0</asrwt>
<pdfrwt beam="1">  1        2 0.30397854E+00 0.80514753E+03</pdfrwt>
<pdfrwt beam="2">  1       -2 0.18689996E+00 0.80514753E+03</pdfrwt>
<totfact> 0.11547500E+00</totfact>
</mgrwt>
</event>
<event>
 4    5  0.8511149E-008  0.6754629E+03  0.7818608E-02  0.1012016E+00
         -2   -1    0    0    0  501 -0.00000000000E+00  0.00000000000E+00  0.21051724604E+04  0.21051724604E+04  0.25500000000E-02 0.  1.
          2   -1    0    0  501    0  0.00000000000E+00 -0.00000000000E+00 -0.15013895011E+04  0.15013895011E+04  0.25500000000E-02 0. -1.
    8880023    1    1    2    0    0 -0.53371826314E+02 -0.13996917415E+03  0.20428674919E+04  0.21516407036E+04  0.65864270000E+03 0.  1.
    8880022    1    1    2    0    0  0.53371826314E+02  0.13996917415E+03 -0.14390845327E+04  0.14549212579E+04  0.15294330000E+03 0.  0.
<mgrwt>
<rscale>  0 0.50681180E+03</rscale>
<asrwt>0</asrwt>
<pdfrwt beam="1">  1        2 0.23098300E+00 0.67546290E+03</pdfrwt>
<pdfrwt beam="2">  1       -2 0.32387269E+00 0.67546290E+03</pdfrwt>
<totfact> 0.31034342E-01</totfact>
</mgrwt>
</event>
<event>
 4    5  0.8511149E-008  0.1200237E+04  0.7818608E-02  0.9156892E-01
          2   -1    0    0  501    0  0.00000000000E+00  0.00000000000E+00  0.93022841510E+03  0.93022841510E+03  0.25500000000E-02 0. -1.
         -2   -1    0    0    0  501 -0.00000000000E+00 -0.00000000000E+00 -0.16088895101E+04  0.16088895101E+04  0.25500000000E-02 0.  1.
    8880023    1    1    2    0    0 -0.58346319361E+03 -0.81629040262E+03 -0.90013596906E+03  0.15002714050E+04  0.65864270000E+03 0.  1.
    8880022    1    1    2    0    0  0.58346319361E+03  0.81629040262E+03  0.22147487402E+03  0.10388465202E+04  0.15294330000E+03 0.  0.
<mgrwt>
<rscale>  0 0.11509672E+04</rscale>
<asrwt>0</asrwt>
<pdfrwt beam="1">  1        2 0.14311206E+00 0.12002373E+04</pdfrwt>
<pdfrwt beam="2">  1       -2 0.24752146E+00 0.12002373E+04</pdfrwt>
<totfact> 0.18155636E+00</totfact>
</mgrwt>
</event>
<event>
 4    5  0.8511149E-008  0.7775853E+03  0.7818608E-02  0.9761540E-01
         -2   -1    0    0    0  501 -0.00000000000E+00  0.00000000000E+00  0.49744715786E+03  0.49744715787E+03  0.25500000000E-02 0.  1.
          2   -1    0    0  501    0  0.00000000000E+00 -0.00000000000E+00 -0.20010778524E+04  0.20010778524E+04  0.25500000000E-02 0. -1.
    8880023    1    1    2    0    0 -0.27473742829E+03 -0.30878484479E+03  0.14588510820E+03  0.79115194870E+03  0.65864270000E+03 0.  1.
    8880022    1    1    2    0    0  0.27473742829E+03  0.30878484479E+03 -0.16495158028E+04  0.17073730616E+04  0.15294330000E+03 0.  0.
<mgrwt>
<rscale>  0 0.67468009E+03</rscale>
<asrwt>0</asrwt>
<pdfrwt beam="1">  1        2 0.30785813E+00 0.77758533E+03</pdfrwt>
<pdfrwt beam="2">  1       -2 0.76530333E-01 0.77758533E+03</pdfrwt>
<totfact> 0.10503190E+01</totfact>
</mgrwt>
</event>
<event>
 4    5  0.8511149E-008  0.6911978E+03  0.7818608E-02  0.1003588E+00
         -2   -1    0    0    0  501 -0.00000000000E+00  0.00000000000E+00  0.65732029510E+03  0.65732029511E+03  0.25500000000E-02 0.  1.
          2   -1    0    0  501    0  0.00000000000E+00 -0.00000000000E+00 -0.10762989657E+04  0.10762989657E+04  0.25500000000E-02 0. -1.
    8880023    1    1    2    0    0 -0.16686684722E+03  0.12688421406E+03  0.45129504453E+03  0.82548262972E+03  0.65864270000E+03 0.  0.
    8880022    1    1    2    0    0  0.16686684722E+03 -0.12688421406E+03 -0.87027371516E+03  0.90813663112E+03  0.15294330000E+03 0.  0.
<mgrwt>
<rscale>  0 0.54104389E+03</rscale>
<asrwt>0</asrwt>
<pdfrwt beam="1">  1        2 0.16558446E+00 0.69119777E+03</pdfrwt>
<pdfrwt beam="2">  1       -2 0.10112620E+00 0.69119777E+03</pdfrwt>
<totfact> 0.18567083E+01</totfact>
</mgrwt>
</event>
<event>
 4    5  0.8511149E-008  0.8682403E+03  0.7818608E-02  0.9579070E-01
         -2   -1    0    0    0  501 -0.00000000000E+00  0.00000000000E+00  0.25356501312E+03  0.25356501313E+03  0.25500000000E-02 0.  1.
          2   -1    0    0  501    0  0.00000000000E+00 -0.00000000000E+00 -0.29543711495E+04  0.29543711495E+04  0.25500000000E-02 0. -1.
    8880023    1    1    2    0    0  0.55670868714E+03 -0.10053043965E+03 -0.67698270436E+03  0.11009753494E+04  0.65864270000E+03 0.  0.
    8880022    1    1    2    0    0 -0.55670868714E+03  0.10053043965E+03 -0.20238234320E+04  0.21069608133E+04  0.15294330000E+03 0.  0.
<mgrwt>
<rscale>  0 0.78697067E+03</rscale>
<asrwt>0</asrwt>
<pdfrwt beam="1">  1        2 0.45451861E+00 0.86824025E+03</pdfrwt>
<pdfrwt beam="2">  1       -2 0.39010004E-01 0.86824025E+03</pdfrwt>
<totfact> 0.12017753E+01</totfact>
</mgrwt>
</event>
<event>
 4    5  0.8511149E-008  0.8880511E+03  0.7818608E-02  0.9545492E-01
          2   -1    0    0  501    0  0.00000000000E+00  0.00000000000E+00  0.30674266998E+04  0.30674266998E+04  0.25500000000E-02 0. -1.
         -2   -1    0    0    0  501 -0.00000000000E+00 -0.00000000000E+00 -0.21735761132E+03  0.21735761133E+03  0.25500000000E-02 0.  1.
    8880023    1    1    2    0    0  0.47523707707E+03  0.35912983112E+03  0.10111611897E+04  0.13457643452E+04  0.65864270000E+03 0.  1.
    8880022    1    1    2    0    0 -0.47523707707E+03 -0.35912983112E+03  0.18389078988E+04  0.19390199660E+04  0.15294330000E+03 0.  0.
<mgrwt>
<rscale>  0 0.81011369E+03</rscale>
<asrwt>0</asrwt>
<pdfrwt beam="1">  1        2 0.47191180E+00 0.88805108E+03</pdfrwt>
<pdfrwt beam="2">  1       -2 0.33439632E-01 0.88805108E+03</pdfrwt>
<totfact> 0.13721541E+01</totfact>
</mgrwt>
</event>
<event>
 4    5  0.8511149E-008  0.1021941E+04  0.7818608E-02  0.9353399E-01
          2   -1    0    0  501    0  0.00000000000E+00  0.00000000000E+00  0.21531674141E+04  0.21531674141E+04  0.25500000000E-02 0. -1.
         -2   -1    0    0    0  501 -0.00000000000E+00 -0.00000000000E+00 -0.47093723496E+03  0.47093723497E+03  0.25500000000E-02 0.  1.
    8880023    1    1    2    0    0 -0.40287708766E+02 -0.78033991782E+03  0.36544624156E+03  0.10853177639E+04  0.65864270000E+03 0.  1.
    8880022    1    1    2    0    0  0.40287708766E+02  0.78033991782E+03  0.13167839376E+04  0.15387868852E+04  0.15294330000E+03 0.  0.
<mgrwt>
<rscale>  0 0.96012079E+03</rscale>
<asrwt>0</asrwt>
<pdfrwt beam="1">  1        2 0.33125652E+00 0.10219411E+04</pdfrwt>
<pdfrwt beam="2">  1       -2 0.72451884E-01 0.10219411E+04</pdfrwt>
<totfact> 0.94793601E+00</totfact>
</mgrwt>
</event>
<event>
 4    5  0.8511149E-008  0.8924105E+03  0.7818608E-02  0.9538327E-01
          2   -1    0    0  501    0  0.00000000000E+00  0.00000000000E+00  0.93023309646E+03  0.93023309646E+03  0.25500000000E-02 0. -1.
         -2   -1    0    0    0  501 -0.00000000000E+00 -0.00000000000E+00 -0.18479362399E+04  0.18479362399E+04  0.25500000000E-02 0.  1.
    8880023    1    1    2    0    0 -0.60188770302E+03 -0.17819442319E+02 -0.16144393102E+04  0.18446709279E+04  0.65864270000E+03 0.  0.
    8880022    1    1    2    0    0  0.60188770302E+03  0.17819442319E+02  0.69673616675E+03  0.93349840849E+03  0.15294330000E+03 0.  0.
<mgrwt>
<rscale>  0 0.81516182E+03</rscale>
<asrwt>0</asrwt>
<pdfrwt beam="1">  1        2 0.14311278E+00 0.89241053E+03</pdfrwt>
<pdfrwt beam="2">  1       -2 0.28429788E+00 0.89241053E+03</pdfrwt>
<totfact> 0.11283484E+00</totfact>
</mgrwt>
</event>
<event>
 4    5  0.8511149E-008  0.7433600E+03  0.7818608E-02  0.9850266E-01
         -2   -1    0    0    0  501 -0.00000000000E+00  0.00000000000E+00  0.82069731252E+03  0.82069731253E+03  0.25500000000E-02 0.  1.
          2   -1    0    0  501    0  0.00000000000E+00 -0.00000000000E+00 -0.94230958176E+03  0.94230958176E+03  0.25500000000E-02 0. -1.
    8880023    1    1    2    0    0 -0.21514443898E+03  0.26923367623E+03  0.59572468249E+03  0.95261325082E+03  0.65864270000E+03 0.  0.
    8880022    1    1    2    0    0  0.21514443898E+03 -0.26923367623E+03 -0.71733695173E+03  0.81039364347E+03  0.15294330000E+03 0. -1.
<mgrwt>
<rscale>  0 0.62733381E+03</rscale>
<asrwt>0</asrwt>
<pdfrwt beam="1">  1        2 0.14497070E+00 0.74336001E+03</pdfrwt>
<pdfrwt beam="2">  1       -2 0.12626113E+00 0.74336001E+03</pdfrwt>
<totfact> 0.13063747E+01</totfact>
</mgrwt>
</event>
<event>
 4    5  0.8511149E-008  0.8360387E+03  0.7818608E-02  0.9637695E-01
          2   -1    0    0  501    0  0.00000000000E+00  0.00000000000E+00  0.11215963238E+04  0.11215963238E+04  0.25500000000E-02 0. -1.
         -2   -1    0    0    0  501 -0.00000000000E+00 -0.00000000000E+00 -0.72201444027E+03  0.72201444027E+03  0.25500000000E-02 0.  1.
    8880023    1    1    2    0    0 -0.37526956263E+03  0.35259501154E+03 -0.36249801396E+03  0.91124393177E+03  0.65864270000E+03 0.  0.
    8880022    1    1    2    0    0  0.37526956263E+03 -0.35259501154E+03  0.76207989751E+03  0.93236683231E+03  0.15294330000E+03 0.  0.
<mgrwt>
<rscale>  0 0.74850712E+03</rscale>
<asrwt>0</asrwt>
<pdfrwt beam="1">  1        2 0.17255328E+00 0.83603869E+03</pdfrwt>
<pdfrwt beam="2">  1       -2 0.11107914E+00 0.83603869E+03</pdfrwt>
<totfact> 0.13676526E+01</totfact>
</mgrwt>
</event>
<event>
 4    5  0.8511149E-008  0.7271114E+03  0.7818608E-02  0.9899219E-01
         -2   -1    0    0    0  501 -0.00000000000E+00  0.00000000000E+00  0.30700254788E+03  0.30700254789E+03  0.25500000000E-02 0.  1.
          2   -1    0    0  501    0  0.00000000000E+00 -0.00000000000E+00 -0.21486706615E+04  0.21486706615E+04  0.25500000000E-02 0. -1.
    8880023    1    1    2    0    0 -0.11057199061E+03  0.28749717203E+03 -0.16698061435E+03  0.74603855186E+03  0.65864270000E+03 0.  0.
    8880022    1    1    2    0    0  0.11057199061E+03 -0.28749717203E+03 -0.16746874993E+04  0.17096346576E+04  0.15294330000E+03 0.  0.
<mgrwt>
<rscale>  0 0.60299146E+03</rscale>
<asrwt>0</asrwt>
<pdfrwt beam="1">  1        2 0.33056471E+00 0.72711141E+03</pdfrwt>
<pdfrwt beam="2">  1       -2 0.47231162E-01 0.72711141E+03</pdfrwt>
<totfact> 0.24381781E+01</totfact>
</mgrwt>
</event>
<event>
 4    5  0.8511149E-008  0.7565962E+03  0.7818608E-02  0.9814000E-01
          2   -1    0    0  501    0  0.00000000000E+00  0.00000000000E+00  0.11073498465E+04  0.11073498465E+04  0.25500000000E-02 0. -1.
         -2   -1    0    0    0  501 -0.00000000000E+00 -0.00000000000E+00 -0.55818693486E+03  0.55818693486E+03  0.25500000000E-02 0.  1.
    8880023    1    1    2    0    0 -0.23526339626E+02 -0.37158330962E+03  0.86842306390E+03  0.11517796963E+04  0.65864270000E+03 0.  0.
    8880022    1    1    2    0    0  0.23526339626E+02  0.37158330962E+03 -0.31926015224E+03  0.51375708508E+03  0.15294330000E+03 0.  0.
<mgrwt>
<rscale>  0 0.64616581E+03</rscale>
<asrwt>0</asrwt>
<pdfrwt beam="1">  1        2 0.17036151E+00 0.75659623E+03</pdfrwt>
<pdfrwt beam="2">  1       -2 0.85874914E-01 0.75659623E+03</pdfrwt>
<totfact> 0.25806527E+01</totfact>
</mgrwt>
</event>
<event>
 4    5  0.8511149E-008  0.7203131E+03  0.7818608E-02  0.9921528E-01
          2   -1    0    0  501    0  0.00000000000E+00  0.00000000000E+00  0.20161164870E+04  0.20161164870E+04  0.25500000000E-02 0. -1.
         -2   -1    0    0    0  501 -0.00000000000E+00 -0.00000000000E+00 -0.18385431365E+03  0.18385431367E+03  0.25500000000E-02 0.  1.
    8880023    1    1    2    0    0 -0.75250243227E+01  0.29152034502E+03  0.64164024600E+03  0.96465182791E+03  0.65864270000E+03 0.  1.
    8880022    1    1    2    0    0  0.75250243227E+01 -0.29152034502E+03  0.11906219274E+04  0.12353189728E+04  0.15294330000E+03 0.  0.
<mgrwt>
<rscale>  0 0.59229199E+03</rscale>
<asrwt>0</asrwt>
<pdfrwt beam="1">  1        2 0.31017179E+00 0.72031309E+03</pdfrwt>
<pdfrwt beam="2">  1       -2 0.28285277E-01 0.72031309E+03</pdfrwt>
<totfact> 0.77180683E+01</totfact>
</mgrwt>
</event>
<event>
 4    5  0.8511149E-008  0.1092912E+04  0.7818608E-02  0.9268989E-01
          2   -1    0    0  501    0  0.00000000000E+00  0.00000000000E+00  0.73064396664E+03  0.73064396664E+03  0.25500000000E-02 0. -1.
         -2   -1    0    0    0  501 -0.00000000000E+00 -0.00000000000E+00 -0.29448954726E+04  0.29448954726E+04  0.25500000000E-02 0.  1.
    8880023    1    1    2    0    0 -0.57872967654E+03  0.65247121150E+03 -0.25135419745E+04  0.27408666848E+04  0.65864270000E+03 0.  1.
    8880022    1    1    2    0    0  0.57872967654E+03 -0.65247121150E+03  0.29929046848E+03  0.93467275443E+03  0.15294330000E+03 0.  0.
<mgrwt>
<rscale>  0 0.10368862E+04</rscale>
<asrwt>0</asrwt>
<pdfrwt beam="1">  1        2 0.11240677E+00 0.10929121E+04</pdfrwt>
<pdfrwt beam="2">  1       -2 0.45306083E+00 0.10929121E+04</pdfrwt>
<totfact> 0.12898069E-01</totfact>
</mgrwt>
</event>
<event>
 4    5  0.8511149E-008  0.8586309E+03  0.7818608E-02  0.9596003E-01
          2   -1    0    0  501    0  0.00000000000E+00  0.00000000000E+00  0.31941220585E+04  0.31941220585E+04  0.25500000000E-02 0. -1.
         -2   -1    0    0    0  501 -0.00000000000E+00 -0.00000000000E+00 -0.38780793660E+03  0.38780793660E+03  0.25500000000E-02 0.  1.
    8880023    1    1    2    0    0  0.55067871844E+03 -0.13777468333E+02  0.15854454654E+03  0.87314572041E+03  0.65864270000E+03 0.  1.
    8880022    1    1    2    0    0 -0.55067871844E+03  0.13777468333E+02  0.26477695754E+04  0.27087842747E+04  0.15294330000E+03 0.  0.
<mgrwt>
<rscale>  0 0.77561266E+03</rscale>
<asrwt>0</asrwt>
<pdfrwt beam="1">  1        2 0.49140340E+00 0.85863093E+03</pdfrwt>
<pdfrwt beam="2">  1       -2 0.59662759E-01 0.85863093E+03</pdfrwt>
<totfact> 0.36063952E+00</totfact>
</mgrwt>
</event>
<event>
 4    5  0.8511149E-008  0.1785250E+04  0.7818608E-02  0.8730740E-01
          2   -1    0    0  501    0  0.00000000000E+00  0.00000000000E+00  0.36892805091E+04  0.36892805091E+04  0.25500000000E-02 0. -1.
         -2   -1    0    0    0  501 -0.00000000000E+00 -0.00000000000E+00 -0.19058685276E+04  0.19058685276E+04  0.25500000000E-02 0.  1.
    8880023    1    1    2    0    0  0.10633040016E+04  0.12738498369E+04  0.30281513275E+04  0.35152268028E+04  0.65864270000E+03 0.  0.
    8880022    1    1    2    0    0 -0.10633040016E+04 -0.12738498369E+04 -0.12447393459E+04  0.20799222339E+04  0.15294330000E+03 0.  0.
<mgrwt>
<rscale>  0 0.17547509E+04</rscale>
<asrwt>0</asrwt>
<pdfrwt beam="1">  1        2 0.56758161E+00 0.17852504E+04</pdfrwt>
<pdfrwt beam="2">  1       -2 0.29321055E+00 0.17852504E+04</pdfrwt>
<totfact> 0.18918685E-02</totfact>
</mgrwt>
</event>
<event>
 4    5  0.8511149E-008  0.9149341E+03  0.7818608E-02  0.9502471E-01
         -2   -1    0    0    0  501 -0.00000000000E+00  0.00000000000E+00  0.71568613211E+03  0.71568613212E+03  0.25500000000E-02 0.  1.
          2   -1    0    0  501    0  0.00000000000E+00 -0.00000000000E+00 -0.15837108361E+04  0.15837108361E+04  0.25500000000E-02 0. -1.
    8880023    1    1    2    0    0 -0.21622123302E+03 -0.59711184175E+03  0.29853322938E+03  0.96240660247E+03  0.65864270000E+03 0.  0.
    8880022    1    1    2    0    0  0.21622123302E+03  0.59711184175E+03 -0.11665579333E+04  0.13369903657E+04  0.15294330000E+03 0.  0.
<mgrwt>
<rscale>  0 0.84101915E+03</rscale>
<asrwt>0</asrwt>
<pdfrwt beam="1">  1        2 0.24364782E+00 0.91493408E+03</pdfrwt>
<pdfrwt beam="2">  1       -2 0.11010556E+00 0.91493408E+03</pdfrwt>
<totfact> 0.75013282E+00</totfact>
</mgrwt>
</event>
<event>
 4    5  0.8511149E-008  0.9156610E+03  0.7818608E-02  0.9501344E-01
          2   -1    0    0  501    0  0.00000000000E+00  0.00000000000E+00  0.15315918320E+04  0.15315918320E+04  0.25500000000E-02 0. -1.
         -2   -1    0    0    0  501 -0.00000000000E+00 -0.00000000000E+00 -0.10516906018E+04  0.10516906018E+04  0.25500000000E-02 0.  1.
    8880023    1    1    2    0    0  0.14840655708E+03 -0.61854695798E+03 -0.75434190344E+03  0.11863670423E+04  0.65864270000E+03 0.  1.
    8880022    1    1    2    0    0 -0.14840655708E+03  0.61854695798E+03  0.12342431336E+04  0.13969153916E+04  0.15294330000E+03 0.  0.
<mgrwt>
<rscale>  0 0.84184783E+03</rscale>
<asrwt>0</asrwt>
<pdfrwt beam="1">  1        2 0.23562951E+00 0.91566099E+03</pdfrwt>
<pdfrwt beam="2">  1       -2 0.16179855E+00 0.91566099E+03</pdfrwt>
<totfact> 0.29868798E+00</totfact>
</mgrwt>
</event>
<event>
 4    5  0.8511149E-008  0.7723618E+03  0.7818608E-02  0.9774095E-01
          2   -1    0    0  501    0  0.00000000000E+00  0.00000000000E+00  0.37213794597E+03  0.37213794598E+03  0.25500000000E-02 0. -1.
         -2   -1    0    0    0  501 -0.00000000000E+00 -0.00000000000E+00 -0.23889971455E+04  0.23889971455E+04  0.25500000000E-02 0.  1.
    8880023    1    1    2    0    0  0.29938112795E+02  0.40228878712E+03 -0.21699885286E+04  0.23033438691E+04  0.65864270000E+03 0.  1.
    8880022    1    1    2    0    0 -0.29938112795E+02 -0.40228878712E+03  0.15312932907E+03  0.45779122237E+03  0.15294330000E+03 0.  0.
<mgrwt>
<rscale>  0 0.66771472E+03</rscale>
<asrwt>0</asrwt>
<pdfrwt beam="1">  1        2 0.57251993E-01 0.77236181E+03</pdfrwt>
<pdfrwt beam="2">  1       -2 0.36753801E+00 0.77236181E+03</pdfrwt>
<totfact> 0.10933594E+00</totfact>
</mgrwt>
</event>
<event>
 4    5  0.8511149E-008  0.7935966E+03  0.7818608E-02  0.9724816E-01
         -2   -1    0    0    0  501 -0.00000000000E+00  0.00000000000E+00  0.10412880305E+04  0.10412880305E+04  0.25500000000E-02 0.  1.
          2   -1    0    0  501    0  0.00000000000E+00 -0.00000000000E+00 -0.10311295726E+04  0.10311295726E+04  0.25500000000E-02 0. -1.
    8880023    1    1    2    0    0 -0.40488411485E+03  0.17903682521E+03  0.81731426391E+03  0.11392094379E+04  0.65864270000E+03 0.  1.
    8880022    1    1    2    0    0  0.40488411485E+03 -0.17903682521E+03 -0.80715580606E+03  0.93320816516E+03  0.15294330000E+03 0.  0.
<mgrwt>
<rscale>  0 0.69558262E+03</rscale>
<asrwt>0</asrwt>
<pdfrwt beam="1">  1        2 0.15863532E+00 0.79359658E+03</pdfrwt>
<pdfrwt beam="2">  1       -2 0.16019816E+00 0.79359658E+03</pdfrwt>
<totfact> 0.61247484E+00</totfact>
</mgrwt>
</event>
<event>
 4    5  0.8511149E-008  0.7489193E+03  0.7818608E-02  0.9834688E-01
          2   -1    0    0  501    0  0.00000000000E+00  0.00000000000E+00  0.19025898705E+04  0.19025898705E+04  0.25500000000E-02 0. -1.
         -2   -1    0    0    0  501 -0.00000000000E+00 -0.00000000000E+00 -0.17637004211E+03  0.17637004213E+03  0.25500000000E-02 0.  1.
    8880023    1    1    2    0    0  0.11038339291E+03  0.33894742653E+03  0.93658730162E+03  0.11991979950E+04  0.65864270000E+03 0.  1.
    8880022    1    1    2    0    0 -0.11038339291E+03 -0.33894742653E+03  0.78963252672E+03  0.87976191760E+03  0.15294330000E+03 0.  1.
<mgrwt>
<rscale>  0 0.63533740E+03</rscale>
<asrwt>0</asrwt>
<pdfrwt beam="1">  1        2 0.29270613E+00 0.74891926E+03</pdfrwt>
<pdfrwt beam="2">  1       -2 0.27133853E-01 0.74891926E+03</pdfrwt>
<totfact> 0.95743433E+01</totfact>
</mgrwt>
</event>
<event>
 4    5  0.8511149E-008  0.6770391E+03  0.7818608E-02  0.1011051E+00
         -2   -1    0    0    0  501 -0.00000000000E+00  0.00000000000E+00  0.12553187552E+03  0.12553187555E+03  0.25500000000E-02 0.  1.
          2   -1    0    0  501    0  0.00000000000E+00 -0.00000000000E+00 -0.22413155374E+04  0.22413155374E+04  0.25500000000E-02 0. -1.
    8880023    1    1    2    0    0 -0.10826211520E+03  0.11336258770E+03 -0.87224452067E+03  0.11041704904E+04  0.65864270000E+03 0.  1.
    8880022    1    1    2    0    0  0.10826211520E+03 -0.11336258770E+03 -0.12435391412E+04  0.12626769225E+04  0.15294330000E+03 0.  0.
<mgrwt>
<rscale>  0 0.51059209E+03</rscale>
<asrwt>0</asrwt>
<pdfrwt beam="1">  1        2 0.34481775E+00 0.67703912E+03</pdfrwt>
<pdfrwt beam="2">  1       -2 0.19312598E-01 0.67703912E+03</pdfrwt>
<totfact> 0.11544658E+02</totfact>
</mgrwt>
</event>
<event>
 4    5  0.8511149E-008  0.1050666E+04  0.7818608E-02  0.9318081E-01
         -2   -1    0    0    0  501 -0.00000000000E+00  0.00000000000E+00  0.82680868155E+03  0.82680868156E+03  0.25500000000E-02 0.  1.
          2   -1    0    0  501    0  0.00000000000E+00 -0.00000000000E+00 -0.11076724965E+04  0.11076724965E+04  0.25500000000E-02 0. -1.
    8880023    1    1    2    0    0 -0.51877445842E+03 -0.63321534127E+03 -0.32720784014E+03  0.11004379965E+04  0.65864270000E+03 0. -1.
    8880022    1    1    2    0    0  0.51877445842E+03  0.63321534127E+03  0.46344025180E+02  0.83404318162E+03  0.15294330000E+03 0.  1.
<mgrwt>
<rscale>  0 0.99135166E+03</rscale>
<asrwt>0</asrwt>
<pdfrwt beam="1">  1        2 0.17041115E+00 0.10506659E+04</pdfrwt>
<pdfrwt beam="2">  1       -2 0.12720134E+00 0.10506659E+04</pdfrwt>
<totfact> 0.97665315E+00</totfact>
</mgrwt>
</event>
<event>
 4    5  0.8511149E-008  0.8888465E+03  0.7818608E-02  0.9544179E-01
          2   -1    0    0  501    0  0.00000000000E+00  0.00000000000E+00  0.42005792228E+04  0.42005792228E+04  0.25500000000E-02 0. -1.
         -2   -1    0    0    0  501 -0.00000000000E+00 -0.00000000000E+00 -0.18584329353E+03  0.18584329355E+03  0.25500000000E-02 0.  1.
    8880023    1    1    2    0    0 -0.37946598797E+03  0.46069886166E+03  0.11355852908E+04  0.14420825345E+04  0.65864270000E+03 0.  0.
    8880022    1    1    2    0    0  0.37946598797E+03 -0.46069886166E+03  0.28791506384E+04  0.29443399819E+04  0.15294330000E+03 0.  0.
<mgrwt>
<rscale>  0 0.81103588E+03</rscale>
<asrwt>0</asrwt>
<pdfrwt beam="1">  1        2 0.64624291E+00 0.88884649E+03</pdfrwt>
<pdfrwt beam="2">  1       -2 0.28591278E-01 0.88884649E+03</pdfrwt>
<totfact> 0.28225809E+00</totfact>
</mgrwt>
</event>
<event>
 4    5  0.8511149E-008  0.1675683E+04  0.7818608E-02  0.8794612E-01
          2   -1    0    0  501    0  0.00000000000E+00  0.00000000000E+00  0.17492032452E+04  0.17492032452E+04  0.25500000000E-02 0. -1.
         -2   -1    0    0    0  501 -0.00000000000E+00 -0.00000000000E+00 -0.16931489831E+04  0.16931489831E+04  0.25500000000E-02 0.  1.
    8880023    1    1    2    0    0  0.29428199085E+03  0.15124492150E+04  0.63116674234E+03  0.17906105609E+04  0.65864270000E+03 0.  0.
    8880022    1    1    2    0    0 -0.29428199085E+03 -0.15124492150E+04 -0.57511248023E+03  0.16517416674E+04  0.15294330000E+03 0.  0.
<mgrwt>
<rscale>  0 0.16429098E+04</rscale>
<asrwt>0</asrwt>
<pdfrwt beam="1">  1        2 0.26910819E+00 0.16756834E+04</pdfrwt>
<pdfrwt beam="2">  1       -2 0.26048446E+00 0.16756834E+04</pdfrwt>
<totfact> 0.47060303E-01</totfact>
</mgrwt>
</event>
<event>
 4    5  0.8511149E-008  0.6796932E+03  0.7818608E-02  0.1009498E+00
          2   -1    0    0  501    0  0.00000000000E+00  0.00000000000E+00  0.67465996322E+03  0.67465996323E+03  0.25500000000E-02 0. -1.
         -2   -1    0    0    0  501 -0.00000000000E+00 -0.00000000000E+00 -0.37996928175E+03  0.37996928176E+03  0.25500000000E-02 0.  1.
    8880023    1    1    2    0    0  0.14428680262E+03 -0.85755065238E+02 -0.36471302249E+01  0.67970296486E+03  0.65864270000E+03 0.  1.
    8880022    1    1    2    0    0 -0.14428680262E+03  0.85755065238E+02  0.29833781170E+03  0.37492628012E+03  0.15294330000E+03 0.  0.
<mgrwt>
<rscale>  0 0.51674739E+03</rscale>
<asrwt>0</asrwt>
<pdfrwt beam="1">  1        2 0.10379384E+00 0.67969318E+03</pdfrwt>
<pdfrwt beam="2">  1       -2 0.58456813E-01 0.67969318E+03</pdfrwt>
<totfact> 0.11928907E+02</totfact>
</mgrwt>
</event>
<event>
 4    5  0.8511149E-008  0.7637477E+03  0.7818608E-02  0.9795500E-01
         -2   -1    0    0    0  501 -0.00000000000E+00  0.00000000000E+00  0.13509112438E+04  0.13509112438E+04  0.25500000000E-02 0.  1.
          2   -1    0    0  501    0  0.00000000000E+00 -0.00000000000E+00 -0.49674158629E+03  0.49674158629E+03  0.25500000000E-02 0. -1.
    8880023    1    1    2    0    0 -0.27483816831E+03 -0.27196383826E+03 -0.13413857672E+03  0.77543775515E+03  0.65864270000E+03 0. -1.
    8880022    1    1    2    0    0  0.27483816831E+03  0.27196383826E+03  0.98830823423E+03  0.10722150749E+04  0.15294330000E+03 0.  0.
<mgrwt>
<rscale>  0 0.65604601E+03</rscale>
<asrwt>0</asrwt>
<pdfrwt beam="1">  1        2 0.76421782E-01 0.76374770E+03</pdfrwt>
<pdfrwt beam="2">  1       -2 0.20783250E+00 0.76374770E+03</pdfrwt>
<totfact> 0.74776051E+00</totfact>
</mgrwt>
</event>
<event>
 4    5  0.8511149E-008  0.7529118E+03  0.7818608E-02  0.9823816E-01
         -2   -1    0    0    0  501 -0.00000000000E+00  0.00000000000E+00  0.72250618561E+03  0.72250618561E+03  0.25500000000E-02 0.  1.
          2   -1    0    0  501    0  0.00000000000E+00 -0.00000000000E+00 -0.22057351419E+04  0.22057351419E+04  0.25500000000E-02 0. -1.
    8880023    1    1    2    0    0 -0.24965739506E+03 -0.26596454582E+03  0.50139453711E+03  0.90458423745E+03  0.65864270000E+03 0.  1.
    8880022    1    1    2    0    0  0.24965739506E+03  0.26596454582E+03 -0.19846234934E+04  0.20236570901E+04  0.15294330000E+03 0.  0.
<mgrwt>
<rscale>  0 0.64099945E+03</rscale>
<asrwt>0</asrwt>
<pdfrwt beam="1">  1        2 0.33934387E+00 0.75291179E+03</pdfrwt>
<pdfrwt beam="2">  1       -2 0.11115480E+00 0.75291179E+03</pdfrwt>
<totfact> 0.34187501E+00</totfact>
</mgrwt>
</event>
<event>
 4    5  0.8511149E-008  0.7442994E+03  0.7818608E-02  0.9847596E-01
          2   -1    0    0  501    0  0.00000000000E+00  0.00000000000E+00  0.10348304344E+04  0.10348304344E+04  0.25500000000E-02 0. -1.
         -2   -1    0    0    0  501 -0.00000000000E+00 -0.00000000000E+00 -0.34261095192E+03  0.34261095193E+03  0.25500000000E-02 0.  1.
    8880023    1    1    2    0    0  0.31601970703E+03  0.14248815228E+03  0.66410046753E+03  0.99750236391E+03  0.65864270000E+03 0.  0.
    8880022    1    1    2    0    0 -0.31601970703E+03 -0.14248815228E+03  0.28119014996E+02  0.37993902247E+03  0.15294330000E+03 0.  0.
<mgrwt>
<rscale>  0 0.62869650E+03</rscale>
<asrwt>0</asrwt>
<pdfrwt beam="1">  1        2 0.15920468E+00 0.74429936E+03</pdfrwt>
<pdfrwt beam="2">  1       -2 0.52709377E-01 0.74429936E+03</pdfrwt>
<totfact> 0.82475150E+01</totfact>
</mgrwt>
</event>
<event>
 4    5  0.8511149E-008  0.1630248E+04  0.7818608E-02  0.8822749E-01
         -2   -1    0    0    0  501 -0.00000000000E+00  0.00000000000E+00  0.96651011490E+03  0.96651011491E+03  0.25500000000E-02 0.  1.
          2   -1    0    0  501    0  0.00000000000E+00 -0.00000000000E+00 -0.33188901325E+04  0.33188901325E+04  0.25500000000E-02 0. -1.
    8880023    1    1    2    0    0 -0.14683260481E+04 -0.26060943471E+03 -0.22557606854E+04  0.27831933345E+04  0.65864270000E+03 0.  0.
    8880022    1    1    2    0    0  0.14683260481E+04  0.26060943471E+03 -0.96619332229E+02  0.15022069130E+04  0.15294330000E+03 0.  0.
<mgrwt>
<rscale>  0 0.15964219E+04</rscale>
<asrwt>0</asrwt>
<pdfrwt beam="1">  1        2 0.51059848E+00 0.16302481E+04</pdfrwt>
<pdfrwt beam="2">  1       -2 0.14869387E+00 0.16302481E+04</pdfrwt>
<totfact> 0.31080703E-01</totfact>
</mgrwt>
</event>
<event>
 4    5  0.8511149E-008  0.1080452E+04  0.7818608E-02  0.9283139E-01
         -2   -1    0    0    0  501 -0.00000000000E+00  0.00000000000E+00  0.60316975880E+03  0.60316975880E+03  0.25500000000E-02 0.  1.
          2   -1    0    0  501    0  0.00000000000E+00 -0.00000000000E+00 -0.20637527607E+04  0.20637527607E+04  0.25500000000E-02 0. -1.
    8880023    1    1    2    0    0 -0.48512583427E+03  0.70584623936E+03 -0.14566392168E+03  0.10902266613E+04  0.65864270000E+03 0.  0.
    8880022    1    1    2    0    0  0.48512583427E+03 -0.70584623936E+03 -0.13149190802E+04  0.15766958582E+04  0.15294330000E+03 0.  0.
<mgrwt>
<rscale>  0 0.10235004E+04</rscale>
<asrwt>0</asrwt>
<pdfrwt beam="1">  1        2 0.31750042E+00 0.10804518E+04</pdfrwt>
<pdfrwt beam="2">  1       -2 0.92795348E-01 0.10804518E+04</pdfrwt>
<totfact> 0.60164935E+00</totfact>
</mgrwt>
</event>
<event>
 4    5  0.8511149E-008  0.1415995E+04  0.7818608E-02  0.8971353E-01
          2   -1    0    0  501    0  0.00000000000E+00  0.00000000000E+00  0.16383433872E+04  0.16383433872E+04  0.25500000000E-02 0. -1.
         -2   -1    0    0    0  501 -0.00000000000E+00 -0.00000000000E+00 -0.12294657792E+04  0.12294657792E+04  0.25500000000E-02 0.  1.
    8880023    1    1    2    0    0  0.38812772462E+03 -0.11918845178E+04 -0.25868634416E+03  0.14394306740E+04  0.65864270000E+03 0.  1.
    8880022    1    1    2    0    0 -0.38812772462E+03  0.11918845178E+04  0.66756395214E+03  0.14283784924E+04  0.15294330000E+03 0. -1.
<mgrwt>
<rscale>  0 0.13760321E+04</rscale>
<asrwt>0</asrwt>
<pdfrwt beam="1">  1        2 0.25205283E+00 0.14159951E+04</pdfrwt>
<pdfrwt beam="2">  1       -2 0.18914858E+00 0.14159951E+04</pdfrwt>
<totfact> 0.15824036E+00</totfact>
</mgrwt>
</event>
<event>
 4    5  0.8511149E-008  0.7250060E+03  0.7818608E-02  0.9905998E-01
          2   -1    0    0  501    0  0.00000000000E+00  0.00000000000E+00  0.24527919042E+04  0.24527919042E+04  0.25500000000E-02 0. -1.
         -2   -1    0    0    0  501 -0.00000000000E+00 -0.00000000000E+00 -0.54477727174E+03  0.54477727174E+03  0.25500000000E-02 0.  1.
    8880023    1    1    2    0    0  0.29842816046E+03  0.52574768248E+02 -0.28457897927E+03  0.77885741629E+03  0.65864270000E+03 0.  1.
    8880022    1    1    2    0    0 -0.29842816046E+03 -0.52574768248E+02  0.21925936118E+04  0.22187117597E+04  0.15294330000E+03 0. -1.
<mgrwt>
<rscale>  0 0.59971496E+03</rscale>
<asrwt>0</asrwt>
<pdfrwt beam="1">  1        2 0.37735260E+00 0.72500599E+03</pdfrwt>
<pdfrwt beam="2">  1       -2 0.83811888E-01 0.72500599E+03</pdfrwt>
<totfact> 0.48573983E+00</totfact>
</mgrwt>
</event>
<event>
 4    5  0.8511149E-008  0.7402171E+03  0.7818608E-02  0.9859315E-01
          2   -1    0    0  501    0  0.00000000000E+00  0.00000000000E+00  0.96044290483E+03  0.96044290483E+03  0.25500000000E-02 0. -1.
         -2   -1    0    0    0  501 -0.00000000000E+00 -0.00000000000E+00 -0.64884362065E+03  0.64884362066E+03  0.25500000000E-02 0.  1.
    8880023    1    1    2    0    0  0.31708771982E+03 -0.11647528798E+03 -0.37437321253E+03  0.82950384164E+03  0.65864270000E+03 0.  1.
    8880022    1    1    2    0    0 -0.31708771982E+03  0.11647528798E+03  0.68597249671E+03  0.77978268385E+03  0.15294330000E+03 0.  0.
<mgrwt>
<rscale>  0 0.62274214E+03</rscale>
<asrwt>0</asrwt>
<pdfrwt beam="1">  1        2 0.14776045E+00 0.74021708E+03</pdfrwt>
<pdfrwt beam="2">  1       -2 0.99822096E-01 0.74021708E+03</pdfrwt>
<totfact> 0.22543872E+01</totfact>
</mgrwt>
</event>
<event>
 4    5  0.8511149E-008  0.7360481E+03  0.7818608E-02  0.9871612E-01
          2   -1    0    0  501    0  0.00000000000E+00  0.00000000000E+00  0.62254380696E+03  0.62254380696E+03  0.25500000000E-02 0. -1.
         -2   -1    0    0    0  501 -0.00000000000E+00 -0.00000000000E+00 -0.48457582565E+03  0.48457582566E+03  0.25500000000E-02 0.  1.
    8880023    1    1    2    0    0  0.26833524549E+03 -0.18961226561E+03  0.95678122246E+02  0.74224061098E+03  0.65864270000E+03 0.  0.
    8880022    1    1    2    0    0 -0.26833524549E+03  0.18961226561E+03  0.42289859065E+02  0.36487902164E+03  0.15294330000E+03 0. -1.
<mgrwt>
<rscale>  0 0.61657043E+03</rscale>
<asrwt>0</asrwt>
<pdfrwt beam="1">  1        2 0.95775971E-01 0.73604811E+03</pdfrwt>
<pdfrwt beam="2">  1       -2 0.74550127E-01 0.73604811E+03</pdfrwt>
<totfact> 0.77718964E+01</totfact>
</mgrwt>
</event>
<event>
 4    5  0.8511149E-008  0.6738653E+03  0.7818608E-02  0.1013031E+00
          2   -1    0    0  501    0  0.00000000000E+00  0.00000000000E+00  0.12998205399E+04  0.12998205399E+04  0.25500000000E-02 0. -1.
         -2   -1    0    0    0  501 -0.00000000000E+00 -0.00000000000E+00 -0.29251798993E+03  0.29251798994E+03  0.25500000000E-02 0.  1.
    8880023    1    1    2    0    0  0.41887978108E+02 -0.13612373250E+03  0.12466900463E+03  0.68530054738E+03  0.65864270000E+03 0.  1.
    8880022    1    1    2    0    0 -0.41887978108E+02  0.13612373250E+03  0.88263354535E+03  0.90703798247E+03  0.15294330000E+03 0.  0.
<mgrwt>
<rscale>  0 0.50287506E+03</rscale>
<asrwt>0</asrwt>
<pdfrwt beam="1">  1        2 0.19997238E+00 0.67386533E+03</pdfrwt>
<pdfrwt beam="2">  1       -2 0.45002769E-01 0.67386533E+03</pdfrwt>
<totfact> 0.79327096E+01</totfact>
</mgrwt>
</event>
<event>
 4    5  0.8511149E-008  0.8164009E+03  0.7818608E-02  0.9676395E-01
          2   -1    0    0  501    0  0.00000000000E+00  0.00000000000E+00  0.13746301765E+04  0.13746301765E+04  0.25500000000E-02 0. -1.
         -2   -1    0    0    0  501 -0.00000000000E+00 -0.00000000000E+00 -0.34182810542E+03  0.34182810543E+03  0.25500000000E-02 0.  1.
    8880023    1    1    2    0    0 -0.21476898208E+03 -0.43194273320E+03  0.40875665476E+03  0.91301284191E+03  0.65864270000E+03 0.  0.
    8880022    1    1    2    0    0  0.21476898208E+03  0.43194273320E+03  0.62404541632E+03  0.80344544001E+03  0.15294330000E+03 0.  0.
<mgrwt>
<rscale>  0 0.72439774E+03</rscale>
<asrwt>0</asrwt>
<pdfrwt beam="1">  1        2 0.21148156E+00 0.81640091E+03</pdfrwt>
<pdfrwt beam="2">  1       -2 0.52588939E-01 0.81640091E+03</pdfrwt>
<totfact> 0.51736271E+01</totfact>
</mgrwt>
</event>
<event>
 4    5  0.8511149E-008  0.6598569E+03  0.7818608E-02  0.1024303E+00
         -2   -1    0    0    0  501 -0.00000000000E+00  0.00000000000E+00  0.41376493690E+03  0.41376493691E+03  0.25500000000E-02 0.  1.
          2   -1    0    0  501    0  0.00000000000E+00 -0.00000000000E+00 -0.41281714416E+04  0.41281714416E+04  0.25500000000E-02 0. -1.
    8880023    1    1    2    0    0 -0.22773497870E+02  0.32898941963E+02  0.14803697134E+03  0.67625891767E+03  0.65864270000E+03 0.  0.
    8880022    1    1    2    0    0  0.22773497870E+02 -0.32898941963E+02 -0.38624434760E+04  0.38656774608E+04  0.15294330000E+03 0. -1.
<mgrwt>
<rscale>  0 0.46165105E+03</rscale>
<asrwt>0</asrwt>
<pdfrwt beam="1">  1        2 0.63510327E+00 0.65985694E+03</pdfrwt>
<pdfrwt beam="2">  1       -2 0.63656147E-01 0.65985694E+03</pdfrwt>
<totfact> 0.70297583E-01</totfact>
</mgrwt>
</event>
<event>
 4    5  0.8511149E-008  0.8922183E+03  0.7818608E-02  0.9538641E-01
         -2   -1    0    0    0  501 -0.00000000000E+00  0.00000000000E+00  0.41981632685E+03  0.41981632685E+03  0.25500000000E-02 0.  1.
          2   -1    0    0  501    0  0.00000000000E+00 -0.00000000000E+00 -0.14028975268E+04  0.14028975268E+04  0.25500000000E-02 0. -1.
    8880023    1    1    2    0    0 -0.49755037761E+03  0.33865442783E+03 -0.42700686335E+03  0.98913511077E+03  0.65864270000E+03 0.  0.
    8880022    1    1    2    0    0  0.49755037761E+03 -0.33865442783E+03 -0.55607433661E+03  0.83357874289E+03  0.15294330000E+03 0.  0.
<mgrwt>
<rscale>  0 0.81493949E+03</rscale>
<asrwt>0</asrwt>
<pdfrwt beam="1">  1        2 0.21583039E+00 0.89221825E+03</pdfrwt>
<pdfrwt beam="2">  1       -2 0.64587128E-01 0.89221825E+03</pdfrwt>
<totfact> 0.32130789E+01</totfact>
</mgrwt>
</event>
<event>
 4    5  0.8511149E-008  0.1102445E+04  0.7818608E-02  0.9258339E-01
          2   -1    0    0  501    0  0.00000000000E+00  0.00000000000E+00  0.10855241256E+04  0.10855241256E+04  0.25500000000E-02 0. -1.
         -2   -1    0    0    0  501 -0.00000000000E+00 -0.00000000000E+00 -0.12012201966E+04  0.12012201966E+04  0.25500000000E-02 0.  1.
    8880023    1    1    2    0    0 -0.29651366620E+03 -0.83285867370E+03 -0.61251538006E+03  0.12611737476E+04  0.65864270000E+03 0.  0.
    8880022    1    1    2    0    0  0.29651366620E+03  0.83285867370E+03  0.49681930900E+03  0.10255705746E+04  0.15294330000E+03 0.  0.
<mgrwt>
<rscale>  0 0.10471038E+04</rscale>
<asrwt>0</asrwt>
<pdfrwt beam="1">  1        2 0.16700371E+00 0.11024446E+04</pdfrwt>
<pdfrwt beam="2">  1       -2 0.18480311E+00 0.11024446E+04</pdfrwt>
<totfact> 0.36670425E+00</totfact>
</mgrwt>
</event>
<event>
 4    5  0.8511149E-008  0.6730217E+03  0.7818608E-02  0.1013583E+00
          2   -1    0    0  501    0  0.00000000000E+00  0.00000000000E+00  0.17351412841E+03  0.17351412843E+03  0.25500000000E-02 0. -1.
         -2   -1    0    0    0  501 -0.00000000000E+00 -0.00000000000E+00 -0.17733434236E+04  0.17733434236E+04  0.25500000000E-02 0.  1.
    8880023    1    1    2    0    0 -0.13717885601E+03 -0.18165454922E+02 -0.16051517750E+04  0.17405374025E+04  0.65864270000E+03 0.  1.
    8880022    1    1    2    0    0  0.13717885601E+03  0.18165454922E+02  0.53224798806E+01  0.20632014951E+03  0.15294330000E+03 0. -1.
<mgrwt>
<rscale>  0 0.50075014E+03</rscale>
<asrwt>0</asrwt>
<pdfrwt beam="1">  1        2 0.26694483E-01 0.67302171E+03</pdfrwt>
<pdfrwt beam="2">  1       -2 0.27282205E+00 0.67302171E+03</pdfrwt>
<totfact> 0.98515539E+00</totfact>
</mgrwt>
</event>
<event>
 4    5  0.8511149E-008  0.7097623E+03  0.7818608E-02  0.9958885E-01
          2   -1    0    0  501    0  0.00000000000E+00  0.00000000000E+00  0.10180823152E+04  0.10180823152E+04  0.25500000000E-02 0. -1.
         -2   -1    0    0    0  501 -0.00000000000E+00 -0.00000000000E+00 -0.49105718002E+03  0.49105718003E+03  0.25500000000E-02 0.  1.
    8880023    1    1    2    0    0  0.29089493995E+02  0.26288051652E+03 -0.18573179859E+03  0.73366127872E+03  0.65864270000E+03 0.  0.
    8880022    1    1    2    0    0 -0.29089493995E+02 -0.26288051652E+03  0.71275693378E+03  0.77547821652E+03  0.15294330000E+03 0.  0.
<mgrwt>
<rscale>  0 0.57490425E+03</rscale>
<asrwt>0</asrwt>
<pdfrwt beam="1">  1        2 0.15662805E+00 0.70976233E+03</pdfrwt>
<pdfrwt beam="2">  1       -2 0.75547259E-01 0.70976233E+03</pdfrwt>
<totfact> 0.39302121E+01</totfact>
</mgrwt>
</event>
<event>
 4    5  0.8511149E-008  0.7896619E+03  0.7818608E-02  0.9733612E-01
         -2   -1    0    0    0  501 -0.00000000000E+00  0.00000000000E+00  0.66377190326E+03  0.66377190326E+03  0.25500000000E-02 0.  1.
          2   -1    0    0  501    0  0.00000000000E+00 -0.00000000000E+00 -0.23758847189E+04  0.23758847189E+04  0.25500000000E-02 0. -1.
    8880023    1    1    2    0    0 -0.59612022075E+02  0.43151137789E+03  0.39472908759E+03  0.88282326729E+03  0.65864270000E+03 0.  1.
    8880022    1    1    2    0    0  0.59612022075E+02 -0.43151137789E+03 -0.21068419032E+04  0.21568333548E+04  0.15294330000E+03 0.  0.
<mgrwt>
<rscale>  0 0.69050346E+03</rscale>
<asrwt>0</asrwt>
<pdfrwt beam="1">  1        2 0.36552072E+00 0.78966187E+03</pdfrwt>
<pdfrwt beam="2">  1       -2 0.10211876E+00 0.78966187E+03</pdfrwt>
<totfact> 0.33510244E+00</totfact>
</mgrwt>
</event>
<event>
 4    5  0.8511149E-008  0.9606399E+03  0.7818608E-02  0.9434968E-01
         -2   -1    0    0    0  501 -0.00000000000E+00  0.00000000000E+00  0.95557243780E+03  0.95557243780E+03  0.25500000000E-02 0.  1.
          2   -1    0    0  501    0  0.00000000000E+00 -0.00000000000E+00 -0.22664306305E+04  0.22664306305E+04  0.25500000000E-02 0. -1.
    8880023    1    1    2    0    0  0.48991278027E+02  0.69758059639E+03  0.63305964490E+03  0.11504753600E+04  0.65864270000E+03 0.  0.
    8880022    1    1    2    0    0 -0.48991278027E+02 -0.69758059639E+03 -0.19439178376E+04  0.20715277083E+04  0.15294330000E+03 0.  0.
<mgrwt>
<rscale>  0 0.89252979E+03</rscale>
<asrwt>0</asrwt>
<pdfrwt beam="1">  1        2 0.34868163E+00 0.96063991E+03</pdfrwt>
<pdfrwt beam="2">  1       -2 0.14701114E+00 0.96063991E+03</pdfrwt>
<totfact> 0.15082824E+00</totfact>
</mgrwt>
</event>
<event>
 4    5  0.8511149E-008  0.8396968E+03  0.7818608E-02  0.9630752E-01
          2   -1    0    0  501    0  0.00000000000E+00  0.00000000000E+00  0.26167484400E+04  0.26167484400E+04  0.25500000000E-02 0. -1.
         -2   -1    0    0    0  501 -0.00000000000E+00 -0.00000000000E+00 -0.35991384121E+03  0.35991384122E+03  0.25500000000E-02 0.  1.
    8880023    1    1    2    0    0  0.51797459648E+03 -0.54615653267E+02  0.21902689460E+03  0.86779233634E+03  0.65864270000E+03 0.  1.
    8880022    1    1    2    0    0 -0.51797459648E+03  0.54615653267E+02  0.20378077042E+04  0.21088699449E+04  0.15294330000E+03 0.  0.
<mgrwt>
<rscale>  0 0.75293811E+03</rscale>
<asrwt>0</asrwt>
<pdfrwt beam="1">  1        2 0.40257669E+00 0.83969683E+03</pdfrwt>
<pdfrwt beam="2">  1       -2 0.55371360E-01 0.83969683E+03</pdfrwt>
<totfact> 0.94572945E+00</totfact>
</mgrwt>
</event>
<event>
 4    5  0.9614248E-008  0.8823101E+03  0.7818608E-02  0.9555048E-01
         -2   -1    0    0    0  501 -0.00000000000E+00  0.00000000000E+00  0.11422914047E+04  0.11422914047E+04  0.25500000000E-02 0.  1.
          2   -1    0    0  501    0  0.00000000000E+00 -0.00000000000E+00 -0.29703041559E+04  0.29703041559E+04  0.25500000000E-02 0. -1.
    8880023    1    1    2    0    0  0.58569714952E+03  0.40245693631E+02  0.93393828793E+03  0.12848002953E+04  0.65864270000E+03 0.  1.
    8880022    1    1    2    0    0 -0.58569714952E+03 -0.40245693631E+02 -0.27619510392E+04  0.28277952653E+04  0.15294330000E+03 0.  0.
<mgrwt>
<rscale>  0 0.80344223E+03</rscale>
<asrwt>0</asrwt>
<pdfrwt beam="1">  1        2 0.45696987E+00 0.88231008E+03</pdfrwt>
<pdfrwt beam="2">  1       -2 0.17573714E+00 0.88231008E+03</pdfrwt>
<totfact> 0.36675023E-01</totfact>
</mgrwt>
</event>
<event>
 4    5  0.8511149E-008  0.7811971E+03  0.7818608E-02  0.9753032E-01
         -2   -1    0    0    0  501 -0.00000000000E+00  0.00000000000E+00  0.11634570995E+04  0.11634570995E+04  0.25500000000E-02 0.  1.
          2   -1    0    0  501    0  0.00000000000E+00 -0.00000000000E+00 -0.92520541377E+03  0.92520541377E+03  0.25500000000E-02 0. -1.
    8880023    1    1    2    0    0 -0.41998490788E+03  0.84489167738E+01  0.96122574262E+03  0.12386378977E+04  0.65864270000E+03 0.  0.
    8880022    1    1    2    0    0  0.41998490788E+03 -0.84489167738E+01 -0.72297405693E+03  0.85002461555E+03  0.15294330000E+03 0.  0.
<mgrwt>
<rscale>  0 0.67945169E+03</rscale>
<asrwt>0</asrwt>
<pdfrwt beam="1">  1        2 0.14233929E+00 0.78119710E+03</pdfrwt>
<pdfrwt beam="2">  1       -2 0.17899340E+00 0.78119710E+03</pdfrwt>
<totfact> 0.52800169E+00</totfact>
</mgrwt>
</event>
<event>
 4    5  0.8511149E-008  0.8613141E+03  0.7818608E-02  0.9591230E-01
         -2   -1    0    0    0  501 -0.00000000000E+00  0.00000000000E+00  0.40390858275E+03  0.40390858276E+03  0.25500000000E-02 0.  1.
          2   -1    0    0  501    0  0.00000000000E+00 -0.00000000000E+00 -0.19733269913E+04  0.19733269913E+04  0.25500000000E-02 0. -1.
    8880023    1    1    2    0    0 -0.51020462275E+03 -0.21850161761E+03 -0.18932591544E+03  0.88187653472E+03  0.65864270000E+03 0.  0.
    8880022    1    1    2    0    0  0.51020462275E+03  0.21850161761E+03 -0.13800924931E+04  0.14953590393E+04  0.15294330000E+03 0.  0.
<mgrwt>
<rscale>  0 0.77879351E+03</rscale>
<asrwt>0</asrwt>
<pdfrwt beam="1">  1        2 0.30358876E+00 0.86131407E+03</pdfrwt>
<pdfrwt beam="2">  1       -2 0.62139783E-01 0.86131407E+03</pdfrwt>
<totfact> 0.16934601E+01</totfact>
</mgrwt>
</event>
<event>
 4    5  0.8511149E-008  0.7339676E+03  0.7818608E-02  0.9877881E-01
         -2   -1    0    0    0  501 -0.00000000000E+00  0.00000000000E+00  0.29775567681E+03  0.29775567683E+03  0.25500000000E-02 0.  1.
          2   -1    0    0  501    0  0.00000000000E+00 -0.00000000000E+00 -0.29202718443E+04  0.29202718443E+04  0.25500000000E-02 0. -1.
    8880023    1    1    2    0    0 -0.22994831571E+03  0.22808336555E+03 -0.18848347565E+03  0.75778260497E+03  0.65864270000E+03 0.  1.
    8880022    1    1    2    0    0  0.22994831571E+03 -0.22808336555E+03 -0.24340326919E+04  0.24602449162E+04  0.15294330000E+03 0.  0.
<mgrwt>
<rscale>  0 0.61345362E+03</rscale>
<asrwt>0</asrwt>
<pdfrwt beam="1">  1        2 0.44927257E+00 0.73396761E+03</pdfrwt>
<pdfrwt beam="2">  1       -2 0.45808568E-01 0.73396761E+03</pdfrwt>
<totfact> 0.93866859E+00</totfact>
</mgrwt>
</event>
<event>
 4    5  0.8511149E-008  0.7923546E+03  0.7818608E-02  0.9727577E-01
          2   -1    0    0  501    0  0.00000000000E+00  0.00000000000E+00  0.38755654877E+04  0.38755654877E+04  0.25500000000E-02 0. -1.
         -2   -1    0    0    0  501 -0.00000000000E+00 -0.00000000000E+00 -0.31165699236E+03  0.31165699237E+03  0.25500000000E-02 0.  1.
    8880023    1    1    2    0    0  0.36048219122E+03  0.25311695307E+03  0.23592238925E+03  0.82673162642E+03  0.65864270000E+03 0.  1.
    8880022    1    1    2    0    0 -0.36048219122E+03 -0.25311695307E+03  0.33279861061E+04  0.33604908537E+04  0.15294330000E+03 0.  0.
<mgrwt>
<rscale>  0 0.69398317E+03</rscale>
<asrwt>0</asrwt>
<pdfrwt beam="1">  1        2 0.59624084E+00 0.79235460E+03</pdfrwt>
<pdfrwt beam="2">  1       -2 0.47947230E-01 0.79235460E+03</pdfrwt>
<totfact> 0.19358412E+00</totfact>
</mgrwt>
</event>
<event>
 4    5  0.8511149E-008  0.1017320E+04  0.7818608E-02  0.9359240E-01
         -2   -1    0    0    0  501 -0.00000000000E+00  0.00000000000E+00  0.97552407127E+03  0.97552407128E+03  0.25500000000E-02 0.  1.
          2   -1    0    0  501    0  0.00000000000E+00 -0.00000000000E+00 -0.16864711322E+04  0.16864711322E+04  0.25500000000E-02 0. -1.
    8880023    1    1    2    0    0  0.76617638331E+03 -0.11876067130E+03  0.56309341333E+03  0.11627616892E+04  0.65864270000E+03 0.  0.
    8880022    1    1    2    0    0 -0.76617638331E+03  0.11876067130E+03 -0.12740404742E+04  0.14992335143E+04  0.15294330000E+03 0.  0.
<mgrwt>
<rscale>  0 0.95507339E+03</rscale>
<asrwt>0</asrwt>
<pdfrwt beam="1">  1        2 0.25945710E+00 0.10173203E+04</pdfrwt>
<pdfrwt beam="2">  1       -2 0.15008063E+00 0.10173203E+04</pdfrwt>
<totfact> 0.29618298E+00</totfact>
</mgrwt>
</event>
<event>
 4    5  0.8511149E-008  0.8672811E+03  0.7818608E-02  0.9580741E-01
          2   -1    0    0  501    0  0.00000000000E+00  0.00000000000E+00  0.11728383380E+04  0.11728383380E+04  0.25500000000E-02 0. -1.
         -2   -1    0    0    0  501 -0.00000000000E+00 -0.00000000000E+00 -0.65485935766E+03  0.65485935767E+03  0.25500000000E-02 0.  1.
    8880023    1    1    2    0    0  0.52496766306E+03  0.20682160894E+03 -0.21167244946E+03  0.89273829161E+03  0.65864270000E+03 0.  1.
    8880022    1    1    2    0    0 -0.52496766306E+03 -0.20682160894E+03  0.72965142976E+03  0.93495940401E+03  0.15294330000E+03 0.  0.
<mgrwt>
<rscale>  0 0.78584105E+03</rscale>
<asrwt>0</asrwt>
<pdfrwt beam="1">  1        2 0.18043667E+00 0.86728106E+03</pdfrwt>
<pdfrwt beam="2">  1       -2 0.10074759E+00 0.86728106E+03</pdfrwt>
<totfact> 0.16058651E+01</totfact>
</mgrwt>
</event>
<event>
 4    5  0.8511149E-008  0.7955356E+03  0.7818608E-02  0.9720533E-01
          2   -1    0    0  501    0  0.00000000000E+00  0.00000000000E+00  0.30514950649E+04  0.30514950649E+04  0.25500000000E-02 0. -1.
         -2   -1    0    0    0  501 -0.00000000000E+00 -0.00000000000E+00 -0.48719655701E+03  0.48719655702E+03  0.25500000000E-02 0.  1.
    8880023    1    1    2    0    0  0.39710223500E+03  0.20341220981E+03 -0.12767140636E+03  0.80571515215E+03  0.65864270000E+03 0.  1.
    8880022    1    1    2    0    0 -0.39710223500E+03 -0.20341220981E+03  0.26919699143E+04  0.27329764698E+04  0.15294330000E+03 0.  0.
<mgrwt>
<rscale>  0 0.69807296E+03</rscale>
<asrwt>0</asrwt>
<pdfrwt beam="1">  1        2 0.46946077E+00 0.79553562E+03</pdfrwt>
<pdfrwt beam="2">  1       -2 0.74953318E-01 0.79553562E+03</pdfrwt>
<totfact> 0.27371155E+00</totfact>
</mgrwt>
</event>
<event>
 4    5  0.8511149E-008  0.9677454E+03  0.7818608E-02  0.9425029E-01
         -2   -1    0    0    0  501 -0.00000000000E+00  0.00000000000E+00  0.62007803406E+03  0.62007803407E+03  0.25500000000E-02 0.  1.
          2   -1    0    0  501    0  0.00000000000E+00 -0.00000000000E+00 -0.21980707099E+04  0.21980707099E+04  0.25500000000E-02 0. -1.
    8880023    1    1    2    0    0  0.21971658305E+03 -0.67412578432E+03  0.11669985702E+03  0.97475638641E+03  0.65864270000E+03 0.  0.
    8880022    1    1    2    0    0 -0.21971658305E+03  0.67412578432E+03 -0.16946925328E+04  0.18433923575E+04  0.15294330000E+03 0.  0.
<mgrwt>
<rscale>  0 0.90044186E+03</rscale>
<asrwt>0</asrwt>
<pdfrwt beam="1">  1        2 0.33816472E+00 0.96774540E+03</pdfrwt>
<pdfrwt beam="2">  1       -2 0.95396622E-01 0.96774540E+03</pdfrwt>
<totfact> 0.48157969E+00</totfact>
</mgrwt>
</event>
<event>
 4    5  0.8511149E-008  0.1058182E+04  0.7818608E-02  0.9309110E-01
          2   -1    0    0  501    0  0.00000000000E+00  0.00000000000E+00  0.90066065929E+03  0.90066065929E+03  0.25500000000E-02 0. -1.
         -2   -1    0    0    0  501 -0.00000000000E+00 -0.00000000000E+00 -0.22312470730E+04  0.22312470730E+04  0.25500000000E-02 0.  1.
    8880023    1    1    2    0    0  0.48958669004E+03  0.66801488049E+03 -0.18579830365E+04  0.21381885272E+04  0.65864270000E+03 0.  0.
    8880022    1    1    2    0    0 -0.48958669004E+03 -0.66801488049E+03  0.52739662286E+03  0.99371920503E+03  0.15294330000E+03 0.  0.
<mgrwt>
<rscale>  0 0.99948523E+03</rscale>
<asrwt>0</asrwt>
<pdfrwt beam="1">  1        2 0.13856318E+00 0.10581820E+04</pdfrwt>
<pdfrwt beam="2">  1       -2 0.34326878E+00 0.10581820E+04</pdfrwt>
<totfact> 0.50340596E-01</totfact>
</mgrwt>
</event>
<event>
 4    5  0.8511149E-008  0.1455152E+04  0.7818608E-02  0.8941971E-01
         -2   -1    0    0    0  501 -0.00000000000E+00  0.00000000000E+00  0.62487919138E+03  0.62487919138E+03  0.25500000000E-02 0.  1.
          2   -1    0    0  501    0  0.00000000000E+00 -0.00000000000E+00 -0.35837573286E+04  0.35837573286E+04  0.25500000000E-02 0. -1.
    8880023    1    1    2    0    0 -0.12794828456E+04 -0.21582631369E+03 -0.23572893561E+04  0.27702492062E+04  0.65864270000E+03 0.  0.
    8880022    1    1    2    0    0  0.12794828456E+04  0.21582631369E+03 -0.60158878111E+03  0.14383873138E+04  0.15294330000E+03 0.  0.
<mgrwt>
<rscale>  0 0.14164852E+04</rscale>
<asrwt>0</asrwt>
<pdfrwt beam="1">  1        2 0.55134727E+00 0.14551521E+04</pdfrwt>
<pdfrwt beam="2">  1       -2 0.96135263E-01 0.14551521E+04</pdfrwt>
<totfact> 0.62300932E-01</totfact>
</mgrwt>
</event>
<event>
 4    5  0.8511149E-008  0.9388192E+03  0.7818608E-02  0.9466387E-01
         -2   -1    0    0    0  501 -0.00000000000E+00  0.00000000000E+00  0.85678245432E+03  0.85678245432E+03  0.25500000000E-02 0.  1.
          2   -1    0    0  501    0  0.00000000000E+00 -0.00000000000E+00 -0.28553091953E+04  0.28553091953E+04  0.25500000000E-02 0. -1.
    8880023    1    1    2    0    0  0.27914289699E+02  0.66842507308E+03  0.53958655191E+03  0.10828366170E+04  0.65864270000E+03 0.  1.
    8880022    1    1    2    0    0 -0.27914289699E+02 -0.66842507308E+03 -0.25381132929E+04  0.26292550326E+04  0.15294330000E+03 0.  0.
<mgrwt>
<rscale>  0 0.86808013E+03</rscale>
<asrwt>0</asrwt>
<pdfrwt beam="1">  1        2 0.43927833E+00 0.93881920E+03</pdfrwt>
<pdfrwt beam="2">  1       -2 0.13181269E+00 0.93881920E+03</pdfrwt>
<totfact> 0.91931990E-01</totfact>
</mgrwt>
</event>
<event>
 4    5  0.8511149E-008  0.7505709E+03  0.7818608E-02  0.9830160E-01
          2   -1    0    0  501    0  0.00000000000E+00  0.00000000000E+00  0.15895328017E+04  0.15895328017E+04  0.25500000000E-02 0. -1.
         -2   -1    0    0    0  501 -0.00000000000E+00 -0.00000000000E+00 -0.23949047221E+03  0.23949047222E+03  0.25500000000E-02 0.  1.
    8880023    1    1    2    0    0 -0.25051042974E+03  0.25843960770E+03  0.52491293854E+03  0.91590955096E+03  0.65864270000E+03 0.  1.
    8880022    1    1    2    0    0  0.25051042974E+03 -0.25843960770E+03  0.82512939093E+03  0.91311372295E+03  0.15294330000E+03 0.  0.
<mgrwt>
<rscale>  0 0.63768806E+03</rscale>
<asrwt>0</asrwt>
<pdfrwt beam="1">  1        2 0.24454351E+00 0.75057092E+03</pdfrwt>
<pdfrwt beam="2">  1       -2 0.36844688E-01 0.75057092E+03</pdfrwt>
<totfact> 0.80060377E+01</totfact>
</mgrwt>
</event>
<event>
 4    5  0.8511149E-008  0.6754866E+03  0.7818608E-02  0.1012001E+00
          2   -1    0    0  501    0  0.00000000000E+00  0.00000000000E+00  0.54694101057E+03  0.54694101058E+03  0.25500000000E-02 0. -1.
         -2   -1    0    0    0  501 -0.00000000000E+00 -0.00000000000E+00 -0.69284507718E+03  0.69284507719E+03  0.25500000000E-02 0.  1.
    8880023    1    1    2    0    0 -0.14990111274E+03 -0.12773775861E+01 -0.48999578389E+03  0.83449269007E+03  0.65864270000E+03 0.  1.
    8880022    1    1    2    0    0  0.14990111274E+03  0.12773775861E+01  0.34409171728E+03  0.40529339769E+03  0.15294330000E+03 0.  0.
<mgrwt>
<rscale>  0 0.50686945E+03</rscale>
<asrwt>0</asrwt>
<pdfrwt beam="1">  1        2 0.84144771E-01 0.67548663E+03</pdfrwt>
<pdfrwt beam="2">  1       -2 0.10659155E+00 0.67548663E+03</pdfrwt>
<totfact> 0.39996773E+01</totfact>
</mgrwt>
</event>
<event>
 4    5  0.8511149E-008  0.9010872E+03  0.7818608E-02  0.9524289E-01
         -2   -1    0    0    0  501 -0.00000000000E+00  0.00000000000E+00  0.76011563166E+03  0.76011563166E+03  0.25500000000E-02 0.  1.
          2   -1    0    0  501    0  0.00000000000E+00 -0.00000000000E+00 -0.23979950210E+04  0.23979950210E+04  0.25500000000E-02 0. -1.
    8880023    1    1    2    0    0 -0.41840087288E+03  0.45065358201E+03  0.42775719618E+03  0.99746396755E+03  0.65864270000E+03 0.  1.
    8880022    1    1    2    0    0  0.41840087288E+03 -0.45065358201E+03 -0.20656365855E+04  0.21606466851E+04  0.15294330000E+03 0.  0.
<mgrwt>
<rscale>  0 0.82516569E+03</rscale>
<asrwt>0</asrwt>
<pdfrwt beam="1">  1        2 0.36892231E+00 0.90108720E+03</pdfrwt>
<pdfrwt beam="2">  1       -2 0.11694087E+00 0.90108720E+03</pdfrwt>
<totfact> 0.23020416E+00</totfact>
</mgrwt>
</event>
<event>
 4    5  0.8511149E-008  0.9305043E+03  0.7818608E-02  0.9478737E-01
         -2   -1    0    0    0  501 -0.00000000000E+00  0.00000000000E+00  0.62182827518E+03  0.62182827519E+03  0.25500000000E-02 0.  1.
          2   -1    0    0  501    0  0.00000000000E+00 -0.00000000000E+00 -0.23920702235E+04  0.23920702235E+04  0.25500000000E-02 0. -1.
    8880023    1    1    2    0    0  0.57733719406E+03  0.31418126619E+03  0.18215014239E+03  0.94816506174E+03  0.65864270000E+03 0.  1.
    8880022    1    1    2    0    0 -0.57733719406E+03 -0.31418126619E+03 -0.19523920907E+04  0.20657334369E+04  0.15294330000E+03 0.  0.
<mgrwt>
<rscale>  0 0.85869767E+03</rscale>
<asrwt>0</asrwt>
<pdfrwt beam="1">  1        2 0.36801080E+00 0.93050433E+03</pdfrwt>
<pdfrwt beam="2">  1       -2 0.95665890E-01 0.93050433E+03</pdfrwt>
<totfact> 0.37452189E+00</totfact>
</mgrwt>
</event>
<event>
 4    5  0.8511149E-008  0.7977918E+03  0.7818608E-02  0.9715591E-01
          2   -1    0    0  501    0  0.00000000000E+00  0.00000000000E+00  0.24349655619E+04  0.24349655619E+04  0.25500000000E-02 0. -1.
         -2   -1    0    0    0  501 -0.00000000000E+00 -0.00000000000E+00 -0.39098759644E+03  0.39098759645E+03  0.25500000000E-02 0.  1.
    8880023    1    1    2    0    0  0.40065287063E+03  0.20527751939E+03  0.76053421914E+02  0.80140870469E+03  0.65864270000E+03 0.  1.
    8880022    1    1    2    0    0 -0.40065287063E+03 -0.20527751939E+03  0.19679245436E+04  0.20245444537E+04  0.15294330000E+03 0.  0.
<mgrwt>
<rscale>  0 0.70096047E+03</rscale>
<asrwt>0</asrwt>
<pdfrwt beam="1">  1        2 0.37461009E+00 0.79779182E+03</pdfrwt>
<pdfrwt beam="2">  1       -2 0.60151937E-01 0.79779182E+03</pdfrwt>
<totfact> 0.10157524E+01</totfact>
</mgrwt>
</event>
<event>
 4    5  0.8511149E-008  0.2466178E+04  0.7818608E-02  0.8422943E-01
         -2   -1    0    0    0  501 -0.00000000000E+00  0.00000000000E+00  0.17022022975E+04  0.17022022975E+04  0.25500000000E-02 0.  1.
          2   -1    0    0  501    0  0.00000000000E+00 -0.00000000000E+00 -0.38308504225E+04  0.38308504225E+04  0.25500000000E-02 0. -1.
    8880023    1    1    2    0    0  0.19055508292E+03 -0.23689471862E+04 -0.21053193297E+03  0.24751476545E+04  0.65864270000E+03 0.  0.
    8880022    1    1    2    0    0 -0.19055508292E+03  0.23689471862E+04 -0.19181161920E+04  0.30579050655E+04  0.15294330000E+03 0.  0.
<mgrwt>
<rscale>  0 0.24447339E+04</rscale>
<asrwt>0</asrwt>
<pdfrwt beam="1">  1        2 0.58936160E+00 0.24661777E+04</pdfrwt>
<pdfrwt beam="2">  1       -2 0.26187728E+00 0.24661777E+04</pdfrwt>
<totfact> 0.21394961E-02</totfact>
</mgrwt>
</event>
<event>
 4    5  0.8511149E-008  0.1718670E+04  0.7818608E-02  0.8768912E-01
          2   -1    0    0  501    0  0.00000000000E+00  0.00000000000E+00  0.25719242114E+04  0.25719242114E+04  0.25500000000E-02 0. -1.
         -2   -1    0    0    0  501 -0.00000000000E+00 -0.00000000000E+00 -0.14552022040E+04  0.14552022040E+04  0.25500000000E-02 0.  1.
    8880023    1    1    2    0    0 -0.83515275920E+03  0.13500129942E+04 -0.46551698211E+03  0.17805986304E+04  0.65864270000E+03 0.  0.
    8880022    1    1    2    0    0  0.83515275920E+03 -0.13500129942E+04  0.15822389895E+04  0.22465277850E+04  0.15294330000E+03 0.  0.
<mgrwt>
<rscale>  0 0.16868299E+04</rscale>
<asrwt>0</asrwt>
<pdfrwt beam="1">  1        2 0.39568064E+00 0.17186697E+04</pdfrwt>
<pdfrwt beam="2">  1       -2 0.22387727E+00 0.17186697E+04</pdfrwt>
<totfact> 0.27057765E-01</totfact>
</mgrwt>
</event>
<event>
 4    5  0.8511149E-008  0.1148487E+04  0.7818608E-02  0.9208900E-01
         -2   -1    0    0    0  501 -0.00000000000E+00  0.00000000000E+00  0.15701367817E+04  0.15701367817E+04  0.25500000000E-02 0.  1.
          2   -1    0    0  501    0  0.00000000000E+00 -0.00000000000E+00 -0.88016480385E+03  0.88016480385E+03  0.25500000000E-02 0. -1.
    8880023    1    1    2    0    0 -0.93699098296E+03 -0.85200149713E+02  0.91789759116E+03  0.14702235754E+04  0.65864270000E+03 0.  1.
    8880022    1    1    2    0    0  0.93699098296E+03  0.85200149713E+02 -0.22792561331E+03  0.98007801010E+03  0.15294330000E+03 0.  0.
<mgrwt>
<rscale>  0 0.10962035E+04</rscale>
<asrwt>0</asrwt>
<pdfrwt beam="1">  1        2 0.13540997E+00 0.11484866E+04</pdfrwt>
<pdfrwt beam="2">  1       -2 0.24155951E+00 0.11484866E+04</pdfrwt>
<totfact> 0.21478433E+00</totfact>
</mgrwt>
</event>
<event>
 4    5  0.8511149E-008  0.1210398E+04  0.7818608E-02  0.9147080E-01
          2   -1    0    0  501    0  0.00000000000E+00  0.00000000000E+00  0.33906708983E+04  0.33906708983E+04  0.25500000000E-02 0. -1.
         -2   -1    0    0    0  501 -0.00000000000E+00 -0.00000000000E+00 -0.54755814024E+03  0.54755814025E+03  0.25500000000E-02 0.  1.
    8880023    1    1    2    0    0 -0.10150082008E+04  0.31817353271E+02  0.37846898149E+03  0.12681888534E+04  0.65864270000E+03 0.  0.
    8880022    1    1    2    0    0  0.10150082008E+04 -0.31817353271E+02  0.24646437766E+04  0.26700401851E+04  0.15294330000E+03 0.  0.
<mgrwt>
<rscale>  0 0.11616748E+04</rscale>
<asrwt>0</asrwt>
<pdfrwt beam="1">  1        2 0.52164168E+00 0.12103984E+04</pdfrwt>
<pdfrwt beam="2">  1       -2 0.84239713E-01 0.12103984E+04</pdfrwt>
<totfact> 0.11885698E+00</totfact>
</mgrwt>
</event>
<event>
 4    5  0.8511149E-008  0.1205104E+04  0.7818608E-02  0.9152177E-01
          2   -1    0    0  501    0  0.00000000000E+00  0.00000000000E+00  0.41759499396E+03  0.41759499397E+03  0.25500000000E-02 0. -1.
         -2   -1    0    0    0  501 -0.00000000000E+00 -0.00000000000E+00 -0.31682089502E+04  0.31682089502E+04  0.25500000000E-02 0.  1.
    8880023    1    1    2    0    0  0.53587416091E+03 -0.85516365724E+03 -0.19335109409E+04  0.22783197234E+04  0.65864270000E+03 0.  0.
    8880022    1    1    2    0    0 -0.53587416091E+03  0.85516365724E+03 -0.81710301536E+03  0.13074842208E+04  0.15294330000E+03 0.  0.
<mgrwt>
<rscale>  0 0.11560976E+04</rscale>
<asrwt>0</asrwt>
<pdfrwt beam="1">  1        2 0.64245386E-01 0.12051042E+04</pdfrwt>
<pdfrwt beam="2">  1       -2 0.48741674E+00 0.12051042E+04</pdfrwt>
<totfact> 0.14835792E-01</totfact>
</mgrwt>
</event>
<event>
 4    5  0.8511149E-008  0.7869229E+03  0.7818608E-02  0.9739819E-01
          2   -1    0    0  501    0  0.00000000000E+00  0.00000000000E+00  0.22678063659E+04  0.22678063659E+04  0.25500000000E-02 0. -1.
         -2   -1    0    0    0  501 -0.00000000000E+00 -0.00000000000E+00 -0.84108702221E+03  0.84108702221E+03  0.25500000000E-02 0.  1.
    8880023    1    1    2    0    0 -0.30975082849E+03 -0.29915194797E+03 -0.62623532580E+03  0.10056929717E+04  0.65864270000E+03 0.  1.
    8880022    1    1    2    0    0  0.30975082849E+03  0.29915194797E+03  0.20529546695E+04  0.21032004165E+04  0.15294330000E+03 0.  0.
<mgrwt>
<rscale>  0 0.68694667E+03</rscale>
<asrwt>0</asrwt>
<pdfrwt beam="1">  1        2 0.34889329E+00 0.78692291E+03</pdfrwt>
<pdfrwt beam="2">  1       -2 0.12939800E+00 0.78692291E+03</pdfrwt>
<totfact> 0.21546982E+00</totfact>
</mgrwt>
</event>
<event>
 4    5  0.8511149E-008  0.1588581E+04  0.7818608E-02  0.8849493E-01
         -2   -1    0    0    0  501 -0.00000000000E+00  0.00000000000E+00  0.57527981842E+03  0.57527981843E+03  0.25500000000E-02 0.  1.
          2   -1    0    0  501    0  0.00000000000E+00 -0.00000000000E+00 -0.48901774891E+04  0.48901774891E+04  0.25500000000E-02 0. -1.
    8880023    1    1    2    0    0  0.20252325683E+03  0.14313504296E+04 -0.10856987476E+04  0.19241444070E+04  0.65864270000E+03 0.  0.
    8880022    1    1    2    0    0 -0.20252325683E+03 -0.14313504296E+04 -0.32291989231E+04  0.35413129006E+04  0.15294330000E+03 0.  0.
<mgrwt>
<rscale>  0 0.15537240E+04</rscale>
<asrwt>0</asrwt>
<pdfrwt beam="1">  1        2 0.75233497E+00 0.15885811E+04</pdfrwt>
<pdfrwt beam="2">  1       -2 0.88504591E-01 0.15885811E+04</pdfrwt>
<totfact> 0.50408888E-02</totfact>
</mgrwt>
</event>
<event>
 4    5  0.8511149E-008  0.6630187E+03  0.7818608E-02  0.1021257E+00
         -2   -1    0    0    0  501 -0.00000000000E+00  0.00000000000E+00  0.28656535683E+03  0.28656535685E+03  0.25500000000E-02 0.  1.
          2   -1    0    0  501    0  0.00000000000E+00 -0.00000000000E+00 -0.16146944205E+04  0.16146944205E+04  0.25500000000E-02 0. -1.
    8880023    1    1    2    0    0  0.56428358052E+02 -0.50983990691E+02 -0.11105105949E+03  0.67225446892E+03  0.65864270000E+03 0.  1.
    8880022    1    1    2    0    0 -0.56428358052E+02  0.50983990691E+02 -0.12170780041E+04  0.12290053084E+04  0.15294330000E+03 0.  0.
<mgrwt>
<rscale>  0 0.47235770E+03</rscale>
<asrwt>0</asrwt>
<pdfrwt beam="1">  1        2 0.24841452E+00 0.66301865E+03</pdfrwt>
<pdfrwt beam="2">  1       -2 0.44086979E-01 0.66301865E+03</pdfrwt>
<totfact> 0.55160778E+01</totfact>
</mgrwt>
</event>
<event>
 4    5  0.8511149E-008  0.8873265E+03  0.7818608E-02  0.9546691E-01
          2   -1    0    0  501    0  0.00000000000E+00  0.00000000000E+00  0.18468872258E+04  0.18468872258E+04  0.25500000000E-02 0. -1.
         -2   -1    0    0    0  501 -0.00000000000E+00 -0.00000000000E+00 -0.12631663757E+04  0.12631663757E+04  0.25500000000E-02 0.  1.
    8880023    1    1    2    0    0  0.14183344817E+03  0.57742654652E+03 -0.10441512505E+04  0.13702555177E+04  0.65864270000E+03 0.  0.
    8880022    1    1    2    0    0 -0.14183344817E+03 -0.57742654652E+03  0.16278721006E+04  0.17397980838E+04  0.15294330000E+03 0.  0.
<mgrwt>
<rscale>  0 0.80927319E+03</rscale>
<asrwt>0</asrwt>
<pdfrwt beam="1">  1        2 0.28413650E+00 0.88732652E+03</pdfrwt>
<pdfrwt beam="2">  1       -2 0.19433329E+00 0.88732652E+03</pdfrwt>
<totfact> 0.11946413E+00</totfact>
</mgrwt>
</event>
<event>
 4    5  0.8511149E-008  0.9065777E+03  0.7818608E-02  0.9515554E-01
          2   -1    0    0  501    0  0.00000000000E+00  0.00000000000E+00  0.34108548861E+04  0.34108548861E+04  0.25500000000E-02 0. -1.
         -2   -1    0    0    0  501 -0.00000000000E+00 -0.00000000000E+00 -0.33159022965E+03  0.33159022965E+03  0.25500000000E-02 0.  1.
    8880023    1    1    2    0    0  0.57509540813E+03 -0.23945400756E+03  0.40606944043E+03  0.99336576693E+03  0.65864270000E+03 0.  1.
    8880022    1    1    2    0    0 -0.57509540813E+03  0.23945400756E+03  0.26731952160E+04  0.27490793488E+04  0.15294330000E+03 0.  0.
<mgrwt>
<rscale>  0 0.83146762E+03</rscale>
<asrwt>0</asrwt>
<pdfrwt beam="1">  1        2 0.52474692E+00 0.90657772E+03</pdfrwt>
<pdfrwt beam="2">  1       -2 0.51013880E-01 0.90657772E+03</pdfrwt>
<totfact> 0.35749593E+00</totfact>
</mgrwt>
</event>
<event>
 4    5  0.8511149E-008  0.7695475E+03  0.7818608E-02  0.9780989E-01
         -2   -1    0    0    0  501 -0.00000000000E+00  0.00000000000E+00  0.56131082593E+03  0.56131082594E+03  0.25500000000E-02 0.  1.
          2   -1    0    0  501    0  0.00000000000E+00 -0.00000000000E+00 -0.19287277365E+04  0.19287277365E+04  0.25500000000E-02 0. -1.
    8880023    1    1    2    0    0  0.14166853876E+02  0.39773418932E+03  0.25643294033E+03  0.81114810254E+03  0.65864270000E+03 0.  0.
    8880022    1    1    2    0    0 -0.14166853876E+02 -0.39773418932E+03 -0.16238498509E+04  0.16788904599E+04  0.15294330000E+03 0.  0.
<mgrwt>
<rscale>  0 0.66392847E+03</rscale>
<asrwt>0</asrwt>
<pdfrwt beam="1">  1        2 0.29672734E+00 0.76954752E+03</pdfrwt>
<pdfrwt beam="2">  1       -2 0.86355513E-01 0.76954752E+03</pdfrwt>
<totfact> 0.87686230E+00</totfact>
</mgrwt>
</event>
<event>
 4    5  0.8511149E-008  0.6962963E+03  0.7818608E-02  0.1001293E+00
         -2   -1    0    0    0  501 -0.00000000000E+00  0.00000000000E+00  0.49308961595E+03  0.49308961596E+03  0.25500000000E-02 0.  1.
          2   -1    0    0  501    0  0.00000000000E+00 -0.00000000000E+00 -0.10680617406E+04  0.10680617406E+04  0.25500000000E-02 0. -1.
    8880023    1    1    2    0    0 -0.60211091012E+02 -0.21769916166E+03  0.21231465798E+03  0.72794644084E+03  0.65864270000E+03 0.  1.
    8880022    1    1    2    0    0  0.60211091012E+02  0.21769916166E+03 -0.78728678263E+03  0.83320491573E+03  0.15294330000E+03 0.  0.
<mgrwt>
<rscale>  0 0.55087040E+03</rscale>
<asrwt>0</asrwt>
<pdfrwt beam="1">  1        2 0.16431719E+00 0.69629628E+03</pdfrwt>
<pdfrwt beam="2">  1       -2 0.75859941E-01 0.69629628E+03</pdfrwt>
<totfact> 0.36291425E+01</totfact>
</mgrwt>
</event>
<event>
 4    5  0.8511149E-008  0.9400842E+03  0.7818608E-02  0.9464527E-01
         -2   -1    0    0    0  501 -0.00000000000E+00  0.00000000000E+00  0.15024369574E+04  0.15024369574E+04  0.25500000000E-02 0.  1.
          2   -1    0    0  501    0  0.00000000000E+00 -0.00000000000E+00 -0.44244267883E+03  0.44244267884E+03  0.25500000000E-02 0. -1.
    8880023    1    1    2    0    0 -0.63778600583E+03  0.20779079655E+03  0.55805749790E+03  0.10932458011E+04  0.65864270000E+03 0. -1.
    8880022    1    1    2    0    0  0.63778600583E+03 -0.20779079655E+03  0.50193678063E+03  0.85163383513E+03  0.15294330000E+03 0.  0.
<mgrwt>
<rscale>  0 0.86950415E+03</rscale>
<asrwt>0</asrwt>
<pdfrwt beam="1">  1        2 0.68068105E-01 0.94008415E+03</pdfrwt>
<pdfrwt beam="2">  1       -2 0.23114414E+00 0.94008415E+03</pdfrwt>
<totfact> 0.59880571E+00</totfact>
</mgrwt>
</event>
<event>
 4    5  0.8511149E-008  0.1108249E+04  0.7818608E-02  0.9251927E-01
          2   -1    0    0  501    0  0.00000000000E+00  0.00000000000E+00  0.19169492621E+04  0.19169492621E+04  0.25500000000E-02 0. -1.
         -2   -1    0    0    0  501 -0.00000000000E+00 -0.00000000000E+00 -0.12943264612E+04  0.12943264612E+04  0.25500000000E-02 0.  1.
    8880023    1    1    2    0    0 -0.88578884338E+03  0.98910524985E+02 -0.90850156346E+03  0.14330354022E+04  0.65864270000E+03 0.  0.
    8880022    1    1    2    0    0  0.88578884338E+03 -0.98910524985E+02  0.15311243644E+04  0.17782403210E+04  0.15294330000E+03 0.  0.
<mgrwt>
<rscale>  0 0.10533159E+04</rscale>
<asrwt>0</asrwt>
<pdfrwt beam="1">  1        2 0.29491527E+00 0.11082488E+04</pdfrwt>
<pdfrwt beam="2">  1       -2 0.19912715E+00 0.11082488E+04</pdfrwt>
<totfact> 0.98382545E-01</totfact>
</mgrwt>
</event>
<event>
 4    5  0.8511149E-008  0.8243413E+03  0.7818608E-02  0.9660444E-01
          2   -1    0    0  501    0  0.00000000000E+00  0.00000000000E+00  0.11229650461E+04  0.11229650461E+04  0.25500000000E-02 0. -1.
         -2   -1    0    0    0  501 -0.00000000000E+00 -0.00000000000E+00 -0.11923954089E+04  0.11923954089E+04  0.25500000000E-02 0.  1.
    8880023    1    1    2    0    0  0.37749206956E+03  0.32129124410E+03 -0.97190013749E+03  0.12744129667E+04  0.65864270000E+03 0.  1.
    8880022    1    1    2    0    0 -0.37749206956E+03 -0.32129124410E+03  0.90246977474E+03  0.10409474883E+04  0.15294330000E+03 0.  0.
<mgrwt>
<rscale>  0 0.73421546E+03</rscale>
<asrwt>0</asrwt>
<pdfrwt beam="1">  1        2 0.17276385E+00 0.82434127E+03</pdfrwt>
<pdfrwt beam="2">  1       -2 0.18344545E+00 0.82434127E+03</pdfrwt>
<totfact> 0.36672345E+00</totfact>
</mgrwt>
</event>
<event>
 4    5  0.8511149E-008  0.6801961E+03  0.7818608E-02  0.1009213E+00
          2   -1    0    0  501    0  0.00000000000E+00  0.00000000000E+00  0.17385555360E+04  0.17385555360E+04  0.25500000000E-02 0. -1.
         -2   -1    0    0    0  501 -0.00000000000E+00 -0.00000000000E+00 -0.38050478821E+03  0.38050478822E+03  0.25500000000E-02 0.  1.
    8880023    1    1    2    0    0 -0.14366234372E+03  0.90651350825E+02 -0.59877121865E+02  0.68282648777E+03  0.65864270000E+03 0.  1.
    8880022    1    1    2    0    0  0.14366234372E+03 -0.90651350825E+02  0.14179278696E+04  0.14362338364E+04  0.15294330000E+03 0.  0.
<mgrwt>
<rscale>  0 0.51788641E+03</rscale>
<asrwt>0</asrwt>
<pdfrwt beam="1">  1        2 0.26747008E+00 0.68019611E+03</pdfrwt>
<pdfrwt beam="2">  1       -2 0.58539198E-01 0.68019611E+03</pdfrwt>
<totfact> 0.26418585E+01</totfact>
</mgrwt>
</event>
<event>
 4    5  0.8511149E-008  0.6658307E+03  0.7818608E-02  0.1018846E+00
         -2   -1    0    0    0  501 -0.00000000000E+00  0.00000000000E+00  0.92198240842E+03  0.92198240842E+03  0.25500000000E-02 0.  1.
          2   -1    0    0  501    0  0.00000000000E+00 -0.00000000000E+00 -0.25324702866E+04  0.25324702866E+04  0.25500000000E-02 0. -1.
    8880023    1    1    2    0    0  0.94355370156E+02 -0.24846650106E+02  0.79791319847E+03  0.10392285458E+04  0.65864270000E+03 0.  1.
    8880022    1    1    2    0    0 -0.94355370156E+02  0.24846650106E+02 -0.24084010766E+04  0.24152241492E+04  0.15294330000E+03 0.  0.
<mgrwt>
<rscale>  0 0.48105202E+03</rscale>
<asrwt>0</asrwt>
<pdfrwt beam="1">  1        2 0.38961081E+00 0.66583068E+03</pdfrwt>
<pdfrwt beam="2">  1       -2 0.14184345E+00 0.66583068E+03</pdfrwt>
<totfact> 0.12413466E+00</totfact>
</mgrwt>
</event>
<event>
 4    5  0.8511149E-008  0.8136816E+03  0.7818608E-02  0.9681959E-01
          2   -1    0    0  501    0  0.00000000000E+00  0.00000000000E+00  0.66697175765E+03  0.66697175765E+03  0.25500000000E-02 0. -1.
         -2   -1    0    0    0  501 -0.00000000000E+00 -0.00000000000E+00 -0.10444706404E+04  0.10444706404E+04  0.25500000000E-02 0.  1.
    8880023    1    1    2    0    0 -0.30382797562E+03  0.36872222233E+03 -0.73415075758E+03  0.10959265747E+04  0.65864270000E+03 0.  1.
    8880022    1    1    2    0    0  0.30382797562E+03 -0.36872222233E+03  0.35665187480E+03  0.61551582338E+03  0.15294330000E+03 0.  0.
<mgrwt>
<rscale>  0 0.72101195E+03</rscale>
<asrwt>0</asrwt>
<pdfrwt beam="1">  1        2 0.10261104E+00 0.81368159E+03</pdfrwt>
<pdfrwt beam="2">  1       -2 0.16068779E+00 0.81368159E+03</pdfrwt>
<totfact> 0.10940626E+01</totfact>
</mgrwt>
</event>
<event>
 4    5  0.8511149E-008  0.1572693E+04  0.7818608E-02  0.8859940E-01
          2   -1    0    0  501    0  0.00000000000E+00  0.00000000000E+00  0.25123567634E+04  0.25123567634E+04  0.25500000000E-02 0. -1.
         -2   -1    0    0    0  501 -0.00000000000E+00 -0.00000000000E+00 -0.15578472653E+04  0.15578472654E+04  0.25500000000E-02 0.  1.
    8880023    1    1    2    0    0 -0.13865311378E+04 -0.34217774919E+03  0.18104984956E+04  0.23981803970E+04  0.65864270000E+03 0.  0.
    8880022    1    1    2    0    0  0.13865311378E+04  0.34217774919E+03 -0.85598899754E+03  0.16720236317E+04  0.15294330000E+03 0.  0.
<mgrwt>
<rscale>  0 0.15374253E+04</rscale>
<asrwt>0</asrwt>
<pdfrwt beam="1">  1        2 0.38651642E+00 0.15726934E+04</pdfrwt>
<pdfrwt beam="2">  1       -2 0.23966881E+00 0.15726934E+04</pdfrwt>
<totfact> 0.23701815E-01</totfact>
</mgrwt>
</event>
<event>
 4    5  0.8511149E-008  0.7951889E+03  0.7818608E-02  0.9721297E-01
          2   -1    0    0  501    0  0.00000000000E+00  0.00000000000E+00  0.11335107932E+04  0.11335107933E+04  0.25500000000E-02 0. -1.
         -2   -1    0    0    0  501 -0.00000000000E+00 -0.00000000000E+00 -0.54823697305E+03  0.54823697306E+03  0.25500000000E-02 0.  1.
    8880023    1    1    2    0    0 -0.44473962572E+03  0.26865967920E+02 -0.14932109064E+03  0.80908720747E+03  0.65864270000E+03 0.  0.
    8880022    1    1    2    0    0  0.44473962572E+03 -0.26865967920E+02  0.73459491083E+03  0.87266055884E+03  0.15294330000E+03 0.  0.
<mgrwt>
<rscale>  0 0.69762821E+03</rscale>
<asrwt>0</asrwt>
<pdfrwt beam="1">  1        2 0.17438627E+00 0.79518886E+03</pdfrwt>
<pdfrwt beam="2">  1       -2 0.84344150E-01 0.79518886E+03</pdfrwt>
<totfact> 0.25819114E+01</totfact>
</mgrwt>
</event>
<event>
 4    5  0.8511149E-008  0.1297163E+04  0.7818608E-02  0.9068014E-01
         -2   -1    0    0    0  501 -0.00000000000E+00  0.00000000000E+00  0.13651502238E+04  0.13651502238E+04  0.25500000000E-02 0.  1.
          2   -1    0    0  501    0  0.00000000000E+00 -0.00000000000E+00 -0.16754845650E+04  0.16754845651E+04  0.25500000000E-02 0. -1.
    8880023    1    1    2    0    0 -0.11174483532E+04  0.11426091726E+02 -0.10693443412E+04  0.16811094266E+04  0.65864270000E+03 0.  0.
    8880022    1    1    2    0    0  0.11174483532E+04 -0.11426091726E+02  0.75901000002E+03  0.13595253623E+04  0.15294330000E+03 0.  0.
<mgrwt>
<rscale>  0 0.12526100E+04</rscale>
<asrwt>0</asrwt>
<pdfrwt beam="1">  1        2 0.25776686E+00 0.12971629E+04</pdfrwt>
<pdfrwt beam="2">  1       -2 0.21002311E+00 0.12971629E+04</pdfrwt>
<totfact> 0.11116542E+00</totfact>
</mgrwt>
</event>
<event>
 4    5  0.8511149E-008  0.1057443E+04  0.7818608E-02  0.9309987E-01
         -2   -1    0    0    0  501 -0.00000000000E+00  0.00000000000E+00  0.29714302840E+03  0.29714302841E+03  0.25500000000E-02 0.  1.
          2   -1    0    0  501    0  0.00000000000E+00 -0.00000000000E+00 -0.35680425618E+04  0.35680425618E+04  0.25500000000E-02 0. -1.
    8880023    1    1    2    0    0 -0.90927205189E+02 -0.82225806872E+03 -0.25378207667E+04  0.27493127393E+04  0.65864270000E+03 0. -1.
    8880022    1    1    2    0    0  0.90927205189E+02  0.82225806872E+03 -0.73307876667E+03  0.11158728509E+04  0.15294330000E+03 0.  0.
<mgrwt>
<rscale>  0 0.99868645E+03</rscale>
<asrwt>0</asrwt>
<pdfrwt beam="1">  1        2 0.54892959E+00 0.10574433E+04</pdfrwt>
<pdfrwt beam="2">  1       -2 0.45714315E-01 0.10574433E+04</pdfrwt>
<totfact> 0.34017991E+00</totfact>
</mgrwt>
</event>
<event>
 4    5  0.8511149E-008  0.6910095E+03  0.7818608E-02  0.1003676E+00
          2   -1    0    0  501    0  0.00000000000E+00  0.00000000000E+00  0.13045666658E+04  0.13045666658E+04  0.25500000000E-02 0. -1.
         -2   -1    0    0    0  501 -0.00000000000E+00 -0.00000000000E+00 -0.91637373679E+03  0.91637373680E+03  0.25500000000E-02 0.  1.
    8880023    1    1    2    0    0  0.11552301899E+03 -0.17417912102E+03 -0.76973556249E+03  0.10344017481E+04  0.65864270000E+03 0.  1.
    8880022    1    1    2    0    0 -0.11552301899E+03  0.17417912102E+03  0.11579284915E+04  0.11865386544E+04  0.15294330000E+03 0.  0.
<mgrwt>
<rscale>  0 0.54067162E+03</rscale>
<asrwt>0</asrwt>
<pdfrwt beam="1">  1        2 0.20070256E+00 0.69100951E+03</pdfrwt>
<pdfrwt beam="2">  1       -2 0.14098057E+00 0.69100951E+03</pdfrwt>
<totfact> 0.59764339E+00</totfact>
</mgrwt>
</event>
<event>
 4    5  0.8511149E-008  0.1477979E+04  0.7818608E-02  0.8925344E-01
          2   -1    0    0  501    0  0.00000000000E+00  0.00000000000E+00  0.53536480152E+03  0.53536480153E+03  0.25500000000E-02 0. -1.
         -2   -1    0    0    0  501 -0.00000000000E+00 -0.00000000000E+00 -0.45576042978E+04  0.45576042978E+04  0.25500000000E-02 0.  1.
    8880023    1    1    2    0    0 -0.11150247880E+04  0.71227275439E+03 -0.98392631015E+03  0.17755376495E+04  0.65864270000E+03 0.  0.
    8880022    1    1    2    0    0  0.11150247880E+04 -0.71227275439E+03 -0.30383131861E+04  0.33174314499E+04  0.15294330000E+03 0.  0.
<mgrwt>
<rscale>  0 0.14400269E+04</rscale>
<asrwt>0</asrwt>
<pdfrwt beam="1">  1        2 0.82363819E-01 0.14779794E+04</pdfrwt>
<pdfrwt beam="2">  1       -2 0.70116987E+00 0.14779794E+04</pdfrwt>
<totfact> 0.12151164E-02</totfact>
</mgrwt>
</event>
<event>
 4    5  0.8511149E-008  0.9262376E+03  0.7818608E-02  0.9485160E-01
         -2   -1    0    0    0  501 -0.00000000000E+00  0.00000000000E+00  0.74438194214E+03  0.74438194214E+03  0.25500000000E-02 0.  1.
          2   -1    0    0  501    0  0.00000000000E+00 -0.00000000000E+00 -0.14124064963E+04  0.14124064963E+04  0.25500000000E-02 0. -1.
    8880023    1    1    2    0    0 -0.12374714340E+03 -0.63936884312E+03  0.30573196653E+03  0.97539126235E+03  0.65864270000E+03 0.  1.
    8880022    1    1    2    0    0  0.12374714340E+03  0.63936884312E+03 -0.97375652064E+03  0.11813971760E+04  0.15294330000E+03 0.  0.
<mgrwt>
<rscale>  0 0.85386779E+03</rscale>
<asrwt>0</asrwt>
<pdfrwt beam="1">  1        2 0.21729331E+00 0.92623759E+03</pdfrwt>
<pdfrwt beam="2">  1       -2 0.11452030E+00 0.92623759E+03</pdfrwt>
<totfact> 0.84938269E+00</totfact>
</mgrwt>
</event>
<event>
 4    5  0.8511149E-008  0.8001225E+03  0.7818608E-02  0.9710531E-01
         -2   -1    0    0    0  501 -0.00000000000E+00  0.00000000000E+00  0.70720398505E+03  0.70720398506E+03  0.25500000000E-02 0.  1.
          2   -1    0    0  501    0  0.00000000000E+00 -0.00000000000E+00 -0.24021452174E+04  0.24021452174E+04  0.25500000000E-02 0. -1.
    8880023    1    1    2    0    0 -0.78332196812E+02 -0.44749292830E+03  0.44556980368E+03  0.91582122172E+03  0.65864270000E+03 0.  1.
    8880022    1    1    2    0    0  0.78332196812E+02  0.44749292830E+03 -0.21405110360E+04  0.21935279807E+04  0.15294330000E+03 0.  0.
<mgrwt>
<rscale>  0 0.70393217E+03</rscale>
<asrwt>0</asrwt>
<pdfrwt beam="1">  1        2 0.36956080E+00 0.80012253E+03</pdfrwt>
<pdfrwt beam="2">  1       -2 0.10880061E+00 0.80012253E+03</pdfrwt>
<totfact> 0.27763583E+00</totfact>
</mgrwt>
</event>
<event>
 4    5  0.8511149E-008  0.8769386E+03  0.7818608E-02  0.9564115E-01
         -2   -1    0    0    0  501 -0.00000000000E+00  0.00000000000E+00  0.97482172677E+03  0.97482172677E+03  0.25500000000E-02 0.  1.
          2   -1    0    0  501    0  0.00000000000E+00 -0.00000000000E+00 -0.11951433244E+04  0.11951433244E+04  0.25500000000E-02 0. -1.
    8880023    1    1    2    0    0 -0.15755264148E+03  0.55712501186E+03  0.66539708364E+03  0.11008063403E+04  0.65864270000E+03 0.  1.
    8880022    1    1    2    0    0  0.15755264148E+03 -0.55712501186E+03 -0.88571868127E+03  0.10691587109E+04  0.15294330000E+03 0.  0.
<mgrwt>
<rscale>  0 0.79717487E+03</rscale>
<asrwt>0</asrwt>
<pdfrwt beam="1">  1        2 0.18386820E+00 0.87693861E+03</pdfrwt>
<pdfrwt beam="2">  1       -2 0.14997257E+00 0.87693861E+03</pdfrwt>
<totfact> 0.57435424E+00</totfact>
</mgrwt>
</event>
<event>
 4    5  0.8511149E-008  0.1263757E+04  0.7818608E-02  0.9097508E-01
         -2   -1    0    0    0  501 -0.00000000000E+00  0.00000000000E+00  0.66679200676E+03  0.66679200677E+03  0.25500000000E-02 0.  1.
          2   -1    0    0  501    0  0.00000000000E+00 -0.00000000000E+00 -0.52256629158E+04  0.52256629158E+04  0.25500000000E-02 0. -1.
    8880023    1    1    2    0    0  0.99913199070E+03 -0.40620915772E+03 -0.61734334249E+02  0.12652635887E+04  0.65864270000E+03 0.  0.
    8880022    1    1    2    0    0 -0.99913199070E+03  0.40620915772E+03 -0.44971365748E+04  0.46271913339E+04  0.15294330000E+03 0.  0.
<mgrwt>
<rscale>  0 0.12176949E+04</rscale>
<asrwt>0</asrwt>
<pdfrwt beam="1">  1        2 0.80394811E+00 0.12637566E+04</pdfrwt>
<pdfrwt beam="2">  1       -2 0.10258339E+00 0.12637566E+04</pdfrwt>
<totfact> 0.13796657E-02</totfact>
</mgrwt>
</event>
<event>
 4    5  0.8511149E-008  0.1566197E+04  0.7818608E-02  0.8864253E-01
          2   -1    0    0  501    0  0.00000000000E+00  0.00000000000E+00  0.15765269314E+04  0.15765269314E+04  0.25500000000E-02 0. -1.
         -2   -1    0    0    0  501 -0.00000000000E+00 -0.00000000000E+00 -0.18987240263E+04  0.18987240263E+04  0.25500000000E-02 0.  1.
    8880023    1    1    2    0    0 -0.14200457073E+04 -0.51313628003E+02  0.70265376170E+03  0.17165941321E+04  0.65864270000E+03 0.  0.
    8880022    1    1    2    0    0  0.14200457073E+04  0.51313628003E+02 -0.10248508566E+04  0.17586568257E+04  0.15294330000E+03 0.  0.
<mgrwt>
<rscale>  0 0.15307579E+04</rscale>
<asrwt>0</asrwt>
<pdfrwt beam="1">  1        2 0.24254260E+00 0.15661970E+04</pdfrwt>
<pdfrwt beam="2">  1       -2 0.29211139E+00 0.15661970E+04</pdfrwt>
<totfact> 0.38114983E-01</totfact>
</mgrwt>
</event>
<event>
 4    5  0.8511149E-008  0.6982033E+03  0.7818608E-02  0.1000474E+00
          2   -1    0    0  501    0  0.00000000000E+00  0.00000000000E+00  0.21659440211E+04  0.21659440211E+04  0.25500000000E-02 0. -1.
         -2   -1    0    0    0  501 -0.00000000000E+00 -0.00000000000E+00 -0.68381132645E+03  0.68381132646E+03  0.25500000000E-02 0.  1.
    8880023    1    1    2    0    0 -0.23168191161E+03  0.10347410783E+01 -0.49331504511E+03  0.85489620356E+03  0.65864270000E+03 0.  1.
    8880022    1    1    2    0    0  0.23168191161E+03 -0.10347410783E+01  0.19754477398E+04  0.19948591440E+04  0.15294330000E+03 0.  0.
<mgrwt>
<rscale>  0 0.55442976E+03</rscale>
<asrwt>0</asrwt>
<pdfrwt beam="1">  1        2 0.33322216E+00 0.69820325E+03</pdfrwt>
<pdfrwt beam="2">  1       -2 0.10520174E+00 0.69820325E+03</pdfrwt>
<totfact> 0.41473202E+00</totfact>
</mgrwt>
</event>
<event>
 4    5  0.8511149E-008  0.1019543E+04  0.7818608E-02  0.9356424E-01
          2   -1    0    0  501    0  0.00000000000E+00  0.00000000000E+00  0.28604846597E+04  0.28604846597E+04  0.25500000000E-02 0. -1.
         -2   -1    0    0    0  501 -0.00000000000E+00 -0.00000000000E+00 -0.39284641674E+03  0.39284641675E+03  0.25500000000E-02 0.  1.
    8880023    1    1    2    0    0 -0.31278208026E+02  0.77761149180E+03  0.50762038254E+03  0.11389234467E+04  0.65864270000E+03 0.  1.
    8880022    1    1    2    0    0  0.31278208026E+02 -0.77761149180E+03  0.19600178604E+04  0.21144076297E+04  0.15294330000E+03 0.  0.
<mgrwt>
<rscale>  0 0.95750226E+03</rscale>
<asrwt>0</asrwt>
<pdfrwt beam="1">  1        2 0.44007458E+00 0.10195431E+04</pdfrwt>
<pdfrwt beam="2">  1       -2 0.60437908E-01 0.10195431E+04</pdfrwt>
<totfact> 0.55082089E+00</totfact>
</mgrwt>
</event>
<event>
 4    5  0.8511149E-008  0.9796632E+03  0.7818608E-02  0.9408662E-01
         -2   -1    0    0    0  501 -0.00000000000E+00  0.00000000000E+00  0.63466285807E+03  0.63466285807E+03  0.25500000000E-02 0.  1.
          2   -1    0    0  501    0  0.00000000000E+00 -0.00000000000E+00 -0.12739909974E+04  0.12739909974E+04  0.25500000000E-02 0. -1.
    8880023    1    1    2    0    0  0.59571771721E+03  0.41358205793E+03 -0.63503373916E+03  0.11674792389E+04  0.65864270000E+03 0.  0.
    8880022    1    1    2    0    0 -0.59571771721E+03 -0.41358205793E+03 -0.42944001292E+01  0.74117461649E+03  0.15294330000E+03 0.  0.
<mgrwt>
<rscale>  0 0.91366270E+03</rscale>
<asrwt>0</asrwt>
<pdfrwt beam="1">  1        2 0.19599861E+00 0.97966317E+03</pdfrwt>
<pdfrwt beam="2">  1       -2 0.97640440E-01 0.97966317E+03</pdfrwt>
<totfact> 0.14908535E+01</totfact>
</mgrwt>
</event>
<event>
 4    5  0.8511149E-008  0.2015169E+04  0.7818608E-02  0.8612012E-01
          2   -1    0    0  501    0  0.00000000000E+00  0.00000000000E+00  0.39173129160E+04  0.39173129160E+04  0.25500000000E-02 0. -1.
         -2   -1    0    0    0  501 -0.00000000000E+00 -0.00000000000E+00 -0.10269789137E+04  0.10269789137E+04  0.25500000000E-02 0.  1.
    8880023    1    1    2    0    0  0.12130383819E+03 -0.19006269330E+04  0.19900873949E+04  0.28321997468E+04  0.65864270000E+03 0.  0.
    8880022    1    1    2    0    0 -0.12130383819E+03  0.19006269330E+04  0.90024660736E+03  0.21120920829E+04  0.15294330000E+03 0.  0.
<mgrwt>
<rscale>  0 0.19885089E+04</rscale>
<asrwt>0</asrwt>
<pdfrwt beam="1">  1        2 0.60266353E+00 0.20151694E+04</pdfrwt>
<pdfrwt beam="2">  1       -2 0.15799676E+00 0.20151694E+04</pdfrwt>
<totfact> 0.93638079E-02</totfact>
</mgrwt>
</event>
<event>
 4    5  0.8511149E-008  0.7796192E+03  0.7818608E-02  0.9756732E-01
         -2   -1    0    0    0  501 -0.00000000000E+00  0.00000000000E+00  0.75763462052E+03  0.75763462053E+03  0.25500000000E-02 0.  1.
          2   -1    0    0  501    0  0.00000000000E+00 -0.00000000000E+00 -0.21682996960E+04  0.21682996960E+04  0.25500000000E-02 0. -1.
    8880023    1    1    2    0    0  0.12450288116E+03 -0.39811420603E+03  0.52501726669E+03  0.93991979713E+03  0.65864270000E+03 0.  0.
    8880022    1    1    2    0    0 -0.12450288116E+03  0.39811420603E+03 -0.19356823421E+04  0.19860145193E+04  0.15294330000E+03 0.  0.
<mgrwt>
<rscale>  0 0.67737141E+03</rscale>
<asrwt>0</asrwt>
<pdfrwt beam="1">  1        2 0.33358457E+00 0.77961920E+03</pdfrwt>
<pdfrwt beam="2">  1       -2 0.11655917E+00 0.77961920E+03</pdfrwt>
<totfact> 0.31784530E+00</totfact>
</mgrwt>
</event>
<event>
 4    5  0.8511149E-008  0.1544603E+04  0.7818608E-02  0.8878766E-01
          2   -1    0    0  501    0  0.00000000000E+00  0.00000000000E+00  0.19860012595E+04  0.19860012595E+04  0.25500000000E-02 0. -1.
         -2   -1    0    0    0  501 -0.00000000000E+00 -0.00000000000E+00 -0.12597609992E+04  0.12597609992E+04  0.25500000000E-02 0.  1.
    8880023    1    1    2    0    0 -0.93409389780E+03 -0.10389690000E+04 -0.20736048465E+03  0.15584596786E+04  0.65864270000E+03 0.  1.
    8880022    1    1    2    0    0  0.93409389780E+03  0.10389690000E+04  0.93360074498E+03  0.16873025801E+04  0.15294330000E+03 0.  0.
<mgrwt>
<rscale>  0 0.15085821E+04</rscale>
<asrwt>0</asrwt>
<pdfrwt beam="1">  1        2 0.30553865E+00 0.15446029E+04</pdfrwt>
<pdfrwt beam="2">  1       -2 0.19380938E+00 0.15446029E+04</pdfrwt>
<totfact> 0.93044928E-01</totfact>
</mgrwt>
</event>
<event>
 4    5  0.8511149E-008  0.1748200E+04  0.7818608E-02  0.8751744E-01
         -2   -1    0    0    0  501 -0.00000000000E+00  0.00000000000E+00  0.81239543606E+03  0.81239543607E+03  0.25500000000E-02 0.  1.
          2   -1    0    0  501    0  0.00000000000E+00 -0.00000000000E+00 -0.42246005573E+04  0.42246005573E+04  0.25500000000E-02 0. -1.
    8880023    1    1    2    0    0  0.15042811979E+04  0.59960999607E+03 -0.71810817816E+03  0.18899427588E+04  0.65864270000E+03 0.  0.
    8880022    1    1    2    0    0 -0.15042811979E+04 -0.59960999607E+03 -0.26940969431E+04  0.31470532346E+04  0.15294330000E+03 0.  0.
<mgrwt>
<rscale>  0 0.17169701E+04</rscale>
<asrwt>0</asrwt>
<pdfrwt beam="1">  1        2 0.64993853E+00 0.17482003E+04</pdfrwt>
<pdfrwt beam="2">  1       -2 0.12498392E+00 0.17482003E+04</pdfrwt>
<totfact> 0.99638240E-02</totfact>
</mgrwt>
</event>
<event>
 4    5  0.8511149E-008  0.9197922E+03  0.7818608E-02  0.9494978E-01
         -2   -1    0    0    0  501 -0.00000000000E+00  0.00000000000E+00  0.76876882403E+03  0.76876882404E+03  0.25500000000E-02 0.  1.
          2   -1    0    0  501    0  0.00000000000E+00 -0.00000000000E+00 -0.14328051964E+04  0.14328051964E+04  0.25500000000E-02 0. -1.
    8880023    1    1    2    0    0  0.48296292878E+03  0.42302987766E+03  0.35629456686E+03  0.98638911825E+03  0.65864270000E+03 0.  1.
    8880022    1    1    2    0    0 -0.48296292878E+03 -0.42302987766E+03 -0.10203309393E+04  0.12151849022E+04  0.15294330000E+03 0.  0.
<mgrwt>
<rscale>  0 0.84655107E+03</rscale>
<asrwt>0</asrwt>
<pdfrwt beam="1">  1        2 0.22043157E+00 0.91979219E+03</pdfrwt>
<pdfrwt beam="2">  1       -2 0.11827213E+00 0.91979219E+03</pdfrwt>
<totfact> 0.76466317E+00</totfact>
</mgrwt>
</event>
<event>
 4    5  0.8511149E-008  0.7954678E+03  0.7818608E-02  0.9720683E-01
         -2   -1    0    0    0  501 -0.00000000000E+00  0.00000000000E+00  0.42642278527E+03  0.42642278528E+03  0.25500000000E-02 0.  1.
          2   -1    0    0  501    0  0.00000000000E+00 -0.00000000000E+00 -0.40609712087E+04  0.40609712087E+04  0.25500000000E-02 0. -1.
    8880023    1    1    2    0    0  0.41115267057E+03  0.17295151146E+03  0.26689617190E+02  0.79591537601E+03  0.65864270000E+03 0.  0.
    8880022    1    1    2    0    0 -0.41115267057E+03 -0.17295151146E+03 -0.36612380407E+04  0.36914786180E+04  0.15294330000E+03 0.  0.
<mgrwt>
<rscale>  0 0.69798594E+03</rscale>
<asrwt>0</asrwt>
<pdfrwt beam="1">  1        2 0.62476478E+00 0.79546776E+03</pdfrwt>
<pdfrwt beam="2">  1       -2 0.65603508E-01 0.79546776E+03</pdfrwt>
<totfact> 0.72050439E-01</totfact>
</mgrwt>
</event>
<event>
 4    5  0.8511149E-008  0.1048471E+04  0.7818608E-02  0.9320722E-01
         -2   -1    0    0    0  501 -0.00000000000E+00  0.00000000000E+00  0.11674232379E+04  0.11674232380E+04  0.25500000000E-02 0.  1.
          2   -1    0    0  501    0  0.00000000000E+00 -0.00000000000E+00 -0.92074628466E+03  0.92074628466E+03  0.25500000000E-02 0. -1.
    8880023    1    1    2    0    0  0.22835996861E+02  0.81545045187E+03  0.57478265632E+03  0.11956865101E+04  0.65864270000E+03 0.  0.
    8880022    1    1    2    0    0 -0.22835996861E+02 -0.81545045187E+03 -0.32810570303E+03  0.89248301249E+03  0.15294330000E+03 0.  0.
<mgrwt>
<rscale>  0 0.98897345E+03</rscale>
<asrwt>0</asrwt>
<pdfrwt beam="1">  1        2 0.14165327E+00 0.10484709E+04</pdfrwt>
<pdfrwt beam="2">  1       -2 0.17960357E+00 0.10484709E+04</pdfrwt>
<totfact> 0.51129020E+00</totfact>
</mgrwt>
</event>
<event>
 4    5  0.8511149E-008  0.6795012E+03  0.7818608E-02  0.1009607E+00
          2   -1    0    0  501    0  0.00000000000E+00  0.00000000000E+00  0.90281307712E+03  0.90281307712E+03  0.25500000000E-02 0. -1.
         -2   -1    0    0    0  501 -0.00000000000E+00 -0.00000000000E+00 -0.60539992432E+03  0.60539992433E+03  0.25500000000E-02 0.  1.
    8880023    1    1    2    0    0  0.15038619455E+03 -0.72771629774E+02 -0.39067479434E+03  0.78380400535E+03  0.65864270000E+03 0.  0.
    8880022    1    1    2    0    0 -0.15038619455E+03  0.72771629774E+02  0.68808794714E+03  0.72440899610E+03  0.15294330000E+03 0.  0.
<mgrwt>
<rscale>  0 0.51631046E+03</rscale>
<asrwt>0</asrwt>
<pdfrwt beam="1">  1        2 0.13889432E+00 0.67950123E+03</pdfrwt>
<pdfrwt beam="2">  1       -2 0.93138449E-01 0.67950123E+03</pdfrwt>
<totfact> 0.29127278E+01</totfact>
</mgrwt>
</event>
<event>
 4    5  0.8511149E-008  0.7298663E+03  0.7818608E-02  0.9890515E-01
         -2   -1    0    0    0  501 -0.00000000000E+00  0.00000000000E+00  0.19042303506E+03  0.19042303507E+03  0.25500000000E-02 0.  1.
          2   -1    0    0  501    0  0.00000000000E+00 -0.00000000000E+00 -0.19712613321E+04  0.19712613321E+04  0.25500000000E-02 0. -1.
    8880023    1    1    2    0    0 -0.28389523384E+03 -0.13527032047E+03 -0.16199001776E+04  0.17767333382E+04  0.65864270000E+03 0. -1.
    8880022    1    1    2    0    0  0.28389523384E+03  0.13527032047E+03 -0.16093811941E+03  0.38495102895E+03  0.15294330000E+03 0.  0.
<mgrwt>
<rscale>  0 0.60723201E+03</rscale>
<asrwt>0</asrwt>
<pdfrwt beam="1">  1        2 0.30327096E+00 0.72986627E+03</pdfrwt>
<pdfrwt beam="2">  1       -2 0.29295853E-01 0.72986627E+03</pdfrwt>
<totfact> 0.76452608E+01</totfact>
</mgrwt>
</event>
<event>
 4    5  0.8511149E-008  0.7589354E+03  0.7818608E-02  0.9807871E-01
          2   -1    0    0  501    0  0.00000000000E+00  0.00000000000E+00  0.16792702191E+04  0.16792702191E+04  0.25500000000E-02 0. -1.
         -2   -1    0    0    0  501 -0.00000000000E+00 -0.00000000000E+00 -0.54076054008E+03  0.54076054008E+03  0.25500000000E-02 0.  1.
    8880023    1    1    2    0    0 -0.27280779124E+03  0.26028564752E+03 -0.22943104969E+03  0.79285655833E+03  0.65864270000E+03 0.  0.
    8880022    1    1    2    0    0  0.27280779124E+03 -0.26028564752E+03  0.13679407287E+04  0.14271742008E+04  0.15294330000E+03 0.  0.
<mgrwt>
<rscale>  0 0.64941820E+03</rscale>
<asrwt>0</asrwt>
<pdfrwt beam="1">  1        2 0.25834926E+00 0.75893538E+03</pdfrwt>
<pdfrwt beam="2">  1       -2 0.83193929E-01 0.75893538E+03</pdfrwt>
<totfact> 0.13081997E+01</totfact>
</mgrwt>
</event>
<event>
 4    5  0.8511149E-008  0.1776082E+04  0.7818608E-02  0.8735884E-01
         -2   -1    0    0    0  501 -0.00000000000E+00  0.00000000000E+00  0.30912816457E+04  0.30912816457E+04  0.25500000000E-02 0.  1.
          2   -1    0    0  501    0  0.00000000000E+00 -0.00000000000E+00 -0.10492981187E+04  0.10492981187E+04  0.25500000000E-02 0. -1.
    8880023    1    1    2    0    0 -0.27968796299E+03 -0.16255554520E+04  0.16804448450E+04  0.24450687040E+04  0.65864270000E+03 0.  1.
    8880022    1    1    2    0    0  0.27968796299E+03  0.16255554520E+04  0.36153868208E+03  0.16955110604E+04  0.15294330000E+03 0.  0.
<mgrwt>
<rscale>  0 0.17454047E+04</rscale>
<asrwt>0</asrwt>
<pdfrwt beam="1">  1        2 0.16143048E+00 0.17760817E+04</pdfrwt>
<pdfrwt beam="2">  1       -2 0.47558179E+00 0.17760817E+04</pdfrwt>
<totfact> 0.50652501E-02</totfact>
</mgrwt>
</event>
<event>
 4    5  0.8511149E-008  0.6804822E+03  0.7818608E-02  0.1009052E+00
          2   -1    0    0  501    0  0.00000000000E+00  0.00000000000E+00  0.23314147817E+04  0.23314147817E+04  0.25500000000E-02 0. -1.
         -2   -1    0    0    0  501 -0.00000000000E+00 -0.00000000000E+00 -0.14338980163E+03  0.14338980165E+03  0.25500000000E-02 0.  1.
    8880023    1    1    2    0    0 -0.13078674413E+03 -0.11018471531E+03  0.72664413868E+03  0.99552385932E+03  0.65864270000E+03 0.  1.
    8880022    1    1    2    0    0  0.13078674413E+03  0.11018471531E+03  0.14613808414E+04  0.14792807240E+04  0.15294330000E+03 0.  0.
<mgrwt>
<rscale>  0 0.51853072E+03</rscale>
<asrwt>0</asrwt>
<pdfrwt beam="1">  1        2 0.35867920E+00 0.68048222E+03</pdfrwt>
<pdfrwt beam="2">  1       -2 0.22059969E-01 0.68048222E+03</pdfrwt>
<totfact> 0.81471096E+01</totfact>
</mgrwt>
</event>
<event>
 4    5  0.8511149E-008  0.6890166E+03  0.7818608E-02  0.1004623E+00
          2   -1    0    0  501    0  0.00000000000E+00  0.00000000000E+00  0.21101976073E+04  0.21101976073E+04  0.25500000000E-02 0. -1.
         -2   -1    0    0    0  501 -0.00000000000E+00 -0.00000000000E+00 -0.17439934140E+04  0.17439934140E+04  0.25500000000E-02 0.  1.
    8880023    1    1    2    0    0 -0.17769636473E+03  0.96735243729E+02 -0.16677546157E+04  0.18044803600E+04  0.65864270000E+03 0.  1.
    8880022    1    1    2    0    0  0.17769636473E+03 -0.96735243729E+02  0.20339588089E+04  0.20497106612E+04  0.15294330000E+03 0.  0.
<mgrwt>
<rscale>  0 0.53668574E+03</rscale>
<asrwt>0</asrwt>
<pdfrwt beam="1">  1        2 0.32464578E+00 0.68901663E+03</pdfrwt>
<pdfrwt beam="2">  1       -2 0.26830668E+00 0.68901663E+03</pdfrwt>
<totfact> 0.31028761E-01</totfact>
</mgrwt>
</event>
<event>
 4    5  0.8511149E-008  0.8240439E+03  0.7818608E-02  0.9661034E-01
          2   -1    0    0  501    0  0.00000000000E+00  0.00000000000E+00  0.12388330922E+04  0.12388330922E+04  0.25500000000E-02 0. -1.
         -2   -1    0    0    0  501 -0.00000000000E+00 -0.00000000000E+00 -0.44882514224E+03  0.44882514225E+03  0.25500000000E-02 0.  1.
    8880023    1    1    2    0    0  0.31680853231E+03  0.38061865158E+03  0.10805032771E+03  0.83109763786E+03  0.65864270000E+03 0.  0.
    8880022    1    1    2    0    0 -0.31680853231E+03 -0.38061865158E+03  0.68195762224E+03  0.85656059659E+03  0.15294330000E+03 0.  0.
<mgrwt>
<rscale>  0 0.73384960E+03</rscale>
<asrwt>0</asrwt>
<pdfrwt beam="1">  1        2 0.19058970E+00 0.82404394E+03</pdfrwt>
<pdfrwt beam="2">  1       -2 0.69050025E-01 0.82404394E+03</pdfrwt>
<totfact> 0.34795140E+01</totfact>
</mgrwt>
</event>
<event>
 4    5  0.8511149E-008  0.1149931E+04  0.7818608E-02  0.9207400E-01
          2   -1    0    0  501    0  0.00000000000E+00  0.00000000000E+00  0.13882006658E+04  0.13882006658E+04  0.25500000000E-02 0. -1.
         -2   -1    0    0    0  501 -0.00000000000E+00 -0.00000000000E+00 -0.18065996960E+04  0.18065996960E+04  0.25500000000E-02 0.  1.
    8880023    1    1    2    0    0 -0.92728764531E+03  0.16931906717E+03 -0.14091153830E+04  0.18187764273E+04  0.65864270000E+03 0.  0.
    8880022    1    1    2    0    0  0.92728764531E+03 -0.16931906717E+03  0.99071635279E+03  0.13760239345E+04  0.15294330000E+03 0.  0.
<mgrwt>
<rscale>  0 0.10977378E+04</rscale>
<asrwt>0</asrwt>
<pdfrwt beam="1">  1        2 0.21356933E+00 0.11499311E+04</pdfrwt>
<pdfrwt beam="2">  1       -2 0.27793841E+00 0.11499311E+04</pdfrwt>
<totfact> 0.62456456E-01</totfact>
</mgrwt>
</event>
<event>
 4    5  0.8511149E-008  0.1145638E+04  0.7818608E-02  0.9211867E-01
          2   -1    0    0  501    0  0.00000000000E+00  0.00000000000E+00  0.13123026035E+04  0.13123026035E+04  0.25500000000E-02 0. -1.
         -2   -1    0    0    0  501 -0.00000000000E+00 -0.00000000000E+00 -0.24113147484E+04  0.24113147484E+04  0.25500000000E-02 0.  1.
    8880023    1    1    2    0    0 -0.38781087416E+03 -0.85339312574E+03 -0.20696676597E+04  0.23655890449E+04  0.65864270000E+03 0.  0.
    8880022    1    1    2    0    0  0.38781087416E+03  0.85339312574E+03  0.97065551482E+03  0.13580283070E+04  0.15294330000E+03 0.  0.
<mgrwt>
<rscale>  0 0.10931773E+04</rscale>
<asrwt>0</asrwt>
<pdfrwt beam="1">  1        2 0.20189271E+00 0.11456384E+04</pdfrwt>
<pdfrwt beam="2">  1       -2 0.37097150E+00 0.11456384E+04</pdfrwt>
<totfact> 0.18430605E-01</totfact>
</mgrwt>
</event>
<event>
 4    5  0.8511149E-008  0.1449373E+04  0.7818608E-02  0.8946238E-01
         -2   -1    0    0    0  501 -0.00000000000E+00  0.00000000000E+00  0.12181329432E+04  0.12181329432E+04  0.25500000000E-02 0.  1.
          2   -1    0    0  501    0  0.00000000000E+00 -0.00000000000E+00 -0.21517537207E+04  0.21517537207E+04  0.25500000000E-02 0. -1.
    8880023    1    1    2    0    0  0.12392738879E+04  0.36203835055E+03 -0.13740879258E+04  0.19971978796E+04  0.65864270000E+03 0. -1.
    8880022    1    1    2    0    0 -0.12392738879E+04 -0.36203835055E+03  0.44046714826E+03  0.13726887842E+04  0.15294330000E+03 0.  0.
<mgrwt>
<rscale>  0 0.14105205E+04</rscale>
<asrwt>0</asrwt>
<pdfrwt beam="1">  1        2 0.33103903E+00 0.14493729E+04</pdfrwt>
<pdfrwt beam="2">  1       -2 0.18740507E+00 0.14493729E+04</pdfrwt>
<totfact> 0.83824280E-01</totfact>
</mgrwt>
</event>
<event>
 4    5  0.8511149E-008  0.6686035E+03  0.7818608E-02  0.1016684E+00
          2   -1    0    0  501    0  0.00000000000E+00  0.00000000000E+00  0.10516296776E+04  0.10516296776E+04  0.25500000000E-02 0. -1.
         -2   -1    0    0    0  501 -0.00000000000E+00 -0.00000000000E+00 -0.17629652414E+04  0.17629652414E+04  0.25500000000E-02 0.  1.
    8880023    1    1    2    0    0 -0.96788203810E+02  0.62068716446E+02 -0.16899733409E+04  0.18174269122E+04  0.65864270000E+03 0.  1.
    8880022    1    1    2    0    0  0.96788203810E+02 -0.62068716446E+02  0.97863777713E+03  0.99716800681E+03  0.15294330000E+03 0.  0.
<mgrwt>
<rscale>  0 0.48902339E+03</rscale>
<asrwt>0</asrwt>
<pdfrwt beam="1">  1        2 0.16178918E+00 0.66860354E+03</pdfrwt>
<pdfrwt beam="2">  1       -2 0.27122542E+00 0.66860354E+03</pdfrwt>
<totfact> 0.11753966E+00</totfact>
</mgrwt>
</event>
<event>
 4    5  0.8511149E-008  0.6892379E+03  0.7818608E-02  0.1004517E+00
          2   -1    0    0  501    0  0.00000000000E+00  0.00000000000E+00  0.44147316892E+04  0.44147316892E+04  0.25500000000E-02 0. -1.
         -2   -1    0    0    0  501 -0.00000000000E+00 -0.00000000000E+00 -0.10983157527E+04  0.10983157527E+04  0.25500000000E-02 0.  1.
    8880023    1    1    2    0    0 -0.13646462673E+03 -0.15038660575E+03 -0.98606170702E+03  0.12030655102E+04  0.65864270000E+03 0.  1.
    8880022    1    1    2    0    0  0.13646462673E+03  0.15038660575E+03  0.43024776436E+04  0.43099819317E+04  0.15294330000E+03 0.  0.
<mgrwt>
<rscale>  0 0.53713254E+03</rscale>
<asrwt>0</asrwt>
<pdfrwt beam="1">  1        2 0.67918948E+00 0.68923794E+03</pdfrwt>
<pdfrwt beam="2">  1       -2 0.16897166E+00 0.68923794E+03</pdfrwt>
<totfact> 0.37631884E-02</totfact>
</mgrwt>
</event>
<event>
 4    5  0.8511149E-008  0.8760810E+03  0.7818608E-02  0.9565575E-01
          2   -1    0    0  501    0  0.00000000000E+00  0.00000000000E+00  0.22783864529E+04  0.22783864529E+04  0.25500000000E-02 0. -1.
         -2   -1    0    0    0  501 -0.00000000000E+00 -0.00000000000E+00 -0.31635712440E+03  0.31635712441E+03  0.25500000000E-02 0.  1.
    8880023    1    1    2    0    0 -0.40622210058E+03  0.41072058062E+03  0.17564139339E+04  0.19627806561E+04  0.65864270000E+03 0.  0.
    8880022    1    1    2    0    0  0.40622210058E+03 -0.41072058062E+03  0.20561539463E+03  0.63196292128E+03  0.15294330000E+03 0.  0.
<mgrwt>
<rscale>  0 0.79617193E+03</rscale>
<asrwt>0</asrwt>
<pdfrwt beam="1">  1        2 0.35052100E+00 0.87608104E+03</pdfrwt>
<pdfrwt beam="2">  1       -2 0.48670325E-01 0.87608104E+03</pdfrwt>
<totfact> 0.19069835E+01</totfact>
</mgrwt>
</event>
<event>
 4    5  0.8511149E-008  0.1588792E+04  0.7818608E-02  0.8849355E-01
          2   -1    0    0  501    0  0.00000000000E+00  0.00000000000E+00  0.15578220582E+04  0.15578220582E+04  0.25500000000E-02 0. -1.
         -2   -1    0    0    0  501 -0.00000000000E+00 -0.00000000000E+00 -0.15904343714E+04  0.15904343714E+04  0.25500000000E-02 0.  1.
    8880023    1    1    2    0    0 -0.13946722905E+04  0.38123489819E+03  0.38653879260E+03  0.16351370860E+04  0.65864270000E+03 0.  0.
    8880022    1    1    2    0    0  0.13946722905E+04 -0.38123489819E+03 -0.41915110583E+03  0.15131193436E+04  0.15294330000E+03 0.  0.
<mgrwt>
<rscale>  0 0.15539407E+04</rscale>
<asrwt>0</asrwt>
<pdfrwt beam="1">  1        2 0.23966493E+00 0.15887923E+04</pdfrwt>
<pdfrwt beam="2">  1       -2 0.24468221E+00 0.15887923E+04</pdfrwt>
<totfact> 0.76074624E-01</totfact>
</mgrwt>
</event>
<event>
 4    5  0.8511149E-008  0.1239789E+04  0.7818608E-02  0.9119382E-01
          2   -1    0    0  501    0  0.00000000000E+00  0.00000000000E+00  0.29920916639E+04  0.29920916639E+04  0.25500000000E-02 0. -1.
         -2   -1    0    0    0  501 -0.00000000000E+00 -0.00000000000E+00 -0.71028497244E+03  0.71028497244E+03  0.25500000000E-02 0.  1.
    8880023    1    1    2    0    0  0.56436891008E+03  0.88586416734E+03  0.61402539034E+02  0.12413090138E+04  0.65864270000E+03 0.  0.
    8880022    1    1    2    0    0 -0.56436891008E+03 -0.88586416734E+03  0.22204041524E+04  0.24610676226E+04  0.15294330000E+03 0.  0.
<mgrwt>
<rscale>  0 0.11925731E+04</rscale>
<asrwt>0</asrwt>
<pdfrwt beam="1">  1        2 0.46032181E+00 0.12397894E+04</pdfrwt>
<pdfrwt beam="2">  1       -2 0.10927461E+00 0.12397894E+04</pdfrwt>
<totfact> 0.11569424E+00</totfact>
</mgrwt>
</event>
<event>
 4    5  0.8511149E-008  0.1199156E+04  0.7818608E-02  0.9157943E-01
         -2   -1    0    0    0  501 -0.00000000000E+00  0.00000000000E+00  0.12245744740E+04  0.12245744740E+04  0.25500000000E-02 0.  1.
          2   -1    0    0  501    0  0.00000000000E+00 -0.00000000000E+00 -0.18428790121E+04  0.18428790121E+04  0.25500000000E-02 0. -1.
    8880023    1    1    2    0    0 -0.16313779779E+03  0.98871171875E+03  0.71226557774E+03  0.13947391381E+04  0.65864270000E+03 0.  0.
    8880022    1    1    2    0    0  0.16313779779E+03 -0.98871171875E+03 -0.13305701159E+04  0.16727143480E+04  0.15294330000E+03 0.  0.
<mgrwt>
<rscale>  0 0.11498269E+04</rscale>
<asrwt>0</asrwt>
<pdfrwt beam="1">  1        2 0.28351985E+00 0.11991560E+04</pdfrwt>
<pdfrwt beam="2">  1       -2 0.18839607E+00 0.11991560E+04</pdfrwt>
<totfact> 0.12601450E+00</totfact>
</mgrwt>
</event>
<event>
 4    5  0.8511149E-008  0.7807869E+03  0.7818608E-02  0.9753992E-01
         -2   -1    0    0    0  501 -0.00000000000E+00  0.00000000000E+00  0.69944571127E+03  0.69944571128E+03  0.25500000000E-02 0.  1.
          2   -1    0    0  501    0  0.00000000000E+00 -0.00000000000E+00 -0.11656906659E+04  0.11656906659E+04  0.25500000000E-02 0. -1.
    8880023    1    1    2    0    0 -0.41904446592E+03  0.14823098603E+02  0.40991020634E+03  0.88184724992E+03  0.65864270000E+03 0.  0.
    8880022    1    1    2    0    0  0.41904446592E+03 -0.14823098603E+02 -0.87615516098E+03  0.98328912726E+03  0.15294330000E+03 0.  0.
<mgrwt>
<rscale>  0 0.67891153E+03</rscale>
<asrwt>0</asrwt>
<pdfrwt beam="1">  1        2 0.17933703E+00 0.78078691E+03</pdfrwt>
<pdfrwt beam="2">  1       -2 0.10760703E+00 0.78078691E+03</pdfrwt>
<totfact> 0.13974812E+01</totfact>
</mgrwt>
</event>
<event>
 4    5  0.8511149E-008  0.1504721E+04  0.7818608E-02  0.8906309E-01
         -2   -1    0    0    0  501 -0.00000000000E+00  0.00000000000E+00  0.25731602021E+04  0.25731602021E+04  0.25500000000E-02 0.  1.
          2   -1    0    0  501    0  0.00000000000E+00 -0.00000000000E+00 -0.18190926591E+04  0.18190926591E+04  0.25500000000E-02 0. -1.
    8880023    1    1    2    0    0  0.12394382042E+04  0.54237353214E+03 -0.12590194714E+04  0.19619674682E+04  0.65864270000E+03 0.  0.
    8880022    1    1    2    0    0 -0.12394382042E+04 -0.54237353214E+03  0.20130870145E+04  0.24302853930E+04  0.15294330000E+03 0.  0.
<mgrwt>
<rscale>  0 0.14675705E+04</rscale>
<asrwt>0</asrwt>
<pdfrwt beam="1">  1        2 0.27986041E+00 0.15047213E+04</pdfrwt>
<pdfrwt beam="2">  1       -2 0.39587080E+00 0.15047213E+04</pdfrwt>
<totfact> 0.62510020E-02</totfact>
</mgrwt>
</event>
<event>
 4    5  0.8625401E-008  0.8254169E+03  0.7818608E-02  0.9658316E-01
         -2   -1    0    0    0  501 -0.00000000000E+00  0.00000000000E+00  0.16039264543E+04  0.16039264543E+04  0.25500000000E-02 0.  1.
          2   -1    0    0  501    0  0.00000000000E+00 -0.00000000000E+00 -0.17403774366E+04  0.17403774366E+04  0.25500000000E-02 0. -1.
    8880023    1    1    2    0    0 -0.24788759909E+03 -0.43134047125E+03  0.14533967156E+04  0.16714290542E+04  0.65864270000E+03 0.  0.
    8880022    1    1    2    0    0  0.24788759909E+03  0.43134047125E+03 -0.15898476979E+04  0.16728748368E+04  0.15294330000E+03 0.  0.
<mgrwt>
<rscale>  0 0.73553789E+03</rscale>
<asrwt>0</asrwt>
<pdfrwt beam="1">  1        2 0.26775038E+00 0.82541691E+03</pdfrwt>
<pdfrwt beam="2">  1       -2 0.24675791E+00 0.82541691E+03</pdfrwt>
<totfact> 0.64591309E-01</totfact>
</mgrwt>
</event>
<event>
 4    5  0.8511149E-008  0.1041561E+04  0.7818608E-02  0.9329096E-01
         -2   -1    0    0    0  501 -0.00000000000E+00  0.00000000000E+00  0.74884236526E+03  0.74884236526E+03  0.25500000000E-02 0.  1.
          2   -1    0    0  501    0  0.00000000000E+00 -0.00000000000E+00 -0.15440465798E+04  0.15440465798E+04  0.25500000000E-02 0. -1.
    8880023    1    1    2    0    0 -0.18572079935E+03 -0.78520486028E+03  0.13700677082E+03  0.10505331739E+04  0.65864270000E+03 0.  0.
    8880022    1    1    2    0    0  0.18572079935E+03  0.78520486028E+03 -0.93221098536E+03  0.12423557712E+04  0.15294330000E+03 0.  0.
<mgrwt>
<rscale>  0 0.98147819E+03</rscale>
<asrwt>0</asrwt>
<pdfrwt beam="1">  1        2 0.23754563E+00 0.10415609E+04</pdfrwt>
<pdfrwt beam="2">  1       -2 0.11520652E+00 0.10415609E+04</pdfrwt>
<totfact> 0.69697469E+00</totfact>
</mgrwt>
</event>
<event>
 4    5  0.8511149E-008  0.1011148E+04  0.7818608E-02  0.9367116E-01
          2   -1    0    0  501    0  0.00000000000E+00  0.00000000000E+00  0.18798943087E+04  0.18798943087E+04  0.25500000000E-02 0. -1.
         -2   -1    0    0    0  501 -0.00000000000E+00 -0.00000000000E+00 -0.55526419344E+03  0.55526419345E+03  0.25500000000E-02 0.  1.
    8880023    1    1    2    0    0  0.17094686920E+03  0.74792136651E+03  0.14759907531E+03  0.10218634429E+04  0.65864270000E+03 0.  0.
    8880022    1    1    2    0    0 -0.17094686920E+03 -0.74792136651E+03  0.11770310400E+04  0.14132950593E+04  0.15294330000E+03 0.  0.
<mgrwt>
<rscale>  0 0.94832000E+03</rscale>
<asrwt>0</asrwt>
<pdfrwt beam="1">  1        2 0.28921451E+00 0.10111476E+04</pdfrwt>
<pdfrwt beam="2">  1       -2 0.85425260E-01 0.10111476E+04</pdfrwt>
<totfact> 0.92718488E+00</totfact>
</mgrwt>
</event>
<event>
 4    5  0.8511149E-008  0.9572993E+03  0.7818608E-02  0.9439689E-01
         -2   -1    0    0    0  501 -0.00000000000E+00  0.00000000000E+00  0.97145509360E+03  0.97145509361E+03  0.25500000000E-02 0.  1.
          2   -1    0    0  501    0  0.00000000000E+00 -0.00000000000E+00 -0.28113677159E+04  0.28113677159E+04  0.25500000000E-02 0. -1.
    8880023    1    1    2    0    0 -0.61551240102E+03  0.32211213968E+03  0.67363528744E+03  0.11705581801E+04  0.65864270000E+03 0.  0.
    8880022    1    1    2    0    0  0.61551240102E+03 -0.32211213968E+03 -0.25135479098E+04  0.26122646294E+04  0.15294330000E+03 0.  0.
<mgrwt>
<rscale>  0 0.88880192E+03</rscale>
<asrwt>0</asrwt>
<pdfrwt beam="1">  1        2 0.43251811E+00 0.95729930E+03</pdfrwt>
<pdfrwt beam="2">  1       -2 0.14945463E+00 0.95729930E+03</pdfrwt>
<totfact> 0.70216857E-01</totfact>
</mgrwt>
</event>
<event>
 4    5  0.8511149E-008  0.1375114E+04  0.7818608E-02  0.9003265E-01
         -2   -1    0    0    0  501 -0.00000000000E+00  0.00000000000E+00  0.62335074202E+03  0.62335074203E+03  0.25500000000E-02 0.  1.
          2   -1    0    0  501    0  0.00000000000E+00 -0.00000000000E+00 -0.29681051027E+04  0.29681051027E+04  0.25500000000E-02 0. -1.
    8880023    1    1    2    0    0  0.10789647763E+04  0.54126044187E+03 -0.17819306499E+04  0.22508253823E+04  0.65864270000E+03 0.  0.
    8880022    1    1    2    0    0 -0.10789647763E+04 -0.54126044187E+03 -0.56282371085E+03  0.13406304625E+04  0.15294330000E+03 0.  0.
<mgrwt>
<rscale>  0 0.13336926E+04</rscale>
<asrwt>0</asrwt>
<pdfrwt beam="1">  1        2 0.45663155E+00 0.13751138E+04</pdfrwt>
<pdfrwt beam="2">  1       -2 0.95900116E-01 0.13751138E+04</pdfrwt>
<totfact> 0.16121674E+00</totfact>
</mgrwt>
</event>
<event>
 4    5  0.8511149E-008  0.1132597E+04  0.7818608E-02  0.9225603E-01
         -2   -1    0    0    0  501 -0.00000000000E+00  0.00000000000E+00  0.85687821921E+03  0.85687821921E+03  0.25500000000E-02 0.  1.
          2   -1    0    0  501    0  0.00000000000E+00 -0.00000000000E+00 -0.29185748029E+04  0.29185748029E+04  0.25500000000E-02 0. -1.
    8880023    1    1    2    0    0 -0.73459940234E+03  0.55617411582E+03  0.35306705607E+03  0.11863525957E+04  0.65864270000E+03 0.  0.
    8880022    1    1    2    0    0  0.73459940234E+03 -0.55617411582E+03 -0.24147636397E+04  0.25891004263E+04  0.15294330000E+03 0.  0.
<mgrwt>
<rscale>  0 0.10793030E+04</rscale>
<asrwt>0</asrwt>
<pdfrwt beam="1">  1        2 0.44901151E+00 0.11325971E+04</pdfrwt>
<pdfrwt beam="2">  1       -2 0.13182742E+00 0.11325971E+04</pdfrwt>
<totfact> 0.81586930E-01</totfact>
</mgrwt>
</event>
<event>
 4    5  0.8511149E-008  0.1303000E+04  0.7818608E-02  0.9062973E-01
          2   -1    0    0  501    0  0.00000000000E+00  0.00000000000E+00  0.28548741807E+04  0.28548741807E+04  0.25500000000E-02 0. -1.
         -2   -1    0    0    0  501 -0.00000000000E+00 -0.00000000000E+00 -0.89544862640E+03  0.89544862640E+03  0.25500000000E-02 0.  1.
    8880023    1    1    2    0    0 -0.14285246276E+03  0.11151646150E+04 -0.19293663883E+03  0.13172067786E+04  0.65864270000E+03 0.  1.
    8880022    1    1    2    0    0  0.14285246276E+03 -0.11151646150E+04  0.21523621932E+04  0.24331160285E+04  0.15294330000E+03 0.  0.
<mgrwt>
<rscale>  0 0.12586997E+04</rscale>
<asrwt>0</asrwt>
<pdfrwt beam="1">  1        2 0.43921142E+00 0.13030001E+04</pdfrwt>
<pdfrwt beam="2">  1       -2 0.13776132E+00 0.13030001E+04</pdfrwt>
<totfact> 0.77822878E-01</totfact>
</mgrwt>
</event>
<event>
 4    5  0.8511149E-008  0.7888818E+03  0.7818608E-02  0.9735373E-01
          2   -1    0    0  501    0  0.00000000000E+00  0.00000000000E+00  0.12761488259E+04  0.12761488259E+04  0.25500000000E-02 0. -1.
         -2   -1    0    0    0  501 -0.00000000000E+00 -0.00000000000E+00 -0.76867936906E+03  0.76867936907E+03  0.25500000000E-02 0.  1.
    8880023    1    1    2    0    0 -0.40995148243E+03  0.14305252197E+03 -0.50219916619E+03  0.93516760571E+03  0.65864270000E+03 0.  1.
    8880022    1    1    2    0    0  0.40995148243E+03 -0.14305252197E+03  0.10096686230E+04  0.11096605892E+04  0.15294330000E+03 0.  0.
<mgrwt>
<rscale>  0 0.68949224E+03</rscale>
<asrwt>0</asrwt>
<pdfrwt beam="1">  1        2 0.19633059E+00 0.78888177E+03</pdfrwt>
<pdfrwt beam="2">  1       -2 0.11825837E+00 0.78888177E+03</pdfrwt>
<totfact> 0.95502917E+00</totfact>
</mgrwt>
</event>
<event>
 4    5  0.8511149E-008  0.7633798E+03  0.7818608E-02  0.9796435E-01
          2   -1    0    0  501    0  0.00000000000E+00  0.00000000000E+00  0.27836953212E+04  0.27836953212E+04  0.25500000000E-02 0. -1.
         -2   -1    0    0    0  501 -0.00000000000E+00 -0.00000000000E+00 -0.39588998909E+03  0.39588998910E+03  0.25500000000E-02 0.  1.
    8880023    1    1    2    0    0 -0.34951369919E+03  0.16364192692E+03  0.75663244644E+01  0.76341729198E+03  0.65864270000E+03 0.  1.
    8880022    1    1    2    0    0  0.34951369919E+03 -0.16364192692E+03  0.23802390076E+04  0.24161680183E+04  0.15294330000E+03 0.  0.
<mgrwt>
<rscale>  0 0.65554220E+03</rscale>
<asrwt>0</asrwt>
<pdfrwt beam="1">  1        2 0.42826082E+00 0.76337980E+03</pdfrwt>
<pdfrwt beam="2">  1       -2 0.60906152E-01 0.76337980E+03</pdfrwt>
<totfact> 0.62656098E+00</totfact>
</mgrwt>
</event>
<event>
 4    5  0.8511149E-008  0.1641144E+04  0.7818608E-02  0.8815907E-01
          2   -1    0    0  501    0  0.00000000000E+00  0.00000000000E+00  0.12631561066E+04  0.12631561066E+04  0.25500000000E-02 0. -1.
         -2   -1    0    0    0  501 -0.00000000000E+00 -0.00000000000E+00 -0.24127396405E+04  0.24127396405E+04  0.25500000000E-02 0.  1.
    8880023    1    1    2    0    0 -0.13677607729E+04 -0.62351620752E+03 -0.13840851469E+04  0.21468683921E+04  0.65864270000E+03 0.  0.
    8880022    1    1    2    0    0  0.13677607729E+04  0.62351620752E+03  0.23450161292E+03  0.15290273550E+04  0.15294330000E+03 0.  0.
<mgrwt>
<rscale>  0 0.16075763E+04</rscale>
<asrwt>0</asrwt>
<pdfrwt beam="1">  1        2 0.19433171E+00 0.16411436E+04</pdfrwt>
<pdfrwt beam="2">  1       -2 0.37119071E+00 0.16411436E+04</pdfrwt>
<totfact> 0.18453591E-01</totfact>
</mgrwt>
</event>
<event>
 4    5  0.8511149E-008  0.9995828E+03  0.7818608E-02  0.9382104E-01
         -2   -1    0    0    0  501 -0.00000000000E+00  0.00000000000E+00  0.79952265680E+03  0.79952265680E+03  0.25500000000E-02 0.  1.
          2   -1    0    0  501    0  0.00000000000E+00 -0.00000000000E+00 -0.17658143547E+04  0.17658143547E+04  0.25500000000E-02 0. -1.
    8880023    1    1    2    0    0 -0.74932255148E+03 -0.62219748921E+02  0.33537924961E+03  0.10543457832E+04  0.65864270000E+03 0.  0.
    8880022    1    1    2    0    0  0.74932255148E+03  0.62219748921E+02 -0.13016709476E+04  0.15109912283E+04  0.15294330000E+03 0.  0.
<mgrwt>
<rscale>  0 0.93563227E+03</rscale>
<asrwt>0</asrwt>
<pdfrwt beam="1">  1        2 0.27166375E+00 0.99958281E+03</pdfrwt>
<pdfrwt beam="2">  1       -2 0.12300349E+00 0.99958281E+03</pdfrwt>
<totfact> 0.44829748E+00</totfact>
</mgrwt>
</event>
<event>
 4    5  0.8511149E-008  0.7495944E+03  0.7818608E-02  0.9832832E-01
          2   -1    0    0  501    0  0.00000000000E+00  0.00000000000E+00  0.12103304271E+04  0.12103304271E+04  0.25500000000E-02 0. -1.
         -2   -1    0    0    0  501 -0.00000000000E+00 -0.00000000000E+00 -0.10976455338E+04  0.10976455338E+04  0.25500000000E-02 0.  1.
    8880023    1    1    2    0    0  0.27626992117E+03  0.22750060611E+03 -0.93031405269E+03  0.11947284369E+04  0.65864270000E+03 0.  0.
    8880022    1    1    2    0    0 -0.27626992117E+03 -0.22750060611E+03  0.10429989461E+04  0.11132475240E+04  0.15294330000E+03 0.  0.
<mgrwt>
<rscale>  0 0.63629975E+03</rscale>
<asrwt>0</asrwt>
<pdfrwt beam="1">  1        2 0.18620468E+00 0.74959442E+03</pdfrwt>
<pdfrwt beam="2">  1       -2 0.16886854E+00 0.74959442E+03</pdfrwt>
<totfact> 0.41486535E+00</totfact>
</mgrwt>
</event>
<event>
 4    5  0.8511149E-008  0.8261402E+03  0.7818608E-02  0.9656890E-01
          2   -1    0    0  501    0  0.00000000000E+00  0.00000000000E+00  0.10905126442E+04  0.10905126442E+04  0.25500000000E-02 0. -1.
         -2   -1    0    0    0  501 -0.00000000000E+00 -0.00000000000E+00 -0.62003860128E+03  0.62003860129E+03  0.25500000000E-02 0.  1.
    8880023    1    1    2    0    0  0.91450918202E+02 -0.49023882824E+03 -0.21071011553E+03  0.85258802373E+03  0.65864270000E+03 0.  0.
    8880022    1    1    2    0    0 -0.91450918202E+02  0.49023882824E+03  0.68118415844E+03  0.85796322175E+03  0.15294330000E+03 0.  0.
<mgrwt>
<rscale>  0 0.73642612E+03</rscale>
<asrwt>0</asrwt>
<pdfrwt beam="1">  1        2 0.16777118E+00 0.82614017E+03</pdfrwt>
<pdfrwt beam="2">  1       -2 0.95390554E-01 0.82614017E+03</pdfrwt>
<totfact> 0.20582640E+01</totfact>
</mgrwt>
</event>
<event>
 4    5  0.8511149E-008  0.1074290E+04  0.7818608E-02  0.9290236E-01
         -2   -1    0    0    0  501 -0.00000000000E+00  0.00000000000E+00  0.20888079490E+04  0.20888079490E+04  0.25500000000E-02 0.  1.
          2   -1    0    0  501    0  0.00000000000E+00 -0.00000000000E+00 -0.58114101090E+03  0.58114101090E+03  0.25500000000E-02 0. -1.
    8880023    1    1    2    0    0 -0.53379662881E+03  0.65981037830E+03  0.14514221314E+04  0.18057477637E+04  0.65864270000E+03 0.  0.
    8880022    1    1    2    0    0  0.53379662881E+03 -0.65981037830E+03  0.56244806691E+02  0.86420119622E+03  0.15294330000E+03 0.  0.
<mgrwt>
<rscale>  0 0.10168676E+04</rscale>
<asrwt>0</asrwt>
<pdfrwt beam="1">  1        2 0.89406311E-01 0.10742899E+04</pdfrwt>
<pdfrwt beam="2">  1       -2 0.32135506E+00 0.10742899E+04</pdfrwt>
<totfact> 0.12110283E+00</totfact>
</mgrwt>
</event>
<event>
 4    5  0.8511149E-008  0.7810829E+03  0.7818608E-02  0.9753299E-01
         -2   -1    0    0    0  501 -0.00000000000E+00  0.00000000000E+00  0.54274785980E+03  0.54274785981E+03  0.25500000000E-02 0.  1.
          2   -1    0    0  501    0  0.00000000000E+00 -0.00000000000E+00 -0.19249285053E+04  0.19249285053E+04  0.25500000000E-02 0. -1.
    8880023    1    1    2    0    0 -0.41923624856E+03  0.22831016583E+02  0.21421216932E+03  0.80992428484E+03  0.65864270000E+03 0.  0.
    8880022    1    1    2    0    0  0.41923624856E+03 -0.22831016583E+02 -0.15963928149E+04  0.16577520803E+04  0.15294330000E+03 0.  0.
<mgrwt>
<rscale>  0 0.67930135E+03</rscale>
<asrwt>0</asrwt>
<pdfrwt beam="1">  1        2 0.29614284E+00 0.78108290E+03</pdfrwt>
<pdfrwt beam="2">  1       -2 0.83499672E-01 0.78108290E+03</pdfrwt>
<totfact> 0.94960351E+00</totfact>
</mgrwt>
</event>
<event>
 4    5  0.8511149E-008  0.1530968E+04  0.7818608E-02  0.8888072E-01
         -2   -1    0    0    0  501 -0.00000000000E+00  0.00000000000E+00  0.10345221910E+04  0.10345221910E+04  0.25500000000E-02 0.  1.
          2   -1    0    0  501    0  0.00000000000E+00 -0.00000000000E+00 -0.30347581015E+04  0.30347581015E+04  0.25500000000E-02 0. -1.
    8880023    1    1    2    0    0 -0.13251477070E+04  0.39247501142E+03  0.11791998004E+03  0.15355026564E+04  0.65864270000E+03 0.  0.
    8880022    1    1    2    0    0  0.13251477070E+04 -0.39247501142E+03 -0.21181558905E+04  0.25337776361E+04  0.15294330000E+03 0.  0.
<mgrwt>
<rscale>  0 0.14945694E+04</rscale>
<asrwt>0</asrwt>
<pdfrwt beam="1">  1        2 0.46688586E+00 0.15309681E+04</pdfrwt>
<pdfrwt beam="2">  1       -2 0.15915726E+00 0.15309681E+04</pdfrwt>
<totfact> 0.39913710E-01</totfact>
</mgrwt>
</event>
<event>
 4    5  0.8511149E-008  0.1142212E+04  0.7818608E-02  0.9215452E-01
          2   -1    0    0  501    0  0.00000000000E+00  0.00000000000E+00  0.24479043862E+04  0.24479043862E+04  0.25500000000E-02 0. -1.
         -2   -1    0    0    0  501 -0.00000000000E+00 -0.00000000000E+00 -0.53079475441E+03  0.53079475442E+03  0.25500000000E-02 0.  1.
    8880023    1    1    2    0    0 -0.21864850243E+03  0.90721031533E+03  0.43835885223E+03  0.12234404004E+04  0.65864270000E+03 0.  1.
    8880022    1    1    2    0    0  0.21864850243E+03 -0.90721031533E+03  0.14787507796E+04  0.17552587402E+04  0.15294330000E+03 0.  0.
<mgrwt>
<rscale>  0 0.10895348E+04</rscale>
<asrwt>0</asrwt>
<pdfrwt beam="1">  1        2 0.37660068E+00 0.11422119E+04</pdfrwt>
<pdfrwt beam="2">  1       -2 0.81660731E-01 0.11422119E+04</pdfrwt>
<totfact> 0.48835938E+00</totfact>
</mgrwt>
</event>
<event>
 4    5  0.8511149E-008  0.6792349E+03  0.7818608E-02  0.1009760E+00
         -2   -1    0    0    0  501 -0.00000000000E+00  0.00000000000E+00  0.99097853341E+03  0.99097853341E+03  0.25500000000E-02 0.  1.
          2   -1    0    0  501    0  0.00000000000E+00 -0.00000000000E+00 -0.40217631169E+03  0.40217631170E+03  0.25500000000E-02 0. -1.
    8880023    1    1    2    0    0 -0.15258584084E+03 -0.65325160717E+02  0.82354113525E+03  0.10675111349E+04  0.65864270000E+03 0.  1.
    8880022    1    1    2    0    0  0.15258584084E+03  0.65325160717E+02 -0.23473891353E+03  0.32564371020E+03  0.15294330000E+03 0.  0.
<mgrwt>
<rscale>  0 0.51570212E+03</rscale>
<asrwt>0</asrwt>
<pdfrwt beam="1">  1        2 0.61873279E-01 0.67923488E+03</pdfrwt>
<pdfrwt beam="2">  1       -2 0.15245824E+00 0.67923488E+03</pdfrwt>
<totfact> 0.23111164E+01</totfact>
</mgrwt>
</event>
<event>
 4    5  0.8511149E-008  0.6966527E+03  0.7818608E-02  0.1001138E+00
         -2   -1    0    0    0  501 -0.00000000000E+00  0.00000000000E+00  0.17069995075E+04  0.17069995075E+04  0.25500000000E-02 0.  1.
          2   -1    0    0  501    0  0.00000000000E+00 -0.00000000000E+00 -0.81882692194E+03  0.81882692194E+03  0.25500000000E-02 0. -1.
    8880023    1    1    2    0    0  0.20765880083E+03 -0.91610992601E+02  0.16097814345E+04  0.17540585010E+04  0.65864270000E+03 0.  0.
    8880022    1    1    2    0    0 -0.20765880083E+03  0.91610992601E+02 -0.72160884897E+03  0.77176792849E+03  0.15294330000E+03 0.  0.
<mgrwt>
<rscale>  0 0.55154011E+03</rscale>
<asrwt>0</asrwt>
<pdfrwt beam="1">  1        2 0.12597337E+00 0.69665268E+03</pdfrwt>
<pdfrwt beam="2">  1       -2 0.26261531E+00 0.69665268E+03</pdfrwt>
<totfact> 0.18751521E+00</totfact>
</mgrwt>
</event>
<event>
 4    5  0.8511149E-008  0.1257027E+04  0.7818608E-02  0.9103587E-01
         -2   -1    0    0    0  501 -0.00000000000E+00  0.00000000000E+00  0.20045803544E+04  0.20045803544E+04  0.25500000000E-02 0.  1.
          2   -1    0    0  501    0  0.00000000000E+00 -0.00000000000E+00 -0.81569528955E+03  0.81569528955E+03  0.25500000000E-02 0. -1.
    8880023    1    1    2    0    0 -0.95054995268E+03  0.49270930025E+03  0.12012024038E+04  0.17386791217E+04  0.65864270000E+03 0.  0.
    8880022    1    1    2    0    0  0.95054995268E+03 -0.49270930025E+03 -0.12317338946E+02  0.10815965223E+04  0.15294330000E+03 0.  0.
<mgrwt>
<rscale>  0 0.12106479E+04</rscale>
<asrwt>0</asrwt>
<pdfrwt beam="1">  1        2 0.12549158E+00 0.12570274E+04</pdfrwt>
<pdfrwt beam="2">  1       -2 0.30839698E+00 0.12570274E+04</pdfrwt>
<totfact> 0.92369817E-01</totfact>
</mgrwt>
</event>
<event>
 4    5  0.8511149E-008  0.8524618E+03  0.7818608E-02  0.9607116E-01
          2   -1    0    0  501    0  0.00000000000E+00  0.00000000000E+00  0.23466645993E+04  0.23466645993E+04  0.25500000000E-02 0. -1.
         -2   -1    0    0    0  501 -0.00000000000E+00 -0.00000000000E+00 -0.58292691403E+03  0.58292691404E+03  0.25500000000E-02 0.  1.
    8880023    1    1    2    0    0  0.40441850883E+03 -0.35962016816E+03 -0.20945841771E+03  0.87781776619E+03  0.65864270000E+03 0.  1.
    8880022    1    1    2    0    0 -0.40441850883E+03  0.35962016816E+03  0.19731961029E+04  0.20517737471E+04  0.15294330000E+03 0.  0.
<mgrwt>
<rscale>  0 0.76827008E+03</rscale>
<asrwt>0</asrwt>
<pdfrwt beam="1">  1        2 0.36102532E+00 0.85246185E+03</pdfrwt>
<pdfrwt beam="2">  1       -2 0.89681065E-01 0.85246185E+03</pdfrwt>
<totfact> 0.46706632E+00</totfact>
</mgrwt>
</event>
<event>
 4    5  0.8511149E-008  0.8572054E+03  0.7818608E-02  0.9598554E-01
         -2   -1    0    0    0  501 -0.00000000000E+00  0.00000000000E+00  0.63213455149E+03  0.63213455149E+03  0.25500000000E-02 0.  1.
          2   -1    0    0  501    0  0.00000000000E+00 -0.00000000000E+00 -0.12761486613E+04  0.12761486613E+04  0.25500000000E-02 0. -1.
    8880023    1    1    2    0    0  0.52939026704E+03 -0.14400265194E+03  0.20927026661E+03  0.88238034280E+03  0.65864270000E+03 0.  1.
    8880022    1    1    2    0    0 -0.52939026704E+03  0.14400265194E+03 -0.85328437639E+03  0.10259028700E+04  0.15294330000E+03 0.  0.
<mgrwt>
<rscale>  0 0.77391957E+03</rscale>
<asrwt>0</asrwt>
<pdfrwt beam="1">  1        2 0.19633056E+00 0.85720536E+03</pdfrwt>
<pdfrwt beam="2">  1       -2 0.97251470E-01 0.85720536E+03</pdfrwt>
<totfact> 0.15185601E+01</totfact>
</mgrwt>
</event>
<event>
 4    5  0.8511149E-008  0.7924459E+03  0.7818608E-02  0.9727374E-01
          2   -1    0    0  501    0  0.00000000000E+00  0.00000000000E+00  0.25815114343E+04  0.25815114343E+04  0.25500000000E-02 0. -1.
         -2   -1    0    0    0  501 -0.00000000000E+00 -0.00000000000E+00 -0.10290532689E+04  0.10290532689E+04  0.25500000000E-02 0.  1.
    8880023    1    1    2    0    0 -0.25592409226E+03 -0.35869640696E+03 -0.85067179439E+03  0.11625889047E+04  0.65864270000E+03 0.  0.
    8880022    1    1    2    0    0  0.25592409226E+03  0.35869640696E+03  0.24031299597E+04  0.24479757984E+04  0.15294330000E+03 0.  0.
<mgrwt>
<rscale>  0 0.69410084E+03</rscale>
<asrwt>0</asrwt>
<pdfrwt beam="1">  1        2 0.39715560E+00 0.79244587E+03</pdfrwt>
<pdfrwt beam="2">  1       -2 0.15831589E+00 0.79244587E+03</pdfrwt>
<totfact> 0.84631213E-01</totfact>
</mgrwt>
</event>
<event>
 4    5  0.8511149E-008  0.7428879E+03  0.7818608E-02  0.9851613E-01
          2   -1    0    0  501    0  0.00000000000E+00  0.00000000000E+00  0.71048563777E+03  0.71048563777E+03  0.25500000000E-02 0. -1.
         -2   -1    0    0    0  501 -0.00000000000E+00 -0.00000000000E+00 -0.87694478375E+03  0.87694478375E+03  0.25500000000E-02 0.  1.
    8880023    1    1    2    0    0  0.12305068935E+03  0.32082818459E+03 -0.64149167136E+03  0.98152634548E+03  0.65864270000E+03 0.  1.
    8880022    1    1    2    0    0 -0.12305068935E+03 -0.32082818459E+03  0.47503252538E+03  0.60590407604E+03  0.15294330000E+03 0.  0.
<mgrwt>
<rscale>  0 0.62664725E+03</rscale>
<asrwt>0</asrwt>
<pdfrwt beam="1">  1        2 0.10930548E+00 0.74288788E+03</pdfrwt>
<pdfrwt beam="2">  1       -2 0.13491458E+00 0.74288788E+03</pdfrwt>
<totfact> 0.16127945E+01</totfact>
</mgrwt>
</event>
<event>
 4    5  0.8511149E-008  0.8489907E+03  0.7818608E-02  0.9613455E-01
         -2   -1    0    0    0  501 -0.00000000000E+00  0.00000000000E+00  0.82319120444E+03  0.82319120444E+03  0.25500000000E-02 0.  1.
          2   -1    0    0  501    0  0.00000000000E+00 -0.00000000000E+00 -0.16162893704E+04  0.16162893704E+04  0.25500000000E-02 0. -1.
    8880023    1    1    2    0    0 -0.34283874909E+03  0.41162678191E+03  0.53209050427E+03  0.10019508603E+04  0.65864270000E+03 0.  1.
    8880022    1    1    2    0    0  0.34283874909E+03 -0.41162678191E+03 -0.13251886702E+04  0.14375297145E+04  0.15294330000E+03 0.  0.
<mgrwt>
<rscale>  0 0.76412004E+03</rscale>
<asrwt>0</asrwt>
<pdfrwt beam="1">  1        2 0.24865990E+00 0.84899071E+03</pdfrwt>
<pdfrwt beam="2">  1       -2 0.12664480E+00 0.84899071E+03</pdfrwt>
<totfact> 0.51334853E+00</totfact>
</mgrwt>
</event>
<event>
 4    5  0.1299228E-007  0.1060808E+04  0.7818608E-02  0.9306001E-01
         -2   -1    0    0    0  501 -0.00000000000E+00  0.00000000000E+00  0.21427510672E+04  0.21427510672E+04  0.25500000000E-02 0.  1.
          2   -1    0    0  501    0  0.00000000000E+00 -0.00000000000E+00 -0.19040309029E+04  0.19040309029E+04  0.25500000000E-02 0. -1.
    8880023    1    1    2    0    0 -0.63116409192E+03  0.54141903256E+03  0.19037612940E+04  0.21793622807E+04  0.65864270000E+03 0.  1.
    8880022    1    1    2    0    0  0.63116409192E+03 -0.54141903256E+03 -0.16650411297E+04  0.18674196894E+04  0.15294330000E+03 0.  0.
<mgrwt>
<rscale>  0 0.10023230E+04</rscale>
<asrwt>0</asrwt>
<pdfrwt beam="1">  1        2 0.29292783E+00 0.10608077E+04</pdfrwt>
<pdfrwt beam="2">  1       -2 0.32965401E+00 0.10608077E+04</pdfrwt>
<totfact> 0.15795784E-01</totfact>
</mgrwt>
</event>
<event>
 4    5  0.8511149E-008  0.1943169E+04  0.7818608E-02  0.8647219E-01
         -2   -1    0    0    0  501 -0.00000000000E+00  0.00000000000E+00  0.12030332763E+04  0.12030332763E+04  0.25500000000E-02 0.  1.
          2   -1    0    0  501    0  0.00000000000E+00 -0.00000000000E+00 -0.32805706103E+04  0.32805706103E+04  0.25500000000E-02 0. -1.
    8880023    1    1    2    0    0  0.11175176695E+04 -0.14468062594E+04 -0.37142419623E+03  0.19783478546E+04  0.65864270000E+03 0.  0.
    8880022    1    1    2    0    0 -0.11175176695E+04  0.14468062594E+04 -0.17061131378E+04  0.25052560320E+04  0.15294330000E+03 0.  0.
<mgrwt>
<rscale>  0 0.19154192E+04</rscale>
<asrwt>0</asrwt>
<pdfrwt beam="1">  1        2 0.50470317E+00 0.19431686E+04</pdfrwt>
<pdfrwt beam="2">  1       -2 0.18508204E+00 0.19431686E+04</pdfrwt>
<totfact> 0.17300356E-01</totfact>
</mgrwt>
</event>
<event>
 4    5  0.8511149E-008  0.8139100E+03  0.7818608E-02  0.9681489E-01
          2   -1    0    0  501    0  0.00000000000E+00  0.00000000000E+00  0.10811730812E+04  0.10811730812E+04  0.25500000000E-02 0. -1.
         -2   -1    0    0    0  501 -0.00000000000E+00 -0.00000000000E+00 -0.45540253529E+03  0.45540253530E+03  0.25500000000E-02 0.  1.
    8880023    1    1    2    0    0  0.81840578593E+02  0.47110661789E+03  0.63836869046E+03  0.10343906984E+04  0.65864270000E+03 0. -1.
    8880022    1    1    2    0    0 -0.81840578593E+02 -0.47110661789E+03 -0.12598144534E+02  0.50218491812E+03  0.15294330000E+03 0.  0.
<mgrwt>
<rscale>  0 0.72129686E+03</rscale>
<asrwt>0</asrwt>
<pdfrwt beam="1">  1        2 0.16633432E+00 0.81391003E+03</pdfrwt>
<pdfrwt beam="2">  1       -2 0.70061929E-01 0.81391003E+03</pdfrwt>
<totfact> 0.41972858E+01</totfact>
</mgrwt>
</event>
<event>
 4    5  0.8511149E-008  0.9842473E+03  0.7818608E-02  0.9402463E-01
          2   -1    0    0  501    0  0.00000000000E+00  0.00000000000E+00  0.83054444942E+03  0.83054444943E+03  0.25500000000E-02 0. -1.
         -2   -1    0    0    0  501 -0.00000000000E+00 -0.00000000000E+00 -0.13157294507E+04  0.13157294507E+04  0.25500000000E-02 0.  1.
    8880023    1    1    2    0    0  0.44590791263E+03 -0.57974012141E+03 -0.86296755075E+03  0.13089903265E+04  0.65864270000E+03 0.  0.
    8880022    1    1    2    0    0 -0.44590791263E+03  0.57974012141E+03  0.37778254950E+03  0.83728357361E+03  0.15294330000E+03 0.  0.
<mgrwt>
<rscale>  0 0.91873225E+03</rscale>
<asrwt>0</asrwt>
<pdfrwt beam="1">  1        2 0.12777607E+00 0.98424727E+03</pdfrwt>
<pdfrwt beam="2">  1       -2 0.20241992E+00 0.98424727E+03</pdfrwt>
<totfact> 0.41769554E+00</totfact>
</mgrwt>
</event>
<event>
 4    5  0.8511149E-008  0.9708744E+03  0.7818608E-02  0.9420696E-01
         -2   -1    0    0    0  501 -0.00000000000E+00  0.00000000000E+00  0.68563924847E+03  0.68563924847E+03  0.25500000000E-02 0.  1.
          2   -1    0    0  501    0  0.00000000000E+00 -0.00000000000E+00 -0.32351144050E+04  0.32351144050E+04  0.25500000000E-02 0. -1.
    8880023    1    1    2    0    0 -0.69927638483E+03  0.14071041943E+03  0.27057672953E+03  0.10078734332E+04  0.65864270000E+03 0.  0.
    8880022    1    1    2    0    0  0.69927638483E+03 -0.14071041943E+03 -0.28200518861E+04  0.29128802203E+04  0.15294330000E+03 0.  0.
<mgrwt>
<rscale>  0 0.90391887E+03</rscale>
<asrwt>0</asrwt>
<pdfrwt beam="1">  1        2 0.49770990E+00 0.97087439E+03</pdfrwt>
<pdfrwt beam="2">  1       -2 0.10548296E+00 0.97087439E+03</pdfrwt>
<totfact> 0.92136849E-01</totfact>
</mgrwt>
</event>
<event>
 4    5  0.8511149E-008  0.7314218E+03  0.7818608E-02  0.9885678E-01
          2   -1    0    0  501    0  0.00000000000E+00  0.00000000000E+00  0.15365567193E+04  0.15365567193E+04  0.25500000000E-02 0. -1.
         -2   -1    0    0    0  501 -0.00000000000E+00 -0.00000000000E+00 -0.70066153967E+03  0.70066153967E+03  0.25500000000E-02 0.  1.
    8880023    1    1    2    0    0  0.13067255298E+03 -0.28998675639E+03 -0.47997189178E+03  0.87484333348E+03  0.65864270000E+03 0.  1.
    8880022    1    1    2    0    0 -0.13067255298E+03  0.28998675639E+03  0.13158670714E+04  0.13623749255E+04  0.15294330000E+03 0.  0.
<mgrwt>
<rscale>  0 0.60960418E+03</rscale>
<asrwt>0</asrwt>
<pdfrwt beam="1">  1        2 0.23639334E+00 0.73142179E+03</pdfrwt>
<pdfrwt beam="2">  1       -2 0.10779408E+00 0.73142179E+03</pdfrwt>
<totfact> 0.85884541E+00</totfact>
</mgrwt>
</event>
<event>
 4    5  0.8511149E-008  0.1409612E+04  0.7818608E-02  0.8976249E-01
         -2   -1    0    0    0  501 -0.00000000000E+00  0.00000000000E+00  0.11097809873E+04  0.11097809873E+04  0.25500000000E-02 0.  1.
          2   -1    0    0  501    0  0.00000000000E+00 -0.00000000000E+00 -0.35184758537E+04  0.35184758537E+04  0.25500000000E-02 0. -1.
    8880023    1    1    2    0    0 -0.10638439775E+04  0.64917869766E+03  0.47140865705E+03  0.14863489893E+04  0.65864270000E+03 0. -1.
    8880022    1    1    2    0    0  0.10638439775E+04 -0.64917869766E+03 -0.28801035235E+04  0.31419078517E+04  0.15294330000E+03 0.  0.
<mgrwt>
<rscale>  0 0.13694292E+04</rscale>
<asrwt>0</asrwt>
<pdfrwt beam="1">  1        2 0.54130397E+00 0.14096124E+04</pdfrwt>
<pdfrwt beam="2">  1       -2 0.17073554E+00 0.14096124E+04</pdfrwt>
<totfact> 0.15994093E-01</totfact>
</mgrwt>
</event>
<event>
 4    5  0.8511149E-008  0.6766769E+03  0.7818608E-02  0.1011269E+00
          2   -1    0    0  501    0  0.00000000000E+00  0.00000000000E+00  0.40979783076E+04  0.40979783076E+04  0.25500000000E-02 0. -1.
         -2   -1    0    0    0  501 -0.00000000000E+00 -0.00000000000E+00 -0.14527939104E+03  0.14527939106E+03  0.25500000000E-02 0.  1.
    8880023    1    1    2    0    0 -0.10120818236E+02  0.15485148640E+03  0.66634177501E+03  0.94968572759E+03  0.65864270000E+03 0.  1.
    8880022    1    1    2    0    0  0.10120818236E+02 -0.15485148640E+03  0.32863571415E+04  0.32935719711E+04  0.15294330000E+03 0.  0.
<mgrwt>
<rscale>  0 0.50973203E+03</rscale>
<asrwt>0</asrwt>
<pdfrwt beam="1">  1        2 0.63045811E+00 0.67667689E+03</pdfrwt>
<pdfrwt beam="2">  1       -2 0.22350679E-01 0.67667689E+03</pdfrwt>
<totfact> 0.56156018E+00</totfact>
</mgrwt>
</event>
<event>
 4    5  0.8511149E-008  0.8612595E+03  0.7818608E-02  0.9591327E-01
          2   -1    0    0  501    0  0.00000000000E+00  0.00000000000E+00  0.20382516216E+04  0.20382516216E+04  0.25500000000E-02 0. -1.
         -2   -1    0    0    0  501 -0.00000000000E+00 -0.00000000000E+00 -0.48813147462E+03  0.48813147463E+03  0.25500000000E-02 0.  1.
    8880023    1    1    2    0    0  0.54029274731E+03  0.12665482934E+03 -0.12248960336E+02  0.86134658639E+03  0.65864270000E+03 0.  1.
    8880022    1    1    2    0    0 -0.54029274731E+03 -0.12665482934E+03  0.15623691073E+04  0.16650365098E+04  0.15294330000E+03 0.  0.
<mgrwt>
<rscale>  0 0.77872888E+03</rscale>
<asrwt>0</asrwt>
<pdfrwt beam="1">  1        2 0.31357717E+00 0.86125949E+03</pdfrwt>
<pdfrwt beam="2">  1       -2 0.75097151E-01 0.86125949E+03</pdfrwt>
<totfact> 0.10332067E+01</totfact>
</mgrwt>
</event>
<event>
 4    5  0.8511149E-008  0.9629020E+03  0.7818608E-02  0.9431789E-01
         -2   -1    0    0    0  501 -0.00000000000E+00  0.00000000000E+00  0.57842781768E+03  0.57842781768E+03  0.25500000000E-02 0.  1.
          2   -1    0    0  501    0  0.00000000000E+00 -0.00000000000E+00 -0.17628038493E+04  0.17628038493E+04  0.25500000000E-02 0. -1.
    8880023    1    1    2    0    0 -0.54828890312E+03 -0.43903220189E+03 -0.83954971571E+01  0.96293856824E+03  0.65864270000E+03 0.  0.
    8880022    1    1    2    0    0  0.54828890312E+03  0.43903220189E+03 -0.11759805345E+04  0.13782930988E+04  0.15294330000E+03 0.  0.
<mgrwt>
<rscale>  0 0.89505112E+03</rscale>
<asrwt>0</asrwt>
<pdfrwt beam="1">  1        2 0.27120059E+00 0.96290197E+03</pdfrwt>
<pdfrwt beam="2">  1       -2 0.88988896E-01 0.96290197E+03</pdfrwt>
<totfact> 0.98419035E+00</totfact>
</mgrwt>
</event>
<event>
 4    5  0.8511149E-008  0.6626021E+03  0.7818608E-02  0.1021636E+00
          2   -1    0    0  501    0  0.00000000000E+00  0.00000000000E+00  0.11178969372E+04  0.11178969372E+04  0.25500000000E-02 0. -1.
         -2   -1    0    0    0  501 -0.00000000000E+00 -0.00000000000E+00 -0.71167635503E+03  0.71167635503E+03  0.25500000000E-02 0.  1.
    8880023    1    1    2    0    0  0.69160187523E+02 -0.21169860890E+02 -0.54838139477E+03  0.86009514296E+03  0.65864270000E+03 0.  1.
    8880022    1    1    2    0    0 -0.69160187523E+02  0.21169860890E+02  0.95460197696E+03  0.96947814931E+03  0.15294330000E+03 0.  0.
<mgrwt>
<rscale>  0 0.47100865E+03</rscale>
<asrwt>0</asrwt>
<pdfrwt beam="1">  1        2 0.17198414E+00 0.66260207E+03</pdfrwt>
<pdfrwt beam="2">  1       -2 0.10948867E+00 0.66260207E+03</pdfrwt>
<totfact> 0.14527520E+01</totfact>
</mgrwt>
</event>
<event>
 4    5  0.8511149E-008  0.9225900E+03  0.7818608E-02  0.9490699E-01
         -2   -1    0    0    0  501 -0.00000000000E+00  0.00000000000E+00  0.94612246566E+03  0.94612246566E+03  0.25500000000E-02 0.  1.
          2   -1    0    0  501    0  0.00000000000E+00 -0.00000000000E+00 -0.81482992588E+03  0.81482992588E+03  0.25500000000E-02 0. -1.
    8880023    1    1    2    0    0  0.27366408597E+03 -0.58520944085E+03  0.44774183331E+03  0.10254974779E+04  0.65864270000E+03 0.  1.
    8880022    1    1    2    0    0 -0.27366408597E+03  0.58520944085E+03 -0.31644929353E+03  0.73545491364E+03  0.15294330000E+03 0.  0.
<mgrwt>
<rscale>  0 0.84973022E+03</rscale>
<asrwt>0</asrwt>
<pdfrwt beam="1">  1        2 0.12535845E+00 0.92259001E+03</pdfrwt>
<pdfrwt beam="2">  1       -2 0.14555730E+00 0.92259001E+03</pdfrwt>
<totfact> 0.10888088E+01</totfact>
</mgrwt>
</event>
<event>
 4    5  0.8511149E-008  0.1160131E+04  0.7818608E-02  0.9196887E-01
          2   -1    0    0  501    0  0.00000000000E+00  0.00000000000E+00  0.23716815823E+04  0.23716815823E+04  0.25500000000E-02 0. -1.
         -2   -1    0    0    0  501 -0.00000000000E+00 -0.00000000000E+00 -0.50481842239E+03  0.50481842240E+03  0.25500000000E-02 0.  1.
    8880023    1    1    2    0    0 -0.91364978787E+03  0.27809685936E+03  0.67736502577E+03  0.13434014227E+04  0.65864270000E+03 0.  1.
    8880022    1    1    2    0    0  0.91364978787E+03 -0.27809685936E+03  0.11894981341E+04  0.15330985820E+04  0.15294330000E+03 0.  0.
<mgrwt>
<rscale>  0 0.11085618E+04</rscale>
<asrwt>0</asrwt>
<pdfrwt beam="1">  1        2 0.36487409E+00 0.11601310E+04</pdfrwt>
<pdfrwt beam="2">  1       -2 0.77664373E-01 0.11601310E+04</pdfrwt>
<totfact> 0.60320857E+00</totfact>
</mgrwt>
</event>
<event>
 4    5  0.9822865E-008  0.1322406E+04  0.7818608E-02  0.9046449E-01
          2   -1    0    0  501    0  0.00000000000E+00  0.00000000000E+00  0.28796029275E+04  0.28796029275E+04  0.25500000000E-02 0. -1.
         -2   -1    0    0    0  501 -0.00000000000E+00 -0.00000000000E+00 -0.15409800696E+04  0.15409800696E+04  0.25500000000E-02 0.  1.
    8880023    1    1    2    0    0  0.11047590728E+04 -0.30733416600E+03 -0.11008842342E+04  0.17206694051E+04  0.65864270000E+03 0.  1.
    8880022    1    1    2    0    0 -0.11047590728E+04  0.30733416600E+03  0.24395070921E+04  0.26999135919E+04  0.15294330000E+03 0.  0.
<mgrwt>
<rscale>  0 0.12789227E+04</rscale>
<asrwt>0</asrwt>
<pdfrwt beam="1">  1        2 0.44301583E+00 0.13224058E+04</pdfrwt>
<pdfrwt beam="2">  1       -2 0.23707386E+00 0.13224058E+04</pdfrwt>
<totfact> 0.15386931E-01</totfact>
</mgrwt>
</event>
<event>
 4    5  0.8511149E-008  0.1205000E+04  0.7818608E-02  0.9152277E-01
          2   -1    0    0  501    0  0.00000000000E+00  0.00000000000E+00  0.23054300689E+04  0.23054300689E+04  0.25500000000E-02 0. -1.
         -2   -1    0    0    0  501 -0.00000000000E+00 -0.00000000000E+00 -0.91758699861E+03  0.91758699862E+03  0.25500000000E-02 0.  1.
    8880023    1    1    2    0    0 -0.44641286416E+03 -0.90494823290E+03 -0.30801037645E+03  0.12437428785E+04  0.65864270000E+03 0.  0.
    8880022    1    1    2    0    0  0.44641286416E+03  0.90494823290E+03  0.16958534467E+04  0.19792741890E+04  0.15294330000E+03 0.  0.
<mgrwt>
<rscale>  0 0.11559882E+04</rscale>
<asrwt>0</asrwt>
<pdfrwt beam="1">  1        2 0.35468155E+00 0.12050004E+04</pdfrwt>
<pdfrwt beam="2">  1       -2 0.14116723E+00 0.12050004E+04</pdfrwt>
<totfact> 0.15439863E+00</totfact>
</mgrwt>
</event>
<event>
 4    5  0.8511149E-008  0.1020361E+04  0.7818608E-02  0.9355391E-01
         -2   -1    0    0    0  501 -0.00000000000E+00  0.00000000000E+00  0.34750598905E+03  0.34750598906E+03  0.25500000000E-02 0.  1.
          2   -1    0    0  501    0  0.00000000000E+00 -0.00000000000E+00 -0.29124094025E+04  0.29124094025E+04  0.25500000000E-02 0. -1.
    8880023    1    1    2    0    0  0.64783119736E+03 -0.43317624159E+03 -0.71267112545E+03  0.12446032524E+04  0.65864270000E+03 0.  1.
    8880022    1    1    2    0    0 -0.64783119736E+03  0.43317624159E+03 -0.18522322880E+04  0.20153121391E+04  0.15294330000E+03 0.  0.
<mgrwt>
<rscale>  0 0.95839585E+03</rscale>
<asrwt>0</asrwt>
<pdfrwt beam="1">  1        2 0.44806297E+00 0.10203613E+04</pdfrwt>
<pdfrwt beam="2">  1       -2 0.53462462E-01 0.10203613E+04</pdfrwt>
<totfact> 0.66268397E+00</totfact>
</mgrwt>
</event>
<event>
 4    5  0.8511149E-008  0.7473776E+03  0.7818608E-02  0.9838955E-01
         -2   -1    0    0    0  501 -0.00000000000E+00  0.00000000000E+00  0.21431894430E+04  0.21431894430E+04  0.25500000000E-02 0.  1.
          2   -1    0    0  501    0  0.00000000000E+00 -0.00000000000E+00 -0.58361224339E+03  0.58361224340E+03  0.25500000000E-02 0. -1.
    8880023    1    1    2    0    0 -0.11474918507E+03 -0.33405949796E+03  0.20040228678E+04  0.21388503885E+04  0.65864270000E+03 0.  0.
    8880022    1    1    2    0    0  0.11474918507E+03  0.33405949796E+03 -0.44444566819E+03  0.58795129785E+03  0.15294330000E+03 0.  0.
<mgrwt>
<rscale>  0 0.63313239E+03</rscale>
<asrwt>0</asrwt>
<pdfrwt beam="1">  1        2 0.89786497E-01 0.74737764E+03</pdfrwt>
<pdfrwt beam="2">  1       -2 0.32972146E+00 0.74737764E+03</pdfrwt>
<totfact> 0.11225416E+00</totfact>
</mgrwt>
</event>
<event>
 4    5  0.8511149E-008  0.7907181E+03  0.7818608E-02  0.9731237E-01
         -2   -1    0    0    0  501 -0.00000000000E+00  0.00000000000E+00  0.41089337434E+03  0.41089337435E+03  0.25500000000E-02 0.  1.
          2   -1    0    0  501    0  0.00000000000E+00 -0.00000000000E+00 -0.15415776803E+04  0.15415776803E+04  0.25500000000E-02 0. -1.
    8880023    1    1    2    0    0  0.21830831133E+03 -0.37916537632E+03 -0.12452049377E+04  0.14750493024E+04  0.65864270000E+03 0.  0.
    8880022    1    1    2    0    0 -0.21830831133E+03  0.37916537632E+03  0.11452063175E+03  0.47742175223E+03  0.15294330000E+03 0.  0.
<mgrwt>
<rscale>  0 0.69187036E+03</rscale>
<asrwt>0</asrwt>
<pdfrwt beam="1">  1        2 0.23716579E+00 0.79071810E+03</pdfrwt>
<pdfrwt beam="2">  1       -2 0.63214366E-01 0.79071810E+03</pdfrwt>
<totfact> 0.28413185E+01</totfact>
</mgrwt>
</event>
<event>
 4    5  0.8511149E-008  0.8466759E+03  0.7818608E-02  0.9617718E-01
          2   -1    0    0  501    0  0.00000000000E+00  0.00000000000E+00  0.19531139290E+04  0.19531139290E+04  0.25500000000E-02 0. -1.
         -2   -1    0    0    0  501 -0.00000000000E+00 -0.00000000000E+00 -0.35127317964E+03  0.35127317965E+03  0.25500000000E-02 0.  1.
    8880023    1    1    2    0    0  0.24046512421E+03  0.47458025278E+03  0.31472685959E+03  0.90327907908E+03  0.65864270000E+03 0.  1.
    8880022    1    1    2    0    0 -0.24046512421E+03 -0.47458025278E+03  0.12871138898E+04  0.14011080296E+04  0.15294330000E+03 0.  0.
<mgrwt>
<rscale>  0 0.76134475E+03</rscale>
<asrwt>0</asrwt>
<pdfrwt beam="1">  1        2 0.30047907E+00 0.84667591E+03</pdfrwt>
<pdfrwt beam="2">  1       -2 0.54042027E-01 0.84667591E+03</pdfrwt>
<totfact> 0.23335892E+01</totfact>
</mgrwt>
</event>
<event>
 4    5  0.8511149E-008  0.1632908E+04  0.7818608E-02  0.8821073E-01
          2   -1    0    0  501    0  0.00000000000E+00  0.00000000000E+00  0.33384975976E+04  0.33384975976E+04  0.25500000000E-02 0. -1.
         -2   -1    0    0    0  501 -0.00000000000E+00 -0.00000000000E+00 -0.10328715374E+04  0.10328715374E+04  0.25500000000E-02 0.  1.
    8880023    1    1    2    0    0 -0.73300915087E+03  0.13020278232E+04  0.15915780318E+02  0.16329857274E+04  0.65864270000E+03 0.  0.
    8880022    1    1    2    0    0  0.73300915087E+03 -0.13020278232E+04  0.22897102799E+04  0.27383834076E+04  0.15294330000E+03 0.  0.
<mgrwt>
<rscale>  0 0.15991456E+04</rscale>
<asrwt>0</asrwt>
<pdfrwt beam="1">  1        2 0.51361500E+00 0.16329082E+04</pdfrwt>
<pdfrwt beam="2">  1       -2 0.15890332E+00 0.16329082E+04</pdfrwt>
<totfact> 0.25189655E-01</totfact>
</mgrwt>
</event>
<event>
 4    5  0.8511149E-008  0.1026709E+04  0.7818608E-02  0.9347419E-01
         -2   -1    0    0    0  501 -0.00000000000E+00  0.00000000000E+00  0.84325819981E+03  0.84325819981E+03  0.25500000000E-02 0.  1.
          2   -1    0    0  501    0  0.00000000000E+00 -0.00000000000E+00 -0.19750551010E+04  0.19750551010E+04  0.25500000000E-02 0. -1.
    8880023    1    1    2    0    0  0.75726243296E+03 -0.21650421705E+03  0.38974634747E+03  0.10981952877E+04  0.65864270000E+03 0.  1.
    8880022    1    1    2    0    0 -0.75726243296E+03  0.21650421705E+03 -0.15215432487E+04  0.17201180131E+04  0.15294330000E+03 0.  0.
<mgrwt>
<rscale>  0 0.96532128E+03</rscale>
<asrwt>0</asrwt>
<pdfrwt beam="1">  1        2 0.30385463E+00 0.10267087E+04</pdfrwt>
<pdfrwt beam="2">  1       -2 0.12973203E+00 0.10267087E+04</pdfrwt>
<totfact> 0.29957839E+00</totfact>
</mgrwt>
</event>
<event>
 4    5  0.8511149E-008  0.7408555E+03  0.7818608E-02  0.9857462E-01
         -2   -1    0    0    0  501 -0.00000000000E+00  0.00000000000E+00  0.67314983533E+03  0.67314983534E+03  0.25500000000E-02 0.  1.
          2   -1    0    0  501    0  0.00000000000E+00 -0.00000000000E+00 -0.29212099246E+04  0.29212099246E+04  0.25500000000E-02 0. -1.
    8880023    1    1    2    0    0  0.14335657575E+03 -0.30741751645E+03  0.45261392708E+03  0.86817406692E+03  0.65864270000E+03 0.  1.
    8880022    1    1    2    0    0 -0.14335657575E+03  0.30741751645E+03 -0.27006740163E+04  0.27261856930E+04  0.15294330000E+03 0.  0.
<mgrwt>
<rscale>  0 0.62367893E+03</rscale>
<asrwt>0</asrwt>
<pdfrwt beam="1">  1        2 0.44941690E+00 0.74085548E+03</pdfrwt>
<pdfrwt beam="2">  1       -2 0.10356152E+00 0.74085548E+03</pdfrwt>
<totfact> 0.15804441E+00</totfact>
</mgrwt>
</event>
<event>
 4    5  0.8511149E-008  0.1035871E+04  0.7818608E-02  0.9336062E-01
         -2   -1    0    0    0  501 -0.00000000000E+00  0.00000000000E+00  0.50396115122E+03  0.50396115122E+03  0.25500000000E-02 0.  1.
          2   -1    0    0  501    0  0.00000000000E+00 -0.00000000000E+00 -0.24209172468E+04  0.24209172468E+04  0.25500000000E-02 0. -1.
    8880023    1    1    2    0    0  0.45229399346E+03  0.65927946223E+03 -0.24373752657E+03  0.10641604456E+04  0.65864270000E+03 0.  1.
    8880022    1    1    2    0    0 -0.45229399346E+03 -0.65927946223E+03 -0.16732185691E+04  0.18607179525E+04  0.15294330000E+03 0. -1.
<mgrwt>
<rscale>  0 0.97529656E+03</rscale>
<asrwt>0</asrwt>
<pdfrwt beam="1">  1        2 0.37244880E+00 0.10358714E+04</pdfrwt>
<pdfrwt beam="2">  1       -2 0.77532486E-01 0.10358714E+04</pdfrwt>
<totfact> 0.57599342E+00</totfact>
</mgrwt>
</event>
<event>
 4    5  0.8511149E-008  0.9333660E+03  0.7818608E-02  0.9474462E-01
          2   -1    0    0  501    0  0.00000000000E+00  0.00000000000E+00  0.25856498913E+04  0.25856498913E+04  0.25500000000E-02 0. -1.
         -2   -1    0    0    0  501 -0.00000000000E+00 -0.00000000000E+00 -0.49362688280E+03  0.49362688280E+03  0.25500000000E-02 0.  1.
    8880023    1    1    2    0    0 -0.41483160095E+03  0.51505006570E+03  0.58208715515E+02  0.93517928129E+03  0.65864270000E+03 0.  1.
    8880022    1    1    2    0    0  0.41483160095E+03 -0.51505006570E+03  0.20338142929E+04  0.21440974928E+04  0.15294330000E+03 0.  0.
<mgrwt>
<rscale>  0 0.86193110E+03</rscale>
<asrwt>0</asrwt>
<pdfrwt beam="1">  1        2 0.39779229E+00 0.93336597E+03</pdfrwt>
<pdfrwt beam="2">  1       -2 0.75942598E-01 0.93336597E+03</pdfrwt>
<totfact> 0.49237398E+00</totfact>
</mgrwt>
</event>
<event>
 4    5  0.8511149E-008  0.7532621E+03  0.7818608E-02  0.9822874E-01
          2   -1    0    0  501    0  0.00000000000E+00  0.00000000000E+00  0.20296141282E+04  0.20296141282E+04  0.25500000000E-02 0. -1.
         -2   -1    0    0    0  501 -0.00000000000E+00 -0.00000000000E+00 -0.31540007292E+03  0.31540007293E+03  0.25500000000E-02 0.  1.
    8880023    1    1    2    0    0 -0.36466373603E+03 -0.24777490369E+02  0.19935324735E+03  0.77919541060E+03  0.65864270000E+03 0.  1.
    8880022    1    1    2    0    0  0.36466373603E+03  0.24777490369E+02  0.15148608080E+04  0.15658187906E+04  0.15294330000E+03 0.  0.
<mgrwt>
<rscale>  0 0.64149301E+03</rscale>
<asrwt>0</asrwt>
<pdfrwt beam="1">  1        2 0.31224833E+00 0.75326209E+03</pdfrwt>
<pdfrwt beam="2">  1       -2 0.48523087E-01 0.75326209E+03</pdfrwt>
<totfact> 0.26733103E+01</totfact>
</mgrwt>
</event>
<event>
 4    5  0.8511149E-008  0.1146985E+04  0.7818608E-02  0.9210463E-01
          2   -1    0    0  501    0  0.00000000000E+00  0.00000000000E+00  0.25046276655E+04  0.25046276655E+04  0.25500000000E-02 0. -1.
         -2   -1    0    0    0  501 -0.00000000000E+00 -0.00000000000E+00 -0.10133690066E+04  0.10133690066E+04  0.25500000000E-02 0.  1.
    8880023    1    1    2    0    0 -0.78018220773E+02  0.93577663023E+03 -0.54541885878E+03  0.12700616844E+04  0.65864270000E+03 0.  0.
    8880022    1    1    2    0    0  0.78018220773E+02 -0.93577663023E+03  0.20366775177E+04  0.22479349876E+04  0.15294330000E+03 0.  0.
<mgrwt>
<rscale>  0 0.10946085E+04</rscale>
<asrwt>0</asrwt>
<pdfrwt beam="1">  1        2 0.38532733E+00 0.11469852E+04</pdfrwt>
<pdfrwt beam="2">  1       -2 0.15590293E+00 0.11469852E+04</pdfrwt>
<totfact> 0.92035834E-01</totfact>
</mgrwt>
</event>
<event>
 4    5  0.8511149E-008  0.8041021E+03  0.7818608E-02  0.9701996E-01
         -2   -1    0    0    0  501 -0.00000000000E+00  0.00000000000E+00  0.85320201896E+03  0.85320201896E+03  0.25500000000E-02 0.  1.
          2   -1    0    0  501    0  0.00000000000E+00 -0.00000000000E+00 -0.10998109822E+04  0.10998109822E+04  0.25500000000E-02 0. -1.
    8880023    1    1    2    0    0 -0.29558176628E+03  0.35412055373E+03  0.58185302241E+03  0.99253871113E+03  0.65864270000E+03 0.  1.
    8880022    1    1    2    0    0  0.29558176628E+03 -0.35412055373E+03 -0.82846198565E+03  0.96047429003E+03  0.15294330000E+03 0.  0.
<mgrwt>
<rscale>  0 0.70898092E+03</rscale>
<asrwt>0</asrwt>
<pdfrwt beam="1">  1        2 0.16920169E+00 0.80410208E+03</pdfrwt>
<pdfrwt beam="2">  1       -2 0.13126185E+00 0.80410208E+03</pdfrwt>
<totfact> 0.93474390E+00</totfact>
</mgrwt>
</event>
<event>
 4    5  0.8511149E-008  0.1105197E+04  0.7818608E-02  0.9255292E-01
          2   -1    0    0  501    0  0.00000000000E+00  0.00000000000E+00  0.27924444501E+04  0.27924444501E+04  0.25500000000E-02 0. -1.
         -2   -1    0    0    0  501 -0.00000000000E+00 -0.00000000000E+00 -0.62916881691E+03  0.62916881692E+03  0.25500000000E-02 0.  1.
    8880023    1    1    2    0    0 -0.80475259101E+03  0.37419642373E+03  0.29518804357E+02  0.11055909109E+04  0.65864270000E+03 0.  0.
    8880022    1    1    2    0    0  0.80475259101E+03 -0.37419642373E+03  0.21337568288E+04  0.23160223561E+04  0.15294330000E+03 0.  0.
<mgrwt>
<rscale>  0 0.10500502E+04</rscale>
<asrwt>0</asrwt>
<pdfrwt beam="1">  1        2 0.42960684E+00 0.11051968E+04</pdfrwt>
<pdfrwt beam="2">  1       -2 0.96795203E-01 0.11051968E+04</pdfrwt>
<totfact> 0.20841987E+00</totfact>
</mgrwt>
</event>
<event>
 4    5  0.8511149E-008  0.7375264E+03  0.7818608E-02  0.9867212E-01
          2   -1    0    0  501    0  0.00000000000E+00  0.00000000000E+00  0.20653719950E+04  0.20653719950E+04  0.25500000000E-02 0. -1.
         -2   -1    0    0    0  501 -0.00000000000E+00 -0.00000000000E+00 -0.24123138024E+03  0.24123138025E+03  0.25500000000E-02 0.  1.
    8880023    1    1    2    0    0  0.21240708525E+03  0.25498668142E+03  0.40548644242E+03  0.84164389074E+03  0.65864270000E+03 0.  0.
    8880022    1    1    2    0    0 -0.21240708525E+03 -0.25498668142E+03  0.14186541723E+04  0.14649594845E+04  0.15294330000E+03 0. -1.
<mgrwt>
<rscale>  0 0.61876988E+03</rscale>
<asrwt>0</asrwt>
<pdfrwt beam="1">  1        2 0.31774953E+00 0.73752640E+03</pdfrwt>
<pdfrwt beam="2">  1       -2 0.37112521E-01 0.73752640E+03</pdfrwt>
<totfact> 0.43452365E+01</totfact>
</mgrwt>
</event>
<event>
 4    5  0.8511149E-008  0.1850235E+04  0.7818608E-02  0.8695245E-01
         -2   -1    0    0    0  501 -0.00000000000E+00  0.00000000000E+00  0.22241887570E+04  0.22241887570E+04  0.25500000000E-02 0.  1.
          2   -1    0    0  501    0  0.00000000000E+00 -0.00000000000E+00 -0.24319115377E+04  0.24319115377E+04  0.25500000000E-02 0. -1.
    8880023    1    1    2    0    0  0.28475489189E+03  0.17054254058E+04  0.13764597974E+04  0.23060817295E+04  0.65864270000E+03 0.  0.
    8880022    1    1    2    0    0 -0.28475489189E+03 -0.17054254058E+04 -0.15841825781E+04  0.23500185652E+04  0.15294330000E+03 0.  0.
<mgrwt>
<rscale>  0 0.18209344E+04</rscale>
<asrwt>0</asrwt>
<pdfrwt beam="1">  1        2 0.37414024E+00 0.18502355E+04</pdfrwt>
<pdfrwt beam="2">  1       -2 0.34218288E+00 0.18502355E+04</pdfrwt>
<totfact> 0.59702548E-02</totfact>
</mgrwt>
</event>
<event>
 4    5  0.8511149E-008  0.1286282E+04  0.7818608E-02  0.9077498E-01
          2   -1    0    0  501    0  0.00000000000E+00  0.00000000000E+00  0.20900719337E+04  0.20900719337E+04  0.25500000000E-02 0. -1.
         -2   -1    0    0    0  501 -0.00000000000E+00 -0.00000000000E+00 -0.10681886879E+04  0.10681886879E+04  0.25500000000E-02 0.  1.
    8880023    1    1    2    0    0  0.10014284863E+04  0.46674672798E+03 -0.40373231222E+03  0.13481548529E+04  0.65864270000E+03 0.  0.
    8880022    1    1    2    0    0 -0.10014284863E+04 -0.46674672798E+03  0.14256155581E+04  0.18101057687E+04  0.15294330000E+03 0.  0.
<mgrwt>
<rscale>  0 0.12412499E+04</rscale>
<asrwt>0</asrwt>
<pdfrwt beam="1">  1        2 0.32154953E+00 0.12862821E+04</pdfrwt>
<pdfrwt beam="2">  1       -2 0.16433672E+00 0.12862821E+04</pdfrwt>
<totfact> 0.13421586E+00</totfact>
</mgrwt>
</event>
<event>
 4    5  0.8511149E-008  0.1153803E+04  0.7818608E-02  0.9203392E-01
         -2   -1    0    0    0  501 -0.00000000000E+00  0.00000000000E+00  0.21659834641E+04  0.21659834641E+04  0.25500000000E-02 0.  1.
          2   -1    0    0  501    0  0.00000000000E+00 -0.00000000000E+00 -0.11843241105E+04  0.11843241105E+04  0.25500000000E-02 0. -1.
    8880023    1    1    2    0    0 -0.66775603739E+03 -0.67197757702E+03 -0.74605031219E+03  0.13739917263E+04  0.65864270000E+03 0.  0.
    8880022    1    1    2    0    0  0.66775603739E+03  0.67197757702E+03  0.17277096658E+04  0.19763158482E+04  0.15294330000E+03 0.  0.
<mgrwt>
<rscale>  0 0.11018490E+04</rscale>
<asrwt>0</asrwt>
<pdfrwt beam="1">  1        2 0.18220371E+00 0.11538034E+04</pdfrwt>
<pdfrwt beam="2">  1       -2 0.33322822E+00 0.11538034E+04</pdfrwt>
<totfact> 0.37826160E-01</totfact>
</mgrwt>
</event>
<event>
 4    5  0.8511149E-008  0.1065438E+04  0.7818608E-02  0.9300549E-01
          2   -1    0    0  501    0  0.00000000000E+00  0.00000000000E+00  0.16843623494E+04  0.16843623494E+04  0.25500000000E-02 0. -1.
         -2   -1    0    0    0  501 -0.00000000000E+00 -0.00000000000E+00 -0.12051272868E+04  0.12051272868E+04  0.25500000000E-02 0.  1.
    8880023    1    1    2    0    0  0.41062928483E+03  0.72988504679E+03 -0.81427549037E+03  0.13409710555E+04  0.65864270000E+03 0.  1.
    8880022    1    1    2    0    0 -0.41062928483E+03 -0.72988504679E+03  0.12935105530E+04  0.15485185807E+04  0.15294330000E+03 0.  0.
<mgrwt>
<rscale>  0 0.10073236E+04</rscale>
<asrwt>0</asrwt>
<pdfrwt beam="1">  1        2 0.25913267E+00 0.10654383E+04</pdfrwt>
<pdfrwt beam="2">  1       -2 0.18540420E+00 0.10654383E+04</pdfrwt>
<totfact> 0.16423944E+00</totfact>
</mgrwt>
</event>
<event>
 4    5  0.8511149E-008  0.1390849E+04  0.7818608E-02  0.8990826E-01
         -2   -1    0    0    0  501 -0.00000000000E+00  0.00000000000E+00  0.68562068877E+03  0.68562068877E+03  0.25500000000E-02 0.  1.
          2   -1    0    0  501    0  0.00000000000E+00 -0.00000000000E+00 -0.29398684811E+04  0.29398684811E+04  0.25500000000E-02 0. -1.
    8880023    1    1    2    0    0  0.11160187557E+04  0.50512785943E+03 -0.18739894743E+04  0.23337306557E+04  0.65864270000E+03 0.  0.
    8880022    1    1    2    0    0 -0.11160187557E+04 -0.50512785943E+03 -0.38025831805E+03  0.12917585142E+04  0.15294330000E+03 0.  0.
<mgrwt>
<rscale>  0 0.13500031E+04</rscale>
<asrwt>0</asrwt>
<pdfrwt beam="1">  1        2 0.45228745E+00 0.13908495E+04</pdfrwt>
<pdfrwt beam="2">  1       -2 0.10548011E+00 0.13908495E+04</pdfrwt>
<totfact> 0.13336194E+00</totfact>
</mgrwt>
</event>
<event>
 4    5  0.8511149E-008  0.9185842E+03  0.7818608E-02  0.9496833E-01
          2   -1    0    0  501    0  0.00000000000E+00  0.00000000000E+00  0.28642185925E+04  0.28642185925E+04  0.25500000000E-02 0. -1.
         -2   -1    0    0    0  501 -0.00000000000E+00 -0.00000000000E+00 -0.43183785698E+03  0.43183785699E+03  0.25500000000E-02 0.  1.
    8880023    1    1    2    0    0 -0.63253399532E+03 -0.99435508541E+02  0.16276294591E+03  0.93289262963E+03  0.65864270000E+03 0.  0.
    8880022    1    1    2    0    0  0.63253399532E+03  0.99435508541E+02  0.22696177896E+04  0.23631638198E+04  0.15294330000E+03 0.  0.
<mgrwt>
<rscale>  0 0.84517690E+03</rscale>
<asrwt>0</asrwt>
<pdfrwt beam="1">  1        2 0.44064901E+00 0.91858417E+03</pdfrwt>
<pdfrwt beam="2">  1       -2 0.66436594E-01 0.91858417E+03</pdfrwt>
<totfact> 0.45391942E+00</totfact>
</mgrwt>
</event>
<event>
 4    5  0.8511149E-008  0.8668275E+03  0.7818608E-02  0.9581532E-01
         -2   -1    0    0    0  501 -0.00000000000E+00  0.00000000000E+00  0.90362355721E+03  0.90362355721E+03  0.25500000000E-02 0.  1.
          2   -1    0    0  501    0  0.00000000000E+00 -0.00000000000E+00 -0.85932444536E+03  0.85932444537E+03  0.25500000000E-02 0. -1.
    8880023    1    1    2    0    0  0.31918451864E+03 -0.46443615748E+03  0.51907740038E+03  0.10103619427E+04  0.65864270000E+03 0.  0.
    8880022    1    1    2    0    0 -0.31918451864E+03  0.46443615748E+03 -0.47477828854E+03  0.75258605993E+03  0.15294330000E+03 0.  0.
<mgrwt>
<rscale>  0 0.78530660E+03</rscale>
<asrwt>0</asrwt>
<pdfrwt beam="1">  1        2 0.13220376E+00 0.86682750E+03</pdfrwt>
<pdfrwt beam="2">  1       -2 0.13901901E+00 0.86682750E+03</pdfrwt>
<totfact> 0.11481314E+01</totfact>
</mgrwt>
</event>
<event>
 4    5  0.8511149E-008  0.1028633E+04  0.7818608E-02  0.9345020E-01
          2   -1    0    0  501    0  0.00000000000E+00  0.00000000000E+00  0.29609905980E+04  0.29609905980E+04  0.25500000000E-02 0. -1.
         -2   -1    0    0    0  501 -0.00000000000E+00 -0.00000000000E+00 -0.58503578017E+03  0.58503578018E+03  0.25500000000E-02 0.  1.
    8880023    1    1    2    0    0 -0.64337438669E+03  0.45863405689E+03 -0.92894880840E+01  0.10286750218E+04  0.65864270000E+03 0.  1.
    8880022    1    1    2    0    0  0.64337438669E+03 -0.45863405689E+03  0.23852443059E+04  0.25173513564E+04  0.15294330000E+03 0.  0.
<mgrwt>
<rscale>  0 0.96741847E+03</rscale>
<asrwt>0</asrwt>
<pdfrwt beam="1">  1        2 0.45553701E+00 0.10286331E+04</pdfrwt>
<pdfrwt beam="2">  1       -2 0.90005506E-01 0.10286331E+04</pdfrwt>
<totfact> 0.19751647E+00</totfact>
</mgrwt>
</event>
<event>
 4    5  0.8511149E-008  0.1069141E+04  0.7818608E-02  0.9296218E-01
         -2   -1    0    0    0  501 -0.00000000000E+00  0.00000000000E+00  0.60868680632E+03  0.60868680633E+03  0.25500000000E-02 0.  1.
          2   -1    0    0  501    0  0.00000000000E+00 -0.00000000000E+00 -0.21738126801E+04  0.21738126801E+04  0.25500000000E-02 0. -1.
    8880023    1    1    2    0    0 -0.67578668826E+03 -0.50255772183E+03 -0.16017280541E+04  0.19257712422E+04  0.65864270000E+03 0. -1.
    8880022    1    1    2    0    0  0.67578668826E+03  0.50255772183E+03  0.36602180315E+02  0.85672824421E+03  0.15294330000E+03 0.  0.
<mgrwt>
<rscale>  0 0.10113181E+04</rscale>
<asrwt>0</asrwt>
<pdfrwt beam="1">  1        2 0.33443272E+00 0.10691408E+04</pdfrwt>
<pdfrwt beam="2">  1       -2 0.93644125E-01 0.10691408E+04</pdfrwt>
<totfact> 0.51237347E+00</totfact>
</mgrwt>
</event>
<event>
 4    5  0.8511149E-008  0.6771880E+03  0.7818608E-02  0.1010961E+00
         -2   -1    0    0    0  501 -0.00000000000E+00  0.00000000000E+00  0.24064983965E+03  0.24064983966E+03  0.25500000000E-02 0.  1.
          2   -1    0    0  501    0  0.00000000000E+00 -0.00000000000E+00 -0.12285428650E+04  0.12285428650E+04  0.25500000000E-02 0. -1.
    8880023    1    1    2    0    0 -0.21136849152E+02 -0.15596981520E+03 -0.28833430270E+03  0.73601645771E+03  0.65864270000E+03 0.  1.
    8880022    1    1    2    0    0  0.21136849152E+02  0.15596981520E+03 -0.69955872264E+03  0.73317624694E+03  0.15294330000E+03 0.  0.
<mgrwt>
<rscale>  0 0.51094409E+03</rscale>
<asrwt>0</asrwt>
<pdfrwt beam="1">  1        2 0.18900659E+00 0.67718798E+03</pdfrwt>
<pdfrwt beam="2">  1       -2 0.37023053E-01 0.67718798E+03</pdfrwt>
<totfact> 0.12773262E+02</totfact>
</mgrwt>
</event>
<event>
 4    5  0.8511149E-008  0.1139186E+04  0.7818608E-02  0.9218632E-01
         -2   -1    0    0    0  501 -0.00000000000E+00  0.00000000000E+00  0.65889836275E+03  0.65889836275E+03  0.25500000000E-02 0.  1.
          2   -1    0    0  501    0  0.00000000000E+00 -0.00000000000E+00 -0.17833451592E+04  0.17833451592E+04  0.25500000000E-02 0. -1.
    8880023    1    1    2    0    0 -0.64212548156E+03  0.67201891502E+03 -0.95201078261E+03  0.14846108220E+04  0.65864270000E+03 0.  0.
    8880022    1    1    2    0    0  0.64212548156E+03 -0.67201891502E+03 -0.17243601384E+03  0.95763270000E+03  0.15294330000E+03 0.  0.
<mgrwt>
<rscale>  0 0.10863165E+04</rscale>
<asrwt>0</asrwt>
<pdfrwt beam="1">  1        2 0.27436079E+00 0.11391860E+04</pdfrwt>
<pdfrwt beam="2">  1       -2 0.10136898E+00 0.11391860E+04</pdfrwt>
<totfact> 0.69321826E+00</totfact>
</mgrwt>
</event>
<event>
 4    5  0.8511149E-008  0.9341576E+03  0.7818608E-02  0.9473284E-01
          2   -1    0    0  501    0  0.00000000000E+00  0.00000000000E+00  0.14268583495E+04  0.14268583495E+04  0.25500000000E-02 0. -1.
         -2   -1    0    0    0  501 -0.00000000000E+00 -0.00000000000E+00 -0.49967372938E+03  0.49967372938E+03  0.25500000000E-02 0.  1.
    8880023    1    1    2    0    0  0.65726396475E+03 -0.82730527554E+02  0.25019827723E+03  0.96708305938E+03  0.65864270000E+03 0.  0.
    8880022    1    1    2    0    0 -0.65726396475E+03  0.82730527554E+02  0.67698634288E+03  0.95944901950E+03  0.15294330000E+03 0.  0.
<mgrwt>
<rscale>  0 0.86282479E+03</rscale>
<asrwt>0</asrwt>
<pdfrwt beam="1">  1        2 0.21951667E+00 0.93415762E+03</pdfrwt>
<pdfrwt beam="2">  1       -2 0.76872881E-01 0.93415762E+03</pdfrwt>
<totfact> 0.21174494E+01</totfact>
</mgrwt>
</event>
<event>
 4    5  0.8511149E-008  0.1037562E+04  0.7818608E-02  0.9333985E-01
         -2   -1    0    0    0  501 -0.00000000000E+00  0.00000000000E+00  0.12480226015E+04  0.12480226015E+04  0.25500000000E-02 0.  1.
          2   -1    0    0  501    0  0.00000000000E+00 -0.00000000000E+00 -0.27831960651E+04  0.27831960651E+04  0.25500000000E-02 0. -1.
    8880023    1    1    2    0    0  0.64107483107E+03  0.48140211680E+03  0.95533425183E+03  0.14103895476E+04  0.65864270000E+03 0.  1.
    8880022    1    1    2    0    0 -0.64107483107E+03 -0.48140211680E+03 -0.24905077154E+04  0.26208291189E+04  0.15294330000E+03 0.  0.
<mgrwt>
<rscale>  0 0.97713453E+03</rscale>
<asrwt>0</asrwt>
<pdfrwt beam="1">  1        2 0.42818401E+00 0.10375621E+04</pdfrwt>
<pdfrwt beam="2">  1       -2 0.19200348E+00 0.10375621E+04</pdfrwt>
<totfact> 0.35764784E-01</totfact>
</mgrwt>
</event>
<event>
 4    5  0.1174348E-007  0.1021057E+04  0.7818608E-02  0.9354512E-01
          2   -1    0    0  501    0  0.00000000000E+00  0.00000000000E+00  0.30524717007E+04  0.30524717007E+04  0.25500000000E-02 0. -1.
         -2   -1    0    0    0  501 -0.00000000000E+00 -0.00000000000E+00 -0.17024795676E+04  0.17024795676E+04  0.25500000000E-02 0.  1.
    8880023    1    1    2    0    0  0.77263179616E+03  0.10857385076E+03 -0.14897106765E+04  0.18060443736E+04  0.65864270000E+03 0.  0.
    8880022    1    1    2    0    0 -0.77263179616E+03 -0.10857385076E+03  0.28397028096E+04  0.29489068947E+04  0.15294330000E+03 0.  0.
<mgrwt>
<rscale>  0 0.95915609E+03</rscale>
<asrwt>0</asrwt>
<pdfrwt beam="1">  1        2 0.46961103E+00 0.10210575E+04</pdfrwt>
<pdfrwt beam="2">  1       -2 0.26191993E+00 0.10210575E+04</pdfrwt>
<totfact> 0.89427519E-02</totfact>
</mgrwt>
</event>
<event>
 4    5  0.8511149E-008  0.2108714E+04  0.7818608E-02  0.8568617E-01
          2   -1    0    0  501    0  0.00000000000E+00  0.00000000000E+00  0.34282548206E+04  0.34282548206E+04  0.25500000000E-02 0. -1.
         -2   -1    0    0    0  501 -0.00000000000E+00 -0.00000000000E+00 -0.13847735970E+04  0.13847735970E+04  0.25500000000E-02 0.  1.
    8880023    1    1    2    0    0  0.72558254509E+03  0.18671888457E+04  0.18311249036E+04  0.27927930167E+04  0.65864270000E+03 0.  0.
    8880022    1    1    2    0    0 -0.72558254509E+03 -0.18671888457E+04  0.21235631999E+03  0.20202354008E+04  0.15294330000E+03 0.  0.
<mgrwt>
<rscale>  0 0.20833421E+04</rscale>
<asrwt>0</asrwt>
<pdfrwt beam="1">  1        2 0.52742381E+00 0.21087139E+04</pdfrwt>
<pdfrwt beam="2">  1       -2 0.21304209E+00 0.21087139E+04</pdfrwt>
<totfact> 0.88096759E-02</totfact>
</mgrwt>
</event>
<event>
 4    5  0.8511149E-008  0.8727973E+03  0.7818608E-02  0.9571193E-01
          2   -1    0    0  501    0  0.00000000000E+00  0.00000000000E+00  0.24652450398E+04  0.24652450398E+04  0.25500000000E-02 0. -1.
         -2   -1    0    0    0  501 -0.00000000000E+00 -0.00000000000E+00 -0.50326211576E+03  0.50326211577E+03  0.25500000000E-02 0.  1.
    8880023    1    1    2    0    0 -0.40656652666E+03 -0.40332203483E+03 -0.46842521287E+02  0.87405344942E+03  0.65864270000E+03 0.  0.
    8880022    1    1    2    0    0  0.40656652666E+03  0.40332203483E+03  0.20088254454E+04  0.20944537062E+04  0.15294330000E+03 0.  0.
<mgrwt>
<rscale>  0 0.79232542E+03</rscale>
<asrwt>0</asrwt>
<pdfrwt beam="1">  1        2 0.37926848E+00 0.87279735E+03</pdfrwt>
<pdfrwt beam="2">  1       -2 0.77424939E-01 0.87279735E+03</pdfrwt>
<totfact> 0.55750642E+00</totfact>
</mgrwt>
</event>
<event>
 4    5  0.8511149E-008  0.9522695E+03  0.7818608E-02  0.9446856E-01
         -2   -1    0    0    0  501 -0.00000000000E+00  0.00000000000E+00  0.32270092884E+03  0.32270092885E+03  0.25500000000E-02 0.  1.
          2   -1    0    0  501    0  0.00000000000E+00 -0.00000000000E+00 -0.42373121288E+04  0.42373121288E+04  0.25500000000E-02 0. -1.
    8880023    1    1    2    0    0 -0.58578942044E+03 -0.36035770865E+03 -0.50405910455E+03  0.10774473121E+04  0.65864270000E+03 0.  1.
    8880022    1    1    2    0    0  0.58578942044E+03  0.36035770865E+03 -0.34105520954E+04  0.34825657455E+04  0.15294330000E+03 0.  0.
<mgrwt>
<rscale>  0 0.88317895E+03</rscale>
<asrwt>0</asrwt>
<pdfrwt beam="1">  1        2 0.65189414E+00 0.95226946E+03</pdfrwt>
<pdfrwt beam="2">  1       -2 0.49646300E-01 0.95226946E+03</pdfrwt>
<totfact> 0.88992585E-01</totfact>
</mgrwt>
</event>
<event>
 4    5  0.8511149E-008  0.1013315E+04  0.7818608E-02  0.9364342E-01
         -2   -1    0    0    0  501 -0.00000000000E+00  0.00000000000E+00  0.48137554372E+03  0.48137554373E+03  0.25500000000E-02 0.  1.
          2   -1    0    0  501    0  0.00000000000E+00 -0.00000000000E+00 -0.18342074806E+04  0.18342074806E+04  0.25500000000E-02 0. -1.
    8880023    1    1    2    0    0 -0.70113853140E+03  0.31843553991E+03 -0.42149950695E+03  0.10974827898E+04  0.65864270000E+03 0. -1.
    8880022    1    1    2    0    0  0.70113853140E+03 -0.31843553991E+03 -0.93133242991E+03  0.12181002345E+04  0.15294330000E+03 0.  0.
<mgrwt>
<rscale>  0 0.95069242E+03</rscale>
<asrwt>0</asrwt>
<pdfrwt beam="1">  1        2 0.28218576E+00 0.10133147E+04</pdfrwt>
<pdfrwt beam="2">  1       -2 0.74057777E-01 0.10133147E+04</pdfrwt>
<totfact> 0.13553471E+01</totfact>
</mgrwt>
</event>
<event>
 4    5  0.8511149E-008  0.6889555E+03  0.7818608E-02  0.1004653E+00
          2   -1    0    0  501    0  0.00000000000E+00  0.00000000000E+00  0.41065545642E+03  0.41065545642E+03  0.25500000000E-02 0. -1.
         -2   -1    0    0    0  501 -0.00000000000E+00 -0.00000000000E+00 -0.12420945238E+04  0.12420945238E+04  0.25500000000E-02 0.  1.
    8880023    1    1    2    0    0  0.10513484448E+03 -0.17261544727E+03 -0.10907688317E+04  0.12901303340E+04  0.65864270000E+03 0.  1.
    8880022    1    1    2    0    0 -0.10513484448E+03  0.17261544727E+03  0.25932976433E+03  0.36261964624E+03  0.15294330000E+03 0.  0.
<mgrwt>
<rscale>  0 0.53656207E+03</rscale>
<asrwt>0</asrwt>
<pdfrwt beam="1">  1        2 0.63177763E-01 0.68895547E+03</pdfrwt>
<pdfrwt beam="2">  1       -2 0.19109146E+00 0.68895547E+03</pdfrwt>
<totfact> 0.12043248E+01</totfact>
</mgrwt>
</event>
<event>
 4    5  0.8511149E-008  0.9612841E+03  0.7818608E-02  0.9434061E-01
         -2   -1    0    0    0  501 -0.00000000000E+00  0.00000000000E+00  0.93102734341E+03  0.93102734341E+03  0.25500000000E-02 0.  1.
          2   -1    0    0  501    0  0.00000000000E+00 -0.00000000000E+00 -0.24748292783E+04  0.24748292783E+04  0.25500000000E-02 0. -1.
    8880023    1    1    2    0    0 -0.33179791988E+03 -0.61657690462E+03  0.60828097946E+03  0.11375732483E+04  0.65864270000E+03 0.  0.
    8880022    1    1    2    0    0  0.33179791988E+03  0.61657690462E+03 -0.21520829143E+04  0.22682833734E+04  0.15294330000E+03 0.  0.
<mgrwt>
<rscale>  0 0.89324807E+03</rscale>
<asrwt>0</asrwt>
<pdfrwt beam="1">  1        2 0.38074296E+00 0.96128411E+03</pdfrwt>
<pdfrwt beam="2">  1       -2 0.14323498E+00 0.96128411E+03</pdfrwt>
<totfact> 0.12323125E+00</totfact>
</mgrwt>
</event>
<event>
 4    5  0.8511149E-008  0.2858114E+04  0.7818608E-02  0.8291031E-01
         -2   -1    0    0    0  501 -0.00000000000E+00  0.00000000000E+00  0.28140811267E+04  0.28140811267E+04  0.25500000000E-02 0.  1.
          2   -1    0    0  501    0  0.00000000000E+00 -0.00000000000E+00 -0.32195424212E+04  0.32195424212E+04  0.25500000000E-02 0. -1.
    8880023    1    1    2    0    0  0.26553353236E+04 -0.82716487350E+03 -0.12550676869E+04  0.31215400868E+04  0.65864270000E+03 0.  0.
    8880022    1    1    2    0    0 -0.26553353236E+04  0.82716487350E+03  0.84960639239E+03  0.29120834610E+04  0.15294330000E+03 0.  0.
<mgrwt>
<rscale>  0 0.28397572E+04</rscale>
<asrwt>0</asrwt>
<pdfrwt beam="1">  1        2 0.49531422E+00 0.28581143E+04</pdfrwt>
<pdfrwt beam="2">  1       -2 0.43293556E+00 0.28581143E+04</pdfrwt>
<totfact> 0.45539488E-03</totfact>
</mgrwt>
</event>
<event>
 4    5  0.8511149E-008  0.1657400E+04  0.7818608E-02  0.8805811E-01
          2   -1    0    0  501    0  0.00000000000E+00  0.00000000000E+00  0.27592981530E+04  0.27592981530E+04  0.25500000000E-02 0. -1.
         -2   -1    0    0    0  501 -0.00000000000E+00 -0.00000000000E+00 -0.11546344929E+04  0.11546344929E+04  0.25500000000E-02 0.  1.
    8880023    1    1    2    0    0  0.28248241337E+03 -0.14944459165E+04 -0.54071907943E+02  0.16582819086E+04  0.65864270000E+03 0.  1.
    8880022    1    1    2    0    0 -0.28248241337E+03  0.14944459165E+04  0.16587355680E+04  0.22556507373E+04  0.15294330000E+03 0.  0.
<mgrwt>
<rscale>  0 0.16242114E+04</rscale>
<asrwt>0</asrwt>
<pdfrwt beam="1">  1        2 0.42450741E+00 0.16574001E+04</pdfrwt>
<pdfrwt beam="2">  1       -2 0.17763608E+00 0.16574001E+04</pdfrwt>
<totfact> 0.42714677E-01</totfact>
</mgrwt>
</event>
<event>
 4    5  0.8511149E-008  0.8023017E+03  0.7818608E-02  0.9705841E-01
          2   -1    0    0  501    0  0.00000000000E+00  0.00000000000E+00  0.34862698805E+04  0.34862698805E+04  0.25500000000E-02 0. -1.
         -2   -1    0    0    0  501 -0.00000000000E+00 -0.00000000000E+00 -0.51326008534E+03  0.51326008535E+03  0.25500000000E-02 0.  1.
    8880023    1    1    2    0    0  0.31474808030E+03  0.33288358060E+03 -0.16959244775E+03  0.82003026583E+03  0.65864270000E+03 0.  1.
    8880022    1    1    2    0    0 -0.31474808030E+03 -0.33288358060E+03  0.31426022429E+04  0.31794997000E+04  0.15294330000E+03 0.  0.
<mgrwt>
<rscale>  0 0.70670072E+03</rscale>
<asrwt>0</asrwt>
<pdfrwt beam="1">  1        2 0.53634923E+00 0.80230171E+03</pdfrwt>
<pdfrwt beam="2">  1       -2 0.78963088E-01 0.80230171E+03</pdfrwt>
<totfact> 0.12717573E+00</totfact>
</mgrwt>
</event>
<event>
 4    5  0.8511149E-008  0.8140054E+03  0.7818608E-02  0.9681293E-01
          2   -1    0    0  501    0  0.00000000000E+00  0.00000000000E+00  0.10383355119E+04  0.10383355119E+04  0.25500000000E-02 0. -1.
         -2   -1    0    0    0  501 -0.00000000000E+00 -0.00000000000E+00 -0.45994913011E+03  0.45994913011E+03  0.25500000000E-02 0.  1.
    8880023    1    1    2    0    0 -0.22922953436E+03  0.41981956213E+03  0.12855762187E+03  0.82409460171E+03  0.65864270000E+03 0.  1.
    8880022    1    1    2    0    0  0.22922953436E+03 -0.41981956213E+03  0.44982875993E+03  0.67419004031E+03  0.15294330000E+03 0.  0.
<mgrwt>
<rscale>  0 0.72141582E+03</rscale>
<asrwt>0</asrwt>
<pdfrwt beam="1">  1        2 0.15974392E+00 0.81400544E+03</pdfrwt>
<pdfrwt beam="2">  1       -2 0.70761406E-01 0.81400544E+03</pdfrwt>
<totfact> 0.43674412E+01</totfact>
</mgrwt>
</event>
<event>
 4    5  0.8511149E-008  0.8093158E+03  0.7818608E-02  0.9691004E-01
          2   -1    0    0  501    0  0.00000000000E+00  0.00000000000E+00  0.13787132875E+04  0.13787132875E+04  0.25500000000E-02 0. -1.
         -2   -1    0    0    0  501 -0.00000000000E+00 -0.00000000000E+00 -0.52309527539E+03  0.52309527540E+03  0.25500000000E-02 0.  1.
    8880023    1    1    2    0    0  0.37629947253E+03  0.28210024505E+03 -0.11015522010E+03  0.81677795028E+03  0.65864270000E+03 0.  1.
    8880022    1    1    2    0    0 -0.37629947253E+03 -0.28210024505E+03  0.96577323216E+03  0.10850306126E+04  0.15294330000E+03 0.  0.
<mgrwt>
<rscale>  0 0.71554950E+03</rscale>
<asrwt>0</asrwt>
<pdfrwt beam="1">  1        2 0.21210973E+00 0.80931579E+03</pdfrwt>
<pdfrwt beam="2">  1       -2 0.80476197E-01 0.80931579E+03</pdfrwt>
<totfact> 0.20605271E+01</totfact>
</mgrwt>
</event>
<event>
 4    5  0.8511149E-008  0.7088569E+03  0.7818608E-02  0.9962270E-01
          2   -1    0    0  501    0  0.00000000000E+00  0.00000000000E+00  0.79677835183E+03  0.79677835184E+03  0.25500000000E-02 0. -1.
         -2   -1    0    0    0  501 -0.00000000000E+00 -0.00000000000E+00 -0.78426807595E+03  0.78426807595E+03  0.25500000000E-02 0.  1.
    8880023    1    1    2    0    0  0.18443553932E+03  0.18614890738E+03 -0.57964873994E+03  0.91568048568E+03  0.65864270000E+03 0.  1.
    8880022    1    1    2    0    0 -0.18443553932E+03 -0.18614890738E+03  0.59215901582E+03  0.66536594211E+03  0.15294330000E+03 0.  0.
<mgrwt>
<rscale>  0 0.57336017E+03</rscale>
<asrwt>0</asrwt>
<pdfrwt beam="1">  1        2 0.12258128E+00 0.70885689E+03</pdfrwt>
<pdfrwt beam="2">  1       -2 0.12065663E+00 0.70885689E+03</pdfrwt>
<totfact> 0.18484573E+01</totfact>
</mgrwt>
</event>
<event>
 4    5  0.8511149E-008  0.9634222E+03  0.7818608E-02  0.9431060E-01
         -2   -1    0    0    0  501 -0.00000000000E+00  0.00000000000E+00  0.89626404244E+03  0.89626404245E+03  0.25500000000E-02 0.  1.
          2   -1    0    0  501    0  0.00000000000E+00 -0.00000000000E+00 -0.28853109966E+04  0.28853109966E+04  0.25500000000E-02 0. -1.
    8880023    1    1    2    0    0 -0.47969441229E+03  0.51406751150E+03  0.57263266626E+03  0.11207544389E+04  0.65864270000E+03 0.  1.
    8880022    1    1    2    0    0  0.47969441229E+03 -0.51406751150E+03 -0.25616796204E+04  0.26608206002E+04  0.15294330000E+03 0.  0.
<mgrwt>
<rscale>  0 0.89563065E+03</rscale>
<asrwt>0</asrwt>
<pdfrwt beam="1">  1        2 0.44389400E+00 0.96342220E+03</pdfrwt>
<pdfrwt beam="2">  1       -2 0.13788678E+00 0.96342220E+03</pdfrwt>
<totfact> 0.78228863E-01</totfact>
</mgrwt>
</event>
<event>
 4    5  0.8511149E-008  0.7598930E+03  0.7818608E-02  0.9805385E-01
          2   -1    0    0  501    0  0.00000000000E+00  0.00000000000E+00  0.72448407519E+03  0.72448407519E+03  0.25500000000E-02 0. -1.
         -2   -1    0    0    0  501 -0.00000000000E+00 -0.00000000000E+00 -0.47727830713E+03  0.47727830714E+03  0.25500000000E-02 0.  1.
    8880023    1    1    2    0    0 -0.36065383183E+03  0.11643010783E+03  0.95663076484E+02  0.76589084528E+03  0.65864270000E+03 0.  0.
    8880022    1    1    2    0    0  0.36065383183E+03 -0.11643010783E+03  0.15154269157E+03  0.43587153704E+03  0.15294330000E+03 0.  0.
<mgrwt>
<rscale>  0 0.65074375E+03</rscale>
<asrwt>0</asrwt>
<pdfrwt beam="1">  1        2 0.11145909E+00 0.75989299E+03</pdfrwt>
<pdfrwt beam="2">  1       -2 0.73427433E-01 0.75989299E+03</pdfrwt>
<totfact> 0.66416708E+01</totfact>
</mgrwt>
</event>
<event>
 4    5  0.8511149E-008  0.9479900E+03  0.7818608E-02  0.9453012E-01
         -2   -1    0    0    0  501 -0.00000000000E+00  0.00000000000E+00  0.29265936145E+03  0.29265936146E+03  0.25500000000E-02 0.  1.
          2   -1    0    0  501    0  0.00000000000E+00 -0.00000000000E+00 -0.43542115896E+04  0.43542115896E+04  0.25500000000E-02 0. -1.
    8880023    1    1    2    0    0 -0.23056934324E+03 -0.64164835059E+03 -0.61455604134E+03  0.11297628787E+04  0.65864270000E+03 0.  0.
    8880022    1    1    2    0    0  0.23056934324E+03  0.64164835059E+03 -0.34469961868E+04  0.35171080723E+04  0.15294330000E+03 0.  0.
<mgrwt>
<rscale>  0 0.87838504E+03</rscale>
<asrwt>0</asrwt>
<pdfrwt beam="1">  1        2 0.66987866E+00 0.94799000E+03</pdfrwt>
<pdfrwt beam="2">  1       -2 0.45024520E-01 0.94799000E+03</pdfrwt>
<totfact> 0.85591925E-01</totfact>
</mgrwt>
</event>
<event>
 4    5  0.8511149E-008  0.1090641E+04  0.7818608E-02  0.9271548E-01
          2   -1    0    0  501    0  0.00000000000E+00  0.00000000000E+00  0.29763275725E+04  0.29763275725E+04  0.25500000000E-02 0. -1.
         -2   -1    0    0    0  501 -0.00000000000E+00 -0.00000000000E+00 -0.94280894136E+03  0.94280894137E+03  0.25500000000E-02 0.  1.
    8880023    1    1    2    0    0 -0.86009732010E+03 -0.12617617194E+03 -0.52661071656E+03  0.12111221571E+04  0.65864270000E+03 0.  1.
    8880022    1    1    2    0    0  0.86009732010E+03  0.12617617194E+03  0.25601293477E+04  0.27080143567E+04  0.15294330000E+03 0.  0.
<mgrwt>
<rscale>  0 0.10344491E+04</rscale>
<asrwt>0</asrwt>
<pdfrwt beam="1">  1        2 0.45789654E+00 0.10906411E+04</pdfrwt>
<pdfrwt beam="2">  1       -2 0.14504753E+00 0.10906411E+04</pdfrwt>
<totfact> 0.59051689E-01</totfact>
</mgrwt>
</event>
<event>
 4    5  0.8511149E-008  0.1153272E+04  0.7818608E-02  0.9203940E-01
          2   -1    0    0  501    0  0.00000000000E+00  0.00000000000E+00  0.12818626191E+04  0.12818626191E+04  0.25500000000E-02 0. -1.
         -2   -1    0    0    0  501 -0.00000000000E+00 -0.00000000000E+00 -0.18614168389E+04  0.18614168389E+04  0.25500000000E-02 0.  1.
    8880023    1    1    2    0    0 -0.58311304220E+03 -0.74579214269E+03 -0.14468803541E+04  0.18502701709E+04  0.65864270000E+03 0.  0.
    8880022    1    1    2    0    0  0.58311304220E+03  0.74579214269E+03  0.86732613434E+03  0.12930092871E+04  0.15294330000E+03 0.  0.
<mgrwt>
<rscale>  0 0.11012853E+04</rscale>
<asrwt>0</asrwt>
<pdfrwt beam="1">  1        2 0.19720963E+00 0.11532723E+04</pdfrwt>
<pdfrwt beam="2">  1       -2 0.28637182E+00 0.11532723E+04</pdfrwt>
<totfact> 0.63979582E-01</totfact>
</mgrwt>
</event>
<event>
 4    5  0.8511149E-008  0.7056941E+03  0.7818608E-02  0.9974352E-01
          2   -1    0    0  501    0  0.00000000000E+00  0.00000000000E+00  0.16855638412E+04  0.16855638412E+04  0.25500000000E-02 0. -1.
         -2   -1    0    0    0  501 -0.00000000000E+00 -0.00000000000E+00 -0.34012529518E+03  0.34012529519E+03  0.25500000000E-02 0.  1.
    8880023    1    1    2    0    0  0.25267231920E+03 -0.18725465425E+02  0.61821182906E+02  0.70839678773E+03  0.65864270000E+03 0.  1.
    8880022    1    1    2    0    0 -0.25267231920E+03  0.18725465425E+02  0.12836173631E+04  0.13172923487E+04  0.15294330000E+03 0.  0.
<mgrwt>
<rscale>  0 0.56789291E+03</rscale>
<asrwt>0</asrwt>
<pdfrwt beam="1">  1        2 0.25931751E+00 0.70569409E+03</pdfrwt>
<pdfrwt beam="2">  1       -2 0.52326970E-01 0.70569409E+03</pdfrwt>
<totfact> 0.35519772E+01</totfact>
</mgrwt>
</event>
<event>
 4    5  0.8511149E-008  0.1020499E+04  0.7818608E-02  0.9355217E-01
          2   -1    0    0  501    0  0.00000000000E+00  0.00000000000E+00  0.16233651547E+04  0.16233651547E+04  0.25500000000E-02 0. -1.
         -2   -1    0    0    0  501 -0.00000000000E+00 -0.00000000000E+00 -0.62561946072E+03  0.62561946073E+03  0.25500000000E-02 0.  1.
    8880023    1    1    2    0    0  0.49457200741E+03  0.60250033879E+03  0.10353465007E+04  0.14537402490E+04  0.65864270000E+03 0.  0.
    8880022    1    1    2    0    0 -0.49457200741E+03 -0.60250033879E+03 -0.37600806659E+02  0.79524436649E+03  0.15294330000E+03 0.  0.
<mgrwt>
<rscale>  0 0.95854633E+03</rscale>
<asrwt>0</asrwt>
<pdfrwt beam="1">  1        2 0.24974848E+00 0.10204991E+04</pdfrwt>
<pdfrwt beam="2">  1       -2 0.96249149E-01 0.10204991E+04</pdfrwt>
<totfact> 0.97287619E+00</totfact>
</mgrwt>
</event>
<event>
 4    5  0.8511149E-008  0.7151497E+03  0.7818608E-02  0.9939353E-01
          2   -1    0    0  501    0  0.00000000000E+00  0.00000000000E+00  0.82916097952E+03  0.82916097952E+03  0.25500000000E-02 0. -1.
         -2   -1    0    0    0  501 -0.00000000000E+00 -0.00000000000E+00 -0.52953074264E+03  0.52953074265E+03  0.25500000000E-02 0.  1.
    8880023    1    1    2    0    0  0.27449697149E+03 -0.47752405887E+02 -0.22116754339E+03  0.74856807849E+03  0.65864270000E+03 0.  1.
    8880022    1    1    2    0    0 -0.27449697149E+03  0.47752405887E+02  0.52079778027E+03  0.61012364367E+03  0.15294330000E+03 0.  0.
<mgrwt>
<rscale>  0 0.58391405E+03</rscale>
<asrwt>0</asrwt>
<pdfrwt beam="1">  1        2 0.12756323E+00 0.71514969E+03</pdfrwt>
<pdfrwt beam="2">  1       -2 0.81466268E-01 0.71514969E+03</pdfrwt>
<totfact> 0.44299498E+01</totfact>
</mgrwt>
</event>
<event>
 4    5  0.8511149E-008  0.8997401E+03  0.7818608E-02  0.9526449E-01
         -2   -1    0    0    0  501 -0.00000000000E+00  0.00000000000E+00  0.91374487442E+03  0.91374487442E+03  0.25500000000E-02 0.  1.
          2   -1    0    0  501    0  0.00000000000E+00 -0.00000000000E+00 -0.24032665448E+04  0.24032665449E+04  0.25500000000E-02 0. -1.
    8880023    1    1    2    0    0 -0.33181490195E+03 -0.51538432459E+03  0.63454154365E+03  0.11009883324E+04  0.65864270000E+03 0.  1.
    8880022    1    1    2    0    0  0.33181490195E+03  0.51538432459E+03 -0.21240632141E+04  0.22160230869E+04  0.15294330000E+03 0.  0.
<mgrwt>
<rscale>  0 0.82361627E+03</rscale>
<asrwt>0</asrwt>
<pdfrwt beam="1">  1        2 0.36973331E+00 0.89974015E+03</pdfrwt>
<pdfrwt beam="2">  1       -2 0.14057614E+00 0.89974015E+03</pdfrwt>
<totfact> 0.14351150E+00</totfact>
</mgrwt>
</event>
<event>
 4    5  0.8511149E-008  0.8700077E+03  0.7818608E-02  0.9576004E-01
         -2   -1    0    0    0  501 -0.00000000000E+00  0.00000000000E+00  0.13603028228E+04  0.13603028228E+04  0.25500000000E-02 0.  1.
          2   -1    0    0  501    0  0.00000000000E+00 -0.00000000000E+00 -0.85511721987E+03  0.85511721987E+03  0.25500000000E-02 0. -1.
    8880023    1    1    2    0    0 -0.56776199097E+03 -0.27378110204E+02  0.10839487875E+04  0.13899130978E+04  0.65864270000E+03 0.  0.
    8880022    1    1    2    0    0  0.56776199097E+03  0.27378110204E+02 -0.57876318452E+03  0.82550694490E+03  0.15294330000E+03 0.  0.
<mgrwt>
<rscale>  0 0.78904984E+03</rscale>
<asrwt>0</asrwt>
<pdfrwt beam="1">  1        2 0.13155650E+00 0.87000773E+03</pdfrwt>
<pdfrwt beam="2">  1       -2 0.20927736E+00 0.87000773E+03</pdfrwt>
<totfact> 0.36723195E+00</totfact>
</mgrwt>
</event>
<event>
 4    5  0.8511149E-008  0.1488744E+04  0.7818608E-02  0.8917625E-01
         -2   -1    0    0    0  501 -0.00000000000E+00  0.00000000000E+00  0.15035528485E+04  0.15035528485E+04  0.25500000000E-02 0.  1.
          2   -1    0    0  501    0  0.00000000000E+00 -0.00000000000E+00 -0.14526424805E+04  0.14526424805E+04  0.25500000000E-02 0. -1.
    8880023    1    1    2    0    0  0.50983771027E+03 -0.12339423623E+04 -0.39506977800E+03  0.15402722422E+04  0.65864270000E+03 0.  0.
    8880022    1    1    2    0    0 -0.50983771027E+03  0.12339423623E+04  0.44598014604E+03  0.14159230869E+04  0.15294330000E+03 0.  0.
<mgrwt>
<rscale>  0 0.14511186E+04</rscale>
<asrwt>0</asrwt>
<pdfrwt beam="1">  1        2 0.22348346E+00 0.14887439E+04</pdfrwt>
<pdfrwt beam="2">  1       -2 0.23131582E+00 0.14887439E+04</pdfrwt>
<totfact> 0.10674287E+00</totfact>
</mgrwt>
</event>
<event>
 4    5  0.8511149E-008  0.6686021E+03  0.7818608E-02  0.1016685E+00
         -2   -1    0    0    0  501 -0.00000000000E+00  0.00000000000E+00  0.20772747132E+04  0.20772747132E+04  0.25500000000E-02 0.  1.
          2   -1    0    0  501    0  0.00000000000E+00 -0.00000000000E+00 -0.12076107816E+04  0.12076107816E+04  0.25500000000E-02 0. -1.
    8880023    1    1    2    0    0 -0.23116237259E+02 -0.11262410068E+03  0.20153346645E+04  0.21233470194E+04  0.65864270000E+03 0.  1.
    8880022    1    1    2    0    0  0.23116237259E+02  0.11262410068E+03 -0.11456707330E+04  0.11615384754E+04  0.15294330000E+03 0.  0.
<mgrwt>
<rscale>  0 0.48901937E+03</rscale>
<asrwt>0</asrwt>
<pdfrwt beam="1">  1        2 0.18578627E+00 0.66860209E+03</pdfrwt>
<pdfrwt beam="2">  1       -2 0.31958072E+00 0.66860209E+03</pdfrwt>
<totfact> 0.48510518E-01</totfact>
</mgrwt>
</event>
<event>
 4    5  0.8511149E-008  0.1554122E+04  0.7818608E-02  0.8872334E-01
         -2   -1    0    0    0  501 -0.00000000000E+00  0.00000000000E+00  0.11074339637E+04  0.11074339637E+04  0.25500000000E-02 0.  1.
          2   -1    0    0  501    0  0.00000000000E+00 -0.00000000000E+00 -0.40743846141E+04  0.40743846141E+04  0.25500000000E-02 0. -1.
    8880023    1    1    2    0    0  0.49409143521E+03  0.13180894843E+04  0.33434839335E+03  0.15896808766E+04  0.65864270000E+03 0.  1.
    8880022    1    1    2    0    0 -0.49409143521E+03 -0.13180894843E+04 -0.33012990437E+04  0.35921377012E+04  0.15294330000E+03 0.  0.
<mgrwt>
<rscale>  0 0.15183605E+04</rscale>
<asrwt>0</asrwt>
<pdfrwt beam="1">  1        2 0.62682839E+00 0.15541224E+04</pdfrwt>
<pdfrwt beam="2">  1       -2 0.17037446E+00 0.15541224E+04</pdfrwt>
<totfact> 0.59975158E-02</totfact>
</mgrwt>
</event>
<event>
 4    5  0.8511149E-008  0.9323308E+03  0.7818608E-02  0.9476005E-01
         -2   -1    0    0    0  501 -0.00000000000E+00  0.00000000000E+00  0.40270327764E+03  0.40270327765E+03  0.25500000000E-02 0.  1.
          2   -1    0    0  501    0  0.00000000000E+00 -0.00000000000E+00 -0.16326605588E+04  0.16326605588E+04  0.25500000000E-02 0. -1.
    8880023    1    1    2    0    0  0.14226854619E+03  0.64435257107E+03 -0.83301372165E+03  0.12502610295E+04  0.65864270000E+03 0. -1.
    8880022    1    1    2    0    0 -0.14226854619E+03 -0.64435257107E+03 -0.39694355951E+03  0.78510280698E+03  0.15294330000E+03 0.  0.
<mgrwt>
<rscale>  0 0.86076201E+03</rscale>
<asrwt>0</asrwt>
<pdfrwt beam="1">  1        2 0.25117854E+00 0.93233083E+03</pdfrwt>
<pdfrwt beam="2">  1       -2 0.61954352E-01 0.93233083E+03</pdfrwt>
<totfact> 0.26021455E+01</totfact>
</mgrwt>
</event>
<event>
 4    5  0.8511149E-008  0.7501733E+03  0.7818608E-02  0.9831246E-01
         -2   -1    0    0    0  501 -0.00000000000E+00  0.00000000000E+00  0.57417435529E+03  0.57417435529E+03  0.25500000000E-02 0.  1.
          2   -1    0    0  501    0  0.00000000000E+00 -0.00000000000E+00 -0.70561215333E+03  0.70561215333E+03  0.25500000000E-02 0. -1.
    8880023    1    1    2    0    0 -0.30950607547E+03  0.18208724420E+03  0.19033358519E+03  0.77394241076E+03  0.65864270000E+03 0.  0.
    8880022    1    1    2    0    0  0.30950607547E+03 -0.18208724420E+03 -0.32177138323E+03  0.50584409786E+03  0.15294330000E+03 0.  0.
<mgrwt>
<rscale>  0 0.63712325E+03</rscale>
<asrwt>0</asrwt>
<pdfrwt beam="1">  1        2 0.10855572E+00 0.75017330E+03</pdfrwt>
<pdfrwt beam="2">  1       -2 0.88334517E-01 0.75017330E+03</pdfrwt>
<totfact> 0.45332954E+01</totfact>
</mgrwt>
</event>
<event>
 4    5  0.1192981E-007  0.1003506E+04  0.7818608E-02  0.9376985E-01
          2   -1    0    0  501    0  0.00000000000E+00  0.00000000000E+00  0.34638129458E+04  0.34638129458E+04  0.25500000000E-02 0. -1.
         -2   -1    0    0    0  501 -0.00000000000E+00 -0.00000000000E+00 -0.16531481531E+04  0.16531481531E+04  0.25500000000E-02 0.  1.
    8880023    1    1    2    0    0  0.48155629602E+03  0.58422377049E+03 -0.14514900532E+04  0.17646097192E+04  0.65864270000E+03 0.  0.
    8880022    1    1    2    0    0 -0.48155629602E+03 -0.58422377049E+03  0.32621548460E+04  0.33523513796E+04  0.15294330000E+03 0.  0.
<mgrwt>
<rscale>  0 0.93994157E+03</rscale>
<asrwt>0</asrwt>
<pdfrwt beam="1">  1        2 0.53289429E+00 0.10035059E+04</pdfrwt>
<pdfrwt beam="2">  1       -2 0.25433049E+00 0.10035059E+04</pdfrwt>
<totfact> 0.53900127E-02</totfact>
</mgrwt>
</event>
<event>
 4    5  0.8511149E-008  0.1026928E+04  0.7818608E-02  0.9347146E-01
          2   -1    0    0  501    0  0.00000000000E+00  0.00000000000E+00  0.26480150037E+04  0.26480150037E+04  0.25500000000E-02 0. -1.
         -2   -1    0    0    0  501 -0.00000000000E+00 -0.00000000000E+00 -0.70429108632E+03  0.70429108632E+03  0.25500000000E-02 0.  1.
    8880023    1    1    2    0    0 -0.77618403821E+03 -0.13531044593E+03 -0.21501503205E+03  0.10491960009E+04  0.65864270000E+03 0.  0.
    8880022    1    1    2    0    0  0.77618403821E+03  0.13531044593E+03  0.21587389494E+04  0.23031100891E+04  0.15294330000E+03 0.  0.
<mgrwt>
<rscale>  0 0.96556019E+03</rscale>
<asrwt>0</asrwt>
<pdfrwt beam="1">  1        2 0.40738693E+00 0.10269278E+04</pdfrwt>
<pdfrwt beam="2">  1       -2 0.10835247E+00 0.10269278E+04</pdfrwt>
<totfact> 0.19563778E+00</totfact>
</mgrwt>
</event>
<event>
 4    5  0.8511149E-008  0.1648938E+04  0.7818608E-02  0.8811049E-01
          2   -1    0    0  501    0  0.00000000000E+00  0.00000000000E+00  0.25686319469E+04  0.25686319469E+04  0.25500000000E-02 0. -1.
         -2   -1    0    0    0  501 -0.00000000000E+00 -0.00000000000E+00 -0.13441569682E+04  0.13441569682E+04  0.25500000000E-02 0.  1.
    8880023    1    1    2    0    0 -0.13955382003E+04 -0.58108543309E+03 -0.39141124939E+03  0.16947566556E+04  0.65864270000E+03 0.  0.
    8880022    1    1    2    0    0  0.13955382003E+04  0.58108543309E+03  0.16158862281E+04  0.22180322595E+04  0.15294330000E+03 0.  0.
<mgrwt>
<rscale>  0 0.16155536E+04</rscale>
<asrwt>0</asrwt>
<pdfrwt beam="1">  1        2 0.39517414E+00 0.16489383E+04</pdfrwt>
<pdfrwt beam="2">  1       -2 0.20679338E+00 0.16489383E+04</pdfrwt>
<totfact> 0.35247582E-01</totfact>
</mgrwt>
</event>
<event>
 4    5  0.8511149E-008  0.9531951E+03  0.7818608E-02  0.9445532E-01
         -2   -1    0    0    0  501 -0.00000000000E+00  0.00000000000E+00  0.59807452882E+03  0.59807452882E+03  0.25500000000E-02 0.  1.
          2   -1    0    0  501    0  0.00000000000E+00 -0.00000000000E+00 -0.11854935986E+04  0.11854935986E+04  0.25500000000E-02 0. -1.
    8880023    1    1    2    0    0 -0.32723578117E+03  0.60637231747E+03 -0.18461085247E+03  0.97090783136E+03  0.65864270000E+03 0. -1.
    8880022    1    1    2    0    0  0.32723578117E+03 -0.60637231747E+03 -0.40280821732E+03  0.81266029608E+03  0.15294330000E+03 0.  1.
<mgrwt>
<rscale>  0 0.88421464E+03</rscale>
<asrwt>0</asrwt>
<pdfrwt beam="1">  1        2 0.18238363E+00 0.95319507E+03</pdfrwt>
<pdfrwt beam="2">  1       -2 0.92011466E-01 0.95319507E+03</pdfrwt>
<totfact> 0.19378556E+01</totfact>
</mgrwt>
</event>
<event>
 4    5  0.8511149E-008  0.1013928E+04  0.7818608E-02  0.9363558E-01
          2   -1    0    0  501    0  0.00000000000E+00  0.00000000000E+00  0.14612285192E+04  0.14612285192E+04  0.25500000000E-02 0. -1.
         -2   -1    0    0    0  501 -0.00000000000E+00 -0.00000000000E+00 -0.11055773641E+04  0.11055773641E+04  0.25500000000E-02 0.  1.
    8880023    1    1    2    0    0 -0.10678343232E+03 -0.76343824028E+03 -0.71355374440E+03  0.12398426515E+04  0.65864270000E+03 0.  1.
    8880022    1    1    2    0    0  0.10678343232E+03  0.76343824028E+03  0.10692048995E+04  0.13269632317E+04  0.15294330000E+03 0.  0.
<mgrwt>
<rscale>  0 0.95136402E+03</rscale>
<asrwt>0</asrwt>
<pdfrwt beam="1">  1        2 0.22480439E+00 0.10139284E+04</pdfrwt>
<pdfrwt beam="2">  1       -2 0.17008883E+00 0.10139284E+04</pdfrwt>
<totfact> 0.28152209E+00</totfact>
</mgrwt>
</event>
<event>
 4    5  0.8511149E-008  0.9467585E+03  0.7818608E-02  0.9454793E-01
          2   -1    0    0  501    0  0.00000000000E+00  0.00000000000E+00  0.32786286894E+04  0.32786286894E+04  0.25500000000E-02 0. -1.
         -2   -1    0    0    0  501 -0.00000000000E+00 -0.00000000000E+00 -0.73650782224E+03  0.73650782224E+03  0.25500000000E-02 0.  1.
    8880023    1    1    2    0    0  0.10568867543E+03  0.67184170011E+03 -0.37318041333E+03  0.10176518036E+04  0.65864270000E+03 0.  1.
    8880022    1    1    2    0    0 -0.10568867543E+03 -0.67184170011E+03  0.29153012805E+04  0.29974847081E+04  0.15294330000E+03 0.  0.
<mgrwt>
<rscale>  0 0.87700374E+03</rscale>
<asrwt>0</asrwt>
<pdfrwt beam="1">  1        2 0.50440442E+00 0.94675846E+03</pdfrwt>
<pdfrwt beam="2">  1       -2 0.11330889E+00 0.94675846E+03</pdfrwt>
<totfact> 0.72885330E-01</totfact>
</mgrwt>
</event>
<event>
 4    5  0.8511149E-008  0.9547231E+03  0.7818608E-02  0.9443351E-01
          2   -1    0    0  501    0  0.00000000000E+00  0.00000000000E+00  0.14918434942E+04  0.14918434942E+04  0.25500000000E-02 0. -1.
         -2   -1    0    0    0  501 -0.00000000000E+00 -0.00000000000E+00 -0.14658926271E+04  0.14658926271E+04  0.25500000000E-02 0.  1.
    8880023    1    1    2    0    0  0.55266473859E+03 -0.41502735218E+03 -0.12052364490E+04  0.15375601193E+04  0.65864270000E+03 0.  1.
    8880022    1    1    2    0    0 -0.55266473859E+03  0.41502735218E+03  0.12311873160E+04  0.14201760020E+04  0.15294330000E+03 0.  0.
<mgrwt>
<rscale>  0 0.88592347E+03</rscale>
<asrwt>0</asrwt>
<pdfrwt beam="1">  1        2 0.22951439E+00 0.95472311E+03</pdfrwt>
<pdfrwt beam="2">  1       -2 0.22552194E+00 0.95472311E+03</pdfrwt>
<totfact> 0.11725726E+00</totfact>
</mgrwt>
</event>
<event>
 4    5  0.8511149E-008  0.1237601E+04  0.7818608E-02  0.9121410E-01
         -2   -1    0    0    0  501 -0.00000000000E+00  0.00000000000E+00  0.85847132368E+03  0.85847132369E+03  0.25500000000E-02 0.  1.
          2   -1    0    0  501    0  0.00000000000E+00 -0.00000000000E+00 -0.30142052068E+04  0.30142052068E+04  0.25500000000E-02 0. -1.
    8880023    1    1    2    0    0  0.88248289870E+03 -0.56486334437E+03  0.23338673177E+03  0.12594150377E+04  0.65864270000E+03 0.  0.
    8880022    1    1    2    0    0 -0.88248289870E+03  0.56486334437E+03 -0.23891206149E+04  0.26132614928E+04  0.15294330000E+03 0.  0.
<mgrwt>
<rscale>  0 0.11902763E+04</rscale>
<asrwt>0</asrwt>
<pdfrwt beam="1">  1        2 0.46372387E+00 0.12376013E+04</pdfrwt>
<pdfrwt beam="2">  1       -2 0.13207251E+00 0.12376013E+04</pdfrwt>
<totfact> 0.69858165E-01</totfact>
</mgrwt>
</event>
<event>
 4    5  0.8511149E-008  0.1493486E+04  0.7818608E-02  0.8914250E-01
         -2   -1    0    0    0  501 -0.00000000000E+00  0.00000000000E+00  0.20851085546E+04  0.20851085546E+04  0.25500000000E-02 0.  1.
          2   -1    0    0  501    0  0.00000000000E+00 -0.00000000000E+00 -0.15050886608E+04  0.15050886608E+04  0.25500000000E-02 0. -1.
    8880023    1    1    2    0    0  0.13377805569E+04 -0.83858843077E+02  0.13701250174E+04  0.20267564959E+04  0.65864270000E+03 0.  0.
    8880022    1    1    2    0    0 -0.13377805569E+04  0.83858843077E+02 -0.79010512364E+03  0.15634407195E+04  0.15294330000E+03 0.  0.
<mgrwt>
<rscale>  0 0.14560025E+04</rscale>
<asrwt>0</asrwt>
<pdfrwt beam="1">  1        2 0.23155210E+00 0.14934856E+04</pdfrwt>
<pdfrwt beam="2">  1       -2 0.32078593E+00 0.14934856E+04</pdfrwt>
<totfact> 0.28128204E-01</totfact>
</mgrwt>
</event>
<event>
 4    5  0.8511149E-008  0.1069518E+04  0.7818608E-02  0.9295778E-01
          2   -1    0    0  501    0  0.00000000000E+00  0.00000000000E+00  0.24926315903E+04  0.24926315903E+04  0.25500000000E-02 0. -1.
         -2   -1    0    0    0  501 -0.00000000000E+00 -0.00000000000E+00 -0.90293156042E+03  0.90293156042E+03  0.25500000000E-02 0.  1.
    8880023    1    1    2    0    0  0.77357418105E+03 -0.33412823248E+03 -0.46749113698E+03  0.11672261387E+04  0.65864270000E+03 0.  0.
    8880022    1    1    2    0    0 -0.77357418105E+03  0.33412823248E+03  0.20571911669E+04  0.22283370121E+04  0.15294330000E+03 0.  0.
<mgrwt>
<rscale>  0 0.10117249E+04</rscale>
<asrwt>0</asrwt>
<pdfrwt beam="1">  1        2 0.38348178E+00 0.10695181E+04</pdfrwt>
<pdfrwt beam="2">  1       -2 0.13891255E+00 0.10695181E+04</pdfrwt>
<totfact> 0.12830054E+00</totfact>
</mgrwt>
</event>
<event>
 4    5  0.8511149E-008  0.9787438E+03  0.7818608E-02  0.9409911E-01
          2   -1    0    0  501    0  0.00000000000E+00  0.00000000000E+00  0.18997969493E+04  0.18997969493E+04  0.25500000000E-02 0. -1.
         -2   -1    0    0    0  501 -0.00000000000E+00 -0.00000000000E+00 -0.83551059276E+03  0.83551059276E+03  0.25500000000E-02 0.  1.
    8880023    1    1    2    0    0 -0.68677443183E+03 -0.22906368916E+03 -0.42908617115E+03  0.10686694730E+04  0.65864270000E+03 0.  1.
    8880022    1    1    2    0    0  0.68677443183E+03  0.22906368916E+03  0.14933725276E+04  0.16666380691E+04  0.15294330000E+03 0.  0.
<mgrwt>
<rscale>  0 0.91264499E+03</rscale>
<asrwt>0</asrwt>
<pdfrwt beam="1">  1        2 0.29227645E+00 0.97874384E+03</pdfrwt>
<pdfrwt beam="2">  1       -2 0.12854009E+00 0.97874384E+03</pdfrwt>
<totfact> 0.33943492E+00</totfact>
</mgrwt>
</event>
<event>
 4    5  0.8511149E-008  0.1221377E+04  0.7818608E-02  0.9136618E-01
          2   -1    0    0  501    0  0.00000000000E+00  0.00000000000E+00  0.39012803377E+04  0.39012803377E+04  0.25500000000E-02 0. -1.
         -2   -1    0    0    0  501 -0.00000000000E+00 -0.00000000000E+00 -0.54794680452E+03  0.54794680452E+03  0.25500000000E-02 0.  1.
    8880023    1    1    2    0    0  0.51378438172E+03  0.89105382172E+03  0.34936049578E+03  0.12703598964E+04  0.65864270000E+03 0.  0.
    8880022    1    1    2    0    0 -0.51378438172E+03 -0.89105382172E+03  0.30039730374E+04  0.31788672458E+04  0.15294330000E+03 0.  0.
<mgrwt>
<rscale>  0 0.11732288E+04</rscale>
<asrwt>0</asrwt>
<pdfrwt beam="1">  1        2 0.60019698E+00 0.12213769E+04</pdfrwt>
<pdfrwt beam="2">  1       -2 0.84299508E-01 0.12213769E+04</pdfrwt>
<totfact> 0.50843710E-01</totfact>
</mgrwt>
</event>
<event>
 4    5  0.8511149E-008  0.7734104E+03  0.7818608E-02  0.9771550E-01
          2   -1    0    0  501    0  0.00000000000E+00  0.00000000000E+00  0.31095798421E+04  0.31095798421E+04  0.25500000000E-02 0. -1.
         -2   -1    0    0    0  501 -0.00000000000E+00 -0.00000000000E+00 -0.23015031955E+03  0.23015031956E+03  0.25500000000E-02 0.  1.
    8880023    1    1    2    0    0 -0.90043777719E+02 -0.39527912076E+03  0.49951788098E+03  0.92069635869E+03  0.65864270000E+03 0.  1.
    8880022    1    1    2    0    0  0.90043777719E+02  0.39527912076E+03  0.23799116416E+04  0.24190338030E+04  0.15294330000E+03 0.  0.
<mgrwt>
<rscale>  0 0.66911936E+03</rscale>
<asrwt>0</asrwt>
<pdfrwt beam="1">  1        2 0.47839690E+00 0.77341042E+03</pdfrwt>
<pdfrwt beam="2">  1       -2 0.35407741E-01 0.77341042E+03</pdfrwt>
<totfact> 0.11797636E+01</totfact>
</mgrwt>
</event>
<event>
 4    5  0.8511149E-008  0.7305291E+03  0.7818608E-02  0.9888447E-01
          2   -1    0    0  501    0  0.00000000000E+00  0.00000000000E+00  0.16705125076E+04  0.16705125076E+04  0.25500000000E-02 0. -1.
         -2   -1    0    0    0  501 -0.00000000000E+00 -0.00000000000E+00 -0.18864974685E+03  0.18864974686E+03  0.25500000000E-02 0.  1.
    8880023    1    1    2    0    0 -0.11224637419E+03  0.29540363439E+03  0.12168398726E+04  0.14192857491E+04  0.65864270000E+03 0.  0.
    8880022    1    1    2    0    0  0.11224637419E+03 -0.29540363439E+03  0.26502288816E+03  0.43987650539E+03  0.15294330000E+03 0.  0.
<mgrwt>
<rscale>  0 0.60824474E+03</rscale>
<asrwt>0</asrwt>
<pdfrwt beam="1">  1        2 0.25700193E+00 0.73052910E+03</pdfrwt>
<pdfrwt beam="2">  1       -2 0.29023038E-01 0.73052910E+03</pdfrwt>
<totfact> 0.11346234E+02</totfact>
</mgrwt>
</event>
<event>
 4    5  0.8511149E-008  0.1267988E+04  0.7818608E-02  0.9093709E-01
         -2   -1    0    0    0  501 -0.00000000000E+00  0.00000000000E+00  0.13269356581E+04  0.13269356581E+04  0.25500000000E-02 0.  1.
          2   -1    0    0  501    0  0.00000000000E+00 -0.00000000000E+00 -0.11586483516E+04  0.11586483516E+04  0.25500000000E-02 0. -1.
    8880023    1    1    2    0    0 -0.79189907053E+03 -0.73951247766E+03  0.46707619450E+03  0.13512783652E+04  0.65864270000E+03 0.  0.
    8880022    1    1    2    0    0  0.79189907053E+03  0.73951247766E+03 -0.29878888806E+03  0.11343056445E+04  0.15294330000E+03 0.  0.
<mgrwt>
<rscale>  0 0.12221234E+04</rscale>
<asrwt>0</asrwt>
<pdfrwt beam="1">  1        2 0.17825359E+00 0.12679878E+04</pdfrwt>
<pdfrwt beam="2">  1       -2 0.20414395E+00 0.12679878E+04</pdfrwt>
<totfact> 0.24187513E+00</totfact>
</mgrwt>
</event>
<event>
 4    5  0.8511149E-008  0.7416499E+03  0.7818608E-02  0.9855167E-01
         -2   -1    0    0    0  501 -0.00000000000E+00  0.00000000000E+00  0.52684680717E+03  0.52684680718E+03  0.25500000000E-02 0.  1.
          2   -1    0    0  501    0  0.00000000000E+00 -0.00000000000E+00 -0.11669802938E+04  0.11669802938E+04  0.25500000000E-02 0. -1.
    8880023    1    1    2    0    0 -0.31854438474E+03  0.12150626220E+03  0.20526427422E+03  0.76953097751E+03  0.65864270000E+03 0.  1.
    8880022    1    1    2    0    0  0.31854438474E+03 -0.12150626220E+03 -0.84539776082E+03  0.92429612344E+03  0.15294330000E+03 0. -1.
<mgrwt>
<rscale>  0 0.62484163E+03</rscale>
<asrwt>0</asrwt>
<pdfrwt beam="1">  1        2 0.17953543E+00 0.74164985E+03</pdfrwt>
<pdfrwt beam="2">  1       -2 0.81053355E-01 0.74164985E+03</pdfrwt>
<totfact> 0.27122186E+01</totfact>
</mgrwt>
</event>
<event>
 4    5  0.8511149E-008  0.8450956E+03  0.7818608E-02  0.9620646E-01
          2   -1    0    0  501    0  0.00000000000E+00  0.00000000000E+00  0.63626943835E+03  0.63626943835E+03  0.25500000000E-02 0. -1.
         -2   -1    0    0    0  501 -0.00000000000E+00 -0.00000000000E+00 -0.12116561690E+04  0.12116561690E+04  0.25500000000E-02 0.  1.
    8880023    1    1    2    0    0 -0.52515147365E+03 -0.67766818436E+02 -0.87843915470E+03  0.12189511749E+04  0.65864270000E+03 0.  1.
    8880022    1    1    2    0    0  0.52515147365E+03  0.67766818436E+02  0.30305242406E+03  0.62897443247E+03  0.15294330000E+03 0.  0.
<mgrwt>
<rscale>  0 0.75944645E+03</rscale>
<asrwt>0</asrwt>
<pdfrwt beam="1">  1        2 0.97887606E-01 0.84509563E+03</pdfrwt>
<pdfrwt beam="2">  1       -2 0.18640864E+00 0.84509563E+03</pdfrwt>
<totfact> 0.76263963E+00</totfact>
</mgrwt>
</event>
<event>
 4    5  0.8511149E-008  0.1203995E+04  0.7818608E-02  0.9153249E-01
          2   -1    0    0  501    0  0.00000000000E+00  0.00000000000E+00  0.31626804514E+04  0.31626804514E+04  0.25500000000E-02 0. -1.
         -2   -1    0    0    0  501 -0.00000000000E+00 -0.00000000000E+00 -0.43889744765E+03  0.43889744765E+03  0.25500000000E-02 0.  1.
    8880023    1    1    2    0    0 -0.94199819421E+03  0.35837410917E+03  0.86806346506E+03  0.14842967984E+04  0.65864270000E+03 0.  0.
    8880022    1    1    2    0    0  0.94199819421E+03 -0.35837410917E+03  0.18557195387E+04  0.21172811007E+04  0.15294330000E+03 0.  0.
<mgrwt>
<rscale>  0 0.11549281E+04</rscale>
<asrwt>0</asrwt>
<pdfrwt beam="1">  1        2 0.48656623E+00 0.12039945E+04</pdfrwt>
<pdfrwt beam="2">  1       -2 0.67522683E-01 0.12039945E+04</pdfrwt>
<totfact> 0.27513791E+00</totfact>
</mgrwt>
</event>
<event>
 4    5  0.8511149E-008  0.1132052E+04  0.7818608E-02  0.9226182E-01
         -2   -1    0    0    0  501 -0.00000000000E+00  0.00000000000E+00  0.35844504964E+03  0.35844504965E+03  0.25500000000E-02 0.  1.
          2   -1    0    0  501    0  0.00000000000E+00 -0.00000000000E+00 -0.32902156886E+04  0.32902156886E+04  0.25500000000E-02 0. -1.
    8880023    1    1    2    0    0 -0.54291235879E+03 -0.74362435516E+03 -0.10313298570E+04  0.15313988674E+04  0.65864270000E+03 0.  0.
    8880022    1    1    2    0    0  0.54291235879E+03  0.74362435516E+03 -0.19004407820E+04  0.21172618709E+04  0.15294330000E+03 0.  0.
<mgrwt>
<rscale>  0 0.10787222E+04</rscale>
<asrwt>0</asrwt>
<pdfrwt beam="1">  1        2 0.50618701E+00 0.11320518E+04</pdfrwt>
<pdfrwt beam="2">  1       -2 0.55145394E-01 0.11320518E+04</pdfrwt>
<totfact> 0.35364729E+00</totfact>
</mgrwt>
</event>
<event>
 4    5  0.8511149E-008  0.6655564E+03  0.7818608E-02  0.1019071E+00
          2   -1    0    0  501    0  0.00000000000E+00  0.00000000000E+00  0.48985845743E+03  0.48985845744E+03  0.25500000000E-02 0. -1.
         -2   -1    0    0    0  501 -0.00000000000E+00 -0.00000000000E+00 -0.63506370912E+03  0.63506370912E+03  0.25500000000E-02 0.  1.
    8880023    1    1    2    0    0 -0.66896340366E+02 -0.68410491750E+02 -0.42668867838E+03  0.79058747160E+03  0.65864270000E+03 0.  1.
    8880022    1    1    2    0    0  0.66896340366E+02  0.68410491750E+02  0.28148342669E+03  0.33433469496E+03  0.15294330000E+03 0.  0.
<mgrwt>
<rscale>  0 0.48023315E+03</rscale>
<asrwt>0</asrwt>
<pdfrwt beam="1">  1        2 0.75362840E-01 0.66555640E+03</pdfrwt>
<pdfrwt beam="2">  1       -2 0.97702109E-01 0.66555640E+03</pdfrwt>
<totfact> 0.55989315E+01</totfact>
</mgrwt>
</event>
<event>
 4    5  0.8511149E-008  0.1343901E+04  0.7818608E-02  0.9028547E-01
         -2   -1    0    0    0  501 -0.00000000000E+00  0.00000000000E+00  0.11452167017E+04  0.11452167017E+04  0.25500000000E-02 0.  1.
          2   -1    0    0  501    0  0.00000000000E+00 -0.00000000000E+00 -0.21790829451E+04  0.21790829451E+04  0.25500000000E-02 0. -1.
    8880023    1    1    2    0    0 -0.43329812034E+03  0.10883528427E+04  0.45937626269E+03  0.14202450241E+04  0.65864270000E+03 0.  0.
    8880022    1    1    2    0    0  0.43329812034E+03 -0.10883528427E+04 -0.14932425061E+04  0.19040546228E+04  0.15294330000E+03 0.  0.
<mgrwt>
<rscale>  0 0.13012853E+04</rscale>
<asrwt>0</asrwt>
<pdfrwt beam="1">  1        2 0.33524353E+00 0.13439008E+04</pdfrwt>
<pdfrwt beam="2">  1       -2 0.17618718E+00 0.13439008E+04</pdfrwt>
<totfact> 0.97840463E-01</totfact>
</mgrwt>
</event>
<event>
 4    5  0.8511149E-008  0.9724032E+03  0.7818608E-02  0.9418588E-01
         -2   -1    0    0    0  501 -0.00000000000E+00  0.00000000000E+00  0.37810242007E+03  0.37810242008E+03  0.25500000000E-02 0.  1.
          2   -1    0    0  501    0  0.00000000000E+00 -0.00000000000E+00 -0.25598981442E+04  0.25598981442E+04  0.25500000000E-02 0. -1.
    8880023    1    1    2    0    0  0.40047357030E+03 -0.59277198252E+03 -0.47745459940E+03  0.10832962681E+04  0.65864270000E+03 0.  0.
    8880022    1    1    2    0    0 -0.40047357030E+03  0.59277198252E+03 -0.17043411247E+04  0.18547042962E+04  0.15294330000E+03 0.  0.
<mgrwt>
<rscale>  0 0.90561613E+03</rscale>
<asrwt>0</asrwt>
<pdfrwt beam="1">  1        2 0.39383047E+00 0.97240316E+03</pdfrwt>
<pdfrwt beam="2">  1       -2 0.58169605E-01 0.97240316E+03</pdfrwt>
<totfact> 0.90297866E+00</totfact>
</mgrwt>
</event>
<event>
 4    5  0.8511149E-008  0.1126272E+04  0.7818608E-02  0.9232354E-01
         -2   -1    0    0    0  501 -0.00000000000E+00  0.00000000000E+00  0.87502561342E+03  0.87502561343E+03  0.25500000000E-02 0.  1.
          2   -1    0    0  501    0  0.00000000000E+00 -0.00000000000E+00 -0.26274658158E+04  0.26274658158E+04  0.25500000000E-02 0. -1.
    8880023    1    1    2    0    0  0.91302474206E+03 -0.32637945446E+02  0.37099513215E+03  0.11858022641E+04  0.65864270000E+03 0.  0.
    8880022    1    1    2    0    0 -0.91302474206E+03  0.32637945446E+02 -0.21234353346E+04  0.23166891652E+04  0.15294330000E+03 0.  0.
<mgrwt>
<rscale>  0 0.10725635E+04</rscale>
<asrwt>0</asrwt>
<pdfrwt beam="1">  1        2 0.40422551E+00 0.11262724E+04</pdfrwt>
<pdfrwt beam="2">  1       -2 0.13461933E+00 0.11262724E+04</pdfrwt>
<totfact> 0.11538896E+00</totfact>
</mgrwt>
</event>
<event>
 4    5  0.8511149E-008  0.1393491E+04  0.7818608E-02  0.8988757E-01
         -2   -1    0    0    0  501 -0.00000000000E+00  0.00000000000E+00  0.89546918277E+03  0.89546918277E+03  0.25500000000E-02 0.  1.
          2   -1    0    0  501    0  0.00000000000E+00 -0.00000000000E+00 -0.38680538854E+04  0.38680538854E+04  0.25500000000E-02 0. -1.
    8880023    1    1    2    0    0  0.91040768806E+03 -0.82411410726E+03  0.15300966139E+03  0.14018660360E+04  0.65864270000E+03 0.  1.
    8880022    1    1    2    0    0 -0.91040768806E+03  0.82411410726E+03 -0.31255943640E+04  0.33616570321E+04  0.15294330000E+03 0.  0.
<mgrwt>
<rscale>  0 0.13527392E+04</rscale>
<asrwt>0</asrwt>
<pdfrwt beam="1">  1        2 0.59508520E+00 0.13934907E+04</pdfrwt>
<pdfrwt beam="2">  1       -2 0.13776449E+00 0.13934907E+04</pdfrwt>
<totfact> 0.15897359E-01</totfact>
</mgrwt>
</event>
<event>
 4    5  0.8511149E-008  0.7159124E+03  0.7818608E-02  0.9936668E-01
         -2   -1    0    0    0  501 -0.00000000000E+00  0.00000000000E+00  0.62954552544E+03  0.62954552545E+03  0.25500000000E-02 0.  1.
          2   -1    0    0  501    0  0.00000000000E+00 -0.00000000000E+00 -0.11508299750E+04  0.11508299750E+04  0.25500000000E-02 0. -1.
    8880023    1    1    2    0    0  0.10903113244E+02  0.28035967945E+03  0.38960590353E+03  0.81506036222E+03  0.65864270000E+03 0.  1.
    8880022    1    1    2    0    0 -0.10903113244E+02 -0.28035967945E+03 -0.91089035313E+03  0.96531513827E+03  0.15294330000E+03 0.  0.
<mgrwt>
<rscale>  0 0.58516666E+03</rscale>
<asrwt>0</asrwt>
<pdfrwt beam="1">  1        2 0.17705077E+00 0.71591245E+03</pdfrwt>
<pdfrwt beam="2">  1       -2 0.96853158E-01 0.71591245E+03</pdfrwt>
<totfact> 0.18468767E+01</totfact>
</mgrwt>
</event>
<event>
 4    5  0.8511149E-008  0.9297082E+03  0.7818608E-02  0.9479931E-01
          2   -1    0    0  501    0  0.00000000000E+00  0.00000000000E+00  0.18448165827E+04  0.18448165827E+04  0.25500000000E-02 0. -1.
         -2   -1    0    0    0  501 -0.00000000000E+00 -0.00000000000E+00 -0.96309148306E+03  0.96309148306E+03  0.25500000000E-02 0.  1.
    8880023    1    1    2    0    0 -0.65476094025E+03  0.42838738799E+02 -0.65010394100E+03  0.11344568686E+04  0.65864270000E+03 0.  1.
    8880022    1    1    2    0    0  0.65476094025E+03 -0.42838738799E+02  0.15318290407E+04  0.16734511971E+04  0.15294330000E+03 0.  0.
<mgrwt>
<rscale>  0 0.85779721E+03</rscale>
<asrwt>0</asrwt>
<pdfrwt beam="1">  1        2 0.28381793E+00 0.92970815E+03</pdfrwt>
<pdfrwt beam="2">  1       -2 0.14816792E+00 0.92970815E+03</pdfrwt>
<totfact> 0.25356921E+00</totfact>
</mgrwt>
</event>
<event>
 4    5  0.8511149E-008  0.9588328E+03  0.7818608E-02  0.9437518E-01
         -2   -1    0    0    0  501 -0.00000000000E+00  0.00000000000E+00  0.14793991949E+04  0.14793991949E+04  0.25500000000E-02 0.  1.
          2   -1    0    0  501    0  0.00000000000E+00 -0.00000000000E+00 -0.10812478676E+04  0.10812478676E+04  0.25500000000E-02 0. -1.
    8880023    1    1    2    0    0  0.62908029695E+03 -0.29968005980E+03  0.11679457053E+04  0.15111113576E+04  0.65864270000E+03 0.  1.
    8880022    1    1    2    0    0 -0.62908029695E+03  0.29968005980E+03 -0.76979437805E+03  0.10495357048E+04  0.15294330000E+03 0.  0.
<mgrwt>
<rscale>  0 0.89051386E+03</rscale>
<asrwt>0</asrwt>
<pdfrwt beam="1">  1        2 0.16634583E+00 0.95883281E+03</pdfrwt>
<pdfrwt beam="2">  1       -2 0.22759987E+00 0.95883281E+03</pdfrwt>
<totfact> 0.19796148E+00</totfact>
</mgrwt>
</event>
<event>
 4    5  0.8511149E-008  0.7744168E+03  0.7818608E-02  0.9769119E-01
         -2   -1    0    0    0  501 -0.00000000000E+00  0.00000000000E+00  0.22735539472E+03  0.22735539474E+03  0.25500000000E-02 0.  1.
          2   -1    0    0  501    0  0.00000000000E+00 -0.00000000000E+00 -0.23233398094E+04  0.23233398094E+04  0.25500000000E-02 0. -1.
    8880023    1    1    2    0    0 -0.23762648860E+03  0.33082446067E+03 -0.56373914819E+03  0.95787431604E+03  0.65864270000E+03 0.  1.
    8880022    1    1    2    0    0  0.23762648860E+03 -0.33082446067E+03 -0.15322452665E+04  0.15928208881E+04  0.15294330000E+03 0.  0.
<mgrwt>
<rscale>  0 0.67046438E+03</rscale>
<asrwt>0</asrwt>
<pdfrwt beam="1">  1        2 0.35743688E+00 0.77441680E+03</pdfrwt>
<pdfrwt beam="2">  1       -2 0.34977755E-01 0.77441680E+03</pdfrwt>
<totfact> 0.34910097E+01</totfact>
</mgrwt>
</event>
<event>
 4    5  0.8511149E-008  0.7851569E+03  0.7818608E-02  0.9743860E-01
          2   -1    0    0  501    0  0.00000000000E+00  0.00000000000E+00  0.17507797694E+04  0.17507797694E+04  0.25500000000E-02 0. -1.
         -2   -1    0    0    0  501 -0.00000000000E+00 -0.00000000000E+00 -0.57581511013E+03  0.57581511013E+03  0.25500000000E-02 0.  1.
    8880023    1    1    2    0    0 -0.20321026925E+03 -0.37598769268E+03 -0.25562030593E+03  0.82571975006E+03  0.65864270000E+03 0.  1.
    8880022    1    1    2    0    0  0.20321026925E+03  0.37598769268E+03  0.14305849652E+04  0.15008751295E+04  0.15294330000E+03 0.  0.
<mgrwt>
<rscale>  0 0.68464377E+03</rscale>
<asrwt>0</asrwt>
<pdfrwt beam="1">  1        2 0.26935073E+00 0.78515690E+03</pdfrwt>
<pdfrwt beam="2">  1       -2 0.88586940E-01 0.78515690E+03</pdfrwt>
<totfact> 0.10320350E+01</totfact>
</mgrwt>
</event>
<event>
 4    5  0.8511149E-008  0.6788962E+03  0.7818608E-02  0.1009955E+00
         -2   -1    0    0    0  501 -0.00000000000E+00  0.00000000000E+00  0.15879338531E+04  0.15879338531E+04  0.25500000000E-02 0.  1.
          2   -1    0    0  501    0  0.00000000000E+00 -0.00000000000E+00 -0.91169762199E+03  0.91169762199E+03  0.25500000000E-02 0. -1.
    8880023    1    1    2    0    0 -0.61696430947E+02  0.15258915166E+03  0.14996243563E+04  0.16461389113E+04  0.65864270000E+03 0.  1.
    8880022    1    1    2    0    0  0.61696430947E+02 -0.15258915166E+03 -0.82338812521E+03  0.85349256385E+03  0.15294330000E+03 0.  0.
<mgrwt>
<rscale>  0 0.51492519E+03</rscale>
<asrwt>0</asrwt>
<pdfrwt beam="1">  1        2 0.14026117E+00 0.67889624E+03</pdfrwt>
<pdfrwt beam="2">  1       -2 0.24429752E+00 0.67889624E+03</pdfrwt>
<totfact> 0.20951175E+00</totfact>
</mgrwt>
</event>
<event>
 4    5  0.8511149E-008  0.9367033E+03  0.7818608E-02  0.9469509E-01
         -2   -1    0    0    0  501 -0.00000000000E+00  0.00000000000E+00  0.62712008099E+03  0.62712008100E+03  0.25500000000E-02 0.  1.
          2   -1    0    0  501    0  0.00000000000E+00 -0.00000000000E+00 -0.15601134441E+04  0.15601134441E+04  0.25500000000E-02 0. -1.
    8880023    1    1    2    0    0 -0.62739064827E+03 -0.22357058029E+03  0.10701991984E+03  0.94279706163E+03  0.65864270000E+03 0.  0.
    8880022    1    1    2    0    0  0.62739064827E+03  0.22357058029E+03 -0.10400132830E+04  0.12444364635E+04  0.15294330000E+03 0.  0.
<mgrwt>
<rscale>  0 0.86569618E+03</rscale>
<asrwt>0</asrwt>
<pdfrwt beam="1">  1        2 0.24001745E+00 0.93670328E+03</pdfrwt>
<pdfrwt beam="2">  1       -2 0.96480013E-01 0.93670328E+03</pdfrwt>
<totfact> 0.10583366E+01</totfact>
</mgrwt>
</event>
<event>
 4    5  0.8794987E-008  0.1053602E+04  0.7818608E-02  0.9314564E-01
          2   -1    0    0  501    0  0.00000000000E+00  0.00000000000E+00  0.33686854011E+04  0.33686854011E+04  0.25500000000E-02 0. -1.
         -2   -1    0    0    0  501 -0.00000000000E+00 -0.00000000000E+00 -0.13198059957E+04  0.13198059957E+04  0.25500000000E-02 0.  1.
    8880023    1    1    2    0    0  0.76300789922E+03 -0.30673477945E+03 -0.10447521561E+04  0.14837737540E+04  0.65864270000E+03 0.  0.
    8880022    1    1    2    0    0 -0.76300789922E+03  0.30673477945E+03  0.30936315614E+04  0.32047176428E+04  0.15294330000E+03 0.  0.
<mgrwt>
<rscale>  0 0.99453090E+03</rscale>
<asrwt>0</asrwt>
<pdfrwt beam="1">  1        2 0.51825929E+00 0.10536021E+04</pdfrwt>
<pdfrwt beam="2">  1       -2 0.20304708E+00 0.10536021E+04</pdfrwt>
<totfact> 0.12931701E-01</totfact>
</mgrwt>
</event>
<event>
 4    5  0.8511149E-008  0.8007289E+03  0.7818608E-02  0.9709222E-01
          2   -1    0    0  501    0  0.00000000000E+00  0.00000000000E+00  0.78081411393E+03  0.78081411393E+03  0.25500000000E-02 0. -1.
         -2   -1    0    0    0  501 -0.00000000000E+00 -0.00000000000E+00 -0.15820112307E+04  0.15820112307E+04  0.25500000000E-02 0.  1.
    8880023    1    1    2    0    0  0.41143322639E+03  0.19513924707E+03 -0.13892639032E+04  0.16035027361E+04  0.65864270000E+03 0.  1.
    8880022    1    1    2    0    0 -0.41143322639E+03 -0.19513924707E+03  0.58806678646E+03  0.75932260856E+03  0.15294330000E+03 0.  0.
<mgrwt>
<rscale>  0 0.70470354E+03</rscale>
<asrwt>0</asrwt>
<pdfrwt beam="1">  1        2 0.12012525E+00 0.80072894E+03</pdfrwt>
<pdfrwt beam="2">  1       -2 0.24338634E+00 0.80072894E+03</pdfrwt>
<totfact> 0.25672146E+00</totfact>
</mgrwt>
</event>
<event>
 4    5  0.8511149E-008  0.9901171E+03  0.7818608E-02  0.9394603E-01
         -2   -1    0    0    0  501 -0.00000000000E+00  0.00000000000E+00  0.43331313712E+03  0.43331313713E+03  0.25500000000E-02 0.  1.
          2   -1    0    0  501    0  0.00000000000E+00 -0.00000000000E+00 -0.23724049715E+04  0.23724049715E+04  0.25500000000E-02 0. -1.
    8880023    1    1    2    0    0 -0.40088527647E+03  0.62113820972E+03 -0.35659267734E+03  0.10523736144E+04  0.65864270000E+03 0.  0.
    8880022    1    1    2    0    0  0.40088527647E+03 -0.62113820972E+03 -0.15824991570E+04  0.17533444942E+04  0.15294330000E+03 0.  0.
<mgrwt>
<rscale>  0 0.92521151E+03</rscale>
<asrwt>0</asrwt>
<pdfrwt beam="1">  1        2 0.36498538E+00 0.99011711E+03</pdfrwt>
<pdfrwt beam="2">  1       -2 0.66663560E-01 0.99011711E+03</pdfrwt>
<totfact> 0.86099468E+00</totfact>
</mgrwt>
</event>
<event>
 4    5  0.8588027E-008  0.9752254E+03  0.7818608E-02  0.9414713E-01
         -2   -1    0    0    0  501 -0.00000000000E+00  0.00000000000E+00  0.18026063881E+04  0.18026063881E+04  0.25500000000E-02 0.  1.
          2   -1    0    0  501    0  0.00000000000E+00 -0.00000000000E+00 -0.20589538900E+04  0.20589538900E+04  0.25500000000E-02 0. -1.
    8880023    1    1    2    0    0 -0.53349891949E+03 -0.48232070280E+03  0.15950151183E+04  0.18695287618E+04  0.65864270000E+03 0.  1.
    8880022    1    1    2    0    0  0.53349891949E+03  0.48232070280E+03 -0.18513626201E+04  0.19920315162E+04  0.15294330000E+03 0.  0.
<mgrwt>
<rscale>  0 0.90874676E+03</rscale>
<asrwt>0</asrwt>
<pdfrwt beam="1">  1        2 0.31676214E+00 0.97522539E+03</pdfrwt>
<pdfrwt beam="2">  1       -2 0.27732406E+00 0.97522539E+03</pdfrwt>
<totfact> 0.27421525E-01</totfact>
</mgrwt>
</event>
<event>
 4    5  0.8511149E-008  0.1600654E+04  0.7818608E-02  0.8841647E-01
          2   -1    0    0  501    0  0.00000000000E+00  0.00000000000E+00  0.24845573926E+04  0.24845573926E+04  0.25500000000E-02 0. -1.
         -2   -1    0    0    0  501 -0.00000000000E+00 -0.00000000000E+00 -0.16293058326E+04  0.16293058326E+04  0.25500000000E-02 0.  1.
    8880023    1    1    2    0    0  0.99140730773E+03 -0.10702316299E+04 -0.89207437845E+03  0.18324549365E+04  0.65864270000E+03 0.  0.
    8880022    1    1    2    0    0 -0.99140730773E+03  0.10702316299E+04  0.17473259384E+04  0.22814082887E+04  0.15294330000E+03 0.  0.
<mgrwt>
<rscale>  0 0.15661028E+04</rscale>
<asrwt>0</asrwt>
<pdfrwt beam="1">  1        2 0.38223960E+00 0.16006544E+04</pdfrwt>
<pdfrwt beam="2">  1       -2 0.25066244E+00 0.16006544E+04</pdfrwt>
<totfact> 0.20965459E-01</totfact>
</mgrwt>
</event>
<event>
 4    5  0.8511149E-008  0.1132918E+04  0.7818608E-02  0.9225261E-01
          2   -1    0    0  501    0  0.00000000000E+00  0.00000000000E+00  0.18669317269E+04  0.18669317269E+04  0.25500000000E-02 0. -1.
         -2   -1    0    0    0  501 -0.00000000000E+00 -0.00000000000E+00 -0.61051339116E+03  0.61051339117E+03  0.25500000000E-02 0.  1.
    8880023    1    1    2    0    0 -0.91776021762E+03 -0.86080180394E+02  0.37618629862E+03  0.11937419956E+04  0.65864270000E+03 0.  0.
    8880022    1    1    2    0    0  0.91776021762E+03  0.86080180394E+02  0.88023203713E+03  0.12837031225E+04  0.15294330000E+03 0.  0.
<mgrwt>
<rscale>  0 0.10796451E+04</rscale>
<asrwt>0</asrwt>
<pdfrwt beam="1">  1        2 0.28722026E+00 0.11329183E+04</pdfrwt>
<pdfrwt beam="2">  1       -2 0.93925139E-01 0.11329183E+04</pdfrwt>
<totfact> 0.74712233E+00</totfact>
</mgrwt>
</event>
<event>
 4    5  0.8511149E-008  0.7145677E+03  0.7818608E-02  0.9941415E-01
         -2   -1    0    0    0  501 -0.00000000000E+00  0.00000000000E+00  0.12006397375E+03  0.12006397378E+03  0.25500000000E-02 0.  1.
          2   -1    0    0  501    0  0.00000000000E+00 -0.00000000000E+00 -0.25104760465E+04  0.25104760465E+04  0.25500000000E-02 0. -1.
    8880023    1    1    2    0    0 -0.14613110135E+03  0.23546234772E+03 -0.11806163122E+04  0.13800224269E+04  0.65864270000E+03 0.  0.
    8880022    1    1    2    0    0  0.14613110135E+03 -0.23546234772E+03 -0.12097957606E+04  0.12505175934E+04  0.15294330000E+03 0.  0.
<mgrwt>
<rscale>  0 0.58295464E+03</rscale>
<asrwt>0</asrwt>
<pdfrwt beam="1">  1        2 0.38622704E+00 0.71456772E+03</pdfrwt>
<pdfrwt beam="2">  1       -2 0.18471383E-01 0.71456772E+03</pdfrwt>
<totfact> 0.87824430E+01</totfact>
</mgrwt>
</event>
<event>
 4    5  0.8511149E-008  0.1303062E+04  0.7818608E-02  0.9062920E-01
          2   -1    0    0  501    0  0.00000000000E+00  0.00000000000E+00  0.31215697535E+04  0.31215697535E+04  0.25500000000E-02 0. -1.
         -2   -1    0    0    0  501 -0.00000000000E+00 -0.00000000000E+00 -0.75260705479E+03  0.75260705480E+03  0.25500000000E-02 0.  1.
    8880023    1    1    2    0    0  0.78300884059E+03 -0.80688080363E+03  0.63505807005E+02  0.13046082437E+04  0.65864270000E+03 0.  1.
    8880022    1    1    2    0    0 -0.78300884059E+03  0.80688080363E+03  0.23054568917E+04  0.25695685646E+04  0.15294330000E+03 0.  0.
<mgrwt>
<rscale>  0 0.12587639E+04</rscale>
<asrwt>0</asrwt>
<pdfrwt beam="1">  1        2 0.48024149E+00 0.13030617E+04</pdfrwt>
<pdfrwt beam="2">  1       -2 0.11578570E+00 0.13030617E+04</pdfrwt>
<totfact> 0.82591881E-01</totfact>
</mgrwt>
</event>
<event>
 4    5  0.8511149E-008  0.7448814E+03  0.7818608E-02  0.9845949E-01
          2   -1    0    0  501    0  0.00000000000E+00  0.00000000000E+00  0.96507422470E+03  0.96507422470E+03  0.25500000000E-02 0. -1.
         -2   -1    0    0    0  501 -0.00000000000E+00 -0.00000000000E+00 -0.40863363671E+03  0.40863363671E+03  0.25500000000E-02 0.  1.
    8880023    1    1    2    0    0 -0.28487842786E+03  0.19970585008E+03  0.58312164865E+02  0.74716039780E+03  0.65864270000E+03 0. -1.
    8880022    1    1    2    0    0  0.28487842786E+03 -0.19970585008E+03  0.49812842313E+03  0.62654746361E+03  0.15294330000E+03 0.  0.
<mgrwt>
<rscale>  0 0.62953874E+03</rscale>
<asrwt>0</asrwt>
<pdfrwt beam="1">  1        2 0.14847296E+00 0.74488143E+03</pdfrwt>
<pdfrwt beam="2">  1       -2 0.62866714E-01 0.74488143E+03</pdfrwt>
<totfact> 0.63174340E+01</totfact>
</mgrwt>
</event>
<event>
 4    5  0.8511149E-008  0.1130784E+04  0.7818608E-02  0.9227532E-01
         -2   -1    0    0    0  501 -0.00000000000E+00  0.00000000000E+00  0.58539314047E+03  0.58539314048E+03  0.25500000000E-02 0.  1.
          2   -1    0    0  501    0  0.00000000000E+00 -0.00000000000E+00 -0.19441494074E+04  0.19441494074E+04  0.25500000000E-02 0. -1.
    8880023    1    1    2    0    0  0.90627299877E+03  0.15339635176E+03 -0.41838215704E+03  0.12057010511E+04  0.65864270000E+03 0.  1.
    8880022    1    1    2    0    0 -0.90627299877E+03 -0.15339635176E+03 -0.94037410987E+03  0.13238414968E+04  0.15294330000E+03 0.  0.
<mgrwt>
<rscale>  0 0.10773713E+04</rscale>
<asrwt>0</asrwt>
<pdfrwt beam="1">  1        2 0.29909991E+00 0.11307835E+04</pdfrwt>
<pdfrwt beam="2">  1       -2 0.90060484E-01 0.11307835E+04</pdfrwt>
<totfact> 0.74716279E+00</totfact>
</mgrwt>
</event>
<event>
 4    5  0.8511149E-008  0.7362114E+03  0.7818608E-02  0.9871124E-01
         -2   -1    0    0    0  501 -0.00000000000E+00  0.00000000000E+00  0.51705638256E+03  0.51705638257E+03  0.25500000000E-02 0.  1.
          2   -1    0    0  501    0  0.00000000000E+00 -0.00000000000E+00 -0.24105881373E+04  0.24105881373E+04  0.25500000000E-02 0. -1.
    8880023    1    1    2    0    0 -0.31333782312E+03  0.10008201744E+03  0.23159536251E+03  0.77177951502E+03  0.65864270000E+03 0.  1.
    8880022    1    1    2    0    0  0.31333782312E+03 -0.10008201744E+03 -0.21251271172E+04  0.21558650048E+04  0.15294330000E+03 0.  0.
<mgrwt>
<rscale>  0 0.61681397E+03</rscale>
<asrwt>0</asrwt>
<pdfrwt beam="1">  1        2 0.37085971E+00 0.73621139E+03</pdfrwt>
<pdfrwt beam="2">  1       -2 0.79547137E-01 0.73621139E+03</pdfrwt>
<totfact> 0.57605495E+00</totfact>
</mgrwt>
</event>
<event>
 4    5  0.8511149E-008  0.2038068E+04  0.7818608E-02  0.8601153E-01
          2   -1    0    0  501    0  0.00000000000E+00  0.00000000000E+00  0.25879137842E+04  0.25879137842E+04  0.25500000000E-02 0. -1.
         -2   -1    0    0    0  501 -0.00000000000E+00 -0.00000000000E+00 -0.17618780501E+04  0.17618780501E+04  0.25500000000E-02 0.  1.
    8880023    1    1    2    0    0 -0.47053129456E+03  0.18704310537E+04 -0.37539246072E+03  0.20723517393E+04  0.65864270000E+03 0.  0.
    8880022    1    1    2    0    0  0.47053129456E+03 -0.18704310537E+04  0.12014281948E+04  0.22774400949E+04  0.15294330000E+03 0.  0.
<mgrwt>
<rscale>  0 0.20117357E+04</rscale>
<asrwt>0</asrwt>
<pdfrwt beam="1">  1        2 0.39814058E+00 0.20380683E+04</pdfrwt>
<pdfrwt beam="2">  1       -2 0.27105816E+00 0.20380683E+04</pdfrwt>
<totfact> 0.13068646E-01</totfact>
</mgrwt>
</event>
<event>
 4    5  0.8511149E-008  0.1251211E+04  0.7818608E-02  0.9108881E-01
         -2   -1    0    0    0  501 -0.00000000000E+00  0.00000000000E+00  0.17049002726E+04  0.17049002726E+04  0.25500000000E-02 0.  1.
          2   -1    0    0  501    0  0.00000000000E+00 -0.00000000000E+00 -0.10736443065E+04  0.10736443065E+04  0.25500000000E-02 0. -1.
    8880023    1    1    2    0    0  0.10402716742E+04  0.22260498132E+03  0.10416906608E+04  0.16280810093E+04  0.65864270000E+03 0.  1.
    8880022    1    1    2    0    0 -0.10402716742E+04 -0.22260498132E+03 -0.41043469463E+03  0.11504635698E+04  0.15294330000E+03 0.  0.
<mgrwt>
<rscale>  0 0.12045526E+04</rscale>
<asrwt>0</asrwt>
<pdfrwt beam="1">  1        2 0.16517605E+00 0.12512107E+04</pdfrwt>
<pdfrwt beam="2">  1       -2 0.26229235E+00 0.12512107E+04</pdfrwt>
<totfact> 0.11841525E+00</totfact>
</mgrwt>
</event>
<event>
 4    5  0.8511149E-008  0.1463816E+04  0.7818608E-02  0.8935618E-01
         -2   -1    0    0    0  501 -0.00000000000E+00  0.00000000000E+00  0.43807229315E+03  0.43807229315E+03  0.25500000000E-02 0.  1.
          2   -1    0    0  501    0  0.00000000000E+00 -0.00000000000E+00 -0.48808865835E+04  0.48808865835E+04  0.25500000000E-02 0. -1.
    8880023    1    1    2    0    0  0.11798831013E+04  0.56287020459E+03 -0.31526000531E+04  0.34758659786E+04  0.65864270000E+03 0.  0.
    8880022    1    1    2    0    0 -0.11798831013E+04 -0.56287020459E+03 -0.12902142373E+04  0.18430928981E+04  0.15294330000E+03 0.  0.
<mgrwt>
<rscale>  0 0.14254237E+04</rscale>
<asrwt>0</asrwt>
<pdfrwt beam="1">  1        2 0.75090559E+00 0.14638160E+04</pdfrwt>
<pdfrwt beam="2">  1       -2 0.67395741E-01 0.14638160E+04</pdfrwt>
<totfact> 0.97317863E-02</totfact>
</mgrwt>
</event>
<event>
 4    5  0.8511149E-008  0.6876688E+03  0.7818608E-02  0.1005281E+00
          2   -1    0    0  501    0  0.00000000000E+00  0.00000000000E+00  0.38720705933E+04  0.38720705933E+04  0.25500000000E-02 0. -1.
         -2   -1    0    0    0  501 -0.00000000000E+00 -0.00000000000E+00 -0.16400155851E+03  0.16400155853E+03  0.25500000000E-02 0.  1.
    8880023    1    1    2    0    0  0.31404798246E+02 -0.19517140682E+03  0.58448010509E+03  0.90249949524E+03  0.65864270000E+03 0.  1.
    8880022    1    1    2    0    0 -0.31404798246E+02  0.19517140682E+03  0.31235889297E+04  0.31335726565E+04  0.15294330000E+03 0.  0.
<mgrwt>
<rscale>  0 0.53394096E+03</rscale>
<asrwt>0</asrwt>
<pdfrwt beam="1">  1        2 0.59570313E+00 0.68766878E+03</pdfrwt>
<pdfrwt beam="2">  1       -2 0.25231010E-01 0.68766878E+03</pdfrwt>
<totfact> 0.67766712E+00</totfact>
</mgrwt>
</event>
<event>
 4    5  0.8511149E-008  0.8263444E+03  0.7818608E-02  0.9656487E-01
          2   -1    0    0  501    0  0.00000000000E+00  0.00000000000E+00  0.84583189250E+03  0.84583189251E+03  0.25500000000E-02 0. -1.
         -2   -1    0    0    0  501 -0.00000000000E+00 -0.00000000000E+00 -0.64103530432E+03  0.64103530433E+03  0.25500000000E-02 0.  1.
    8880023    1    1    2    0    0  0.48638436711E+03  0.11164697171E+03 -0.17082128852E+03  0.84381568943E+03  0.65864270000E+03 0.  1.
    8880022    1    1    2    0    0 -0.48638436711E+03 -0.11164697171E+03  0.37561787670E+03  0.64305150740E+03  0.15294330000E+03 0.  0.
<mgrwt>
<rscale>  0 0.73667675E+03</rscale>
<asrwt>0</asrwt>
<pdfrwt beam="1">  1        2 0.13012798E+00 0.82634436E+03</pdfrwt>
<pdfrwt beam="2">  1       -2 0.98620816E-01 0.82634436E+03</pdfrwt>
<totfact> 0.27488323E+01</totfact>
</mgrwt>
</event>
<event>
 4    5  0.8511149E-008  0.8188892E+03  0.7818608E-02  0.9671350E-01
         -2   -1    0    0    0  501 -0.00000000000E+00  0.00000000000E+00  0.14997646009E+03  0.14997646011E+03  0.25500000000E-02 0.  1.
          2   -1    0    0  501    0  0.00000000000E+00 -0.00000000000E+00 -0.43979561148E+04  0.43979561148E+04  0.25500000000E-02 0. -1.
    8880023    1    1    2    0    0  0.47768249368E+03 -0.92675100258E+02 -0.11707532834E+04  0.14287206500E+04  0.65864270000E+03 0.  0.
    8880022    1    1    2    0    0 -0.47768249368E+03  0.92675100258E+02 -0.30772263713E+04  0.31192119249E+04  0.15294330000E+03 0.  0.
<mgrwt>
<rscale>  0 0.72748508E+03</rscale>
<asrwt>0</asrwt>
<pdfrwt beam="1">  1        2 0.67660853E+00 0.81888915E+03</pdfrwt>
<pdfrwt beam="2">  1       -2 0.23073305E-01 0.81888915E+03</pdfrwt>
<totfact> 0.28328178E+00</totfact>
</mgrwt>
</event>
<event>
 4    5  0.8511149E-008  0.9608643E+03  0.7818608E-02  0.9434652E-01
          2   -1    0    0  501    0  0.00000000000E+00  0.00000000000E+00  0.90852351901E+03  0.90852351902E+03  0.25500000000E-02 0. -1.
         -2   -1    0    0    0  501 -0.00000000000E+00 -0.00000000000E+00 -0.12872675246E+04  0.12872675246E+04  0.25500000000E-02 0.  1.
    8880023    1    1    2    0    0 -0.42583892674E+03 -0.55507769700E+03 -0.89488615188E+03  0.13130428296E+04  0.65864270000E+03 0.  1.
    8880022    1    1    2    0    0  0.42583892674E+03  0.55507769700E+03  0.51614214628E+03  0.88274821405E+03  0.15294330000E+03 0.  0.
<mgrwt>
<rscale>  0 0.89278003E+03</rscale>
<asrwt>0</asrwt>
<pdfrwt beam="1">  1        2 0.13977285E+00 0.96086432E+03</pdfrwt>
<pdfrwt beam="2">  1       -2 0.19804116E+00 0.96086432E+03</pdfrwt>
<totfact> 0.39503613E+00</totfact>
</mgrwt>
</event>
<event>
 4    5  0.8511149E-008  0.8057133E+03  0.7818608E-02  0.9698576E-01
          2   -1    0    0  501    0  0.00000000000E+00  0.00000000000E+00  0.27303677227E+04  0.27303677227E+04  0.25500000000E-02 0. -1.
         -2   -1    0    0    0  501 -0.00000000000E+00 -0.00000000000E+00 -0.33062853708E+03  0.33062853709E+03  0.25500000000E-02 0.  1.
    8880023    1    1    2    0    0  0.36657072003E+03  0.28458679484E+03  0.23139999828E+03  0.83828390301E+03  0.65864270000E+03 0.  1.
    8880022    1    1    2    0    0 -0.36657072003E+03 -0.28458679484E+03  0.21683391874E+04  0.22227123568E+04  0.15294330000E+03 0.  0.
<mgrwt>
<rscale>  0 0.71101629E+03</rscale>
<asrwt>0</asrwt>
<pdfrwt beam="1">  1        2 0.42005657E+00 0.80571331E+03</pdfrwt>
<pdfrwt beam="2">  1       -2 0.50865929E-01 0.80571331E+03</pdfrwt>
<totfact> 0.97284243E+00</totfact>
</mgrwt>
</event>
<event>
 4    5  0.8511149E-008  0.6768781E+03  0.7818608E-02  0.1011148E+00
         -2   -1    0    0    0  501 -0.00000000000E+00  0.00000000000E+00  0.93167275404E+03  0.93167275404E+03  0.25500000000E-02 0.  1.
          2   -1    0    0  501    0  0.00000000000E+00 -0.00000000000E+00 -0.10235649736E+04  0.10235649736E+04  0.25500000000E-02 0. -1.
    8880023    1    1    2    0    0 -0.15605226116E+03 -0.12147082054E+01  0.79367418475E+03  0.10431120273E+04  0.65864270000E+03 0.  1.
    8880022    1    1    2    0    0  0.15605226116E+03  0.12147082054E+01 -0.88556640430E+03  0.91212570031E+03  0.15294330000E+03 0.  0.
<mgrwt>
<rscale>  0 0.51021044E+03</rscale>
<asrwt>0</asrwt>
<pdfrwt beam="1">  1        2 0.15747153E+00 0.67687812E+03</pdfrwt>
<pdfrwt beam="2">  1       -2 0.14333427E+00 0.67687812E+03</pdfrwt>
<totfact> 0.84483209E+00</totfact>
</mgrwt>
</event>
<event>
 4    5  0.8511149E-008  0.1066736E+04  0.7818608E-02  0.9299028E-01
         -2   -1    0    0    0  501 -0.00000000000E+00  0.00000000000E+00  0.10264887401E+04  0.10264887401E+04  0.25500000000E-02 0.  1.
          2   -1    0    0  501    0  0.00000000000E+00 -0.00000000000E+00 -0.11157445887E+04  0.11157445887E+04  0.25500000000E-02 0. -1.
    8880023    1    1    2    0    0  0.83121250007E+03  0.11489519164E+03  0.42271351499E+03  0.11474371649E+04  0.65864270000E+03 0.  0.
    8880022    1    1    2    0    0 -0.83121250007E+03 -0.11489519164E+03 -0.51196936360E+03  0.99479616385E+03  0.15294330000E+03 0.  0.
<mgrwt>
<rscale>  0 0.10087239E+04</rscale>
<asrwt>0</asrwt>
<pdfrwt beam="1">  1        2 0.17165301E+00 0.10667358E+04</pdfrwt>
<pdfrwt beam="2">  1       -2 0.15792135E+00 0.10667358E+04</pdfrwt>
<totfact> 0.54754238E+00</totfact>
</mgrwt>
</event>
<event>
 4    5  0.8511149E-008  0.6681572E+03  0.7818608E-02  0.1017020E+00
          2   -1    0    0  501    0  0.00000000000E+00  0.00000000000E+00  0.15777457886E+04  0.15777457886E+04  0.25500000000E-02 0. -1.
         -2   -1    0    0    0  501 -0.00000000000E+00 -0.00000000000E+00 -0.98063823991E+03  0.98063823991E+03  0.25500000000E-02 0.  1.
    8880023    1    1    2    0    0 -0.14089828246E+02  0.11146875242E+03 -0.85995397602E+03  0.10890155431E+04  0.65864270000E+03 0.  1.
    8880022    1    1    2    0    0  0.14089828246E+02 -0.11146875242E+03  0.14570615247E+04  0.14693684854E+04  0.15294330000E+03 0.  0.
<mgrwt>
<rscale>  0 0.48777563E+03</rscale>
<asrwt>0</asrwt>
<pdfrwt beam="1">  1        2 0.24273012E+00 0.66815718E+03</pdfrwt>
<pdfrwt beam="2">  1       -2 0.15086742E+00 0.66815718E+03</pdfrwt>
<totfact> 0.35312850E+00</totfact>
</mgrwt>
</event>
<event>
 4    5  0.8511149E-008  0.1270343E+04  0.7818608E-02  0.9091603E-01
         -2   -1    0    0    0  501 -0.00000000000E+00  0.00000000000E+00  0.17802614713E+04  0.17802614713E+04  0.25500000000E-02 0.  1.
          2   -1    0    0  501    0  0.00000000000E+00 -0.00000000000E+00 -0.15549537531E+04  0.15549537531E+04  0.25500000000E-02 0. -1.
    8880023    1    1    2    0    0  0.10652792791E+04 -0.21246613898E+03 -0.10535190049E+04  0.16503558109E+04  0.65864270000E+03 0.  0.
    8880022    1    1    2    0    0 -0.10652792791E+04  0.21246613898E+03  0.12788267230E+04  0.16848594135E+04  0.15294330000E+03 0.  0.
<mgrwt>
<rscale>  0 0.12245879E+04</rscale>
<asrwt>0</asrwt>
<pdfrwt beam="1">  1        2 0.23922365E+00 0.12703433E+04</pdfrwt>
<pdfrwt beam="2">  1       -2 0.27388638E+00 0.12703433E+04</pdfrwt>
<totfact> 0.52322380E-01</totfact>
</mgrwt>
</event>
<event>
 4    5  0.8511149E-008  0.7477071E+03  0.7818608E-02  0.9838040E-01
         -2   -1    0    0    0  501 -0.00000000000E+00  0.00000000000E+00  0.73058578689E+03  0.73058578689E+03  0.25500000000E-02 0.  1.
          2   -1    0    0  501    0  0.00000000000E+00 -0.00000000000E+00 -0.11177014381E+04  0.11177014381E+04  0.25500000000E-02 0. -1.
    8880023    1    1    2    0    0 -0.26419518936E+03 -0.23549240150E+03  0.48741104027E+03  0.89254439536E+03  0.65864270000E+03 0.  0.
    8880022    1    1    2    0    0  0.26419518936E+03  0.23549240150E+03 -0.87452669149E+03  0.95574282963E+03  0.15294330000E+03 0.  0.
<mgrwt>
<rscale>  0 0.63360460E+03</rscale>
<asrwt>0</asrwt>
<pdfrwt beam="1">  1        2 0.17195407E+00 0.74770715E+03</pdfrwt>
<pdfrwt beam="2">  1       -2 0.11239781E+00 0.74770715E+03</pdfrwt>
<totfact> 0.13493669E+01</totfact>
</mgrwt>
</event>
<event>
 4    5  0.8511149E-008  0.1082346E+04  0.7818608E-02  0.9280970E-01
          2   -1    0    0  501    0  0.00000000000E+00  0.00000000000E+00  0.14209166597E+04  0.14209166597E+04  0.25500000000E-02 0. -1.
         -2   -1    0    0    0  501 -0.00000000000E+00 -0.00000000000E+00 -0.10291540018E+04  0.10291540018E+04  0.25500000000E-02 0.  1.
    8880023    1    1    2    0    0  0.81938001286E+03 -0.25744866024E+03 -0.50904163184E+03  0.11960756696E+04  0.65864270000E+03 0.  0.
    8880022    1    1    2    0    0 -0.81938001286E+03  0.25744866024E+03  0.90080428977E+03  0.12539949919E+04  0.15294330000E+03 0.  0.
<mgrwt>
<rscale>  0 0.10255379E+04</rscale>
<asrwt>0</asrwt>
<pdfrwt beam="1">  1        2 0.21860256E+00 0.10823464E+04</pdfrwt>
<pdfrwt beam="2">  1       -2 0.15833138E+00 0.10823464E+04</pdfrwt>
<totfact> 0.35869194E+00</totfact>
</mgrwt>
</event>
<event>
 4    5  0.8511149E-008  0.1051583E+04  0.7818608E-02  0.9316981E-01
         -2   -1    0    0    0  501 -0.00000000000E+00  0.00000000000E+00  0.83688388289E+03  0.83688388289E+03  0.25500000000E-02 0.  1.
          2   -1    0    0  501    0  0.00000000000E+00 -0.00000000000E+00 -0.18269920506E+04  0.18269920506E+04  0.25500000000E-02 0. -1.
    8880023    1    1    2    0    0  0.75677149084E+03 -0.31513970990E+03  0.33025343625E+03  0.11022221484E+04  0.65864270000E+03 0.  0.
    8880022    1    1    2    0    0 -0.75677149084E+03  0.31513970990E+03 -0.13203616039E+04  0.15616537850E+04  0.15294330000E+03 0.  0.
<mgrwt>
<rscale>  0 0.99234467E+03</rscale>
<asrwt>0</asrwt>
<pdfrwt beam="1">  1        2 0.28107570E+00 0.10515828E+04</pdfrwt>
<pdfrwt beam="2">  1       -2 0.12875137E+00 0.10515828E+04</pdfrwt>
<totfact> 0.36738629E+00</totfact>
</mgrwt>
</event>
<event>
 4    5  0.8511149E-008  0.1215016E+04  0.7818608E-02  0.9142662E-01
         -2   -1    0    0    0  501 -0.00000000000E+00  0.00000000000E+00  0.10450363051E+04  0.10450363051E+04  0.25500000000E-02 0.  1.
          2   -1    0    0  501    0  0.00000000000E+00 -0.00000000000E+00 -0.45958288788E+04  0.45958288788E+04  0.25500000000E-02 0. -1.
    8880023    1    1    2    0    0 -0.20023038604E+03  0.10011803140E+04  0.60602115876E+03  0.13577651047E+04  0.65864270000E+03 0.  0.
    8880022    1    1    2    0    0  0.20023038604E+03 -0.10011803140E+04 -0.41568137325E+04  0.42831000792E+04  0.15294330000E+03 0.  0.
<mgrwt>
<rscale>  0 0.11665366E+04</rscale>
<asrwt>0</asrwt>
<pdfrwt beam="1">  1        2 0.70705059E+00 0.12150162E+04</pdfrwt>
<pdfrwt beam="2">  1       -2 0.16077482E+00 0.12150162E+04</pdfrwt>
<totfact> 0.25115100E-02</totfact>
</mgrwt>
</event>
<event>
 4    5  0.8511149E-008  0.1077173E+04  0.7818608E-02  0.9286907E-01
         -2   -1    0    0    0  501 -0.00000000000E+00  0.00000000000E+00  0.88429024339E+03  0.88429024340E+03  0.25500000000E-02 0.  1.
          2   -1    0    0  501    0  0.00000000000E+00 -0.00000000000E+00 -0.26596612215E+04  0.26596612215E+04  0.25500000000E-02 0. -1.
    8880023    1    1    2    0    0  0.84507565033E+03 -0.11108343351E+03  0.44135504539E+03  0.11640862796E+04  0.65864270000E+03 0.  1.
    8880022    1    1    2    0    0 -0.84507565033E+03  0.11108343351E+03 -0.22167260235E+04  0.23798651853E+04  0.15294330000E+03 0.  0.
<mgrwt>
<rscale>  0 0.10199726E+04</rscale>
<asrwt>0</asrwt>
<pdfrwt beam="1">  1        2 0.40917865E+00 0.10771734E+04</pdfrwt>
<pdfrwt beam="2">  1       -2 0.13604465E+00 0.10771734E+04</pdfrwt>
<totfact> 0.10829382E+00</totfact>
</mgrwt>
</event>
<event>
 4    5  0.8511149E-008  0.9983747E+03  0.7818608E-02  0.9383687E-01
          2   -1    0    0  501    0  0.00000000000E+00  0.00000000000E+00  0.91283286655E+03  0.91283286655E+03  0.25500000000E-02 0. -1.
         -2   -1    0    0    0  501 -0.00000000000E+00 -0.00000000000E+00 -0.11081634086E+04  0.11081634086E+04  0.25500000000E-02 0.  1.
    8880023    1    1    2    0    0 -0.54010674828E+03 -0.52079417009E+03 -0.58986335370E+03  0.11596080585E+04  0.65864270000E+03 0.  1.
    8880022    1    1    2    0    0  0.54010674828E+03  0.52079417009E+03  0.39453281169E+03  0.86138821657E+03  0.15294330000E+03 0.  0.
<mgrwt>
<rscale>  0 0.93430413E+03</rscale>
<asrwt>0</asrwt>
<pdfrwt beam="1">  1        2 0.14043582E+00 0.99837472E+03</pdfrwt>
<pdfrwt beam="2">  1       -2 0.17048668E+00 0.99837472E+03</pdfrwt>
<totfact> 0.60258233E+00</totfact>
</mgrwt>
</event>
<event>
 4    5  0.8511149E-008  0.1553153E+04  0.7818608E-02  0.8872987E-01
         -2   -1    0    0    0  501 -0.00000000000E+00  0.00000000000E+00  0.10249513913E+04  0.10249513913E+04  0.25500000000E-02 0.  1.
          2   -1    0    0  501    0  0.00000000000E+00 -0.00000000000E+00 -0.34903073416E+04  0.34903073416E+04  0.25500000000E-02 0. -1.
    8880023    1    1    2    0    0  0.77429922885E+03 -0.11742798710E+04  0.13073713583E+03  0.15586452182E+04  0.65864270000E+03 0.  0.
    8880022    1    1    2    0    0 -0.77429922885E+03  0.11742798710E+04 -0.25960930861E+04  0.29566135148E+04  0.15294330000E+03 0.  0.
<mgrwt>
<rscale>  0 0.15173644E+04</rscale>
<asrwt>0</asrwt>
<pdfrwt beam="1">  1        2 0.53697036E+00 0.15531525E+04</pdfrwt>
<pdfrwt beam="2">  1       -2 0.15768483E+00 0.15531525E+04</pdfrwt>
<totfact> 0.20464102E-01</totfact>
</mgrwt>
</event>
<event>
 4    5  0.8511149E-008  0.3319096E+04  0.7818608E-02  0.8162035E-01
         -2   -1    0    0    0  501 -0.00000000000E+00  0.00000000000E+00  0.31147437295E+04  0.31147437295E+04  0.25500000000E-02 0.  1.
          2   -1    0    0  501    0  0.00000000000E+00 -0.00000000000E+00 -0.45703942391E+04  0.45703942391E+04  0.25500000000E-02 0. -1.
    8880023    1    1    2    0    0  0.18399916889E+04  0.26827262000E+04  0.11517661650E+04  0.35132555820E+04  0.65864270000E+03 0.  0.
    8880022    1    1    2    0    0 -0.18399916889E+04 -0.26827262000E+04 -0.26074166746E+04  0.41718823866E+04  0.15294330000E+03 0.  0.
<mgrwt>
<rscale>  0 0.33033815E+04</rscale>
<asrwt>0</asrwt>
<pdfrwt beam="1">  1        2 0.70313758E+00 0.33190962E+04</pdfrwt>
<pdfrwt beam="2">  1       -2 0.47919134E+00 0.33190962E+04</pdfrwt>
<totfact> 0.17664469E-04</totfact>
</mgrwt>
</event>
<event>
 4    5  0.8511149E-008  0.7753608E+03  0.7818608E-02  0.9766850E-01
         -2   -1    0    0    0  501 -0.00000000000E+00  0.00000000000E+00  0.13924147360E+04  0.13924147360E+04  0.25500000000E-02 0.  1.
          2   -1    0    0  501    0  0.00000000000E+00 -0.00000000000E+00 -0.77242692330E+03  0.77242692330E+03  0.25500000000E-02 0. -1.
    8880023    1    1    2    0    0 -0.32359576243E+03 -0.25031967980E+03  0.12061367400E+04  0.14338585012E+04  0.65864270000E+03 0.  0.
    8880022    1    1    2    0    0  0.32359576243E+03  0.25031967980E+03 -0.58614892727E+03  0.73098315816E+03  0.15294330000E+03 0. -1.
<mgrwt>
<rscale>  0 0.67172335E+03</rscale>
<asrwt>0</asrwt>
<pdfrwt beam="1">  1        2 0.11883491E+00 0.77536080E+03</pdfrwt>
<pdfrwt beam="2">  1       -2 0.21421765E+00 0.77536080E+03</pdfrwt>
<totfact> 0.39616401E+00</totfact>
</mgrwt>
</event>
<event>
 4    5  0.8511149E-008  0.7668557E+03  0.7818608E-02  0.9787672E-01
         -2   -1    0    0    0  501 -0.00000000000E+00  0.00000000000E+00  0.95243961662E+03  0.95243961662E+03  0.25500000000E-02 0.  1.
          2   -1    0    0  501    0  0.00000000000E+00 -0.00000000000E+00 -0.21108545571E+04  0.21108545571E+04  0.25500000000E-02 0. -1.
    8880023    1    1    2    0    0 -0.85137054702E+02 -0.38341761242E+03  0.77156141918E+03  0.10878302319E+04  0.65864270000E+03 0.  1.
    8880022    1    1    2    0    0  0.85137054702E+02  0.38341761242E+03 -0.19299763597E+04  0.19754639419E+04  0.15294330000E+03 0.  0.
<mgrwt>
<rscale>  0 0.66028370E+03</rscale>
<asrwt>0</asrwt>
<pdfrwt beam="1">  1        2 0.32474685E+00 0.76685565E+03</pdfrwt>
<pdfrwt beam="2">  1       -2 0.14652917E+00 0.76685565E+03</pdfrwt>
<totfact> 0.19160544E+00</totfact>
</mgrwt>
</event>
<event>
 4    5  0.8511149E-008  0.1078112E+04  0.7818608E-02  0.9285826E-01
         -2   -1    0    0    0  501 -0.00000000000E+00  0.00000000000E+00  0.16035106920E+04  0.16035106920E+04  0.25500000000E-02 0.  1.
          2   -1    0    0  501    0  0.00000000000E+00 -0.00000000000E+00 -0.10265433519E+04  0.10265433519E+04  0.25500000000E-02 0. -1.
    8880023    1    1    2    0    0  0.52202279864E+03 -0.67528310660E+03  0.11611637991E+04  0.15844957087E+04  0.65864270000E+03 0.  0.
    8880022    1    1    2    0    0 -0.52202279864E+03  0.67528310660E+03 -0.58419645912E+03  0.10455583352E+04  0.15294330000E+03 0.  0.
<mgrwt>
<rscale>  0 0.10209827E+04</rscale>
<asrwt>0</asrwt>
<pdfrwt beam="1">  1        2 0.15792975E+00 0.10781119E+04</pdfrwt>
<pdfrwt beam="2">  1       -2 0.24669395E+00 0.10781119E+04</pdfrwt>
<totfact> 0.16100694E+00</totfact>
</mgrwt>
</event>
<event>
 4    5  0.8511149E-008  0.1139857E+04  0.7818608E-02  0.9217926E-01
         -2   -1    0    0    0  501 -0.00000000000E+00  0.00000000000E+00  0.11099745145E+04  0.11099745145E+04  0.25500000000E-02 0.  1.
          2   -1    0    0  501    0  0.00000000000E+00 -0.00000000000E+00 -0.23973743896E+04  0.23973743896E+04  0.25500000000E-02 0. -1.
    8880023    1    1    2    0    0  0.92553743329E+03  0.94045222346E+02  0.67889386816E+03  0.13267144134E+04  0.65864270000E+03 0.  1.
    8880022    1    1    2    0    0 -0.92553743329E+03 -0.94045222346E+02 -0.19662937433E+04  0.21806344907E+04  0.15294330000E+03 0.  0.
<mgrwt>
<rscale>  0 0.10870305E+04</rscale>
<asrwt>0</asrwt>
<pdfrwt beam="1">  1        2 0.36882683E+00 0.11398571E+04</pdfrwt>
<pdfrwt beam="2">  1       -2 0.17076531E+00 0.11398571E+04</pdfrwt>
<totfact> 0.82561725E-01</totfact>
</mgrwt>
</event>
<event>
 4    5  0.8511149E-008  0.9559087E+03  0.7818608E-02  0.9441663E-01
         -2   -1    0    0    0  501 -0.00000000000E+00  0.00000000000E+00  0.36153340814E+03  0.36153340815E+03  0.25500000000E-02 0.  1.
          2   -1    0    0  501    0  0.00000000000E+00 -0.00000000000E+00 -0.33384557783E+04  0.33384557783E+04  0.25500000000E-02 0. -1.
    8880023    1    1    2    0    0 -0.47113531011E+03 -0.50792005959E+03 -0.41581547364E+03  0.10424317636E+04  0.65864270000E+03 0.  1.
    8880022    1    1    2    0    0  0.47113531011E+03  0.50792005959E+03 -0.25611068965E+04  0.26575574228E+04  0.15294330000E+03 0.  0.
<mgrwt>
<rscale>  0 0.88724858E+03</rscale>
<asrwt>0</asrwt>
<pdfrwt beam="1">  1        2 0.51360856E+00 0.95590872E+03</pdfrwt>
<pdfrwt beam="2">  1       -2 0.55620527E-01 0.95590872E+03</pdfrwt>
<totfact> 0.33132714E+00</totfact>
</mgrwt>
</event>
<event>
 4    5  0.8511149E-008  0.8078762E+03  0.7818608E-02  0.9694018E-01
          2   -1    0    0  501    0  0.00000000000E+00  0.00000000000E+00  0.10720210715E+04  0.10720210715E+04  0.25500000000E-02 0. -1.
         -2   -1    0    0    0  501 -0.00000000000E+00 -0.00000000000E+00 -0.46863854737E+03  0.46863854737E+03  0.25500000000E-02 0.  1.
    8880023    1    1    2    0    0 -0.32092296574E+03  0.34038547392E+03  0.66270589020E+03  0.10449129744E+04  0.65864270000E+03 0. -1.
    8880022    1    1    2    0    0  0.32092296574E+03 -0.34038547392E+03 -0.59323366056E+02  0.49574664454E+03  0.15294330000E+03 0.  0.
<mgrwt>
<rscale>  0 0.71374091E+03</rscale>
<asrwt>0</asrwt>
<pdfrwt beam="1">  1        2 0.16492632E+00 0.80787624E+03</pdfrwt>
<pdfrwt beam="2">  1       -2 0.72098238E-01 0.80787624E+03</pdfrwt>
<totfact> 0.39955526E+01</totfact>
</mgrwt>
</event>
<event>
 4    5  0.8511149E-008  0.7869687E+03  0.7818608E-02  0.9739715E-01
          2   -1    0    0  501    0  0.00000000000E+00  0.00000000000E+00  0.50798860885E+03  0.50798860886E+03  0.25500000000E-02 0. -1.
         -2   -1    0    0    0  501 -0.00000000000E+00 -0.00000000000E+00 -0.13483518863E+04  0.13483518863E+04  0.25500000000E-02 0.  1.
    8880023    1    1    2    0    0 -0.24729668373E+03  0.35263839854E+03 -0.10831079329E+04  0.13388213064E+04  0.65864270000E+03 0.  0.
    8880022    1    1    2    0    0  0.24729668373E+03 -0.35263839854E+03  0.24274465549E+03  0.51751918872E+03  0.15294330000E+03 0.  0.
<mgrwt>
<rscale>  0 0.68700625E+03</rscale>
<asrwt>0</asrwt>
<pdfrwt beam="1">  1        2 0.78152094E-01 0.78696868E+03</pdfrwt>
<pdfrwt beam="2">  1       -2 0.20743875E+00 0.78696868E+03</pdfrwt>
<totfact> 0.73089610E+00</totfact>
</mgrwt>
</event>
<event>
 4    5  0.8511149E-008  0.1006096E+04  0.7818608E-02  0.9373626E-01
         -2   -1    0    0    0  501 -0.00000000000E+00  0.00000000000E+00  0.64965895397E+03  0.64965895397E+03  0.25500000000E-02 0.  1.
          2   -1    0    0  501    0  0.00000000000E+00 -0.00000000000E+00 -0.48876063566E+04  0.48876063566E+04  0.25500000000E-02 0. -1.
    8880023    1    1    2    0    0  0.75954534000E+03  0.38850712392E+02  0.20527964997E+03  0.10268244457E+04  0.65864270000E+03 0.  1.
    8880022    1    1    2    0    0 -0.75954534000E+03 -0.38850712392E+02 -0.44432270526E+04  0.45104408649E+04  0.15294330000E+03 0.  0.
<mgrwt>
<rscale>  0 0.94278341E+03</rscale>
<asrwt>0</asrwt>
<pdfrwt beam="1">  1        2 0.75193942E+00 0.10060958E+04</pdfrwt>
<pdfrwt beam="2">  1       -2 0.99947534E-01 0.10060958E+04</pdfrwt>
<totfact> 0.42573991E-02</totfact>
</mgrwt>
</event>
<event>
 4    5  0.8511149E-008  0.1158993E+04  0.7818608E-02  0.9198053E-01
          2   -1    0    0  501    0  0.00000000000E+00  0.00000000000E+00  0.84791050505E+03  0.84791050506E+03  0.25500000000E-02 0. -1.
         -2   -1    0    0    0  501 -0.00000000000E+00 -0.00000000000E+00 -0.17711982504E+04  0.17711982504E+04  0.25500000000E-02 0.  1.
    8880023    1    1    2    0    0 -0.22745671342E+03  0.92613025299E+03 -0.11438656915E+04  0.16284018940E+04  0.65864270000E+03 0.  0.
    8880022    1    1    2    0    0  0.22745671342E+03 -0.92613025299E+03  0.22057794615E+03  0.99070686145E+03  0.15294330000E+03 0.  0.
<mgrwt>
<rscale>  0 0.11073546E+04</rscale>
<asrwt>0</asrwt>
<pdfrwt beam="1">  1        2 0.13044777E+00 0.11589927E+04</pdfrwt>
<pdfrwt beam="2">  1       -2 0.27249204E+00 0.11589927E+04</pdfrwt>
<totfact> 0.14632676E+00</totfact>
</mgrwt>
</event>
<event>
 4    5  0.8511149E-008  0.7810536E+03  0.7818608E-02  0.9753368E-01
          2   -1    0    0  501    0  0.00000000000E+00  0.00000000000E+00  0.20912611279E+04  0.20912611279E+04  0.25500000000E-02 0. -1.
         -2   -1    0    0    0  501 -0.00000000000E+00 -0.00000000000E+00 -0.24313845500E+03  0.24313845501E+03  0.25500000000E-02 0.  1.
    8880023    1    1    2    0    0 -0.24815425696E+03 -0.33860586901E+03  0.53334940570E+03  0.94578341316E+03  0.65864270000E+03 0.  1.
    8880022    1    1    2    0    0  0.24815425696E+03  0.33860586901E+03  0.13147732672E+04  0.13886161698E+04  0.15294330000E+03 0.  0.
<mgrwt>
<rscale>  0 0.67926273E+03</rscale>
<asrwt>0</asrwt>
<pdfrwt beam="1">  1        2 0.32173248E+00 0.78105357E+03</pdfrwt>
<pdfrwt beam="2">  1       -2 0.37405917E-01 0.78105357E+03</pdfrwt>
<totfact> 0.41202048E+01</totfact>
</mgrwt>
</event>
<event>
 4    5  0.8511149E-008  0.1552447E+04  0.7818608E-02  0.8873462E-01
          2   -1    0    0  501    0  0.00000000000E+00  0.00000000000E+00  0.10989449190E+04  0.10989449190E+04  0.25500000000E-02 0. -1.
         -2   -1    0    0    0  501 -0.00000000000E+00 -0.00000000000E+00 -0.26727557796E+04  0.26727557796E+04  0.25500000000E-02 0.  1.
    8880023    1    1    2    0    0  0.12169498282E+04 -0.70378563531E+03  0.12956466384E+03  0.15578441235E+04  0.65864270000E+03 0.  0.
    8880022    1    1    2    0    0 -0.12169498282E+04  0.70378563531E+03 -0.17033755244E+04  0.22138565751E+04  0.15294330000E+03 0.  0.
<mgrwt>
<rscale>  0 0.15166397E+04</rscale>
<asrwt>0</asrwt>
<pdfrwt beam="1">  1        2 0.16906845E+00 0.15524469E+04</pdfrwt>
<pdfrwt beam="2">  1       -2 0.41119319E+00 0.15524469E+04</pdfrwt>
<totfact> 0.12884935E-01</totfact>
</mgrwt>
</event>
<event>
 4    5  0.8511149E-008  0.7221834E+03  0.7818608E-02  0.9915266E-01
          2   -1    0    0  501    0  0.00000000000E+00  0.00000000000E+00  0.32334865051E+04  0.32334865051E+04  0.25500000000E-02 0. -1.
         -2   -1    0    0    0  501 -0.00000000000E+00 -0.00000000000E+00 -0.19175256743E+03  0.19175256744E+03  0.25500000000E-02 0.  1.
    8880023    1    1    2    0    0  0.27751274438E+03  0.10356312107E+03  0.54090659785E+03  0.90229086064E+03  0.65864270000E+03 0.  0.
    8880022    1    1    2    0    0 -0.27751274438E+03 -0.10356312107E+03  0.25008273399E+04  0.25229482119E+04  0.15294330000E+03 0.  0.
<mgrwt>
<rscale>  0 0.59527094E+03</rscale>
<asrwt>0</asrwt>
<pdfrwt beam="1">  1        2 0.49745948E+00 0.72218339E+03</pdfrwt>
<pdfrwt beam="2">  1       -2 0.29500394E-01 0.72218339E+03</pdfrwt>
<totfact> 0.14005211E+01</totfact>
</mgrwt>
</event>
<event>
 4    5  0.8511149E-008  0.8190312E+03  0.7818608E-02  0.9671063E-01
         -2   -1    0    0    0  501 -0.00000000000E+00  0.00000000000E+00  0.86192730189E+03  0.86192730189E+03  0.25500000000E-02 0.  1.
          2   -1    0    0  501    0  0.00000000000E+00 -0.00000000000E+00 -0.24661435921E+04  0.24661435921E+04  0.25500000000E-02 0. -1.
    8880023    1    1    2    0    0 -0.48648018675E+03 -0.18411572945E+02  0.63190497600E+03  0.10344641430E+04  0.65864270000E+03 0.  1.
    8880022    1    1    2    0    0  0.48648018675E+03  0.18411572945E+02 -0.22361212662E+04  0.22936067510E+04  0.15294330000E+03 0.  0.
<mgrwt>
<rscale>  0 0.72766107E+03</rscale>
<asrwt>0</asrwt>
<pdfrwt beam="1">  1        2 0.37940670E+00 0.81903124E+03</pdfrwt>
<pdfrwt beam="2">  1       -2 0.13260420E+00 0.81903124E+03</pdfrwt>
<totfact> 0.15586488E+00</totfact>
</mgrwt>
</event>
<event>
 4    5  0.8511149E-008  0.1317102E+04  0.7818608E-02  0.9050930E-01
          2   -1    0    0  501    0  0.00000000000E+00  0.00000000000E+00  0.17157258854E+04  0.17157258854E+04  0.25500000000E-02 0. -1.
         -2   -1    0    0    0  501 -0.00000000000E+00 -0.00000000000E+00 -0.11896264346E+04  0.11896264346E+04  0.25500000000E-02 0.  1.
    8880023    1    1    2    0    0 -0.72687718684E+03 -0.87897507451E+03 -0.45461560301E+03  0.13933532141E+04  0.65864270000E+03 0.  0.
    8880022    1    1    2    0    0  0.72687718684E+03  0.87897507451E+03  0.98071505384E+03  0.15119991059E+04  0.15294330000E+03 0.  0.
<mgrwt>
<rscale>  0 0.12733989E+04</rscale>
<asrwt>0</asrwt>
<pdfrwt beam="1">  1        2 0.26395783E+00 0.13171021E+04</pdfrwt>
<pdfrwt beam="2">  1       -2 0.18301945E+00 0.13171021E+04</pdfrwt>
<totfact> 0.15923038E+00</totfact>
</mgrwt>
</event>
<event>
 4    5  0.8511149E-008  0.7271964E+03  0.7818608E-02  0.9898948E-01
          2   -1    0    0  501    0  0.00000000000E+00  0.00000000000E+00  0.79383113185E+03  0.79383113185E+03  0.25500000000E-02 0. -1.
         -2   -1    0    0    0  501 -0.00000000000E+00 -0.00000000000E+00 -0.44200239628E+03  0.44200239629E+03  0.25500000000E-02 0.  1.
    8880023    1    1    2    0    0 -0.25277759307E+03 -0.17637443928E+03 -0.22294405827E+02  0.72753810978E+03  0.65864270000E+03 0.  0.
    8880022    1    1    2    0    0  0.25277759307E+03  0.17637443928E+03  0.37412314140E+03  0.50829541836E+03  0.15294330000E+03 0.  0.
<mgrwt>
<rscale>  0 0.60312313E+03</rscale>
<asrwt>0</asrwt>
<pdfrwt beam="1">  1        2 0.12212787E+00 0.72719644E+03</pdfrwt>
<pdfrwt beam="2">  1       -2 0.68000369E-01 0.72719644E+03</pdfrwt>
<totfact> 0.69936614E+01</totfact>
</mgrwt>
</event>
<event>
 4    5  0.8511149E-008  0.7229792E+03  0.7818608E-02  0.9912631E-01
         -2   -1    0    0    0  501 -0.00000000000E+00  0.00000000000E+00  0.92082853926E+03  0.92082853927E+03  0.25500000000E-02 0.  1.
          2   -1    0    0  501    0  0.00000000000E+00 -0.00000000000E+00 -0.13807578100E+04  0.13807578100E+04  0.25500000000E-02 0. -1.
    8880023    1    1    2    0    0 -0.23660352450E+02  0.29720176636E+03  0.75260386643E+03  0.10436050442E+04  0.65864270000E+03 0.  1.
    8880022    1    1    2    0    0  0.23660352450E+02 -0.29720176636E+03 -0.12125331372E+04  0.12579813051E+04  0.15294330000E+03 0.  0.
<mgrwt>
<rscale>  0 0.59653004E+03</rscale>
<asrwt>0</asrwt>
<pdfrwt beam="1">  1        2 0.21242428E+00 0.72297919E+03</pdfrwt>
<pdfrwt beam="2">  1       -2 0.14166593E+00 0.72297919E+03</pdfrwt>
<totfact> 0.53135553E+00</totfact>
</mgrwt>
</event>
<event>
 4    5  0.8511149E-008  0.8002302E+03  0.7818608E-02  0.9710298E-01
          2   -1    0    0  501    0  0.00000000000E+00  0.00000000000E+00  0.90309761020E+03  0.90309761021E+03  0.25500000000E-02 0. -1.
         -2   -1    0    0    0  501 -0.00000000000E+00 -0.00000000000E+00 -0.11245100364E+04  0.11245100364E+04  0.25500000000E-02 0.  1.
    8880023    1    1    2    0    0  0.12649962614E+03  0.43652730613E+03 -0.89511775448E+03  0.12006682494E+04  0.65864270000E+03 0.  1.
    8880022    1    1    2    0    0 -0.12649962614E+03 -0.43652730613E+03  0.67370532825E+03  0.82693939726E+03  0.15294330000E+03 0.  0.
<mgrwt>
<rscale>  0 0.70406925E+03</rscale>
<asrwt>0</asrwt>
<pdfrwt beam="1">  1        2 0.13893809E+00 0.80023025E+03</pdfrwt>
<pdfrwt beam="2">  1       -2 0.17300154E+00 0.80023025E+03</pdfrwt>
<totfact> 0.59991121E+00</totfact>
</mgrwt>
</event>
<event>
 4    5  0.8511149E-008  0.7546941E+03  0.7818608E-02  0.9819043E-01
         -2   -1    0    0    0  501 -0.00000000000E+00  0.00000000000E+00  0.68223386241E+03  0.68223386241E+03  0.25500000000E-02 0.  1.
          2   -1    0    0  501    0  0.00000000000E+00 -0.00000000000E+00 -0.65027420450E+03  0.65027420451E+03  0.25500000000E-02 0. -1.
    8880023    1    1    2    0    0 -0.35206593502E+03 -0.10863949495E+03  0.34072833826E+03  0.82804527003E+03  0.65864270000E+03 0.  0.
    8880022    1    1    2    0    0  0.35206593502E+03  0.10863949495E+03 -0.30876868036E+03  0.50446279689E+03  0.15294330000E+03 0.  0.
<mgrwt>
<rscale>  0 0.64350541E+03</rscale>
<asrwt>0</asrwt>
<pdfrwt beam="1">  1        2 0.10004218E+00 0.75469409E+03</pdfrwt>
<pdfrwt beam="2">  1       -2 0.10495906E+00 0.75469409E+03</pdfrwt>
<totfact> 0.33481302E+01</totfact>
</mgrwt>
</event>
<event>
 4    5  0.8511149E-008  0.1403914E+04  0.7818608E-02  0.8980647E-01
         -2   -1    0    0    0  501 -0.00000000000E+00  0.00000000000E+00  0.87923161341E+03  0.87923161341E+03  0.25500000000E-02 0.  1.
          2   -1    0    0  501    0  0.00000000000E+00 -0.00000000000E+00 -0.23846066679E+04  0.23846066679E+04  0.25500000000E-02 0. -1.
    8880023    1    1    2    0    0 -0.71420057667E+03  0.10134511307E+04 -0.13634955360E+03  0.14105201399E+04  0.65864270000E+03 0.  0.
    8880022    1    1    2    0    0  0.71420057667E+03 -0.10134511307E+04 -0.13690255009E+04  0.18533181414E+04  0.15294330000E+03 0.  0.
<mgrwt>
<rscale>  0 0.13635324E+04</rscale>
<asrwt>0</asrwt>
<pdfrwt beam="1">  1        2 0.36686256E+00 0.14039145E+04</pdfrwt>
<pdfrwt beam="2">  1       -2 0.13526640E+00 0.14039145E+04</pdfrwt>
<totfact> 0.15222503E+00</totfact>
</mgrwt>
</event>
<event>
 4    5  0.8511149E-008  0.8172098E+03  0.7818608E-02  0.9674750E-01
          2   -1    0    0  501    0  0.00000000000E+00  0.00000000000E+00  0.22857967074E+04  0.22857967074E+04  0.25500000000E-02 0. -1.
         -2   -1    0    0    0  501 -0.00000000000E+00 -0.00000000000E+00 -0.32575409531E+03  0.32575409532E+03  0.25500000000E-02 0.  1.
    8880023    1    1    2    0    0  0.24433445579E+03  0.41751932399E+03  0.29160760861E+03  0.86767903965E+03  0.65864270000E+03 0.  1.
    8880022    1    1    2    0    0 -0.24433445579E+03 -0.41751932399E+03  0.16684350035E+04  0.17438717631E+04  0.15294330000E+03 0.  0.
<mgrwt>
<rscale>  0 0.72540255E+03</rscale>
<asrwt>0</asrwt>
<pdfrwt beam="1">  1        2 0.35166103E+00 0.81720984E+03</pdfrwt>
<pdfrwt beam="2">  1       -2 0.50116015E-01 0.81720984E+03</pdfrwt>
<totfact> 0.17935557E+01</totfact>
</mgrwt>
</event>
<event>
 4    5  0.8511149E-008  0.7564001E+03  0.7818608E-02  0.9814518E-01
          2   -1    0    0  501    0  0.00000000000E+00  0.00000000000E+00  0.15485087014E+04  0.15485087014E+04  0.25500000000E-02 0. -1.
         -2   -1    0    0    0  501 -0.00000000000E+00 -0.00000000000E+00 -0.63115002321E+03  0.63115002322E+03  0.25500000000E-02 0.  1.
    8880023    1    1    2    0    0 -0.19438191631E+02  0.37142033689E+03 -0.36201641598E+03  0.83856842395E+03  0.65864270000E+03 0.  1.
    8880022    1    1    2    0    0  0.19438191631E+02 -0.37142033689E+03  0.12793750942E+04  0.13410903007E+04  0.15294330000E+03 0.  0.
<mgrwt>
<rscale>  0 0.64589216E+03</rscale>
<asrwt>0</asrwt>
<pdfrwt beam="1">  1        2 0.23823210E+00 0.75640010E+03</pdfrwt>
<pdfrwt beam="2">  1       -2 0.97100005E-01 0.75640010E+03</pdfrwt>
<totfact> 0.10813252E+01</totfact>
</mgrwt>
</event>
<event>
 4    5  0.8511149E-008  0.6887209E+03  0.7818608E-02  0.1004767E+00
          2   -1    0    0  501    0  0.00000000000E+00  0.00000000000E+00  0.27131406975E+04  0.27131406975E+04  0.25500000000E-02 0. -1.
         -2   -1    0    0    0  501 -0.00000000000E+00 -0.00000000000E+00 -0.83569573077E+02  0.83569573116E+02  0.25500000000E-02 0.  1.
    8880023    1    1    2    0    0 -0.19414540883E+03  0.53233411265E+02  0.20964326933E+04  0.22066641066E+04  0.65864270000E+03 0.  0.
    8880022    1    1    2    0    0  0.19414540883E+03 -0.53233411265E+02  0.53313843121E+03  0.59004616404E+03  0.15294330000E+03 0.  0.
<mgrwt>
<rscale>  0 0.53608695E+03</rscale>
<asrwt>0</asrwt>
<pdfrwt beam="1">  1        2 0.41740619E+00 0.68872087E+03</pdfrwt>
<pdfrwt beam="2">  1       -2 0.12856860E-01 0.68872087E+03</pdfrwt>
<totfact> 0.12460103E+02</totfact>
</mgrwt>
</event>
<event>
 4    5  0.8511149E-008  0.8237528E+03  0.7818608E-02  0.9661612E-01
         -2   -1    0    0    0  501 -0.00000000000E+00  0.00000000000E+00  0.93980476069E+03  0.93980476070E+03  0.25500000000E-02 0.  1.
          2   -1    0    0  501    0  0.00000000000E+00 -0.00000000000E+00 -0.19975201132E+04  0.19975201132E+04  0.25500000000E-02 0. -1.
    8880023    1    1    2    0    0  0.57575857001E+02 -0.49136894390E+03  0.71484423050E+03  0.10906745154E+04  0.65864270000E+03 0.  0.
    8880022    1    1    2    0    0 -0.57575857001E+02  0.49136894390E+03 -0.17725595830E+04  0.18466503585E+04  0.15294330000E+03 0.  0.
<mgrwt>
<rscale>  0 0.73349120E+03</rscale>
<asrwt>0</asrwt>
<pdfrwt beam="1">  1        2 0.30731079E+00 0.82375277E+03</pdfrwt>
<pdfrwt beam="2">  1       -2 0.14458535E+00 0.82375277E+03</pdfrwt>
<totfact> 0.22667545E+00</totfact>
</mgrwt>
</event>
<event>
 4    5  0.8511149E-008  0.1135272E+04  0.7818608E-02  0.9222765E-01
         -2   -1    0    0    0  501 -0.00000000000E+00  0.00000000000E+00  0.59933160698E+03  0.59933160698E+03  0.25500000000E-02 0.  1.
          2   -1    0    0  501    0  0.00000000000E+00 -0.00000000000E+00 -0.34419207119E+04  0.34419207119E+04  0.25500000000E-02 0. -1.
    8880023    1    1    2    0    0 -0.92438904879E+03 -0.23173832446E+02 -0.96196948282E+02  0.11393402473E+04  0.65864270000E+03 0.  0.
    8880022    1    1    2    0    0  0.92438904879E+03  0.23173832446E+02 -0.27463921567E+04  0.29019120716E+04  0.15294330000E+03 0.  0.
<mgrwt>
<rscale>  0 0.10821512E+04</rscale>
<asrwt>0</asrwt>
<pdfrwt beam="1">  1        2 0.52952625E+00 0.11352719E+04</pdfrwt>
<pdfrwt beam="2">  1       -2 0.92204865E-01 0.11352719E+04</pdfrwt>
<totfact> 0.90037813E-01</totfact>
</mgrwt>
</event>
<event>
 4    5  0.8511149E-008  0.1227063E+04  0.7818608E-02  0.9131254E-01
          2   -1    0    0  501    0  0.00000000000E+00  0.00000000000E+00  0.29068832018E+04  0.29068832018E+04  0.25500000000E-02 0. -1.
         -2   -1    0    0    0  501 -0.00000000000E+00 -0.00000000000E+00 -0.73365037292E+03  0.73365037292E+03  0.25500000000E-02 0.  1.
    8880023    1    1    2    0    0  0.94232567583E+03 -0.42883096347E+03 -0.15245771803E+01  0.12270640591E+04  0.65864270000E+03 0.  0.
    8880022    1    1    2    0    0 -0.94232567583E+03  0.42883096347E+03  0.21747574061E+04  0.24134695156E+04  0.15294330000E+03 0.  0.
<mgrwt>
<rscale>  0 0.11792071E+04</rscale>
<asrwt>0</asrwt>
<pdfrwt beam="1">  1        2 0.44721280E+00 0.12270631E+04</pdfrwt>
<pdfrwt beam="2">  1       -2 0.11286929E+00 0.12270631E+04</pdfrwt>
<totfact> 0.12079769E+00</totfact>
</mgrwt>
</event>
<event>
 4    5  0.8511149E-008  0.1168566E+04  0.7818608E-02  0.9188300E-01
         -2   -1    0    0    0  501 -0.00000000000E+00  0.00000000000E+00  0.80392691492E+03  0.80392691493E+03  0.25500000000E-02 0.  1.
          2   -1    0    0  501    0  0.00000000000E+00 -0.00000000000E+00 -0.18338429396E+04  0.18338429396E+04  0.25500000000E-02 0. -1.
    8880023    1    1    2    0    0 -0.37485495842E+02  0.96453718308E+03  0.64695767819E+02  0.11703558812E+04  0.65864270000E+03 0.  1.
    8880022    1    1    2    0    0  0.37485495842E+02 -0.96453718308E+03 -0.10946117925E+04  0.14674139734E+04  0.15294330000E+03 0.  0.
<mgrwt>
<rscale>  0 0.11175006E+04</rscale>
<asrwt>0</asrwt>
<pdfrwt beam="1">  1        2 0.28212968E+00 0.11685664E+04</pdfrwt>
<pdfrwt beam="2">  1       -2 0.12368106E+00 0.11685664E+04</pdfrwt>
<totfact> 0.39804034E+00</totfact>
</mgrwt>
</event>
<event>
 4    5  0.8511149E-008  0.1016870E+04  0.7818608E-02  0.9359812E-01
          2   -1    0    0  501    0  0.00000000000E+00  0.00000000000E+00  0.13144179994E+04  0.13144179994E+04  0.25500000000E-02 0. -1.
         -2   -1    0    0    0  501 -0.00000000000E+00 -0.00000000000E+00 -0.13183017979E+04  0.13183017979E+04  0.25500000000E-02 0.  1.
    8880023    1    1    2    0    0  0.16926217827E+03 -0.75601919120E+03 -0.95602832672E+03  0.13957131045E+04  0.65864270000E+03 0.  0.
    8880022    1    1    2    0    0 -0.16926217827E+03  0.75601919120E+03  0.95214452814E+03  0.12370066928E+04  0.15294330000E+03 0.  0.
<mgrwt>
<rscale>  0 0.95458134E+03</rscale>
<asrwt>0</asrwt>
<pdfrwt beam="1">  1        2 0.20221815E+00 0.10168702E+04</pdfrwt>
<pdfrwt beam="2">  1       -2 0.20281566E+00 0.10168702E+04</pdfrwt>
<totfact> 0.20476422E+00</totfact>
</mgrwt>
</event>
<event>
 4    5  0.8511149E-008  0.6746208E+03  0.7818608E-02  0.1012546E+00
          2   -1    0    0  501    0  0.00000000000E+00  0.00000000000E+00  0.25316237081E+04  0.25316237081E+04  0.25500000000E-02 0. -1.
         -2   -1    0    0    0  501 -0.00000000000E+00 -0.00000000000E+00 -0.12912539084E+03  0.12912539087E+03  0.25500000000E-02 0.  1.
    8880023    1    1    2    0    0 -0.45666549808E+02  0.13862742151E+03  0.80938025500E+03  0.10536648420E+04  0.65864270000E+03 0.  1.
    8880022    1    1    2    0    0  0.45666549808E+02 -0.13862742151E+03  0.15931180623E+04  0.16070842570E+04  0.15294330000E+03 0.  0.
<mgrwt>
<rscale>  0 0.50475047E+03</rscale>
<asrwt>0</asrwt>
<pdfrwt beam="1">  1        2 0.38948054E+00 0.67462078E+03</pdfrwt>
<pdfrwt beam="2">  1       -2 0.19865446E-01 0.67462078E+03</pdfrwt>
<totfact> 0.75686651E+01</totfact>
</mgrwt>
</event>
<event>
 4    5  0.8511149E-008  0.1054214E+04  0.7818608E-02  0.9313833E-01
          2   -1    0    0  501    0  0.00000000000E+00  0.00000000000E+00  0.26470752739E+04  0.26470752739E+04  0.25500000000E-02 0. -1.
         -2   -1    0    0    0  501 -0.00000000000E+00 -0.00000000000E+00 -0.69812566974E+03  0.69812566974E+03  0.25500000000E-02 0.  1.
    8880023    1    1    2    0    0  0.41562146732E+03 -0.71050344485E+03 -0.16909499498E+03  0.10676889401E+04  0.65864270000E+03 0.  0.
    8880022    1    1    2    0    0 -0.41562146732E+03  0.71050344485E+03  0.21180445991E+04  0.22775120035E+04  0.15294330000E+03 0.  0.
<mgrwt>
<rscale>  0 0.99519279E+03</rscale>
<asrwt>0</asrwt>
<pdfrwt beam="1">  1        2 0.40724234E+00 0.10542137E+04</pdfrwt>
<pdfrwt beam="2">  1       -2 0.10740395E+00 0.10542137E+04</pdfrwt>
<totfact> 0.19932615E+00</totfact>
</mgrwt>
</event>
<event>
 4    5  0.8511149E-008  0.1026349E+04  0.7818608E-02  0.9347869E-01
          2   -1    0    0  501    0  0.00000000000E+00  0.00000000000E+00  0.27438601073E+04  0.27438601073E+04  0.25500000000E-02 0. -1.
         -2   -1    0    0    0  501 -0.00000000000E+00 -0.00000000000E+00 -0.92880024864E+03  0.92880024864E+03  0.25500000000E-02 0.  1.
    8880023    1    1    2    0    0  0.35683125905E+03  0.70160724020E+03 -0.55769149725E+03  0.11680801682E+04  0.65864270000E+03 0.  0.
    8880022    1    1    2    0    0 -0.35683125905E+03 -0.70160724020E+03  0.23727513559E+04  0.25045801877E+04  0.15294330000E+03 0.  0.
<mgrwt>
<rscale>  0 0.96492878E+03</rscale>
<asrwt>0</asrwt>
<pdfrwt beam="1">  1        2 0.42213232E+00 0.10263486E+04</pdfrwt>
<pdfrwt beam="2">  1       -2 0.14289235E+00 0.10263486E+04</pdfrwt>
<totfact> 0.85686585E-01</totfact>
</mgrwt>
</event>
<event>
 4    5  0.8511149E-008  0.1297217E+04  0.7818608E-02  0.9067967E-01
          2   -1    0    0  501    0  0.00000000000E+00  0.00000000000E+00  0.23765154175E+04  0.23765154175E+04  0.25500000000E-02 0. -1.
         -2   -1    0    0    0  501 -0.00000000000E+00 -0.00000000000E+00 -0.14191733950E+04  0.14191733950E+04  0.25500000000E-02 0.  1.
    8880023    1    1    2    0    0  0.62581894671E+03  0.92591217965E+03 -0.93056586828E+03  0.15964729124E+04  0.65864270000E+03 0.  1.
    8880022    1    1    2    0    0 -0.62581894671E+03 -0.92591217965E+03  0.18879078908E+04  0.21992159002E+04  0.15294330000E+03 0.  0.
<mgrwt>
<rscale>  0 0.12526668E+04</rscale>
<asrwt>0</asrwt>
<pdfrwt beam="1">  1        2 0.36561776E+00 0.12972174E+04</pdfrwt>
<pdfrwt beam="2">  1       -2 0.21833437E+00 0.12972174E+04</pdfrwt>
<totfact> 0.39937573E-01</totfact>
</mgrwt>
</event>
<event>
 4    5  0.8511149E-008  0.6962573E+03  0.7818608E-02  0.1001310E+00
          2   -1    0    0  501    0  0.00000000000E+00  0.00000000000E+00  0.57992784127E+03  0.57992784127E+03  0.25500000000E-02 0. -1.
         -2   -1    0    0    0  501 -0.00000000000E+00 -0.00000000000E+00 -0.81945508894E+03  0.81945508895E+03  0.25500000000E-02 0.  1.
    8880023    1    1    2    0    0 -0.21370270546E+03  0.72767593663E+02 -0.61931666848E+03  0.93184081856E+03  0.65864270000E+03 0.  1.
    8880022    1    1    2    0    0  0.21370270546E+03 -0.72767593663E+02  0.37978942080E+03  0.46754211166E+03  0.15294330000E+03 0.  0.
<mgrwt>
<rscale>  0 0.55079695E+03</rscale>
<asrwt>0</asrwt>
<pdfrwt beam="1">  1        2 0.89219667E-01 0.69625726E+03</pdfrwt>
<pdfrwt beam="2">  1       -2 0.12607001E+00 0.69625726E+03</pdfrwt>
<totfact> 0.24683556E+01</totfact>
</mgrwt>
</event>
<event>
 4    5  0.8511149E-008  0.1018309E+04  0.7818608E-02  0.9357986E-01
          2   -1    0    0  501    0  0.00000000000E+00  0.00000000000E+00  0.22079256072E+04  0.22079256072E+04  0.25500000000E-02 0. -1.
         -2   -1    0    0    0  501 -0.00000000000E+00 -0.00000000000E+00 -0.51934682749E+03  0.51934682750E+03  0.25500000000E-02 0.  1.
    8880023    1    1    2    0    0  0.46596410781E+03  0.62130552473E+03  0.19485309234E+03  0.10367839884E+04  0.65864270000E+03 0.  0.
    8880022    1    1    2    0    0 -0.46596410781E+03 -0.62130552473E+03  0.14937256874E+04  0.16904884463E+04  0.15294330000E+03 0.  0.
<mgrwt>
<rscale>  0 0.95615400E+03</rscale>
<asrwt>0</asrwt>
<pdfrwt beam="1">  1        2 0.33968086E+00 0.10183090E+04</pdfrwt>
<pdfrwt beam="2">  1       -2 0.79899511E-01 0.10183090E+04</pdfrwt>
<totfact> 0.71059149E+00</totfact>
</mgrwt>
</event>
<event>
 4    5  0.8511149E-008  0.8584226E+03  0.7818608E-02  0.9596375E-01
         -2   -1    0    0    0  501 -0.00000000000E+00  0.00000000000E+00  0.37897064644E+03  0.37897064644E+03  0.25500000000E-02 0.  1.
          2   -1    0    0  501    0  0.00000000000E+00 -0.00000000000E+00 -0.22425990846E+04  0.22425990846E+04  0.25500000000E-02 0. -1.
    8880023    1    1    2    0    0 -0.23520838412E+03  0.49775117307E+03 -0.22679656827E+03  0.88787730227E+03  0.65864270000E+03 0.  0.
    8880022    1    1    2    0    0  0.23520838412E+03 -0.49775117307E+03 -0.16368318698E+04  0.17336924287E+04  0.15294330000E+03 0.  0.
<mgrwt>
<rscale>  0 0.77536541E+03</rscale>
<asrwt>0</asrwt>
<pdfrwt beam="1">  1        2 0.34501524E+00 0.85842264E+03</pdfrwt>
<pdfrwt beam="2">  1       -2 0.58303177E-01 0.85842264E+03</pdfrwt>
<totfact> 0.13778110E+01</totfact>
</mgrwt>
</event>
<event>
 4    5  0.8511149E-008  0.9600058E+03  0.7818608E-02  0.9435862E-01
          2   -1    0    0  501    0  0.00000000000E+00  0.00000000000E+00  0.16921330994E+04  0.16921330994E+04  0.25500000000E-02 0. -1.
         -2   -1    0    0    0  501 -0.00000000000E+00 -0.00000000000E+00 -0.74274489765E+03  0.74274489766E+03  0.25500000000E-02 0.  1.
    8880023    1    1    2    0    0  0.51786308381E+03  0.46863492181E+03 -0.29103476661E+03  0.10031511876E+04  0.65864270000E+03 0.  0.
    8880022    1    1    2    0    0 -0.51786308381E+03 -0.46863492181E+03  0.12404229683E+04  0.14317268094E+04  0.15294330000E+03 0.  0.
<mgrwt>
<rscale>  0 0.89182253E+03</rscale>
<asrwt>0</asrwt>
<pdfrwt beam="1">  1        2 0.26032816E+00 0.96000577E+03</pdfrwt>
<pdfrwt beam="2">  1       -2 0.11426845E+00 0.96000577E+03</pdfrwt>
<totfact> 0.59363223E+00</totfact>
</mgrwt>
</event>
<event>
 4    5  0.8511149E-008  0.7754138E+03  0.7818608E-02  0.9766722E-01
         -2   -1    0    0    0  501 -0.00000000000E+00  0.00000000000E+00  0.17173224001E+03  0.17173224003E+03  0.25500000000E-02 0.  1.
          2   -1    0    0  501    0  0.00000000000E+00 -0.00000000000E+00 -0.26948963668E+04  0.26948963668E+04  0.25500000000E-02 0. -1.
    8880023    1    1    2    0    0  0.38303751197E+03 -0.14400930514E+03 -0.91099836336E+03  0.11963212946E+04  0.65864270000E+03 0.  0.
    8880022    1    1    2    0    0 -0.38303751197E+03  0.14400930514E+03 -0.16121657634E+04  0.16703073122E+04  0.15294330000E+03 0.  0.
<mgrwt>
<rscale>  0 0.67179402E+03</rscale>
<asrwt>0</asrwt>
<pdfrwt beam="1">  1        2 0.41459941E+00 0.77541384E+03</pdfrwt>
<pdfrwt beam="2">  1       -2 0.26420347E-01 0.77541384E+03</pdfrwt>
<totfact> 0.36178381E+01</totfact>
</mgrwt>
</event>
<event>
 4    5  0.8511149E-008  0.8408151E+03  0.7818608E-02  0.9628645E-01
         -2   -1    0    0    0  501 -0.00000000000E+00  0.00000000000E+00  0.28427164044E+04  0.28427164044E+04  0.25500000000E-02 0.  1.
          2   -1    0    0  501    0  0.00000000000E+00 -0.00000000000E+00 -0.64574825450E+03  0.64574825450E+03  0.25500000000E-02 0. -1.
    8880023    1    1    2    0    0 -0.36380673221E+03  0.37523928257E+03  0.26499380183E+04  0.27801333718E+04  0.65864270000E+03 0.  1.
    8880022    1    1    2    0    0  0.36380673221E+03 -0.37523928257E+03 -0.45296986844E+03  0.70833128712E+03  0.15294330000E+03 0.  0.
<mgrwt>
<rscale>  0 0.75428922E+03</rscale>
<asrwt>0</asrwt>
<pdfrwt beam="1">  1        2 0.99345884E-01 0.84081512E+03</pdfrwt>
<pdfrwt beam="2">  1       -2 0.43734099E+00 0.84081512E+03</pdfrwt>
<totfact> 0.20007623E-01</totfact>
</mgrwt>
</event>
<event>
 4    5  0.8511149E-008  0.6671327E+03  0.7818608E-02  0.1017807E+00
          2   -1    0    0  501    0  0.00000000000E+00  0.00000000000E+00  0.44635778287E+03  0.44635778288E+03  0.25500000000E-02 0. -1.
         -2   -1    0    0    0  501 -0.00000000000E+00 -0.00000000000E+00 -0.11325535711E+04  0.11325535711E+04  0.25500000000E-02 0.  1.
    8880023    1    1    2    0    0  0.23085560367E+02  0.10355146223E+03 -0.10070461268E+04  0.12079768029E+04  0.65864270000E+03 0.  1.
    8880022    1    1    2    0    0 -0.23085560367E+02 -0.10355146223E+03  0.32085033860E+03  0.37093455113E+03  0.15294330000E+03 0.  0.
<mgrwt>
<rscale>  0 0.48486202E+03</rscale>
<asrwt>0</asrwt>
<pdfrwt beam="1">  1        2 0.68670429E-01 0.66713271E+03</pdfrwt>
<pdfrwt beam="2">  1       -2 0.17423901E+00 0.66713271E+03</pdfrwt>
<totfact> 0.14297590E+01</totfact>
</mgrwt>
</event>
<event>
 4    5  0.8511149E-008  0.7439401E+03  0.7818608E-02  0.9848615E-01
         -2   -1    0    0    0  501 -0.00000000000E+00  0.00000000000E+00  0.13498816524E+04  0.13498816524E+04  0.25500000000E-02 0.  1.
          2   -1    0    0  501    0  0.00000000000E+00 -0.00000000000E+00 -0.15707314345E+04  0.15707314345E+04  0.25500000000E-02 0. -1.
    8880023    1    1    2    0    0 -0.33255017472E+03  0.95115699979E+02  0.12211117000E+04  0.14298813256E+04  0.65864270000E+03 0.  1.
    8880022    1    1    2    0    0  0.33255017472E+03 -0.95115699979E+02 -0.14419614822E+04  0.14907317613E+04  0.15294330000E+03 0.  0.
<mgrwt>
<rscale>  0 0.62817579E+03</rscale>
<asrwt>0</asrwt>
<pdfrwt beam="1">  1        2 0.24165099E+00 0.74394007E+03</pdfrwt>
<pdfrwt beam="2">  1       -2 0.20767410E+00 0.74394007E+03</pdfrwt>
<totfact> 0.14225489E+00</totfact>
</mgrwt>
</event>
<event>
 4    5  0.8511149E-008  0.1297852E+04  0.7818608E-02  0.9067417E-01
          2   -1    0    0  501    0  0.00000000000E+00  0.00000000000E+00  0.14561518737E+04  0.14561518737E+04  0.25500000000E-02 0. -1.
         -2   -1    0    0    0  501 -0.00000000000E+00 -0.00000000000E+00 -0.12989429464E+04  0.12989429464E+04  0.25500000000E-02 0.  1.
    8880023    1    1    2    0    0  0.19533635526E+03  0.11011143595E+04 -0.56457181038E+03  0.14153305832E+04  0.65864270000E+03 0.  0.
    8880022    1    1    2    0    0 -0.19533635526E+03 -0.11011143595E+04  0.72178073770E+03  0.13397642370E+04  0.15294330000E+03 0.  0.
<mgrwt>
<rscale>  0 0.12533289E+04</rscale>
<asrwt>0</asrwt>
<pdfrwt beam="1">  1        2 0.22402337E+00 0.12978518E+04</pdfrwt>
<pdfrwt beam="2">  1       -2 0.19983738E+00 0.12978518E+04</pdfrwt>
<totfact> 0.17211157E+00</totfact>
</mgrwt>
</event>
<event>
 4    5  0.8511149E-008  0.1052142E+04  0.7818608E-02  0.9316311E-01
         -2   -1    0    0    0  501 -0.00000000000E+00  0.00000000000E+00  0.81721524060E+03  0.81721524061E+03  0.25500000000E-02 0.  1.
          2   -1    0    0  501    0  0.00000000000E+00 -0.00000000000E+00 -0.11281855080E+04  0.11281855080E+04  0.25500000000E-02 0. -1.
    8880023    1    1    2    0    0 -0.81769057765E+03  0.67635068043E+02  0.72786095814E+01  0.10521670816E+04  0.65864270000E+03 0.  0.
    8880022    1    1    2    0    0  0.81769057765E+03 -0.67635068043E+02 -0.31824887702E+03  0.89323366704E+03  0.15294330000E+03 0.  0.
<mgrwt>
<rscale>  0 0.99295011E+03</rscale>
<asrwt>0</asrwt>
<pdfrwt beam="1">  1        2 0.17356700E+00 0.10521419E+04</pdfrwt>
<pdfrwt beam="2">  1       -2 0.12572542E+00 0.10521419E+04</pdfrwt>
<totfact> 0.97698048E+00</totfact>
</mgrwt>
</event>
<event>
 4    5  0.8511149E-008  0.1235138E+04  0.7818608E-02  0.9123700E-01
          2   -1    0    0  501    0  0.00000000000E+00  0.00000000000E+00  0.22260719619E+04  0.22260719619E+04  0.25500000000E-02 0. -1.
         -2   -1    0    0    0  501 -0.00000000000E+00 -0.00000000000E+00 -0.63767369746E+03  0.63767369746E+03  0.25500000000E-02 0.  1.
    8880023    1    1    2    0    0  0.52716419287E+03  0.90213844942E+03  0.12439315651E+04  0.17529779842E+04  0.65864270000E+03 0.  0.
    8880022    1    1    2    0    0 -0.52716419287E+03 -0.90213844942E+03  0.34446669928E+03  0.11107676751E+04  0.15294330000E+03 0.  0.
<mgrwt>
<rscale>  0 0.11876902E+04</rscale>
<asrwt>0</asrwt>
<pdfrwt beam="1">  1        2 0.34247261E+00 0.12351381E+04</pdfrwt>
<pdfrwt beam="2">  1       -2 0.98103646E-01 0.12351381E+04</pdfrwt>
<totfact> 0.42160547E+00</totfact>
</mgrwt>
</event>
<event>
 4    5  0.8511149E-008  0.1202029E+04  0.7818608E-02  0.9155152E-01
          2   -1    0    0  501    0  0.00000000000E+00  0.00000000000E+00  0.11688375864E+04  0.11688375864E+04  0.25500000000E-02 0. -1.
         -2   -1    0    0    0  501 -0.00000000000E+00 -0.00000000000E+00 -0.11311381032E+04  0.11311381032E+04  0.25500000000E-02 0.  1.
    8880023    1    1    2    0    0  0.99680716837E+03  0.13206110909E+03 -0.28041684871E+03  0.12343048581E+04  0.65864270000E+03 0.  0.
    8880022    1    1    2    0    0 -0.99680716837E+03 -0.13206110909E+03  0.31811633186E+03  0.10656708315E+04  0.15294330000E+03 0.  0.
<mgrwt>
<rscale>  0 0.11528568E+04</rscale>
<asrwt>0</asrwt>
<pdfrwt beam="1">  1        2 0.17982117E+00 0.12020295E+04</pdfrwt>
<pdfrwt beam="2">  1       -2 0.17402125E+00 0.12020295E+04</pdfrwt>
<totfact> 0.38356591E+00</totfact>
</mgrwt>
</event>
<event>
 4    5  0.8511149E-008  0.6783270E+03  0.7818608E-02  0.1010286E+00
          2   -1    0    0  501    0  0.00000000000E+00  0.00000000000E+00  0.66898155045E+03  0.66898155045E+03  0.25500000000E-02 0. -1.
         -2   -1    0    0    0  501 -0.00000000000E+00 -0.00000000000E+00 -0.32078686873E+03  0.32078686874E+03  0.25500000000E-02 0.  1.
    8880023    1    1    2    0    0 -0.12282745502E+03 -0.10597483427E+03  0.15746701808E+03  0.69636435668E+03  0.65864270000E+03 0.  1.
    8880022    1    1    2    0    0  0.12282745502E+03  0.10597483427E+03  0.19072766364E+03  0.29340406251E+03  0.15294330000E+03 0. -1.
<mgrwt>
<rscale>  0 0.51361013E+03</rscale>
<asrwt>0</asrwt>
<pdfrwt beam="1">  1        2 0.10292024E+00 0.67832695E+03</pdfrwt>
<pdfrwt beam="2">  1       -2 0.49351826E-01 0.67832695E+03</pdfrwt>
<totfact> 0.17093692E+02</totfact>
</mgrwt>
</event>
<event>
 4    5  0.8511149E-008  0.1017136E+04  0.7818608E-02  0.9359474E-01
         -2   -1    0    0    0  501 -0.00000000000E+00  0.00000000000E+00  0.54017752211E+03  0.54017752212E+03  0.25500000000E-02 0.  1.
          2   -1    0    0  501    0  0.00000000000E+00 -0.00000000000E+00 -0.17825101137E+04  0.17825101137E+04  0.25500000000E-02 0. -1.
    8880023    1    1    2    0    0 -0.60211372681E+03 -0.48807314253E+03 -0.23754464037E+03  0.10445065796E+04  0.65864270000E+03 0.  0.
    8880022    1    1    2    0    0  0.60211372681E+03  0.48807314253E+03 -0.10047879512E+04  0.12781810562E+04  0.15294330000E+03 0.  0.
<mgrwt>
<rscale>  0 0.95487244E+03</rscale>
<asrwt>0</asrwt>
<pdfrwt beam="1">  1        2 0.27423232E+00 0.10171364E+04</pdfrwt>
<pdfrwt beam="2">  1       -2 0.83104235E-01 0.10171364E+04</pdfrwt>
<totfact> 0.11163664E+01</totfact>
</mgrwt>
</event>
<event>
 4    5  0.8511149E-008  0.9236986E+03  0.7818608E-02  0.9489011E-01
         -2   -1    0    0    0  501 -0.00000000000E+00  0.00000000000E+00  0.10387745437E+04  0.10387745437E+04  0.25500000000E-02 0.  1.
          2   -1    0    0  501    0  0.00000000000E+00 -0.00000000000E+00 -0.12640385063E+04  0.12640385063E+04  0.25500000000E-02 0. -1.
    8880023    1    1    2    0    0 -0.28585126690E+03 -0.58111784537E+03  0.70292201363E+03  0.11607404794E+04  0.65864270000E+03 0.  1.
    8880022    1    1    2    0    0  0.28585126690E+03  0.58111784537E+03 -0.92818597623E+03  0.11420725706E+04  0.15294330000E+03 0.  0.
<mgrwt>
<rscale>  0 0.85098858E+03</rscale>
<asrwt>0</asrwt>
<pdfrwt beam="1">  1        2 0.19446746E+00 0.92369860E+03</pdfrwt>
<pdfrwt beam="2">  1       -2 0.15981147E+00 0.92369860E+03</pdfrwt>
<totfact> 0.43854680E+00</totfact>
</mgrwt>
</event>
<event>
 4    5  0.8511149E-008  0.9310581E+03  0.7818608E-02  0.9477908E-01
          2   -1    0    0  501    0  0.00000000000E+00  0.00000000000E+00  0.91058189811E+03  0.91058189812E+03  0.25500000000E-02 0. -1.
         -2   -1    0    0    0  501 -0.00000000000E+00 -0.00000000000E+00 -0.81999948706E+03  0.81999948706E+03  0.25500000000E-02 0.  1.
    8880023    1    1    2    0    0 -0.65547403220E+03  0.58419258348E+02 -0.26374445787E+03  0.96769332020E+03  0.65864270000E+03 0.  1.
    8880022    1    1    2    0    0  0.65547403220E+03 -0.58419258348E+02  0.35432686892E+03  0.76288806498E+03  0.15294330000E+03 0.  0.
<mgrwt>
<rscale>  0 0.85932377E+03</rscale>
<asrwt>0</asrwt>
<pdfrwt beam="1">  1        2 0.14008952E+00 0.93105812E+03</pdfrwt>
<pdfrwt beam="2">  1       -2 0.12615377E+00 0.93105812E+03</pdfrwt>
<totfact> 0.13490097E+01</totfact>
</mgrwt>
</event>
<event>
 4    5  0.8511149E-008  0.6898858E+03  0.7818608E-02  0.1004207E+00
          2   -1    0    0  501    0  0.00000000000E+00  0.00000000000E+00  0.14591436793E+04  0.14591436793E+04  0.25500000000E-02 0. -1.
         -2   -1    0    0    0  501 -0.00000000000E+00 -0.00000000000E+00 -0.81627994772E+03  0.81627994772E+03  0.25500000000E-02 0.  1.
    8880023    1    1    2    0    0 -0.76033728966E+02 -0.19065977109E+03 -0.65575451967E+03  0.95181745759E+03  0.65864270000E+03 0.  1.
    8880022    1    1    2    0    0  0.76033728966E+02  0.19065977109E+03  0.12986182513E+04  0.13236061694E+04  0.15294330000E+03 0.  0.
<mgrwt>
<rscale>  0 0.53843455E+03</rscale>
<asrwt>0</asrwt>
<pdfrwt beam="1">  1        2 0.22448364E+00 0.68988585E+03</pdfrwt>
<pdfrwt beam="2">  1       -2 0.12558153E+00 0.68988585E+03</pdfrwt>
<totfact> 0.65595597E+00</totfact>
</mgrwt>
</event>
<event>
 4    5  0.8511149E-008  0.1564381E+04  0.7818608E-02  0.8865463E-01
          2   -1    0    0  501    0  0.00000000000E+00  0.00000000000E+00  0.40972923179E+04  0.40972923179E+04  0.25500000000E-02 0. -1.
         -2   -1    0    0    0  501 -0.00000000000E+00 -0.00000000000E+00 -0.89207758167E+03  0.89207758168E+03  0.25500000000E-02 0.  1.
    8880023    1    1    2    0    0  0.13664196610E+04  0.38258948396E+03  0.94911743616E+02  0.15672574289E+04  0.65864270000E+03 0.  0.
    8880022    1    1    2    0    0 -0.13664196610E+04 -0.38258948396E+03  0.31103029926E+04  0.34221124707E+04  0.15294330000E+03 0.  0.
<mgrwt>
<rscale>  0 0.15288936E+04</rscale>
<asrwt>0</asrwt>
<pdfrwt beam="1">  1        2 0.63035267E+00 0.15643809E+04</pdfrwt>
<pdfrwt beam="2">  1       -2 0.13724270E+00 0.15643809E+04</pdfrwt>
<totfact> 0.10288973E-01</totfact>
</mgrwt>
</event>
<event>
 4    5  0.8511149E-008  0.9372647E+03  0.7818608E-02  0.9468679E-01
          2   -1    0    0  501    0  0.00000000000E+00  0.00000000000E+00  0.15742609018E+04  0.15742609018E+04  0.25500000000E-02 0. -1.
         -2   -1    0    0    0  501 -0.00000000000E+00 -0.00000000000E+00 -0.82828476595E+03  0.82828476596E+03  0.25500000000E-02 0.  1.
    8880023    1    1    2    0    0 -0.64806852827E+03  0.15704142982E+03 -0.43843829075E+03  0.10347430450E+04  0.65864270000E+03 0.  0.
    8880022    1    1    2    0    0  0.64806852827E+03 -0.15704142982E+03  0.11844144266E+04  0.13678026228E+04  0.15294330000E+03 0.  0.
<mgrwt>
<rscale>  0 0.86632890E+03</rscale>
<asrwt>0</asrwt>
<pdfrwt beam="1">  1        2 0.24219398E+00 0.93726466E+03</pdfrwt>
<pdfrwt beam="2">  1       -2 0.12742843E+00 0.93726466E+03</pdfrwt>
<totfact> 0.52736254E+00</totfact>
</mgrwt>
</event>
<event>
 4    5  0.8511149E-008  0.7697944E+03  0.7818608E-02  0.9780380E-01
         -2   -1    0    0    0  501 -0.00000000000E+00  0.00000000000E+00  0.32446321478E+03  0.32446321479E+03  0.25500000000E-02 0.  1.
          2   -1    0    0  501    0  0.00000000000E+00 -0.00000000000E+00 -0.22225395926E+04  0.22225395926E+04  0.25500000000E-02 0. -1.
    8880023    1    1    2    0    0 -0.24461249626E+03 -0.31454413657E+03 -0.19691940588E+04  0.21143104631E+04  0.65864270000E+03 0.  0.
    8880022    1    1    2    0    0  0.24461249626E+03  0.31454413657E+03  0.71117680996E+02  0.43269234421E+03  0.15294330000E+03 0.  0.
<mgrwt>
<rscale>  0 0.66426165E+03</rscale>
<asrwt>0</asrwt>
<pdfrwt beam="1">  1        2 0.34192916E+00 0.76979445E+03</pdfrwt>
<pdfrwt beam="2">  1       -2 0.49917419E-01 0.76979445E+03</pdfrwt>
<totfact> 0.19731141E+01</totfact>
</mgrwt>
</event>
<event>
 4    5  0.8511149E-008  0.7608465E+03  0.7818608E-02  0.9802921E-01
          2   -1    0    0  501    0  0.00000000000E+00  0.00000000000E+00  0.89847439543E+03  0.89847439544E+03  0.25500000000E-02 0. -1.
         -2   -1    0    0    0  501 -0.00000000000E+00 -0.00000000000E+00 -0.65796518529E+03  0.65796518530E+03  0.25500000000E-02 0.  1.
    8880023    1    1    2    0    0 -0.36796316192E+03 -0.98388460665E+02  0.63209587579E+03  0.98915751029E+03  0.65864270000E+03 0. -1.
    8880022    1    1    2    0    0  0.36796316192E+03  0.98388460665E+02 -0.39158666564E+03  0.56728207044E+03  0.15294330000E+03 0.  0.
<mgrwt>
<rscale>  0 0.65206025E+03</rscale>
<asrwt>0</asrwt>
<pdfrwt beam="1">  1        2 0.13822683E+00 0.76084649E+03</pdfrwt>
<pdfrwt beam="2">  1       -2 0.10122541E+00 0.76084649E+03</pdfrwt>
<totfact> 0.23919020E+01</totfact>
</mgrwt>
</event>
<event>
 4    5  0.8511149E-008  0.9262096E+03  0.7818608E-02  0.9485203E-01
         -2   -1    0    0    0  501 -0.00000000000E+00  0.00000000000E+00  0.91155258539E+03  0.91155258539E+03  0.25500000000E-02 0.  1.
          2   -1    0    0  501    0  0.00000000000E+00 -0.00000000000E+00 -0.30466320945E+04  0.30466320945E+04  0.25500000000E-02 0. -1.
    8880023    1    1    2    0    0 -0.55181451917E+03 -0.34576683319E+03  0.62555301789E+03  0.11176675494E+04  0.65864270000E+03 0.  1.
    8880022    1    1    2    0    0  0.55181451917E+03  0.34576683319E+03 -0.27606325270E+04  0.28405171305E+04  0.15294330000E+03 0.  0.
<mgrwt>
<rscale>  0 0.85383604E+03</rscale>
<asrwt>0</asrwt>
<pdfrwt beam="1">  1        2 0.46871263E+00 0.92620957E+03</pdfrwt>
<pdfrwt beam="2">  1       -2 0.14023886E+00 0.92620957E+03</pdfrwt>
<totfact> 0.60042475E-01</totfact>
</mgrwt>
</event>
<event>
 4    5  0.8511149E-008  0.8382481E+03  0.7818608E-02  0.9633493E-01
         -2   -1    0    0    0  501 -0.00000000000E+00  0.00000000000E+00  0.62892883083E+03  0.62892883084E+03  0.25500000000E-02 0.  1.
          2   -1    0    0  501    0  0.00000000000E+00 -0.00000000000E+00 -0.18538061663E+04  0.18538061663E+04  0.25500000000E-02 0. -1.
    8880023    1    1    2    0    0  0.35721038593E+02 -0.51727518756E+03  0.27994361509E+03  0.88375802466E+03  0.65864270000E+03 0.  0.
    8880022    1    1    2    0    0 -0.35721038593E+02  0.51727518756E+03 -0.15048209506E+04  0.15989769725E+04  0.15294330000E+03 0.  0.
<mgrwt>
<rscale>  0 0.75118535E+03</rscale>
<asrwt>0</asrwt>
<pdfrwt beam="1">  1        2 0.28520095E+00 0.83824807E+03</pdfrwt>
<pdfrwt beam="2">  1       -2 0.96758282E-01 0.83824807E+03</pdfrwt>
<totfact> 0.73296918E+00</totfact>
</mgrwt>
</event>
<event>
 4    5  0.8511149E-008  0.8670407E+03  0.7818608E-02  0.9581160E-01
          2   -1    0    0  501    0  0.00000000000E+00  0.00000000000E+00  0.11664554863E+04  0.11664554863E+04  0.25500000000E-02 0. -1.
         -2   -1    0    0    0  501 -0.00000000000E+00 -0.00000000000E+00 -0.85549560737E+03  0.85549560738E+03  0.25500000000E-02 0.  1.
    8880023    1    1    2    0    0 -0.40566423190E+03  0.39164519702E+03 -0.51634633081E+03  0.10091447711E+04  0.65864270000E+03 0.  1.
    8880022    1    1    2    0    0  0.40566423190E+03 -0.39164519702E+03  0.82730620970E+03  0.10128063226E+04  0.15294330000E+03 0.  0.
<mgrwt>
<rscale>  0 0.78555789E+03</rscale>
<asrwt>0</asrwt>
<pdfrwt beam="1">  1        2 0.17945469E+00 0.86704073E+03</pdfrwt>
<pdfrwt beam="2">  1       -2 0.13161471E+00 0.86704073E+03</pdfrwt>
<totfact> 0.83980366E+00</totfact>
</mgrwt>
</event>
<event>
 4    5  0.8511149E-008  0.1484291E+04  0.7818608E-02  0.8920809E-01
         -2   -1    0    0    0  501 -0.00000000000E+00  0.00000000000E+00  0.93458237879E+03  0.93458237879E+03  0.25500000000E-02 0.  1.
          2   -1    0    0  501    0  0.00000000000E+00 -0.00000000000E+00 -0.21479288232E+04  0.21479288232E+04  0.25500000000E-02 0. -1.
    8880023    1    1    2    0    0 -0.32706910266E+03  0.12893157881E+04 -0.76979919825E+03  0.16720378020E+04  0.65864270000E+03 0. -1.
    8880022    1    1    2    0    0  0.32706910266E+03 -0.12893157881E+04 -0.44354724613E+03  0.14104734000E+04  0.15294330000E+03 0.  1.
<mgrwt>
<rscale>  0 0.14465311E+04</rscale>
<asrwt>0</asrwt>
<pdfrwt beam="1">  1        2 0.33045059E+00 0.14842909E+04</pdfrwt>
<pdfrwt beam="2">  1       -2 0.14378190E+00 0.14842909E+04</pdfrwt>
<totfact> 0.17517947E+00</totfact>
</mgrwt>
</event>
<event>
 4    5  0.8511149E-008  0.7036004E+03  0.7818608E-02  0.9982581E-01
         -2   -1    0    0    0  501 -0.00000000000E+00  0.00000000000E+00  0.59760390314E+03  0.59760390314E+03  0.25500000000E-02 0.  1.
          2   -1    0    0  501    0  0.00000000000E+00 -0.00000000000E+00 -0.14208442830E+04  0.14208442831E+04  0.25500000000E-02 0. -1.
    8880023    1    1    2    0    0 -0.83917395065E+02 -0.23281162793E+03  0.36672557379E+03  0.79343634655E+03  0.65864270000E+03 0.  1.
    8880022    1    1    2    0    0  0.83917395065E+02  0.23281162793E+03 -0.11899659537E+04  0.12250118396E+04  0.15294330000E+03 0.  0.
<mgrwt>
<rscale>  0 0.56420685E+03</rscale>
<asrwt>0</asrwt>
<pdfrwt beam="1">  1        2 0.21859143E+00 0.70360045E+03</pdfrwt>
<pdfrwt beam="2">  1       -2 0.91939062E-01 0.70360045E+03</pdfrwt>
<totfact> 0.14574035E+01</totfact>
</mgrwt>
</event>
<event>
 4    5  0.8511149E-008  0.7107185E+03  0.7818608E-02  0.9955342E-01
          2   -1    0    0  501    0  0.00000000000E+00  0.00000000000E+00  0.16625858644E+04  0.16625858644E+04  0.25500000000E-02 0. -1.
         -2   -1    0    0    0  501 -0.00000000000E+00 -0.00000000000E+00 -0.92405091203E+03  0.92405091203E+03  0.25500000000E-02 0.  1.
    8880023    1    1    2    0    0  0.14620961621E+03  0.22345775570E+03 -0.76951476611E+03  0.10475083780E+04  0.65864270000E+03 0.  1.
    8880022    1    1    2    0    0 -0.14620961621E+03 -0.22345775570E+03  0.15080497185E+04  0.15391283985E+04  0.15294330000E+03 0.  0.
<mgrwt>
<rscale>  0 0.57652518E+03</rscale>
<asrwt>0</asrwt>
<pdfrwt beam="1">  1        2 0.25578244E+00 0.71071853E+03</pdfrwt>
<pdfrwt beam="2">  1       -2 0.14216168E+00 0.71071853E+03</pdfrwt>
<totfact> 0.36792775E+00</totfact>
</mgrwt>
</event>
<event>
 4    5  0.8511149E-008  0.1086632E+04  0.7818608E-02  0.9276088E-01
          2   -1    0    0  501    0  0.00000000000E+00  0.00000000000E+00  0.11318448054E+04  0.11318448054E+04  0.25500000000E-02 0. -1.
         -2   -1    0    0    0  501 -0.00000000000E+00 -0.00000000000E+00 -0.12648349102E+04  0.12648349102E+04  0.25500000000E-02 0.  1.
    8880023    1    1    2    0    0 -0.79839611674E+03  0.33094098728E+03 -0.75303987572E+03  0.13220580763E+04  0.65864270000E+03 0.  1.
    8880022    1    1    2    0    0  0.79839611674E+03 -0.33094098728E+03  0.62004977093E+03  0.10746216393E+04  0.15294330000E+03 0.  0.
<mgrwt>
<rscale>  0 0.10301437E+04</rscale>
<asrwt>0</asrwt>
<pdfrwt beam="1">  1        2 0.17412997E+00 0.10866317E+04</pdfrwt>
<pdfrwt beam="2">  1       -2 0.19458999E+00 0.10866317E+04</pdfrwt>
<totfact> 0.29552376E+00</totfact>
</mgrwt>
</event>
<event>
 4    5  0.8511149E-008  0.9292990E+03  0.7818608E-02  0.9480546E-01
         -2   -1    0    0    0  501 -0.00000000000E+00  0.00000000000E+00  0.69423517557E+03  0.69423517558E+03  0.25500000000E-02 0.  1.
          2   -1    0    0  501    0  0.00000000000E+00 -0.00000000000E+00 -0.10338908753E+04  0.10338908753E+04  0.25500000000E-02 0. -1.
    8880023    1    1    2    0    0  0.33215065156E+03  0.56521008475E+03  0.83417457076E+02  0.93303546215E+03  0.65864270000E+03 0.  1.
    8880022    1    1    2    0    0 -0.33215065156E+03 -0.56521008475E+03 -0.42307315677E+03  0.79509058869E+03  0.15294330000E+03 0.  0.
<mgrwt>
<rscale>  0 0.85733437E+03</rscale>
<asrwt>0</asrwt>
<pdfrwt beam="1">  1        2 0.15906013E+00 0.92929904E+03</pdfrwt>
<pdfrwt beam="2">  1       -2 0.10680541E+00 0.92929904E+03</pdfrwt>
<totfact> 0.16897907E+01</totfact>
</mgrwt>
</event>
<event>
 4    5  0.8511149E-008  0.9988148E+03  0.7818608E-02  0.9383110E-01
         -2   -1    0    0    0  501 -0.00000000000E+00  0.00000000000E+00  0.10477519939E+04  0.10477519939E+04  0.25500000000E-02 0.  1.
          2   -1    0    0  501    0  0.00000000000E+00 -0.00000000000E+00 -0.12268675868E+04  0.12268675868E+04  0.25500000000E-02 0. -1.
    8880023    1    1    2    0    0  0.72053460637E+03  0.21130708379E+03  0.61346868535E+03  0.11721667274E+04  0.65864270000E+03 0.  0.
    8880022    1    1    2    0    0 -0.72053460637E+03 -0.21130708379E+03 -0.79258427827E+03  0.11024528533E+04  0.15294330000E+03 0.  0.
<mgrwt>
<rscale>  0 0.93478801E+03</rscale>
<asrwt>0</asrwt>
<pdfrwt beam="1">  1        2 0.18874886E+00 0.99881480E+03</pdfrwt>
<pdfrwt beam="2">  1       -2 0.16119261E+00 0.99881480E+03</pdfrwt>
<totfact> 0.44673320E+00</totfact>
</mgrwt>
</event>
<event>
 4    5  0.8511149E-008  0.8658827E+03  0.7818608E-02  0.9583184E-01
         -2   -1    0    0    0  501 -0.00000000000E+00  0.00000000000E+00  0.20195558183E+04  0.20195558183E+04  0.25500000000E-02 0.  1.
          2   -1    0    0  501    0  0.00000000000E+00 -0.00000000000E+00 -0.13009172545E+04  0.13009172545E+04  0.25500000000E-02 0. -1.
    8880023    1    1    2    0    0 -0.44834199126E+03  0.33901635884E+03  0.18529754954E+04  0.20453046290E+04  0.65864270000E+03 0.  1.
    8880022    1    1    2    0    0  0.44834199126E+03 -0.33901635884E+03 -0.11343369316E+04  0.12751684438E+04  0.15294330000E+03 0.  0.
<mgrwt>
<rscale>  0 0.78419264E+03</rscale>
<asrwt>0</asrwt>
<pdfrwt beam="1">  1        2 0.20014112E+00 0.86588269E+03</pdfrwt>
<pdfrwt beam="2">  1       -2 0.31070089E+00 0.86588269E+03</pdfrwt>
<totfact> 0.46440029E-01</totfact>
</mgrwt>
</event>
<event>
 4    5  0.8511149E-008  0.1445707E+04  0.7818608E-02  0.8948957E-01
         -2   -1    0    0    0  501 -0.00000000000E+00  0.00000000000E+00  0.16221308960E+04  0.16221308960E+04  0.25500000000E-02 0.  1.
          2   -1    0    0  501    0  0.00000000000E+00 -0.00000000000E+00 -0.13684687355E+04  0.13684687355E+04  0.25500000000E-02 0. -1.
    8880023    1    1    2    0    0  0.10720652769E+04 -0.71199247892E+03  0.71765633322E+03  0.16140316189E+04  0.65864270000E+03 0.  0.
    8880022    1    1    2    0    0 -0.10720652769E+04  0.71199247892E+03 -0.46399417279E+03  0.13765680126E+04  0.15294330000E+03 0.  0.
<mgrwt>
<rscale>  0 0.14067354E+04</rscale>
<asrwt>0</asrwt>
<pdfrwt beam="1">  1        2 0.21053365E+00 0.14457066E+04</pdfrwt>
<pdfrwt beam="2">  1       -2 0.24955860E+00 0.14457066E+04</pdfrwt>
<totfact> 0.92367409E-01</totfact>
</mgrwt>
</event>
<event>
 4    5  0.8511149E-008  0.8693338E+03  0.7818608E-02  0.9577171E-01
         -2   -1    0    0    0  501 -0.00000000000E+00  0.00000000000E+00  0.19378216912E+03  0.19378216914E+03  0.25500000000E-02 0.  1.
          2   -1    0    0  501    0  0.00000000000E+00 -0.00000000000E+00 -0.33206216329E+04  0.33206216329E+04  0.25500000000E-02 0. -1.
    8880023    1    1    2    0    0  0.25462199198E+03  0.50704904147E+03 -0.10884817288E+04  0.13930304266E+04  0.65864270000E+03 0.  1.
    8880022    1    1    2    0    0 -0.25462199198E+03 -0.50704904147E+03 -0.20383577350E+04  0.21213733754E+04  0.15294330000E+03 0.  0.
<mgrwt>
<rscale>  0 0.78825744E+03</rscale>
<asrwt>0</asrwt>
<pdfrwt beam="1">  1        2 0.51086482E+00 0.86933382E+03</pdfrwt>
<pdfrwt beam="2">  1       -2 0.29812644E-01 0.86933382E+03</pdfrwt>
<totfact> 0.11760464E+01</totfact>
</mgrwt>
</event>
<event>
 4    5  0.8511149E-008  0.8050565E+03  0.7818608E-02  0.9699968E-01
         -2   -1    0    0    0  501 -0.00000000000E+00  0.00000000000E+00  0.40567476076E+03  0.40567476077E+03  0.25500000000E-02 0.  1.
          2   -1    0    0  501    0  0.00000000000E+00 -0.00000000000E+00 -0.14358442647E+04  0.14358442647E+04  0.25500000000E-02 0. -1.
    8880023    1    1    2    0    0  0.23374959600E+03  0.39958349165E+03 -0.12679593848E+03  0.81498052535E+03  0.65864270000E+03 0.  1.
    8880022    1    1    2    0    0 -0.23374959600E+03 -0.39958349165E+03 -0.90337356550E+03  0.10265385001E+04  0.15294330000E+03 0.  0.
<mgrwt>
<rscale>  0 0.71018724E+03</rscale>
<asrwt>0</asrwt>
<pdfrwt beam="1">  1        2 0.22089912E+00 0.80505655E+03</pdfrwt>
<pdfrwt beam="2">  1       -2 0.62411502E-01 0.80505655E+03</pdfrwt>
<totfact> 0.33405343E+01</totfact>
</mgrwt>
</event>
<event>
 4    5  0.8511149E-008  0.7828014E+03  0.7818608E-02  0.9749297E-01
         -2   -1    0    0    0  501 -0.00000000000E+00  0.00000000000E+00  0.41037512662E+03  0.41037512663E+03  0.25500000000E-02 0.  1.
          2   -1    0    0  501    0  0.00000000000E+00 -0.00000000000E+00 -0.10513079925E+04  0.10513079925E+04  0.25500000000E-02 0. -1.
    8880023    1    1    2    0    0  0.34805410530E+03  0.24047059357E+03 -0.15223755254E+03  0.79746739448E+03  0.65864270000E+03 0.  1.
    8880022    1    1    2    0    0 -0.34805410530E+03 -0.24047059357E+03 -0.48869531335E+03  0.66421572467E+03  0.15294330000E+03 0.  0.
<mgrwt>
<rscale>  0 0.68156002E+03</rscale>
<asrwt>0</asrwt>
<pdfrwt beam="1">  1        2 0.16173969E+00 0.78280136E+03</pdfrwt>
<pdfrwt beam="2">  1       -2 0.63134635E-01 0.78280136E+03</pdfrwt>
<totfact> 0.55000530E+01</totfact>
</mgrwt>
</event>
<event>
 4    5  0.1105601E-007  0.1004131E+04  0.7818608E-02  0.9376173E-01
          2   -1    0    0  501    0  0.00000000000E+00  0.00000000000E+00  0.24823953275E+04  0.24823953275E+04  0.25500000000E-02 0. -1.
         -2   -1    0    0    0  501 -0.00000000000E+00 -0.00000000000E+00 -0.18104266275E+04  0.18104266275E+04  0.25500000000E-02 0.  1.
    8880023    1    1    2    0    0 -0.40938395252E+03 -0.63786689841E+03 -0.16021711471E+04  0.18908283877E+04  0.65864270000E+03 0.  0.
    8880022    1    1    2    0    0  0.40938395252E+03  0.63786689841E+03  0.22741398470E+04  0.24019935673E+04  0.15294330000E+03 0.  0.
<mgrwt>
<rscale>  0 0.94062800E+03</rscale>
<asrwt>0</asrwt>
<pdfrwt beam="1">  1        2 0.38190697E+00 0.10041313E+04</pdfrwt>
<pdfrwt beam="2">  1       -2 0.27852717E+00 0.10041313E+04</pdfrwt>
<totfact> 0.15538852E-01</totfact>
</mgrwt>
</event>
<event>
 4    5  0.8511149E-008  0.8385098E+03  0.7818608E-02  0.9632997E-01
         -2   -1    0    0    0  501 -0.00000000000E+00  0.00000000000E+00  0.19965856355E+03  0.19965856356E+03  0.25500000000E-02 0.  1.
          2   -1    0    0  501    0  0.00000000000E+00 -0.00000000000E+00 -0.37569872937E+04  0.37569872937E+04  0.25500000000E-02 0. -1.
    8880023    1    1    2    0    0  0.21884936681E+03  0.47052468126E+03 -0.84330541649E+03  0.11892277968E+04  0.65864270000E+03 0.  1.
    8880022    1    1    2    0    0 -0.21884936681E+03 -0.47052468126E+03 -0.27140233137E+04  0.27674180604E+04  0.15294330000E+03 0.  0.
<mgrwt>
<rscale>  0 0.75150224E+03</rscale>
<asrwt>0</asrwt>
<pdfrwt beam="1">  1        2 0.57799799E+00 0.83850983E+03</pdfrwt>
<pdfrwt beam="2">  1       -2 0.30716705E-01 0.83850983E+03</pdfrwt>
<totfact> 0.55766333E+00</totfact>
</mgrwt>
</event>
<event>
 4    5  0.8511149E-008  0.9221363E+03  0.7818608E-02  0.9491391E-01
         -2   -1    0    0    0  501 -0.00000000000E+00  0.00000000000E+00  0.13129325533E+04  0.13129325533E+04  0.25500000000E-02 0.  1.
          2   -1    0    0  501    0  0.00000000000E+00 -0.00000000000E+00 -0.52448632724E+03  0.52448632725E+03  0.25500000000E-02 0. -1.
    8880023    1    1    2    0    0 -0.64534953831E+03  0.70127804025E+01  0.72137039139E+03  0.11707735279E+04  0.65864270000E+03 0.  0.
    8880022    1    1    2    0    0  0.64534953831E+03 -0.70127804025E+01  0.67075834687E+02  0.66664535272E+03  0.15294330000E+03 0.  0.
<mgrwt>
<rscale>  0 0.84921504E+03</rscale>
<asrwt>0</asrwt>
<pdfrwt beam="1">  1        2 0.80690205E-01 0.92213633E+03</pdfrwt>
<pdfrwt beam="2">  1       -2 0.20198962E+00 0.92213633E+03</pdfrwt>
<totfact> 0.75310979E+00</totfact>
</mgrwt>
</event>
<event>
 4    5  0.8511149E-008  0.7855695E+03  0.7818608E-02  0.9742913E-01
         -2   -1    0    0    0  501 -0.00000000000E+00  0.00000000000E+00  0.21828864538E+04  0.21828864538E+04  0.25500000000E-02 0.  1.
          2   -1    0    0  501    0  0.00000000000E+00 -0.00000000000E+00 -0.91670409069E+03  0.91670409069E+03  0.25500000000E-02 0. -1.
    8880023    1    1    2    0    0  0.36814889587E+03 -0.21857641473E+03  0.20489423531E+04  0.21943755902E+04  0.65864270000E+03 0.  1.
    8880022    1    1    2    0    0 -0.36814889587E+03  0.21857641473E+03 -0.78275998992E+03  0.90521495428E+03  0.15294330000E+03 0.  0.
<mgrwt>
<rscale>  0 0.68518251E+03</rscale>
<asrwt>0</asrwt>
<pdfrwt beam="1">  1        2 0.14103140E+00 0.78556952E+03</pdfrwt>
<pdfrwt beam="2">  1       -2 0.33582868E+00 0.78556952E+03</pdfrwt>
<totfact> 0.57122525E-01</totfact>
</mgrwt>
</event>
<event>
 4    5  0.8511149E-008  0.7535634E+03  0.7818608E-02  0.9822065E-01
         -2   -1    0    0    0  501 -0.00000000000E+00  0.00000000000E+00  0.45790031798E+03  0.45790031798E+03  0.25500000000E-02 0.  1.
          2   -1    0    0  501    0  0.00000000000E+00 -0.00000000000E+00 -0.11633814028E+04  0.11633814028E+04  0.25500000000E-02 0. -1.
    8880023    1    1    2    0    0 -0.79064916138E+02  0.35748606604E+03  0.63224414797E+02  0.75621100314E+03  0.65864270000E+03 0.  1.
    8880022    1    1    2    0    0  0.79064916138E+02 -0.35748606604E+03 -0.76870549962E+03  0.86507071765E+03  0.15294330000E+03 0.  0.
<mgrwt>
<rscale>  0 0.64191710E+03</rscale>
<asrwt>0</asrwt>
<pdfrwt beam="1">  1        2 0.17898175E+00 0.75356337E+03</pdfrwt>
<pdfrwt beam="2">  1       -2 0.70446203E-01 0.75356337E+03</pdfrwt>
<totfact> 0.37170309E+01</totfact>
</mgrwt>
</event>
<event>
 4    5  0.9660242E-008  0.1222200E+04  0.7818608E-02  0.9135839E-01
          2   -1    0    0  501    0  0.00000000000E+00  0.00000000000E+00  0.25881736447E+04  0.25881736447E+04  0.25500000000E-02 0. -1.
         -2   -1    0    0    0  501 -0.00000000000E+00 -0.00000000000E+00 -0.13145739161E+04  0.13145739161E+04  0.25500000000E-02 0.  1.
    8880023    1    1    2    0    0  0.11250882655E+03 -0.10233786658E+04 -0.88321027372E+03  0.15079233149E+04  0.65864270000E+03 0.  1.
    8880022    1    1    2    0    0 -0.11250882655E+03  0.10233786658E+04  0.21568100023E+04  0.23948242459E+04  0.15294330000E+03 0.  0.
<mgrwt>
<rscale>  0 0.11740942E+04</rscale>
<asrwt>0</asrwt>
<pdfrwt beam="1">  1        2 0.39818056E+00 0.12221998E+04</pdfrwt>
<pdfrwt beam="2">  1       -2 0.20224214E+00 0.12221998E+04</pdfrwt>
<totfact> 0.38714245E-01</totfact>
</mgrwt>
</event>
<event>
 4    5  0.8511149E-008  0.1003793E+04  0.7818608E-02  0.9376612E-01
         -2   -1    0    0    0  501 -0.00000000000E+00  0.00000000000E+00  0.11956020303E+04  0.11956020303E+04  0.25500000000E-02 0.  1.
          2   -1    0    0  501    0  0.00000000000E+00 -0.00000000000E+00 -0.67907371180E+03  0.67907371180E+03  0.25500000000E-02 0. -1.
    8880023    1    1    2    0    0  0.43195316182E+03 -0.62225897119E+03  0.44686586400E+03  0.10987670672E+04  0.65864270000E+03 0.  1.
    8880022    1    1    2    0    0 -0.43195316182E+03  0.62225897119E+03  0.69662454487E+02  0.77590867492E+03  0.15294330000E+03 0.  0.
<mgrwt>
<rscale>  0 0.94025649E+03</rscale>
<asrwt>0</asrwt>
<pdfrwt beam="1">  1        2 0.10447288E+00 0.10037928E+04</pdfrwt>
<pdfrwt beam="2">  1       -2 0.18393877E+00 0.10037928E+04</pdfrwt>
<totfact> 0.71995820E+00</totfact>
</mgrwt>
</event>
<event>
 4    5  0.8511149E-008  0.8379988E+03  0.7818608E-02  0.9633965E-01
          2   -1    0    0  501    0  0.00000000000E+00  0.00000000000E+00  0.26732985903E+04  0.26732985903E+04  0.25500000000E-02 0. -1.
         -2   -1    0    0    0  501 -0.00000000000E+00 -0.00000000000E+00 -0.43595521410E+03  0.43595521410E+03  0.25500000000E-02 0.  1.
    8880023    1    1    2    0    0 -0.20179001036E+03 -0.47719232326E+03  0.31890820245E+02  0.83860536150E+03  0.65864270000E+03 0.  0.
    8880022    1    1    2    0    0  0.20179001036E+03  0.47719232326E+03  0.22054525559E+04  0.22706484429E+04  0.15294330000E+03 0.  0.
<mgrwt>
<rscale>  0 0.75088347E+03</rscale>
<asrwt>0</asrwt>
<pdfrwt beam="1">  1        2 0.41127671E+00 0.83799876E+03</pdfrwt>
<pdfrwt beam="2">  1       -2 0.67070032E-01 0.83799876E+03</pdfrwt>
<totfact> 0.58398654E+00</totfact>
</mgrwt>
</event>
<event>
 4    5  0.8511149E-008  0.6805041E+03  0.7818608E-02  0.1009040E+00
          2   -1    0    0  501    0  0.00000000000E+00  0.00000000000E+00  0.35654082614E+04  0.35654082614E+04  0.25500000000E-02 0. -1.
         -2   -1    0    0    0  501 -0.00000000000E+00 -0.00000000000E+00 -0.30687667541E+03  0.30687667542E+03  0.25500000000E-02 0.  1.
    8880023    1    1    2    0    0 -0.16333473869E+03  0.50964337640E+02  0.79671993041E+02  0.68515212421E+03  0.65864270000E+03 0.  1.
    8880022    1    1    2    0    0  0.16333473869E+03 -0.50964337640E+02  0.31788595929E+04  0.31871328126E+04  0.15294330000E+03 0.  0.
<mgrwt>
<rscale>  0 0.51857985E+03</rscale>
<asrwt>0</asrwt>
<pdfrwt beam="1">  1        2 0.54852435E+00 0.68050408E+03</pdfrwt>
<pdfrwt beam="2">  1       -2 0.47211796E-01 0.68050408E+03</pdfrwt>
<totfact> 0.34364304E+00</totfact>
</mgrwt>
</event>
<event>
 4    5  0.8511149E-008  0.8818551E+03  0.7818608E-02  0.9555811E-01
         -2   -1    0    0    0  501 -0.00000000000E+00  0.00000000000E+00  0.92408779316E+03  0.92408779316E+03  0.25500000000E-02 0.  1.
          2   -1    0    0  501    0  0.00000000000E+00 -0.00000000000E+00 -0.12625274722E+04  0.12625274722E+04  0.25500000000E-02 0. -1.
    8880023    1    1    2    0    0  0.74356036051E+02 -0.58166096240E+03  0.60206400559E+03  0.10677778647E+04  0.65864270000E+03 0.  0.
    8880022    1    1    2    0    0 -0.74356036051E+02  0.58166096240E+03 -0.94050368462E+03  0.11188374006E+04  0.15294330000E+03 0.  0.
<mgrwt>
<rscale>  0 0.80291239E+03</rscale>
<asrwt>0</asrwt>
<pdfrwt beam="1">  1        2 0.19423500E+00 0.88185515E+03</pdfrwt>
<pdfrwt beam="2">  1       -2 0.14216735E+00 0.88185515E+03</pdfrwt>
<totfact> 0.60286852E+00</totfact>
</mgrwt>
</event>
<event>
 4    5  0.8511149E-008  0.8177626E+03  0.7818608E-02  0.9673629E-01
         -2   -1    0    0    0  501 -0.00000000000E+00  0.00000000000E+00  0.55716493090E+03  0.55716493090E+03  0.25500000000E-02 0.  1.
          2   -1    0    0  501    0  0.00000000000E+00 -0.00000000000E+00 -0.22262946908E+04  0.22262946908E+04  0.25500000000E-02 0. -1.
    8880023    1    1    2    0    0 -0.34030606560E+02  0.48349488951E+03  0.20381560429E+03  0.84277897291E+03  0.65864270000E+03 0.  0.
    8880022    1    1    2    0    0  0.34030606560E+02 -0.48349488951E+03 -0.18729453642E+04  0.19406806488E+04  0.15294330000E+03 0.  0.
<mgrwt>
<rscale>  0 0.72608848E+03</rscale>
<asrwt>0</asrwt>
<pdfrwt beam="1">  1        2 0.34250687E+00 0.81776256E+03</pdfrwt>
<pdfrwt beam="2">  1       -2 0.85717683E-01 0.81776256E+03</pdfrwt>
<totfact> 0.60789238E+00</totfact>
</mgrwt>
</event>
<event>
 4    5  0.8511149E-008  0.6681058E+03  0.7818608E-02  0.1017059E+00
          2   -1    0    0  501    0  0.00000000000E+00  0.00000000000E+00  0.34945187723E+04  0.34945187723E+04  0.25500000000E-02 0. -1.
         -2   -1    0    0    0  501 -0.00000000000E+00 -0.00000000000E+00 -0.22145644351E+03  0.22145644353E+03  0.25500000000E-02 0.  1.
    8880023    1    1    2    0    0  0.11176268160E+03  0.80159108546E+01  0.29240082035E+03  0.72928979002E+03  0.65864270000E+03 0.  1.
    8880022    1    1    2    0    0 -0.11176268160E+03 -0.80159108546E+01  0.29806615084E+04  0.29866854258E+04  0.15294330000E+03 0.  0.
<mgrwt>
<rscale>  0 0.48763118E+03</rscale>
<asrwt>0</asrwt>
<pdfrwt beam="1">  1        2 0.53761828E+00 0.66810580E+03</pdfrwt>
<pdfrwt beam="2">  1       -2 0.34070222E-01 0.66810580E+03</pdfrwt>
<totfact> 0.72791116E+00</totfact>
</mgrwt>
</event>
<event>
 4    5  0.8511149E-008  0.8441327E+03  0.7818608E-02  0.9622436E-01
          2   -1    0    0  501    0  0.00000000000E+00  0.00000000000E+00  0.31642369150E+04  0.31642369150E+04  0.25500000000E-02 0. -1.
         -2   -1    0    0    0  501 -0.00000000000E+00 -0.00000000000E+00 -0.77651918911E+03  0.77651918911E+03  0.25500000000E-02 0.  1.
    8880023    1    1    2    0    0  0.31768037239E+03  0.42169777610E+03 -0.51341760967E+03  0.98800692384E+03  0.65864270000E+03 0.  0.
    8880022    1    1    2    0    0 -0.31768037239E+03 -0.42169777610E+03  0.29011353356E+04  0.29527491803E+04  0.15294330000E+03 0.  0.
<mgrwt>
<rscale>  0 0.75828828E+03</rscale>
<asrwt>0</asrwt>
<pdfrwt beam="1">  1        2 0.48680568E+00 0.84413271E+03</pdfrwt>
<pdfrwt beam="2">  1       -2 0.11946449E+00 0.84413271E+03</pdfrwt>
<totfact> 0.77333891E-01</totfact>
</mgrwt>
</event>
<event>
 4    5  0.8511149E-008  0.6763824E+03  0.7818608E-02  0.1011449E+00
          2   -1    0    0  501    0  0.00000000000E+00  0.00000000000E+00  0.13393286149E+04  0.13393286149E+04  0.25500000000E-02 0. -1.
         -2   -1    0    0    0  501 -0.00000000000E+00 -0.00000000000E+00 -0.25929573600E+03  0.25929573601E+03  0.25500000000E-02 0.  1.
    8880023    1    1    2    0    0 -0.98558592097E+02  0.11819105111E+03  0.21941871396E+03  0.71108206203E+03  0.65864270000E+03 0.  1.
    8880022    1    1    2    0    0  0.98558592097E+02 -0.11819105111E+03  0.86061416499E+03  0.88754228893E+03  0.15294330000E+03 0.  0.
<mgrwt>
<rscale>  0 0.50902899E+03</rscale>
<asrwt>0</asrwt>
<pdfrwt beam="1">  1        2 0.20605055E+00 0.67638238E+03</pdfrwt>
<pdfrwt beam="2">  1       -2 0.39891652E-01 0.67638238E+03</pdfrwt>
<totfact> 0.95446775E+01</totfact>
</mgrwt>
</event>
<event>
 4    5  0.8511149E-008  0.7636130E+03  0.7818608E-02  0.9795842E-01
         -2   -1    0    0    0  501 -0.00000000000E+00  0.00000000000E+00  0.28402244633E+03  0.28402244634E+03  0.25500000000E-02 0.  1.
          2   -1    0    0  501    0  0.00000000000E+00 -0.00000000000E+00 -0.26633457170E+04  0.26633457170E+04  0.25500000000E-02 0. -1.
    8880023    1    1    2    0    0  0.38268747691E+03 -0.53337116084E+02 -0.28953066541E+03  0.81665951621E+03  0.65864270000E+03 0.  0.
    8880022    1    1    2    0    0 -0.38268747691E+03  0.53337116084E+02 -0.20897926053E+04  0.21307086472E+04  0.15294330000E+03 0.  0.
<mgrwt>
<rscale>  0 0.65586156E+03</rscale>
<asrwt>0</asrwt>
<pdfrwt beam="1">  1        2 0.40974548E+00 0.76361296E+03</pdfrwt>
<pdfrwt beam="2">  1       -2 0.43695763E-01 0.76361296E+03</pdfrwt>
<totfact> 0.14551033E+01</totfact>
</mgrwt>
</event>
<event>
 4    5  0.8511149E-008  0.1377135E+04  0.7818608E-02  0.9001656E-01
         -2   -1    0    0    0  501 -0.00000000000E+00  0.00000000000E+00  0.79135720139E+03  0.79135720140E+03  0.25500000000E-02 0.  1.
          2   -1    0    0  501    0  0.00000000000E+00 -0.00000000000E+00 -0.21413201284E+04  0.21413201284E+04  0.25500000000E-02 0. -1.
    8880023    1    1    2    0    0 -0.42712896568E+02  0.12086627804E+04 -0.82547393708E+03  0.16055863525E+04  0.65864270000E+03 0.  0.
    8880022    1    1    2    0    0  0.42712896568E+02 -0.12086627804E+04 -0.52448898993E+03  0.13270909773E+04  0.15294330000E+03 0.  1.
<mgrwt>
<rscale>  0 0.13357884E+04</rscale>
<asrwt>0</asrwt>
<pdfrwt beam="1">  1        2 0.32943386E+00 0.13771348E+04</pdfrwt>
<pdfrwt beam="2">  1       -2 0.12174726E+00 0.13771348E+04</pdfrwt>
<totfact> 0.27382566E+00</totfact>
</mgrwt>
</event>
<event>
 4    5  0.1077226E-007  0.1493401E+04  0.7818608E-02  0.8914310E-01
         -2   -1    0    0    0  501 -0.00000000000E+00  0.00000000000E+00  0.15182782019E+04  0.15182782019E+04  0.25500000000E-02 0.  1.
          2   -1    0    0  501    0  0.00000000000E+00 -0.00000000000E+00 -0.35539745491E+04  0.35539745491E+04  0.25500000000E-02 0. -1.
    8880023    1    1    2    0    0  0.13396536025E+04  0.42004749285E+02  0.96789552698E+03  0.17796258402E+04  0.65864270000E+03 0.  0.
    8880022    1    1    2    0    0 -0.13396536025E+04 -0.42004749285E+02 -0.30035918742E+04  0.32926269108E+04  0.15294330000E+03 0.  0.
<mgrwt>
<rscale>  0 0.14559153E+04</rscale>
<asrwt>0</asrwt>
<pdfrwt beam="1">  1        2 0.54676531E+00 0.14934009E+04</pdfrwt>
<pdfrwt beam="2">  1       -2 0.23358126E+00 0.14934009E+04</pdfrwt>
<totfact> 0.57326293E-02</totfact>
</mgrwt>
</event>
<event>
 4    5  0.8511149E-008  0.7339915E+03  0.7818608E-02  0.9877808E-01
          2   -1    0    0  501    0  0.00000000000E+00  0.00000000000E+00  0.92349370727E+03  0.92349370727E+03  0.25500000000E-02 0. -1.
         -2   -1    0    0    0  501 -0.00000000000E+00 -0.00000000000E+00 -0.25520926561E+04  0.25520926561E+04  0.25500000000E-02 0.  1.
    8880023    1    1    2    0    0 -0.31706185697E+03 -0.66370771564E+02 -0.24616669019E+04  0.25687637965E+04  0.65864270000E+03 0.  1.
    8880022    1    1    2    0    0  0.31706185697E+03  0.66370771564E+02  0.83306795299E+03  0.90682256686E+03  0.15294330000E+03 0.  0.
<mgrwt>
<rscale>  0 0.61348953E+03</rscale>
<asrwt>0</asrwt>
<pdfrwt beam="1">  1        2 0.14207596E+00 0.73399149E+03</pdfrwt>
<pdfrwt beam="2">  1       -2 0.39262964E+00 0.73399149E+03</pdfrwt>
<totfact> 0.25097794E-01</totfact>
</mgrwt>
</event>
<event>
 4    5  0.8511149E-008  0.7253171E+03  0.7818608E-02  0.9904989E-01
          2   -1    0    0  501    0  0.00000000000E+00  0.00000000000E+00  0.16445114827E+04  0.16445114827E+04  0.25500000000E-02 0. -1.
         -2   -1    0    0    0  501 -0.00000000000E+00 -0.00000000000E+00 -0.34588949400E+03  0.34588949401E+03  0.25500000000E-02 0.  1.
    8880023    1    1    2    0    0 -0.27794778484E+03 -0.12255492238E+03  0.85300749722E+02  0.73031575655E+03  0.65864270000E+03 0.  1.
    8880022    1    1    2    0    0  0.27794778484E+03  0.12255492238E+03  0.12133212390E+04  0.12600852202E+04  0.15294330000E+03 0.  0.
<mgrwt>
<rscale>  0 0.60020113E+03</rscale>
<asrwt>0</asrwt>
<pdfrwt beam="1">  1        2 0.25300177E+00 0.72531709E+03</pdfrwt>
<pdfrwt beam="2">  1       -2 0.53213768E-01 0.72531709E+03</pdfrwt>
<totfact> 0.36049278E+01</totfact>
</mgrwt>
</event>
<event>
 4    5  0.8511149E-008  0.7370319E+03  0.7818608E-02  0.9868679E-01
          2   -1    0    0  501    0  0.00000000000E+00  0.00000000000E+00  0.35628434064E+04  0.35628434064E+04  0.25500000000E-02 0. -1.
         -2   -1    0    0    0  501 -0.00000000000E+00 -0.00000000000E+00 -0.24782298457E+03  0.24782298459E+03  0.25500000000E-02 0.  1.
    8880023    1    1    2    0    0 -0.28012870861E+03  0.17587995764E+03  0.33698304711E+03  0.81041571628E+03  0.65864270000E+03 0.  1.
    8880022    1    1    2    0    0  0.28012870861E+03 -0.17587995764E+03  0.29780373747E+04  0.30002506747E+04  0.15294330000E+03 0.  0.
<mgrwt>
<rscale>  0 0.61803556E+03</rscale>
<asrwt>0</asrwt>
<pdfrwt beam="1">  1        2 0.54812977E+00 0.73703193E+03</pdfrwt>
<pdfrwt beam="2">  1       -2 0.38126612E-01 0.73703193E+03</pdfrwt>
<totfact> 0.51908529E+00</totfact>
</mgrwt>
</event>
<event>
 4    5  0.8511149E-008  0.8135584E+03  0.7818608E-02  0.9682212E-01
          2   -1    0    0  501    0  0.00000000000E+00  0.00000000000E+00  0.13296781264E+04  0.13296781264E+04  0.25500000000E-02 0. -1.
         -2   -1    0    0    0  501 -0.00000000000E+00 -0.00000000000E+00 -0.10187382671E+04  0.10187382671E+04  0.25500000000E-02 0.  1.
    8880023    1    1    2    0    0  0.43011465070E+03 -0.20752926741E+03 -0.79288871082E+03  0.11360236457E+04  0.65864270000E+03 0.  1.
    8880022    1    1    2    0    0 -0.43011465070E+03  0.20752926741E+03  0.11038285702E+04  0.12123927478E+04  0.15294330000E+03 0.  0.
<mgrwt>
<rscale>  0 0.72085823E+03</rscale>
<asrwt>0</asrwt>
<pdfrwt beam="1">  1        2 0.20456586E+00 0.81355837E+03</pdfrwt>
<pdfrwt beam="2">  1       -2 0.15672896E+00 0.81355837E+03</pdfrwt>
<totfact> 0.42948512E+00</totfact>
</mgrwt>
</event>
<event>
 4    5  0.8511149E-008  0.1058117E+04  0.7818608E-02  0.9309187E-01
         -2   -1    0    0    0  501 -0.00000000000E+00  0.00000000000E+00  0.22434732947E+04  0.22434732947E+04  0.25500000000E-02 0.  1.
          2   -1    0    0  501    0  0.00000000000E+00 -0.00000000000E+00 -0.41947632072E+03  0.41947632073E+03  0.25500000000E-02 0. -1.
    8880023    1    1    2    0    0  0.81947800533E+03  0.11940009717E+03  0.12785245962E+04  0.16595890858E+04  0.65864270000E+03 0.  1.
    8880022    1    1    2    0    0 -0.81947800533E+03 -0.11940009717E+03  0.54547237775E+03  0.10033605296E+04  0.15294330000E+03 0.  0.
<mgrwt>
<rscale>  0 0.99941451E+03</rscale>
<asrwt>0</asrwt>
<pdfrwt beam="1">  1        2 0.64534817E-01 0.10581166E+04</pdfrwt>
<pdfrwt beam="2">  1       -2 0.34514974E+00 0.10581166E+04</pdfrwt>
<totfact> 0.12674761E+00</totfact>
</mgrwt>
</event>
<event>
 4    5  0.8511149E-008  0.8029611E+03  0.7818608E-02  0.9704430E-01
          2   -1    0    0  501    0  0.00000000000E+00  0.00000000000E+00  0.13383924644E+04  0.13383924644E+04  0.25500000000E-02 0. -1.
         -2   -1    0    0    0  501 -0.00000000000E+00 -0.00000000000E+00 -0.10610683354E+04  0.10610683354E+04  0.25500000000E-02 0.  1.
    8880023    1    1    2    0    0  0.23134455293E+03 -0.39675689065E+03 -0.85200853174E+03  0.11707540634E+04  0.65864270000E+03 0.  1.
    8880022    1    1    2    0    0 -0.23134455293E+03  0.39675689065E+03  0.11293326608E+04  0.12287067364E+04  0.15294330000E+03 0.  0.
<mgrwt>
<rscale>  0 0.70753659E+03</rscale>
<asrwt>0</asrwt>
<pdfrwt beam="1">  1        2 0.20590653E+00 0.80296111E+03</pdfrwt>
<pdfrwt beam="2">  1       -2 0.16324128E+00 0.80296111E+03</pdfrwt>
<totfact> 0.38070056E+00</totfact>
</mgrwt>
</event>
<event>
 4    5  0.8511149E-008  0.7420802E+03  0.7818608E-02  0.9853929E-01
         -2   -1    0    0    0  501 -0.00000000000E+00  0.00000000000E+00  0.25711147385E+03  0.25711147387E+03  0.25500000000E-02 0.  1.
          2   -1    0    0  501    0  0.00000000000E+00 -0.00000000000E+00 -0.21996694893E+04  0.21996694893E+04  0.25500000000E-02 0. -1.
    8880023    1    1    2    0    0 -0.13392864383E+03  0.31454079005E+03 -0.34945029497E+03  0.82024295496E+03  0.65864270000E+03 0.  0.
    8880022    1    1    2    0    0  0.13392864383E+03 -0.31454079005E+03 -0.15931077205E+04  0.16365380082E+04  0.15294330000E+03 0.  0.
<mgrwt>
<rscale>  0 0.62547013E+03</rscale>
<asrwt>0</asrwt>
<pdfrwt beam="1">  1        2 0.33841068E+00 0.74208018E+03</pdfrwt>
<pdfrwt beam="2">  1       -2 0.39555613E-01 0.74208018E+03</pdfrwt>
<totfact> 0.32396233E+01</totfact>
</mgrwt>
</event>
<event>
 4    5  0.8511149E-008  0.1016674E+04  0.7818608E-02  0.9360061E-01
         -2   -1    0    0    0  501 -0.00000000000E+00  0.00000000000E+00  0.14189878090E+04  0.14189878090E+04  0.25500000000E-02 0.  1.
          2   -1    0    0  501    0  0.00000000000E+00 -0.00000000000E+00 -0.11875908917E+04  0.11875908917E+04  0.25500000000E-02 0. -1.
    8880023    1    1    2    0    0 -0.30086243432E+03  0.71365105493E+03  0.10554071572E+04  0.14654386737E+04  0.65864270000E+03 0.  0.
    8880022    1    1    2    0    0  0.30086243432E+03 -0.71365105493E+03 -0.82401023994E+03  0.11411400270E+04  0.15294330000E+03 0.  0.
<mgrwt>
<rscale>  0 0.95436702E+03</rscale>
<asrwt>0</asrwt>
<pdfrwt beam="1">  1        2 0.18270629E+00 0.10166741E+04</pdfrwt>
<pdfrwt beam="2">  1       -2 0.21830582E+00 0.10166741E+04</pdfrwt>
<totfact> 0.19355483E+00</totfact>
</mgrwt>
</event>
<event>
 4    5  0.8511149E-008  0.1041079E+04  0.7818608E-02  0.9329684E-01
          2   -1    0    0  501    0  0.00000000000E+00  0.00000000000E+00  0.90601887810E+03  0.90601887811E+03  0.25500000000E-02 0. -1.
         -2   -1    0    0    0  501 -0.00000000000E+00 -0.00000000000E+00 -0.16142003780E+04  0.16142003780E+04  0.25500000000E-02 0.  1.
    8880023    1    1    2    0    0 -0.61390839912E+03  0.52263877275E+03  0.42214799445E+03  0.11234117432E+04  0.65864270000E+03 0.  0.
    8880022    1    1    2    0    0  0.61390839912E+03 -0.52263877275E+03 -0.11303294944E+04  0.13968075129E+04  0.15294330000E+03 0.  0.
<mgrwt>
<rscale>  0 0.98095473E+03</rscale>
<asrwt>0</asrwt>
<pdfrwt beam="1">  1        2 0.13938752E+00 0.10410788E+04</pdfrwt>
<pdfrwt beam="2">  1       -2 0.24833852E+00 0.10410788E+04</pdfrwt>
<totfact> 0.18958115E+00</totfact>
</mgrwt>
</event>
<event>
 4    5  0.8511149E-008  0.8375622E+03  0.7818608E-02  0.9634794E-01
         -2   -1    0    0    0  501 -0.00000000000E+00  0.00000000000E+00  0.55971063398E+03  0.55971063399E+03  0.25500000000E-02 0.  1.
          2   -1    0    0  501    0  0.00000000000E+00 -0.00000000000E+00 -0.10701070738E+04  0.10701070738E+04  0.25500000000E-02 0. -1.
    8880023    1    1    2    0    0 -0.51318255330E+03 -0.65908778554E+02  0.66185298608E+02  0.84017319650E+03  0.65864270000E+03 0.  0.
    8880022    1    1    2    0    0  0.51318255330E+03  0.65908778554E+02 -0.57658173840E+03  0.78964451127E+03  0.15294330000E+03 0.  0.
<mgrwt>
<rscale>  0 0.75035467E+03</rscale>
<asrwt>0</asrwt>
<pdfrwt beam="1">  1        2 0.16463186E+00 0.83756224E+03</pdfrwt>
<pdfrwt beam="2">  1       -2 0.86109328E-01 0.83756224E+03</pdfrwt>
<totfact> 0.26826743E+01</totfact>
</mgrwt>
</event>
<event>
 4    5  0.8511149E-008  0.8017891E+03  0.7818608E-02  0.9706941E-01
         -2   -1    0    0    0  501 -0.00000000000E+00  0.00000000000E+00  0.56189798032E+03  0.56189798033E+03  0.25500000000E-02 0.  1.
          2   -1    0    0  501    0  0.00000000000E+00 -0.00000000000E+00 -0.27361756728E+04  0.27361756728E+04  0.25500000000E-02 0. -1.
    8880023    1    1    2    0    0  0.43959798590E+03  0.12573441391E+03  0.23935925652E+03  0.83675479801E+03  0.65864270000E+03 0.  1.
    8880022    1    1    2    0    0 -0.43959798590E+03 -0.12573441391E+03 -0.24136369490E+04  0.24613188552E+04  0.15294330000E+03 0.  0.
<mgrwt>
<rscale>  0 0.70605030E+03</rscale>
<asrwt>0</asrwt>
<pdfrwt beam="1">  1        2 0.42095010E+00 0.80178909E+03</pdfrwt>
<pdfrwt beam="2">  1       -2 0.86445845E-01 0.80178909E+03</pdfrwt>
<totfact> 0.30686438E+00</totfact>
</mgrwt>
</event>
<event>
 4    5  0.8511149E-008  0.1160702E+04  0.7818608E-02  0.9196302E-01
         -2   -1    0    0    0  501 -0.00000000000E+00  0.00000000000E+00  0.11666229904E+04  0.11666229904E+04  0.25500000000E-02 0.  1.
          2   -1    0    0  501    0  0.00000000000E+00 -0.00000000000E+00 -0.18912737308E+04  0.18912737308E+04  0.25500000000E-02 0. -1.
    8880023    1    1    2    0    0 -0.35997090015E+03 -0.88534771273E+03  0.68514127116E+03  0.13478309943E+04  0.65864270000E+03 0.  1.
    8880022    1    1    2    0    0  0.35997090015E+03  0.88534771273E+03 -0.14097920116E+04  0.17100657269E+04  0.15294330000E+03 0.  0.
<mgrwt>
<rscale>  0 0.11091675E+04</rscale>
<asrwt>0</asrwt>
<pdfrwt beam="1">  1        2 0.29096519E+00 0.11607023E+04</pdfrwt>
<pdfrwt beam="2">  1       -2 0.17948046E+00 0.11607023E+04</pdfrwt>
<totfact> 0.13698432E+00</totfact>
</mgrwt>
</event>
<event>
 4    5  0.8511149E-008  0.7208078E+03  0.7818608E-02  0.9919862E-01
         -2   -1    0    0    0  501 -0.00000000000E+00  0.00000000000E+00  0.51795756313E+03  0.51795756314E+03  0.25500000000E-02 0.  1.
          2   -1    0    0  501    0  0.00000000000E+00 -0.00000000000E+00 -0.18003861947E+04  0.18003861947E+04  0.25500000000E-02 0. -1.
    8880023    1    1    2    0    0 -0.26594108696E+02  0.29162729191E+03  0.24059419242E+03  0.75990097756E+03  0.65864270000E+03 0.  1.
    8880022    1    1    2    0    0  0.26594108696E+02 -0.29162729191E+03 -0.15230228240E+04  0.15584427803E+04  0.15294330000E+03 0.  0.
<mgrwt>
<rscale>  0 0.59308275E+03</rscale>
<asrwt>0</asrwt>
<pdfrwt beam="1">  1        2 0.27698249E+00 0.72080783E+03</pdfrwt>
<pdfrwt beam="2">  1       -2 0.79685780E-01 0.72080783E+03</pdfrwt>
<totfact> 0.12446941E+01</totfact>
</mgrwt>
</event>
<event>
 4    5  0.8511149E-008  0.1060789E+04  0.7818608E-02  0.9306023E-01
         -2   -1    0    0    0  501 -0.00000000000E+00  0.00000000000E+00  0.12610825514E+04  0.12610825514E+04  0.25500000000E-02 0.  1.
          2   -1    0    0  501    0  0.00000000000E+00 -0.00000000000E+00 -0.14770649961E+04  0.14770649961E+04  0.25500000000E-02 0. -1.
    8880023    1    1    2    0    0 -0.63742259425E+03  0.53399868885E+03  0.86290552127E+03  0.13674349375E+04  0.65864270000E+03 0.  0.
    8880022    1    1    2    0    0  0.63742259425E+03 -0.53399868885E+03 -0.10788879660E+04  0.13707126101E+04  0.15294330000E+03 0.  0.
<mgrwt>
<rscale>  0 0.10023024E+04</rscale>
<asrwt>0</asrwt>
<pdfrwt beam="1">  1        2 0.22724077E+00 0.10607886E+04</pdfrwt>
<pdfrwt beam="2">  1       -2 0.19401270E+00 0.10607886E+04</pdfrwt>
<totfact> 0.18782180E+00</totfact>
</mgrwt>
</event>
<event>
 4    5  0.8511149E-008  0.7926630E+03  0.7818608E-02  0.9726891E-01
         -2   -1    0    0    0  501 -0.00000000000E+00  0.00000000000E+00  0.79073444215E+03  0.79073444216E+03  0.25500000000E-02 0.  1.
          2   -1    0    0  501    0  0.00000000000E+00 -0.00000000000E+00 -0.13713535954E+04  0.13713535954E+04  0.25500000000E-02 0. -1.
    8880023    1    1    2    0    0  0.43422188402E+03 -0.77173690459E+02  0.53259125377E+03  0.95497019478E+03  0.65864270000E+03 0.  0.
    8880022    1    1    2    0    0 -0.43422188402E+03  0.77173690459E+02 -0.11132104070E+04  0.12071178428E+04  0.15294330000E+03 0.  0.
<mgrwt>
<rscale>  0 0.69438066E+03</rscale>
<asrwt>0</asrwt>
<pdfrwt beam="1">  1        2 0.21097748E+00 0.79266300E+03</pdfrwt>
<pdfrwt beam="2">  1       -2 0.12165145E+00 0.79266300E+03</pdfrwt>
<totfact> 0.78442357E+00</totfact>
</mgrwt>
</event>
<event>
 4    5  0.8511149E-008  0.2005152E+04  0.7818608E-02  0.8616812E-01
         -2   -1    0    0    0  501 -0.00000000000E+00  0.00000000000E+00  0.21662428998E+04  0.21662428998E+04  0.25500000000E-02 0.  1.
          2   -1    0    0  501    0  0.00000000000E+00 -0.00000000000E+00 -0.36898154490E+04  0.36898154490E+04  0.25500000000E-02 0. -1.
    8880023    1    1    2    0    0 -0.15583273879E+04  0.10763085951E+04  0.13455864715E+04  0.24147955604E+04  0.65864270000E+03 0.  0.
    8880022    1    1    2    0    0  0.15583273879E+04 -0.10763085951E+04 -0.28691590208E+04  0.34412627885E+04  0.15294330000E+03 0.  0.
<mgrwt>
<rscale>  0 0.19783455E+04</rscale>
<asrwt>0</asrwt>
<pdfrwt beam="1">  1        2 0.56766392E+00 0.20051520E+04</pdfrwt>
<pdfrwt beam="2">  1       -2 0.33326814E+00 0.20051520E+04</pdfrwt>
<totfact> 0.10390050E-02</totfact>
</mgrwt>
</event>
<event>
 4    5  0.8511149E-008  0.6655187E+03  0.7818608E-02  0.1019102E+00
          2   -1    0    0  501    0  0.00000000000E+00  0.00000000000E+00  0.22274294614E+04  0.22274294614E+04  0.25500000000E-02 0. -1.
         -2   -1    0    0    0  501 -0.00000000000E+00 -0.00000000000E+00 -0.35958954568E+03  0.35958954568E+03  0.25500000000E-02 0.  1.
    8880023    1    1    2    0    0 -0.73119148935E+02 -0.61306632748E+02 -0.43743279834E+02  0.66695471657E+03  0.65864270000E+03 0.  1.
    8880022    1    1    2    0    0  0.73119148935E+02  0.61306632748E+02  0.19115831955E+04  0.19200642905E+04  0.15294330000E+03 0.  0.
<mgrwt>
<rscale>  0 0.48012008E+03</rscale>
<asrwt>0</asrwt>
<pdfrwt beam="1">  1        2 0.34268145E+00 0.66551868E+03</pdfrwt>
<pdfrwt beam="2">  1       -2 0.55321470E-01 0.66551868E+03</pdfrwt>
<totfact> 0.16133740E+01</totfact>
</mgrwt>
</event>
<event>
 4    5  0.8511149E-008  0.1057247E+04  0.7818608E-02  0.9310219E-01
         -2   -1    0    0    0  501 -0.00000000000E+00  0.00000000000E+00  0.64540922356E+03  0.64540922356E+03  0.25500000000E-02 0.  1.
          2   -1    0    0  501    0  0.00000000000E+00 -0.00000000000E+00 -0.23994211200E+04  0.23994211200E+04  0.25500000000E-02 0. -1.
    8880023    1    1    2    0    0  0.36379834098E+03 -0.74270614965E+03  0.45765401810E+02  0.10582373722E+04  0.65864270000E+03 0.  0.
    8880022    1    1    2    0    0 -0.36379834098E+03  0.74270614965E+03 -0.17997772983E+04  0.19865929714E+04  0.15294330000E+03 0.  0.
<mgrwt>
<rscale>  0 0.99847453E+03</rscale>
<asrwt>0</asrwt>
<pdfrwt beam="1">  1        2 0.36914171E+00 0.10572473E+04</pdfrwt>
<pdfrwt beam="2">  1       -2 0.99293728E-01 0.10572473E+04</pdfrwt>
<totfact> 0.33392152E+00</totfact>
</mgrwt>
</event>
<event>
 4    5  0.8511149E-008  0.1960202E+04  0.7818608E-02  0.8638740E-01
          2   -1    0    0  501    0  0.00000000000E+00  0.00000000000E+00  0.16217131233E+04  0.16217131233E+04  0.25500000000E-02 0. -1.
         -2   -1    0    0    0  501 -0.00000000000E+00 -0.00000000000E+00 -0.25313544465E+04  0.25313544465E+04  0.25500000000E-02 0.  1.
    8880023    1    1    2    0    0 -0.60177517106E+03 -0.17454075333E+04  0.23682152229E+03  0.19744557360E+04  0.65864270000E+03 0.  0.
    8880022    1    1    2    0    0  0.60177517106E+03  0.17454075333E+04 -0.11464628455E+04  0.21786118339E+04  0.15294330000E+03 0.  0.
<mgrwt>
<rscale>  0 0.19327183E+04</rscale>
<asrwt>0</asrwt>
<pdfrwt beam="1">  1        2 0.24949433E+00 0.19602018E+04</pdfrwt>
<pdfrwt beam="2">  1       -2 0.38943915E+00 0.19602018E+04</pdfrwt>
<totfact> 0.84470907E-02</totfact>
</mgrwt>
</event>
<event>
 4    5  0.8511149E-008  0.9339427E+03  0.7818608E-02  0.9473603E-01
          2   -1    0    0  501    0  0.00000000000E+00  0.00000000000E+00  0.12470607452E+04  0.12470607452E+04  0.25500000000E-02 0. -1.
         -2   -1    0    0    0  501 -0.00000000000E+00 -0.00000000000E+00 -0.11634124209E+04  0.11634124209E+04  0.25500000000E-02 0.  1.
    8880023    1    1    2    0    0 -0.28083549691E+03 -0.59964174201E+03 -0.84517096576E+03  0.12595884100E+04  0.65864270000E+03 0.  1.
    8880022    1    1    2    0    0  0.28083549691E+03  0.59964174201E+03  0.92881929004E+03  0.11508847560E+04  0.15294330000E+03 0.  0.
<mgrwt>
<rscale>  0 0.86258222E+03</rscale>
<asrwt>0</asrwt>
<pdfrwt beam="1">  1        2 0.19185550E+00 0.93394272E+03</pdfrwt>
<pdfrwt beam="2">  1       -2 0.17898653E+00 0.93394272E+03</pdfrwt>
<totfact> 0.32703785E+00</totfact>
</mgrwt>
</event>
<event>
 4    5  0.8511149E-008  0.9208581E+03  0.7818608E-02  0.9493345E-01
         -2   -1    0    0    0  501 -0.00000000000E+00  0.00000000000E+00  0.85767707719E+03  0.85767707719E+03  0.25500000000E-02 0.  1.
          2   -1    0    0  501    0  0.00000000000E+00 -0.00000000000E+00 -0.27589962258E+04  0.27589962258E+04  0.25500000000E-02 0. -1.
    8880023    1    1    2    0    0  0.63835807564E+03 -0.81659773680E+02  0.55342565057E+03  0.10743646999E+04  0.65864270000E+03 0.  0.
    8880022    1    1    2    0    0 -0.63835807564E+03  0.81659773680E+02 -0.24547447992E+04  0.25423086031E+04  0.15294330000E+03 0.  0.
<mgrwt>
<rscale>  0 0.84776278E+03</rscale>
<asrwt>0</asrwt>
<pdfrwt beam="1">  1        2 0.42446096E+00 0.92085806E+03</pdfrwt>
<pdfrwt beam="2">  1       -2 0.13195032E+00 0.92085806E+03</pdfrwt>
<totfact> 0.10496063E+00</totfact>
</mgrwt>
</event>
<event>
 4    5  0.8511149E-008  0.7816955E+03  0.7818608E-02  0.9751869E-01
          2   -1    0    0  501    0  0.00000000000E+00  0.00000000000E+00  0.15056211331E+04  0.15056211331E+04  0.25500000000E-02 0. -1.
         -2   -1    0    0    0  501 -0.00000000000E+00 -0.00000000000E+00 -0.33542880788E+03  0.33542880789E+03  0.25500000000E-02 0.  1.
    8880023    1    1    2    0    0 -0.14255928170E+03 -0.39612443745E+03  0.25518831418E+03  0.82229495967E+03  0.65864270000E+03 0.  1.
    8880022    1    1    2    0    0  0.14255928170E+03  0.39612443745E+03  0.91500401108E+03  0.10187549814E+04  0.15294330000E+03 0.  0.
<mgrwt>
<rscale>  0 0.68010747E+03</rscale>
<asrwt>0</asrwt>
<pdfrwt beam="1">  1        2 0.23163402E+00 0.78169554E+03</pdfrwt>
<pdfrwt beam="2">  1       -2 0.51604431E-01 0.78169554E+03</pdfrwt>
<totfact> 0.45536527E+01</totfact>
</mgrwt>
</event>
<event>
 4    5  0.8511149E-008  0.9601555E+03  0.7818608E-02  0.9435651E-01
         -2   -1    0    0    0  501 -0.00000000000E+00  0.00000000000E+00  0.41334306176E+03  0.41334306177E+03  0.25500000000E-02 0.  1.
          2   -1    0    0  501    0  0.00000000000E+00 -0.00000000000E+00 -0.38536935820E+04  0.38536935820E+04  0.25500000000E-02 0. -1.
    8880023    1    1    2    0    0 -0.52288621685E+03  0.46333402555E+03 -0.24265879188E+03  0.99034433938E+03  0.65864270000E+03 0.  0.
    8880022    1    1    2    0    0  0.52288621685E+03 -0.46333402555E+03 -0.31976917284E+04  0.32766923044E+04  0.15294330000E+03 0.  0.
<mgrwt>
<rscale>  0 0.89198957E+03</rscale>
<asrwt>0</asrwt>
<pdfrwt beam="1">  1        2 0.59287591E+00 0.96015552E+03</pdfrwt>
<pdfrwt beam="2">  1       -2 0.63591243E-01 0.96015552E+03</pdfrwt>
<totfact> 0.10797408E+00</totfact>
</mgrwt>
</event>
<event>
 4    5  0.8511149E-008  0.1151638E+04  0.7818608E-02  0.9205631E-01
         -2   -1    0    0    0  501 -0.00000000000E+00  0.00000000000E+00  0.72735568509E+03  0.72735568510E+03  0.25500000000E-02 0.  1.
          2   -1    0    0  501    0  0.00000000000E+00 -0.00000000000E+00 -0.21773906787E+04  0.21773906787E+04  0.25500000000E-02 0. -1.
    8880023    1    1    2    0    0 -0.66501132780E+03  0.67098339876E+03  0.18641689858E+02  0.11517883948E+04  0.65864270000E+03 0.  1.
    8880022    1    1    2    0    0  0.66501132780E+03 -0.67098339876E+03 -0.14686766834E+04  0.17529579690E+04  0.15294330000E+03 0.  0.
<mgrwt>
<rscale>  0 0.10995499E+04</rscale>
<asrwt>0</asrwt>
<pdfrwt beam="1">  1        2 0.33498318E+00 0.11516375E+04</pdfrwt>
<pdfrwt beam="2">  1       -2 0.11190088E+00 0.11516375E+04</pdfrwt>
<totfact> 0.32970531E+00</totfact>
</mgrwt>
</event>
<event>
 4    5  0.8511149E-008  0.7019761E+03  0.7818608E-02  0.9989100E-01
         -2   -1    0    0    0  501 -0.00000000000E+00  0.00000000000E+00  0.10873737694E+04  0.10873737694E+04  0.25500000000E-02 0.  1.
          2   -1    0    0  501    0  0.00000000000E+00 -0.00000000000E+00 -0.40988802063E+03  0.40988802064E+03  0.25500000000E-02 0. -1.
    8880023    1    1    2    0    0 -0.83131394826E+02  0.22814333422E+03  0.89479952285E+03  0.11372935426E+04  0.65864270000E+03 0.  1.
    8880022    1    1    2    0    0  0.83131394826E+02 -0.22814333422E+03 -0.21731377405E+03  0.35996824744E+03  0.15294330000E+03 0.  0.
<mgrwt>
<rscale>  0 0.56130759E+03</rscale>
<asrwt>0</asrwt>
<pdfrwt beam="1">  1        2 0.63059696E-01 0.70197608E+03</pdfrwt>
<pdfrwt beam="2">  1       -2 0.16728827E+00 0.70197608E+03</pdfrwt>
<totfact> 0.17564777E+01</totfact>
</mgrwt>
</event>
<event>
 4    5  0.8511149E-008  0.9203049E+03  0.7818608E-02  0.9494192E-01
          2   -1    0    0  501    0  0.00000000000E+00  0.00000000000E+00  0.10561314492E+04  0.10561314492E+04  0.25500000000E-02 0. -1.
         -2   -1    0    0    0  501 -0.00000000000E+00 -0.00000000000E+00 -0.10629359888E+04  0.10629359888E+04  0.25500000000E-02 0.  1.
    8880023    1    1    2    0    0  0.54866014194E+03  0.33484776902E+03 -0.70387838827E+03  0.11586224456E+04  0.65864270000E+03 0.  0.
    8880022    1    1    2    0    0 -0.54866014194E+03 -0.33484776902E+03  0.69707384873E+03  0.96044499237E+03  0.15294330000E+03 0.  0.
<mgrwt>
<rscale>  0 0.84713407E+03</rscale>
<asrwt>0</asrwt>
<pdfrwt beam="1">  1        2 0.16248176E+00 0.92030494E+03</pdfrwt>
<pdfrwt beam="2">  1       -2 0.16352861E+00 0.92030494E+03</pdfrwt>
<totfact> 0.55024111E+00</totfact>
</mgrwt>
</event>
<event>
 4    5  0.8511149E-008  0.6681906E+03  0.7818608E-02  0.1016995E+00
          2   -1    0    0  501    0  0.00000000000E+00  0.00000000000E+00  0.57025015264E+03  0.57025015264E+03  0.25500000000E-02 0. -1.
         -2   -1    0    0    0  501 -0.00000000000E+00 -0.00000000000E+00 -0.43379956196E+03  0.43379956196E+03  0.25500000000E-02 0.  1.
    8880023    1    1    2    0    0  0.10134246457E+03  0.48971027657E+02 -0.12613856354E+03  0.67999235301E+03  0.65864270000E+03 0.  1.
    8880022    1    1    2    0    0 -0.10134246457E+03 -0.48971027657E+02  0.26258915422E+03  0.32405736160E+03  0.15294330000E+03 0.  1.
<mgrwt>
<rscale>  0 0.48786948E+03</rscale>
<asrwt>0</asrwt>
<pdfrwt beam="1">  1        2 0.87730793E-01 0.66819059E+03</pdfrwt>
<pdfrwt beam="2">  1       -2 0.66738394E-01 0.66819059E+03</pdfrwt>
<totfact> 0.11047011E+02</totfact>
</mgrwt>
</event>
<event>
 4    5  0.8511149E-008  0.8965776E+03  0.7818608E-02  0.9531548E-01
         -2   -1    0    0    0  501 -0.00000000000E+00  0.00000000000E+00  0.81528519649E+03  0.81528519649E+03  0.25500000000E-02 0.  1.
          2   -1    0    0  501    0  0.00000000000E+00 -0.00000000000E+00 -0.19059982084E+04  0.19059982084E+04  0.25500000000E-02 0. -1.
    8880023    1    1    2    0    0 -0.47852893678E+03 -0.37556793674E+03  0.48924076747E+03  0.10213755202E+04  0.65864270000E+03 0.  0.
    8880022    1    1    2    0    0  0.47852893678E+03  0.37556793674E+03 -0.15799537794E+04  0.16999078847E+04  0.15294330000E+03 0.  0.
<mgrwt>
<rscale>  0 0.81997337E+03</rscale>
<asrwt>0</asrwt>
<pdfrwt beam="1">  1        2 0.29323049E+00 0.89657762E+03</pdfrwt>
<pdfrwt beam="2">  1       -2 0.12542849E+00 0.89657762E+03</pdfrwt>
<totfact> 0.36224400E+00</totfact>
</mgrwt>
</event>
<event>
 4    5  0.8731492E-008  0.1257916E+04  0.7818608E-02  0.9102782E-01
          2   -1    0    0  501    0  0.00000000000E+00  0.00000000000E+00  0.28547921879E+04  0.28547921879E+04  0.25500000000E-02 0. -1.
         -2   -1    0    0    0  501 -0.00000000000E+00 -0.00000000000E+00 -0.11424079675E+04  0.11424079675E+04  0.25500000000E-02 0.  1.
    8880023    1    1    2    0    0 -0.98546006179E+03 -0.42120218806E+03 -0.63728755655E+03  0.14101377424E+04  0.65864270000E+03 0.  0.
    8880022    1    1    2    0    0  0.98546006179E+03  0.42120218806E+03  0.23496717769E+04  0.25870624131E+04  0.15294330000E+03 0.  0.
<mgrwt>
<rscale>  0 0.12115789E+04</rscale>
<asrwt>0</asrwt>
<pdfrwt beam="1">  1        2 0.43919879E+00 0.12579161E+04</pdfrwt>
<pdfrwt beam="2">  1       -2 0.17575507E+00 0.12579161E+04</pdfrwt>
<totfact> 0.40440094E-01</totfact>
</mgrwt>
</event>
<event>
 4    5  0.8511149E-008  0.1157158E+04  0.7818608E-02  0.9199937E-01
          2   -1    0    0  501    0  0.00000000000E+00  0.00000000000E+00  0.64620246039E+03  0.64620246039E+03  0.25500000000E-02 0. -1.
         -2   -1    0    0    0  501 -0.00000000000E+00 -0.00000000000E+00 -0.21804467698E+04  0.21804467698E+04  0.25500000000E-02 0.  1.
    8880023    1    1    2    0    0  0.90301950634E+03  0.29959829481E+03 -0.14560232944E+04  0.18598433824E+04  0.65864270000E+03 0.  0.
    8880022    1    1    2    0    0 -0.90301950634E+03 -0.29959829481E+03 -0.78221015031E+02  0.96680584777E+03  0.15294330000E+03 0.  0.
<mgrwt>
<rscale>  0 0.11054081E+04</rscale>
<asrwt>0</asrwt>
<pdfrwt beam="1">  1        2 0.99415764E-01 0.11571575E+04</pdfrwt>
<pdfrwt beam="2">  1       -2 0.33545335E+00 0.11571575E+04</pdfrwt>
<totfact> 0.86186997E-01</totfact>
</mgrwt>
</event>
<event>
 4    5  0.8511149E-008  0.6892578E+03  0.7818608E-02  0.1004507E+00
         -2   -1    0    0    0  501 -0.00000000000E+00  0.00000000000E+00  0.84998381904E+03  0.84998381904E+03  0.25500000000E-02 0.  1.
          2   -1    0    0  501    0  0.00000000000E+00 -0.00000000000E+00 -0.11162511954E+04  0.11162511954E+04  0.25500000000E-02 0. -1.
    8880023    1    1    2    0    0 -0.96009384968E+02  0.17902035733E+03  0.69086907836E+03  0.97589773032E+03  0.65864270000E+03 0.  0.
    8880022    1    1    2    0    0  0.96009384968E+02 -0.17902035733E+03 -0.95713645469E+03  0.99033728409E+03  0.15294330000E+03 0. -1.
<mgrwt>
<rscale>  0 0.53717257E+03</rscale>
<asrwt>0</asrwt>
<pdfrwt beam="1">  1        2 0.17173095E+00 0.68925779E+03</pdfrwt>
<pdfrwt beam="2">  1       -2 0.13076674E+00 0.68925779E+03</pdfrwt>
<totfact> 0.93555914E+00</totfact>
</mgrwt>
</event>
<event>
 4    5  0.8511149E-008  0.7602357E+03  0.7818608E-02  0.9804498E-01
         -2   -1    0    0    0  501 -0.00000000000E+00  0.00000000000E+00  0.32087397986E+03  0.32087397987E+03  0.25500000000E-02 0.  1.
          2   -1    0    0  501    0  0.00000000000E+00 -0.00000000000E+00 -0.18024987283E+04  0.18024987283E+04  0.25500000000E-02 0. -1.
    8880023    1    1    2    0    0  0.29456018012E+03  0.23954624826E+03 -0.21177014867E+03  0.78917989514E+03  0.65864270000E+03 0.  0.
    8880022    1    1    2    0    0 -0.29456018012E+03 -0.23954624826E+03 -0.12698545998E+04  0.13341928130E+04  0.15294330000E+03 0.  0.
<mgrwt>
<rscale>  0 0.65121730E+03</rscale>
<asrwt>0</asrwt>
<pdfrwt beam="1">  1        2 0.27730749E+00 0.76023569E+03</pdfrwt>
<pdfrwt beam="2">  1       -2 0.49365228E-01 0.76023569E+03</pdfrwt>
<totfact> 0.34308086E+01</totfact>
</mgrwt>
</event>
<event>
 4    5  0.8511149E-008  0.1396659E+04  0.7818608E-02  0.8986283E-01
          2   -1    0    0  501    0  0.00000000000E+00  0.00000000000E+00  0.16643249053E+04  0.16643249053E+04  0.25500000000E-02 0. -1.
         -2   -1    0    0    0  501 -0.00000000000E+00 -0.00000000000E+00 -0.19547883562E+04  0.19547883562E+04  0.25500000000E-02 0.  1.
    8880023    1    1    2    0    0  0.11895538210E+04 -0.31907538868E+03 -0.13830953245E+04  0.19656068476E+04  0.65864270000E+03 0.  1.
    8880022    1    1    2    0    0 -0.11895538210E+04  0.31907538868E+03  0.10926318735E+04  0.16535064139E+04  0.15294330000E+03 0.  0.
<mgrwt>
<rscale>  0 0.13560210E+04</rscale>
<asrwt>0</asrwt>
<pdfrwt beam="1">  1        2 0.25604998E+00 0.13966594E+04</pdfrwt>
<pdfrwt beam="2">  1       -2 0.30073667E+00 0.13966594E+04</pdfrwt>
<totfact> 0.30709810E-01</totfact>
</mgrwt>
</event>
<event>
 4    5  0.8511149E-008  0.6915488E+03  0.7818608E-02  0.1003425E+00
         -2   -1    0    0    0  501 -0.00000000000E+00  0.00000000000E+00  0.88344753132E+03  0.88344753132E+03  0.25500000000E-02 0.  1.
          2   -1    0    0  501    0  0.00000000000E+00 -0.00000000000E+00 -0.80096088724E+03  0.80096088724E+03  0.25500000000E-02 0. -1.
    8880023    1    1    2    0    0 -0.11841288284E+03 -0.17437872017E+03  0.71844258287E+03  0.99719581829E+03  0.65864270000E+03 0.  1.
    8880022    1    1    2    0    0  0.11841288284E+03  0.17437872017E+03 -0.63595593879E+03  0.68721260027E+03  0.15294330000E+03 0.  0.
<mgrwt>
<rscale>  0 0.54173615E+03</rscale>
<asrwt>0</asrwt>
<pdfrwt beam="1">  1        2 0.12322475E+00 0.69154881E+03</pdfrwt>
<pdfrwt beam="2">  1       -2 0.13591500E+00 0.69154881E+03</pdfrwt>
<totfact> 0.13627058E+01</totfact>
</mgrwt>
</event>
<event>
 4    5  0.8511149E-008  0.7923241E+03  0.7818608E-02  0.9727645E-01
          2   -1    0    0  501    0  0.00000000000E+00  0.00000000000E+00  0.10827453021E+04  0.10827453021E+04  0.25500000000E-02 0. -1.
         -2   -1    0    0    0  501 -0.00000000000E+00 -0.00000000000E+00 -0.42709006649E+03  0.42709006650E+03  0.25500000000E-02 0.  1.
    8880023    1    1    2    0    0  0.43777410066E+03 -0.48177343241E+02  0.12274882230E+03  0.80177596575E+03  0.65864270000E+03 0.  0.
    8880022    1    1    2    0    0 -0.43777410066E+03  0.48177343241E+02  0.53290641333E+03  0.70805940287E+03  0.15294330000E+03 0.  0.
<mgrwt>
<rscale>  0 0.69394381E+03</rscale>
<asrwt>0</asrwt>
<pdfrwt beam="1">  1        2 0.16657620E+00 0.79232407E+03</pdfrwt>
<pdfrwt beam="2">  1       -2 0.65706164E-01 0.79232407E+03</pdfrwt>
<totfact> 0.48228365E+01</totfact>
</mgrwt>
</event>
<event>
 4    5  0.8511149E-008  0.7547077E+03  0.7818608E-02  0.9819006E-01
          2   -1    0    0  501    0  0.00000000000E+00  0.00000000000E+00  0.12215495879E+04  0.12215495879E+04  0.25500000000E-02 0. -1.
         -2   -1    0    0    0  501 -0.00000000000E+00 -0.00000000000E+00 -0.46796823123E+03  0.46796823124E+03  0.25500000000E-02 0.  1.
    8880023    1    1    2    0    0 -0.36844826148E+03  0.43996658868E+01 -0.86370494546E+02  0.75963382431E+03  0.65864270000E+03 0.  0.
    8880022    1    1    2    0    0  0.36844826148E+03 -0.43996658868E+01  0.83995185120E+03  0.92988399480E+03  0.15294330000E+03 0.  0.
<mgrwt>
<rscale>  0 0.64352448E+03</rscale>
<asrwt>0</asrwt>
<pdfrwt beam="1">  1        2 0.18793070E+00 0.75470768E+03</pdfrwt>
<pdfrwt beam="2">  1       -2 0.71995113E-01 0.75470768E+03</pdfrwt>
<totfact> 0.32728779E+01</totfact>
</mgrwt>
</event>
<event>
 4    5  0.8511149E-008  0.9086191E+03  0.7818608E-02  0.9512334E-01
         -2   -1    0    0    0  501 -0.00000000000E+00  0.00000000000E+00  0.43453687243E+03  0.43453687244E+03  0.25500000000E-02 0.  1.
          2   -1    0    0  501    0  0.00000000000E+00 -0.00000000000E+00 -0.24881873275E+04  0.24881873275E+04  0.25500000000E-02 0. -1.
    8880023    1    1    2    0    0  0.58177838138E+03  0.23089464161E+03 -0.16018774073E+03  0.92263142105E+03  0.65864270000E+03 0.  0.
    8880022    1    1    2    0    0 -0.58177838138E+03 -0.23089464161E+03 -0.18934627143E+04  0.20000927789E+04  0.15294330000E+03 0.  0.
<mgrwt>
<rscale>  0 0.83380528E+03</rscale>
<asrwt>0</asrwt>
<pdfrwt beam="1">  1        2 0.38279804E+00 0.90861908E+03</pdfrwt>
<pdfrwt beam="2">  1       -2 0.66851828E-01 0.90861908E+03</pdfrwt>
<totfact> 0.74366794E+00</totfact>
</mgrwt>
</event>
<event>
 4    5  0.8511149E-008  0.1482014E+04  0.7818608E-02  0.8922442E-01
         -2   -1    0    0    0  501 -0.00000000000E+00  0.00000000000E+00  0.58827626064E+03  0.58827626064E+03  0.25500000000E-02 0.  1.
          2   -1    0    0  501    0  0.00000000000E+00 -0.00000000000E+00 -0.41988460380E+04  0.41988460380E+04  0.25500000000E-02 0. -1.
    8880023    1    1    2    0    0  0.12715699047E+04  0.38166128547E+03 -0.82163865083E+03  0.16945369981E+04  0.65864270000E+03 0.  0.
    8880022    1    1    2    0    0 -0.12715699047E+04 -0.38166128547E+03 -0.27889311265E+04  0.30925853005E+04  0.15294330000E+03 0.  0.
<mgrwt>
<rscale>  0 0.14441849E+04</rscale>
<asrwt>0</asrwt>
<pdfrwt beam="1">  1        2 0.64597629E+00 0.14820140E+04</pdfrwt>
<pdfrwt beam="2">  1       -2 0.90504043E-01 0.14820140E+04</pdfrwt>
<totfact> 0.23787869E-01</totfact>
</mgrwt>
</event>
<event>
 4    5  0.8511149E-008  0.6621196E+03  0.7818608E-02  0.1022083E+00
          2   -1    0    0  501    0  0.00000000000E+00  0.00000000000E+00  0.29617178176E+04  0.29617178176E+04  0.25500000000E-02 0. -1.
         -2   -1    0    0    0  501 -0.00000000000E+00 -0.00000000000E+00 -0.18098926756E+03  0.18098926758E+03  0.25500000000E-02 0.  1.
    8880023    1    1    2    0    0  0.58539336190E+02 -0.34136802170E+02  0.43770157585E+03  0.79371597622E+03  0.65864270000E+03 0.  1.
    8880022    1    1    2    0    0 -0.58539336190E+02  0.34136802170E+02  0.23430269742E+04  0.23489911090E+04  0.15294330000E+03 0.  0.
<mgrwt>
<rscale>  0 0.46942448E+03</rscale>
<asrwt>0</asrwt>
<pdfrwt beam="1">  1        2 0.45564885E+00 0.66211961E+03</pdfrwt>
<pdfrwt beam="2">  1       -2 0.27844505E-01 0.66211961E+03</pdfrwt>
<totfact> 0.23250492E+01</totfact>
</mgrwt>
</event>
<event>
 4    5  0.8511149E-008  0.8116459E+03  0.7818608E-02  0.9686159E-01
         -2   -1    0    0    0  501 -0.00000000000E+00  0.00000000000E+00  0.56810727479E+03  0.56810727480E+03  0.25500000000E-02 0.  1.
          2   -1    0    0  501    0  0.00000000000E+00 -0.00000000000E+00 -0.22069203127E+04  0.22069203127E+04  0.25500000000E-02 0. -1.
    8880023    1    1    2    0    0 -0.21562896115E+03  0.42244883091E+03  0.22782224235E+03  0.84301366774E+03  0.65864270000E+03 0.  1.
    8880022    1    1    2    0    0  0.21562896115E+03 -0.42244883091E+03 -0.18666352803E+04  0.19320139198E+04  0.15294330000E+03 0.  0.
<mgrwt>
<rscale>  0 0.71846908E+03</rscale>
<asrwt>0</asrwt>
<pdfrwt beam="1">  1        2 0.33952620E+00 0.81164590E+03</pdfrwt>
<pdfrwt beam="2">  1       -2 0.87401121E-01 0.81164590E+03</pdfrwt>
<totfact> 0.59651140E+00</totfact>
</mgrwt>
</event>
<event>
 4    5  0.8511149E-008  0.1523063E+04  0.7818608E-02  0.8893519E-01
         -2   -1    0    0    0  501 -0.00000000000E+00  0.00000000000E+00  0.14515801492E+04  0.14515801492E+04  0.25500000000E-02 0.  1.
          2   -1    0    0  501    0  0.00000000000E+00 -0.00000000000E+00 -0.19969853764E+04  0.19969853764E+04  0.25500000000E-02 0. -1.
    8880023    1    1    2    0    0 -0.28449784560E+03 -0.13434928276E+04  0.61659781366E+03  0.16431418296E+04  0.65864270000E+03 0.  1.
    8880022    1    1    2    0    0  0.28449784560E+03  0.13434928276E+04 -0.11620030408E+04  0.18054236960E+04  0.15294330000E+03 0.  0.
<mgrwt>
<rscale>  0 0.14864417E+04</rscale>
<asrwt>0</asrwt>
<pdfrwt beam="1">  1        2 0.30722852E+00 0.15230634E+04</pdfrwt>
<pdfrwt beam="2">  1       -2 0.22332002E+00 0.15230634E+04</pdfrwt>
<totfact> 0.59114037E-01</totfact>
</mgrwt>
</event>
<event>
 4    5  0.8511149E-008  0.6630422E+03  0.7818608E-02  0.1021236E+00
          2   -1    0    0  501    0  0.00000000000E+00  0.00000000000E+00  0.15583587065E+04  0.15583587066E+04  0.25500000000E-02 0. -1.
         -2   -1    0    0    0  501 -0.00000000000E+00 -0.00000000000E+00 -0.42934173338E+03  0.42934173339E+03  0.25500000000E-02 0.  1.
    8880023    1    1    2    0    0  0.47940018120E+02 -0.59300640820E+02 -0.16433693017E+03  0.68310441678E+03  0.65864270000E+03 0.  1.
    8880022    1    1    2    0    0 -0.47940018120E+02  0.59300640820E+02  0.12933539033E+04  0.13045960232E+04  0.15294330000E+03 0.  0.
<mgrwt>
<rscale>  0 0.47243359E+03</rscale>
<asrwt>0</asrwt>
<pdfrwt beam="1">  1        2 0.23974749E+00 0.66304224E+03</pdfrwt>
<pdfrwt beam="2">  1       -2 0.66052575E-01 0.66304224E+03</pdfrwt>
<totfact> 0.25711590E+01</totfact>
</mgrwt>
</event>
<event>
 4    5  0.8511149E-008  0.8393528E+03  0.7818608E-02  0.9631402E-01
         -2   -1    0    0    0  501 -0.00000000000E+00  0.00000000000E+00  0.67489166732E+03  0.67489166733E+03  0.25500000000E-02 0.  1.
          2   -1    0    0  501    0  0.00000000000E+00 -0.00000000000E+00 -0.10079346478E+04  0.10079346478E+04  0.25500000000E-02 0. -1.
    8880023    1    1    2    0    0  0.24074893545E+03 -0.46124049436E+03  0.26049629079E+03  0.87884661195E+03  0.65864270000E+03 0.  1.
    8880022    1    1    2    0    0 -0.24074893545E+03  0.46124049436E+03 -0.59353927122E+03  0.80397970313E+03  0.15294330000E+03 0.  0.
<mgrwt>
<rscale>  0 0.75252209E+03</rscale>
<asrwt>0</asrwt>
<pdfrwt beam="1">  1        2 0.15506687E+00 0.83935276E+03</pdfrwt>
<pdfrwt beam="2">  1       -2 0.10382949E+00 0.83935276E+03</pdfrwt>
<totfact> 0.18941828E+01</totfact>
</mgrwt>
</event>
<event>
 4    5  0.8511149E-008  0.6759280E+03  0.7818608E-02  0.1011728E+00
         -2   -1    0    0    0  501 -0.00000000000E+00  0.00000000000E+00  0.83633001107E+02  0.83633001146E+02  0.25500000000E-02 0.  1.
          2   -1    0    0  501    0  0.00000000000E+00 -0.00000000000E+00 -0.30290858030E+04  0.30290858030E+04  0.25500000000E-02 0. -1.
    8880023    1    1    2    0    0  0.13240741240E+03 -0.74409055099E+02 -0.14263704910E+04  0.15784205441E+04  0.65864270000E+03 0.  1.
    8880022    1    1    2    0    0 -0.13240741240E+03  0.74409055099E+02 -0.15190823110E+04  0.15342982601E+04  0.15294330000E+03 0.  0.
<mgrwt>
<rscale>  0 0.50793755E+03</rscale>
<asrwt>0</asrwt>
<pdfrwt beam="1">  1        2 0.46601312E+00 0.67592798E+03</pdfrwt>
<pdfrwt beam="2">  1       -2 0.12866618E-01 0.67592798E+03</pdfrwt>
<totfact> 0.80763223E+01</totfact>
</mgrwt>
</event>
<event>
 4    5  0.8511149E-008  0.1073744E+04  0.7818608E-02  0.9290868E-01
          2   -1    0    0  501    0  0.00000000000E+00  0.00000000000E+00  0.22044235864E+04  0.22044235864E+04  0.25500000000E-02 0. -1.
         -2   -1    0    0    0  501 -0.00000000000E+00 -0.00000000000E+00 -0.77239138527E+03  0.77239138528E+03  0.25500000000E-02 0.  1.
    8880023    1    1    2    0    0  0.77001130405E+03 -0.35524325790E+03 -0.23598779041E+03  0.10993705582E+04  0.65864270000E+03 0.  0.
    8880022    1    1    2    0    0 -0.77001130405E+03  0.35524325790E+03  0.16680199915E+04  0.18774444135E+04  0.15294330000E+03 0.  0.
<mgrwt>
<rscale>  0 0.10162791E+04</rscale>
<asrwt>0</asrwt>
<pdfrwt beam="1">  1        2 0.33914209E+00 0.10737436E+04</pdfrwt>
<pdfrwt beam="2">  1       -2 0.11882945E+00 0.10737436E+04</pdfrwt>
<totfact> 0.27726091E+00</totfact>
</mgrwt>
</event>
<event>
 4    5  0.8511149E-008  0.7293345E+03  0.7818608E-02  0.9892181E-01
          2   -1    0    0  501    0  0.00000000000E+00  0.00000000000E+00  0.16179753745E+04  0.16179753745E+04  0.25500000000E-02 0. -1.
         -2   -1    0    0    0  501 -0.00000000000E+00 -0.00000000000E+00 -0.14625384822E+04  0.14625384822E+04  0.25500000000E-02 0.  1.
    8880023    1    1    2    0    0  0.14075167744E+03 -0.27983497764E+03 -0.13504486809E+04  0.15348095958E+04  0.65864270000E+03 0.  0.
    8880022    1    1    2    0    0 -0.14075167744E+03  0.27983497764E+03  0.15058855732E+04  0.15457042609E+04  0.15294330000E+03 0. -1.
<mgrwt>
<rscale>  0 0.60641749E+03</rscale>
<asrwt>0</asrwt>
<pdfrwt beam="1">  1        2 0.24891929E+00 0.72933453E+03</pdfrwt>
<pdfrwt beam="2">  1       -2 0.22500592E+00 0.72933453E+03</pdfrwt>
<totfact> 0.10450086E+00</totfact>
</mgrwt>
</event>
<event>
 4    5  0.8511149E-008  0.1090804E+04  0.7818608E-02  0.9271365E-01
         -2   -1    0    0    0  501 -0.00000000000E+00  0.00000000000E+00  0.86193018418E+03  0.86193018418E+03  0.25500000000E-02 0.  1.
          2   -1    0    0  501    0  0.00000000000E+00 -0.00000000000E+00 -0.16496156598E+04  0.16496156598E+04  0.25500000000E-02 0. -1.
    8880023    1    1    2    0    0 -0.54894297181E+03  0.67431742416E+03  0.27996022265E+03  0.11261573191E+04  0.65864270000E+03 0.  0.
    8880022    1    1    2    0    0  0.54894297181E+03 -0.67431742416E+03 -0.10676456982E+04  0.13853885249E+04  0.15294330000E+03 0.  0.
<mgrwt>
<rscale>  0 0.10346235E+04</rscale>
<asrwt>0</asrwt>
<pdfrwt beam="1">  1        2 0.25378702E+00 0.10908036E+04</pdfrwt>
<pdfrwt beam="2">  1       -2 0.13260464E+00 0.10908036E+04</pdfrwt>
<totfact> 0.42532231E+00</totfact>
</mgrwt>
</event>
<event>
 4    5  0.8511149E-008  0.1165872E+04  0.7818608E-02  0.9191033E-01
         -2   -1    0    0    0  501 -0.00000000000E+00  0.00000000000E+00  0.10818782790E+04  0.10818782790E+04  0.25500000000E-02 0.  1.
          2   -1    0    0  501    0  0.00000000000E+00 -0.00000000000E+00 -0.24074262373E+04  0.24074262373E+04  0.25500000000E-02 0. -1.
    8880023    1    1    2    0    0  0.59422537958E+03  0.75653401910E+03  0.61489957744E+03  0.13180892308E+04  0.65864270000E+03 0.  0.
    8880022    1    1    2    0    0 -0.59422537958E+03 -0.75653401910E+03 -0.19404475358E+04  0.21712152855E+04  0.15294330000E+03 0.  0.
<mgrwt>
<rscale>  0 0.11146468E+04</rscale>
<asrwt>0</asrwt>
<pdfrwt beam="1">  1        2 0.37037327E+00 0.11658721E+04</pdfrwt>
<pdfrwt beam="2">  1       -2 0.16644281E+00 0.11658721E+04</pdfrwt>
<totfact> 0.87204677E-01</totfact>
</mgrwt>
</event>
<event>
 4    5  0.8511149E-008  0.7413883E+03  0.7818608E-02  0.9855921E-01
         -2   -1    0    0    0  501 -0.00000000000E+00  0.00000000000E+00  0.31979886681E+03  0.31979886682E+03  0.25500000000E-02 0.  1.
          2   -1    0    0  501    0  0.00000000000E+00 -0.00000000000E+00 -0.18568058178E+04  0.18568058178E+04  0.25500000000E-02 0. -1.
    8880023    1    1    2    0    0  0.15991987312E+03 -0.30045301752E+03 -0.17141095295E+03  0.76094566338E+03  0.65864270000E+03 0.  1.
    8880022    1    1    2    0    0 -0.15991987312E+03  0.30045301752E+03 -0.13655959981E+04  0.14156590213E+04  0.15294330000E+03 0.  0.
<mgrwt>
<rscale>  0 0.62445914E+03</rscale>
<asrwt>0</asrwt>
<pdfrwt beam="1">  1        2 0.28566243E+00 0.74138828E+03</pdfrwt>
<pdfrwt beam="2">  1       -2 0.49199827E-01 0.74138828E+03</pdfrwt>
<totfact> 0.32340813E+01</totfact>
</mgrwt>
</event>
<event>
 4    5  0.8511149E-008  0.6670591E+03  0.7818608E-02  0.1017865E+00
         -2   -1    0    0    0  501 -0.00000000000E+00  0.00000000000E+00  0.13130211074E+03  0.13130211077E+03  0.25500000000E-02 0.  1.
          2   -1    0    0  501    0  0.00000000000E+00 -0.00000000000E+00 -0.27479859695E+04  0.27479859695E+04  0.25500000000E-02 0. -1.
    8880023    1    1    2    0    0 -0.78126582532E+02  0.71090767489E+02 -0.75143058609E+03  0.10047963934E+04  0.65864270000E+03 0.  0.
    8880022    1    1    2    0    0  0.78126582532E+02 -0.71090767489E+02 -0.18652532727E+04  0.18744916870E+04  0.15294330000E+03 0.  0.
<mgrwt>
<rscale>  0 0.48464995E+03</rscale>
<asrwt>0</asrwt>
<pdfrwt beam="1">  1        2 0.42276703E+00 0.66705912E+03</pdfrwt>
<pdfrwt beam="2">  1       -2 0.20200327E-01 0.66705912E+03</pdfrwt>
<totfact> 0.55248717E+01</totfact>
</mgrwt>
</event>
<event>
 4    5  0.8511149E-008  0.7190778E+03  0.7818608E-02  0.9925719E-01
         -2   -1    0    0    0  501 -0.00000000000E+00  0.00000000000E+00  0.17090299925E+03  0.17090299927E+03  0.25500000000E-02 0.  1.
          2   -1    0    0  501    0  0.00000000000E+00 -0.00000000000E+00 -0.28969593159E+04  0.28969593159E+04  0.25500000000E-02 0. -1.
    8880023    1    1    2    0    0  0.15502552352E+03  0.24337164614E+03 -0.65966458875E+03  0.97582285637E+03  0.65864270000E+03 0.  0.
    8880022    1    1    2    0    0 -0.15502552352E+03 -0.24337164614E+03 -0.20663917279E+04  0.20920394588E+04  0.15294330000E+03 0.  0.
<mgrwt>
<rscale>  0 0.59030875E+03</rscale>
<asrwt>0</asrwt>
<pdfrwt beam="1">  1        2 0.44568601E+00 0.71907780E+03</pdfrwt>
<pdfrwt beam="2">  1       -2 0.26292771E-01 0.71907780E+03</pdfrwt>
<totfact> 0.27960840E+01</totfact>
</mgrwt>
</event>
<event>
 4    5  0.8511149E-008  0.1826984E+04  0.7818608E-02  0.8707755E-01
         -2   -1    0    0    0  501 -0.00000000000E+00  0.00000000000E+00  0.18475629251E+04  0.18475629251E+04  0.25500000000E-02 0.  1.
          2   -1    0    0  501    0  0.00000000000E+00 -0.00000000000E+00 -0.26128172996E+04  0.26128172996E+04  0.25500000000E-02 0. -1.
    8880023    1    1    2    0    0  0.68461485353E+03 -0.15605650859E+04  0.93148284542E+03  0.20507392283E+04  0.65864270000E+03 0.  0.
    8880022    1    1    2    0    0 -0.68461485353E+03  0.15605650859E+04 -0.16967372200E+04  0.24096409964E+04  0.15294330000E+03 0.  0.
<mgrwt>
<rscale>  0 0.17972658E+04</rscale>
<asrwt>0</asrwt>
<pdfrwt beam="1">  1        2 0.40197189E+00 0.18269842E+04</pdfrwt>
<pdfrwt beam="2">  1       -2 0.28424045E+00 0.18269842E+04</pdfrwt>
<totfact> 0.10710715E-01</totfact>
</mgrwt>
</event>
<event>
 4    5  0.8511149E-008  0.7801027E+03  0.7818608E-02  0.9755596E-01
         -2   -1    0    0    0  501 -0.00000000000E+00  0.00000000000E+00  0.60433128376E+03  0.60433128376E+03  0.25500000000E-02 0.  1.
          2   -1    0    0  501    0  0.00000000000E+00 -0.00000000000E+00 -0.13138963816E+04  0.13138963816E+04  0.25500000000E-02 0. -1.
    8880023    1    1    2    0    0  0.31562025923E+03  0.27410548590E+03  0.28345494885E+03  0.83000414440E+03  0.65864270000E+03 0.  0.
    8880022    1    1    2    0    0 -0.31562025923E+03 -0.27410548590E+03 -0.99302004668E+03  0.10882235210E+04  0.15294330000E+03 0.  0.
<mgrwt>
<rscale>  0 0.67800951E+03</rscale>
<asrwt>0</asrwt>
<pdfrwt beam="1">  1        2 0.20213790E+00 0.78010267E+03</pdfrwt>
<pdfrwt beam="2">  1       -2 0.92974044E-01 0.78010267E+03</pdfrwt>
<totfact> 0.16179901E+01</totfact>
</mgrwt>
</event>
<event>
 4    5  0.8511149E-008  0.1388301E+04  0.7818608E-02  0.8992827E-01
          2   -1    0    0  501    0  0.00000000000E+00  0.00000000000E+00  0.34592321934E+04  0.34592321934E+04  0.25500000000E-02 0. -1.
         -2   -1    0    0    0  501 -0.00000000000E+00 -0.00000000000E+00 -0.60681800507E+03  0.60681800507E+03  0.25500000000E-02 0.  1.
    8880023    1    1    2    0    0  0.10616676661E+03 -0.12174965081E+04  0.23631572338E+04  0.27407829990E+04  0.65864270000E+03 0.  0.
    8880022    1    1    2    0    0 -0.10616676661E+03  0.12174965081E+04  0.48925695448E+03  0.13252671995E+04  0.15294330000E+03 0.  0.
<mgrwt>
<rscale>  0 0.13473626E+04</rscale>
<asrwt>0</asrwt>
<pdfrwt beam="1">  1        2 0.53218957E+00 0.13883009E+04</pdfrwt>
<pdfrwt beam="2">  1       -2 0.93356615E-01 0.13883009E+04</pdfrwt>
<totfact> 0.82214398E-01</totfact>
</mgrwt>
</event>
<event>
 4    5  0.8511149E-008  0.8107067E+03  0.7818608E-02  0.9688107E-01
         -2   -1    0    0    0  501 -0.00000000000E+00  0.00000000000E+00  0.41979327174E+03  0.41979327175E+03  0.25500000000E-02 0.  1.
          2   -1    0    0  501    0  0.00000000000E+00 -0.00000000000E+00 -0.22388214945E+04  0.22388214945E+04  0.25500000000E-02 0. -1.
    8880023    1    1    2    0    0 -0.17911203937E+03  0.43744031164E+03 -0.40191923851E+02  0.81170237520E+03  0.65864270000E+03 0.  1.
    8880022    1    1    2    0    0  0.17911203937E+03 -0.43744031164E+03 -0.17788362989E+04  0.18469123910E+04  0.15294330000E+03 0.  0.
<mgrwt>
<rscale>  0 0.71729344E+03</rscale>
<asrwt>0</asrwt>
<pdfrwt beam="1">  1        2 0.34443407E+00 0.81070670E+03</pdfrwt>
<pdfrwt beam="2">  1       -2 0.64583581E-01 0.81070670E+03</pdfrwt>
<totfact> 0.11213607E+01</totfact>
</mgrwt>
</event>
<event>
 4    5  0.8511149E-008  0.8670573E+03  0.7818608E-02  0.9581131E-01
          2   -1    0    0  501    0  0.00000000000E+00  0.00000000000E+00  0.12116266972E+04  0.12116266972E+04  0.25500000000E-02 0. -1.
         -2   -1    0    0    0  501 -0.00000000000E+00 -0.00000000000E+00 -0.97712423618E+03  0.97712423618E+03  0.25500000000E-02 0.  1.
    8880023    1    1    2    0    0 -0.45867663599E+03  0.32801504991E+03 -0.68112105201E+03  0.11025943148E+04  0.65864270000E+03 0.  1.
    8880022    1    1    2    0    0  0.45867663599E+03 -0.32801504991E+03  0.91562351305E+03  0.10861566186E+04  0.15294330000E+03 0.  0.
<mgrwt>
<rscale>  0 0.78557739E+03</rscale>
<asrwt>0</asrwt>
<pdfrwt beam="1">  1        2 0.18640411E+00 0.86705729E+03</pdfrwt>
<pdfrwt beam="2">  1       -2 0.15032681E+00 0.86705729E+03</pdfrwt>
<totfact> 0.55869250E+00</totfact>
</mgrwt>
</event>
<event>
 4    5  0.8511149E-008  0.8704355E+03  0.7818608E-02  0.9575264E-01
         -2   -1    0    0    0  501 -0.00000000000E+00  0.00000000000E+00  0.50360447080E+03  0.50360447081E+03  0.25500000000E-02 0.  1.
          2   -1    0    0  501    0  0.00000000000E+00 -0.00000000000E+00 -0.21903987861E+04  0.21903987861E+04  0.25500000000E-02 0. -1.
    8880023    1    1    2    0    0 -0.56795426833E+03 -0.35716922918E+02  0.38061372108E+02  0.87126725165E+03  0.65864270000E+03 0.  0.
    8880022    1    1    2    0    0  0.56795426833E+03  0.35716922918E+02 -0.17248556874E+04  0.18227360053E+04  0.15294330000E+03 0.  0.
<mgrwt>
<rscale>  0 0.78955260E+03</rscale>
<asrwt>0</asrwt>
<pdfrwt beam="1">  1        2 0.33698442E+00 0.87043550E+03</pdfrwt>
<pdfrwt beam="2">  1       -2 0.77477612E-01 0.87043550E+03</pdfrwt>
<totfact> 0.79358842E+00</totfact>
</mgrwt>
</event>
<event>
 4    5  0.8511149E-008  0.8989993E+03  0.7818608E-02  0.9527640E-01
         -2   -1    0    0    0  501 -0.00000000000E+00  0.00000000000E+00  0.10768603629E+04  0.10768603629E+04  0.25500000000E-02 0.  1.
          2   -1    0    0  501    0  0.00000000000E+00 -0.00000000000E+00 -0.11929314439E+04  0.11929314439E+04  0.25500000000E-02 0. -1.
    8880023    1    1    2    0    0  0.39208835132E+03 -0.46974066526E+03  0.76897438133E+03  0.11830136826E+04  0.65864270000E+03 0.  0.
    8880022    1    1    2    0    0 -0.39208835132E+03  0.46974066526E+03 -0.88504546230E+03  0.10867781242E+04  0.15294330000E+03 0.  0.
<mgrwt>
<rscale>  0 0.82276357E+03</rscale>
<asrwt>0</asrwt>
<pdfrwt beam="1">  1        2 0.18352791E+00 0.89899932E+03</pdfrwt>
<pdfrwt beam="2">  1       -2 0.16567082E+00 0.89899932E+03</pdfrwt>
<totfact> 0.43904409E+00</totfact>
</mgrwt>
</event>
<event>
 4    5  0.8511149E-008  0.9742629E+03  0.7818608E-02  0.9416032E-01
         -2   -1    0    0    0  501 -0.00000000000E+00  0.00000000000E+00  0.94493917178E+03  0.94493917178E+03  0.25500000000E-02 0.  1.
          2   -1    0    0  501    0  0.00000000000E+00 -0.00000000000E+00 -0.13880129548E+04  0.13880129549E+04  0.25500000000E-02 0. -1.
    8880023    1    1    2    0    0  0.41928998692E+03 -0.58272963006E+03  0.53390373559E+03  0.11109641398E+04  0.65864270000E+03 0.  0.
    8880022    1    1    2    0    0 -0.41928998692E+03  0.58272963006E+03 -0.97697751866E+03  0.12219879868E+04  0.15294330000E+03 0.  0.
<mgrwt>
<rscale>  0 0.90767943E+03</rscale>
<asrwt>0</asrwt>
<pdfrwt beam="1">  1        2 0.21354046E+00 0.97426286E+03</pdfrwt>
<pdfrwt beam="2">  1       -2 0.14537526E+00 0.97426286E+03</pdfrwt>
<totfact> 0.47609643E+00</totfact>
</mgrwt>
</event>
<event>
 4    5  0.8511149E-008  0.7656909E+03  0.7818608E-02  0.9790591E-01
         -2   -1    0    0    0  501 -0.00000000000E+00  0.00000000000E+00  0.50531573107E+03  0.50531573107E+03  0.25500000000E-02 0.  1.
          2   -1    0    0  501    0  0.00000000000E+00 -0.00000000000E+00 -0.76078800275E+03  0.76078800275E+03  0.25500000000E-02 0. -1.
    8880023    1    1    2    0    0  0.19805778651E+03 -0.33651973953E+03 -0.34086612031E+03  0.83813623005E+03  0.65864270000E+03 0. -1.
    8880022    1    1    2    0    0 -0.19805778651E+03  0.33651973953E+03  0.85393848626E+02  0.42796750378E+03  0.15294330000E+03 0.  0.
<mgrwt>
<rscale>  0 0.65869941E+03</rscale>
<asrwt>0</asrwt>
<pdfrwt beam="1">  1        2 0.11704431E+00 0.76569095E+03</pdfrwt>
<pdfrwt beam="2">  1       -2 0.77740882E-01 0.76569095E+03</pdfrwt>
<totfact> 0.54912494E+01</totfact>
</mgrwt>
</event>
<event>
 4    5  0.8511149E-008  0.9066121E+03  0.7818608E-02  0.9515499E-01
         -2   -1    0    0    0  501 -0.00000000000E+00  0.00000000000E+00  0.90319029761E+03  0.90319029761E+03  0.25500000000E-02 0.  1.
          2   -1    0    0  501    0  0.00000000000E+00 -0.00000000000E+00 -0.90594757108E+03  0.90594757109E+03  0.25500000000E-02 0. -1.
    8880023    1    1    2    0    0  0.59902427167E+03 -0.17118757113E+03  0.46145345753E+03  0.10172928596E+04  0.65864270000E+03 0.  1.
    8880022    1    1    2    0    0 -0.59902427167E+03  0.17118757113E+03 -0.46421073101E+03  0.79184500905E+03  0.15294330000E+03 0.  0.
<mgrwt>
<rscale>  0 0.83150700E+03</rscale>
<asrwt>0</asrwt>
<pdfrwt beam="1">  1        2 0.13937655E+00 0.90661208E+03</pdfrwt>
<pdfrwt beam="2">  1       -2 0.13895235E+00 0.90661208E+03</pdfrwt>
<totfact> 0.10641685E+01</totfact>
</mgrwt>
</event>
<event>
 4    5  0.8511149E-008  0.1203121E+04  0.7818608E-02  0.9154094E-01
         -2   -1    0    0    0  501 -0.00000000000E+00  0.00000000000E+00  0.12380475029E+04  0.12380475029E+04  0.25500000000E-02 0.  1.
          2   -1    0    0  501    0  0.00000000000E+00 -0.00000000000E+00 -0.17082280416E+04  0.17082280416E+04  0.25500000000E-02 0. -1.
    8880023    1    1    2    0    0 -0.49015228777E+03  0.87945520483E+03 -0.11954356610E+04  0.16960446186E+04  0.65864270000E+03 0.  0.
    8880022    1    1    2    0    0  0.49015228777E+03 -0.87945520483E+03  0.72525512234E+03  0.12502309259E+04  0.15294330000E+03 0.  0.
<mgrwt>
<rscale>  0 0.11540078E+04</rscale>
<asrwt>0</asrwt>
<pdfrwt beam="1">  1        2 0.26280431E+00 0.12031213E+04</pdfrwt>
<pdfrwt beam="2">  1       -2 0.19046885E+00 0.12031213E+04</pdfrwt>
<totfact> 0.14483949E+00</totfact>
</mgrwt>
</event>
<event>
 4    5  0.8833998E-008  0.9542414E+03  0.7818608E-02  0.9444038E-01
          2   -1    0    0  501    0  0.00000000000E+00  0.00000000000E+00  0.16884153751E+04  0.16884153751E+04  0.25500000000E-02 0. -1.
         -2   -1    0    0    0  501 -0.00000000000E+00 -0.00000000000E+00 -0.16400087546E+04  0.16400087546E+04  0.25500000000E-02 0.  1.
    8880023    1    1    2    0    0  0.13074847592E+03 -0.67799068248E+03 -0.14129151064E+04  0.17049650535E+04  0.65864270000E+03 0.  0.
    8880022    1    1    2    0    0 -0.13074847592E+03  0.67799068248E+03  0.14613217269E+04  0.16234590762E+04  0.15294330000E+03 0.  0.
<mgrwt>
<rscale>  0 0.88538494E+03</rscale>
<asrwt>0</asrwt>
<pdfrwt beam="1">  1        2 0.25975621E+00 0.95424145E+03</pdfrwt>
<pdfrwt beam="2">  1       -2 0.25230904E+00 0.95424145E+03</pdfrwt>
<totfact> 0.62370172E-01</totfact>
</mgrwt>
</event>
<event>
 4    5  0.8511149E-008  0.9587581E+03  0.7818608E-02  0.9437623E-01
          2   -1    0    0  501    0  0.00000000000E+00  0.00000000000E+00  0.19347467508E+04  0.19347467508E+04  0.25500000000E-02 0. -1.
         -2   -1    0    0    0  501 -0.00000000000E+00 -0.00000000000E+00 -0.58436939610E+03  0.58436939610E+03  0.25500000000E-02 0.  1.
    8880023    1    1    2    0    0 -0.69543318421E+03  0.42184979006E+02 -0.36611646290E+02  0.95945688025E+03  0.65864270000E+03 0.  0.
    8880022    1    1    2    0    0  0.69543318421E+03 -0.42184979006E+02  0.13869890010E+04  0.15596592666E+04  0.15294330000E+03 0.  0.
<mgrwt>
<rscale>  0 0.89043048E+03</rscale>
<asrwt>0</asrwt>
<pdfrwt beam="1">  1        2 0.29765334E+00 0.95875810E+03</pdfrwt>
<pdfrwt beam="2">  1       -2 0.89902986E-01 0.95875810E+03</pdfrwt>
<totfact> 0.77361871E+00</totfact>
</mgrwt>
</event>
<event>
 4    5  0.8511149E-008  0.1036130E+04  0.7818608E-02  0.9335744E-01
         -2   -1    0    0    0  501 -0.00000000000E+00  0.00000000000E+00  0.44454361207E+03  0.44454361208E+03  0.25500000000E-02 0.  1.
          2   -1    0    0  501    0  0.00000000000E+00 -0.00000000000E+00 -0.22677679990E+04  0.22677679990E+04  0.25500000000E-02 0. -1.
    8880023    1    1    2    0    0  0.39969358663E+03  0.69281979108E+03 -0.48091220072E+03  0.11422963614E+04  0.65864270000E+03 0.  0.
    8880022    1    1    2    0    0 -0.39969358663E+03 -0.69281979108E+03 -0.13423121862E+04  0.15700152497E+04  0.15294330000E+03 0.  0.
<mgrwt>
<rscale>  0 0.97557728E+03</rscale>
<asrwt>0</asrwt>
<pdfrwt beam="1">  1        2 0.34888738E+00 0.10361295E+04</pdfrwt>
<pdfrwt beam="2">  1       -2 0.68391326E-01 0.10361295E+04</pdfrwt>
<totfact> 0.92728903E+00</totfact>
</mgrwt>
</event>
<event>
 4    5  0.8511149E-008  0.6977659E+03  0.7818608E-02  0.1000660E+00
         -2   -1    0    0    0  501 -0.00000000000E+00  0.00000000000E+00  0.87189821630E+03  0.87189821630E+03  0.25500000000E-02 0.  1.
          2   -1    0    0  501    0  0.00000000000E+00 -0.00000000000E+00 -0.27218296051E+03  0.27218296052E+03  0.25500000000E-02 0. -1.
    8880023    1    1    2    0    0  0.22623223994E+03 -0.43427602481E+02  0.43312782135E+03  0.82126542539E+03  0.65864270000E+03 0.  0.
    8880022    1    1    2    0    0 -0.22623223994E+03  0.43427602481E+02  0.16658743444E+03  0.32281575143E+03  0.15294330000E+03 0.  1.
<mgrwt>
<rscale>  0 0.55361851E+03</rscale>
<asrwt>0</asrwt>
<pdfrwt beam="1">  1        2 0.41874301E-01 0.69776586E+03</pdfrwt>
<pdfrwt beam="2">  1       -2 0.13413819E+00 0.69776586E+03</pdfrwt>
<totfact> 0.49747099E+01</totfact>
</mgrwt>
</event>
<event>
 4    5  0.8511149E-008  0.8631250E+03  0.7818608E-02  0.9588029E-01
          2   -1    0    0  501    0  0.00000000000E+00  0.00000000000E+00  0.67799993714E+03  0.67799993715E+03  0.25500000000E-02 0. -1.
         -2   -1    0    0    0  501 -0.00000000000E+00 -0.00000000000E+00 -0.25459189272E+04  0.25459189272E+04  0.25500000000E-02 0.  1.
    8880023    1    1    2    0    0 -0.80441159164E+02 -0.55199979972E+03 -0.23292705179E+04  0.24840462779E+04  0.65864270000E+03 0.  0.
    8880022    1    1    2    0    0  0.80441159164E+02  0.55199979972E+03  0.46135152781E+03  0.73987258647E+03  0.15294330000E+03 0.  0.
<mgrwt>
<rscale>  0 0.78093616E+03</rscale>
<asrwt>0</asrwt>
<pdfrwt beam="1">  1        2 0.10430768E+00 0.86312500E+03</pdfrwt>
<pdfrwt beam="2">  1       -2 0.39167983E+00 0.86312500E+03</pdfrwt>
<totfact> 0.37348612E-01</totfact>
</mgrwt>
</event>
<event>
 4    5  0.8511149E-008  0.9559587E+03  0.7818608E-02  0.9441592E-01
          2   -1    0    0  501    0  0.00000000000E+00  0.00000000000E+00  0.14962601276E+04  0.14962601276E+04  0.25500000000E-02 0. -1.
         -2   -1    0    0    0  501 -0.00000000000E+00 -0.00000000000E+00 -0.70326489590E+03  0.70326489590E+03  0.25500000000E-02 0.  1.
    8880023    1    1    2    0    0  0.55985713372E+03 -0.40817489242E+03 -0.20237992831E+03  0.97714614804E+03  0.65864270000E+03 0.  1.
    8880022    1    1    2    0    0 -0.55985713372E+03  0.40817489242E+03  0.99537515998E+03  0.12223788754E+04  0.15294330000E+03 0.  0.
<mgrwt>
<rscale>  0 0.88730438E+03</rscale>
<asrwt>0</asrwt>
<pdfrwt beam="1">  1        2 0.23019386E+00 0.95595866E+03</pdfrwt>
<pdfrwt beam="2">  1       -2 0.10819460E+00 0.95595866E+03</pdfrwt>
<totfact> 0.87184381E+00</totfact>
</mgrwt>
</event>
<event>
 4    5  0.8511149E-008  0.1002849E+04  0.7818608E-02  0.9377840E-01
         -2   -1    0    0    0  501 -0.00000000000E+00  0.00000000000E+00  0.50613000787E+03  0.50613000788E+03  0.25500000000E-02 0.  1.
          2   -1    0    0  501    0  0.00000000000E+00 -0.00000000000E+00 -0.17931023409E+04  0.17931023409E+04  0.25500000000E-02 0. -1.
    8880023    1    1    2    0    0  0.18744207984E+02  0.75600537637E+03 -0.30056861955E+03  0.10469227172E+04  0.65864270000E+03 0.  0.
    8880022    1    1    2    0    0 -0.18744207984E+02 -0.75600537637E+03 -0.98640371352E+03  0.12523096316E+04  0.15294330000E+03 0.  0.
<mgrwt>
<rscale>  0 0.93922015E+03</rscale>
<asrwt>0</asrwt>
<pdfrwt beam="1">  1        2 0.27586189E+00 0.10028488E+04</pdfrwt>
<pdfrwt beam="2">  1       -2 0.77866156E-01 0.10028488E+04</pdfrwt>
<totfact> 0.12780359E+01</totfact>
</mgrwt>
</event>
<event>
 4    5  0.8511149E-008  0.9172334E+03  0.7818608E-02  0.9498914E-01
          2   -1    0    0  501    0  0.00000000000E+00  0.00000000000E+00  0.15749749632E+04  0.15749749632E+04  0.25500000000E-02 0. -1.
         -2   -1    0    0    0  501 -0.00000000000E+00 -0.00000000000E+00 -0.83495382553E+03  0.83495382553E+03  0.25500000000E-02 0.  1.
    8880023    1    1    2    0    0 -0.47621760492E+03  0.42511613638E+03 -0.47200721405E+03  0.10315560833E+04  0.65864270000E+03 0.  1.
    8880022    1    1    2    0    0  0.47621760492E+03 -0.42511613638E+03  0.12120283517E+04  0.13783727054E+04  0.15294330000E+03 0.  0.
<mgrwt>
<rscale>  0 0.84363927E+03</rscale>
<asrwt>0</asrwt>
<pdfrwt beam="1">  1        2 0.24230384E+00 0.91723342E+03</pdfrwt>
<pdfrwt beam="2">  1       -2 0.12845444E+00 0.91723342E+03</pdfrwt>
<totfact> 0.51755338E+00</totfact>
</mgrwt>
</event>
<event>
 4    5  0.8511149E-008  0.1589111E+04  0.7818608E-02  0.8849146E-01
         -2   -1    0    0    0  501 -0.00000000000E+00  0.00000000000E+00  0.69989763200E+03  0.69989763200E+03  0.25500000000E-02 0.  1.
          2   -1    0    0  501    0  0.00000000000E+00 -0.00000000000E+00 -0.47662800185E+04  0.47662800185E+04  0.25500000000E-02 0. -1.
    8880023    1    1    2    0    0  0.37241686813E+03 -0.13974157525E+04 -0.58518341363E+03  0.16934328870E+04  0.65864270000E+03 0.  0.
    8880022    1    1    2    0    0 -0.37241686813E+03  0.13974157525E+04 -0.34811989729E+04  0.37727447635E+04  0.15294330000E+03 0.  0.
<mgrwt>
<rscale>  0 0.15542680E+04</rscale>
<asrwt>0</asrwt>
<pdfrwt beam="1">  1        2 0.73327383E+00 0.15891115E+04</pdfrwt>
<pdfrwt beam="2">  1       -2 0.10767656E+00 0.15891115E+04</pdfrwt>
<totfact> 0.43706684E-02</totfact>
</mgrwt>
</event>
<event>
 4    5  0.8511149E-008  0.1012707E+04  0.7818608E-02  0.9365118E-01
          2   -1    0    0  501    0  0.00000000000E+00  0.00000000000E+00  0.12482129972E+04  0.12482129972E+04  0.25500000000E-02 0. -1.
         -2   -1    0    0    0  501 -0.00000000000E+00 -0.00000000000E+00 -0.69529306767E+03  0.69529306767E+03  0.25500000000E-02 0.  1.
    8880023    1    1    2    0    0 -0.13265986612E+03  0.75773810411E+03  0.54409853863E+02  0.10141677933E+04  0.65864270000E+03 0.  0.
    8880022    1    1    2    0    0  0.13265986612E+03 -0.75773810411E+03  0.49851007571E+03  0.92933827162E+03  0.15294330000E+03 0.  0.
<mgrwt>
<rscale>  0 0.95002755E+03</rscale>
<asrwt>0</asrwt>
<pdfrwt beam="1">  1        2 0.19203277E+00 0.10127072E+04</pdfrwt>
<pdfrwt beam="2">  1       -2 0.10696816E+00 0.10127072E+04</pdfrwt>
<totfact> 0.12371471E+01</totfact>
</mgrwt>
</event>
<event>
 4    5  0.8511149E-008  0.7190474E+03  0.7818608E-02  0.9925822E-01
         -2   -1    0    0    0  501 -0.00000000000E+00  0.00000000000E+00  0.35083086515E+03  0.35083086516E+03  0.25500000000E-02 0.  1.
          2   -1    0    0  501    0  0.00000000000E+00 -0.00000000000E+00 -0.12839587807E+04  0.12839587807E+04  0.25500000000E-02 0. -1.
    8880023    1    1    2    0    0  0.28187913422E+03  0.61344389559E+02 -0.82642074600E+02  0.72378097460E+03  0.65864270000E+03 0.  0.
    8880022    1    1    2    0    0 -0.28187913422E+03 -0.61344389559E+02 -0.85048584098E+03  0.91100867129E+03  0.15294330000E+03 0.  0.
<mgrwt>
<rscale>  0 0.59025981E+03</rscale>
<asrwt>0</asrwt>
<pdfrwt beam="1">  1        2 0.19753212E+00 0.71904742E+03</pdfrwt>
<pdfrwt beam="2">  1       -2 0.53973980E-01 0.71904742E+03</pdfrwt>
<totfact> 0.55786972E+01</totfact>
</mgrwt>
</event>
<event>
 4    5  0.8511149E-008  0.9563176E+03  0.7818608E-02  0.9441082E-01
         -2   -1    0    0    0  501 -0.00000000000E+00  0.00000000000E+00  0.11158484718E+04  0.11158484718E+04  0.25500000000E-02 0.  1.
          2   -1    0    0  501    0  0.00000000000E+00 -0.00000000000E+00 -0.10267628017E+04  0.10267628017E+04  0.25500000000E-02 0. -1.
    8880023    1    1    2    0    0  0.52689206495E+03 -0.45068602516E+03  0.71661723140E+03  0.11950245202E+04  0.65864270000E+03 0.  0.
    8880022    1    1    2    0    0 -0.52689206495E+03  0.45068602516E+03 -0.62753156129E+03  0.94758675318E+03  0.15294330000E+03 0.  0.
<mgrwt>
<rscale>  0 0.88770541E+03</rscale>
<asrwt>0</asrwt>
<pdfrwt beam="1">  1        2 0.15796351E+00 0.95631760E+03</pdfrwt>
<pdfrwt beam="2">  1       -2 0.17166900E+00 0.95631760E+03</pdfrwt>
<totfact> 0.50004013E+00</totfact>
</mgrwt>
</event>
<event>
 4    5  0.8511149E-008  0.8533055E+03  0.7818608E-02  0.9605584E-01
          2   -1    0    0  501    0  0.00000000000E+00  0.00000000000E+00  0.13592013850E+04  0.13592013850E+04  0.25500000000E-02 0. -1.
         -2   -1    0    0    0  501 -0.00000000000E+00 -0.00000000000E+00 -0.78042336694E+03  0.78042336695E+03  0.25500000000E-02 0.  1.
    8880023    1    1    2    0    0 -0.17440075146E+03  0.51371631769E+03 -0.45138509005E+03  0.96533868821E+03  0.65864270000E+03 0.  1.
    8880022    1    1    2    0    0  0.17440075146E+03 -0.51371631769E+03  0.10301631081E+04  0.11742860637E+04  0.15294330000E+03 0.  0.
<mgrwt>
<rscale>  0 0.76927668E+03</rscale>
<asrwt>0</asrwt>
<pdfrwt beam="1">  1        2 0.20910790E+00 0.85330550E+03</pdfrwt>
<pdfrwt beam="2">  1       -2 0.12006513E+00 0.85330550E+03</pdfrwt>
<totfact> 0.81738368E+00</totfact>
</mgrwt>
</event>
<event>
 4    5  0.8511149E-008  0.1314517E+04  0.7818608E-02  0.9053124E-01
         -2   -1    0    0    0  501 -0.00000000000E+00  0.00000000000E+00  0.22837886580E+04  0.22837886580E+04  0.25500000000E-02 0.  1.
          2   -1    0    0  501    0  0.00000000000E+00 -0.00000000000E+00 -0.13938416445E+04  0.13938416445E+04  0.25500000000E-02 0. -1.
    8880023    1    1    2    0    0  0.66467507148E+03 -0.92322886791E+03  0.17887116052E+04  0.22197846531E+04  0.65864270000E+03 0.  0.
    8880022    1    1    2    0    0 -0.66467507148E+03  0.92322886791E+03 -0.89876459167E+03  0.14578456494E+04  0.15294330000E+03 0.  0.
<mgrwt>
<rscale>  0 0.12707056E+04</rscale>
<asrwt>0</asrwt>
<pdfrwt beam="1">  1        2 0.21443718E+00 0.13145169E+04</pdfrwt>
<pdfrwt beam="2">  1       -2 0.35135210E+00 0.13145169E+04</pdfrwt>
<totfact> 0.21478662E-01</totfact>
</mgrwt>
</event>
<event>
 4    5  0.8511149E-008  0.8140659E+03  0.7818608E-02  0.9681169E-01
         -2   -1    0    0    0  501 -0.00000000000E+00  0.00000000000E+00  0.49135569468E+03  0.49135569469E+03  0.25500000000E-02 0.  1.
          2   -1    0    0  501    0  0.00000000000E+00 -0.00000000000E+00 -0.10081034685E+04  0.10081034685E+04  0.25500000000E-02 0. -1.
    8880023    1    1    2    0    0  0.47841172534E+03  0.39045492664E+01 -0.52931131824E+02  0.81578485854E+03  0.65864270000E+03 0.  0.
    8880022    1    1    2    0    0 -0.47841172534E+03 -0.39045492664E+01 -0.46381664204E+03  0.68367430469E+03  0.15294330000E+03 0.  0.
<mgrwt>
<rscale>  0 0.72149116E+03</rscale>
<asrwt>0</asrwt>
<pdfrwt beam="1">  1        2 0.15509284E+00 0.81406586E+03</pdfrwt>
<pdfrwt beam="2">  1       -2 0.75593184E-01 0.81406586E+03</pdfrwt>
<totfact> 0.39451239E+01</totfact>
</mgrwt>
</event>
<event>
 4    5  0.8511149E-008  0.1462731E+04  0.7818608E-02  0.8936412E-01
         -2   -1    0    0    0  501 -0.00000000000E+00  0.00000000000E+00  0.49377713039E+03  0.49377713039E+03  0.25500000000E-02 0.  1.
          2   -1    0    0  501    0  0.00000000000E+00 -0.00000000000E+00 -0.45035676161E+04  0.45035676161E+04  0.25500000000E-02 0. -1.
    8880023    1    1    2    0    0 -0.74967118880E+03 -0.10694687748E+04 -0.30061191084E+04  0.33431022497E+04  0.65864270000E+03 0.  0.
    8880022    1    1    2    0    0  0.74967118880E+03  0.10694687748E+04 -0.10036713772E+04  0.16542424968E+04  0.15294330000E+03 0.  0.
<mgrwt>
<rscale>  0 0.14243040E+04</rscale>
<asrwt>0</asrwt>
<pdfrwt beam="1">  1        2 0.69285653E+00 0.14627305E+04</pdfrwt>
<pdfrwt beam="2">  1       -2 0.75965715E-01 0.14627305E+04</pdfrwt>
<totfact> 0.18783069E-01</totfact>
</mgrwt>
</event>
<event>
 4    5  0.8511149E-008  0.9150637E+03  0.7818608E-02  0.9502270E-01
          2   -1    0    0  501    0  0.00000000000E+00  0.00000000000E+00  0.97381863533E+03  0.97381863533E+03  0.25500000000E-02 0. -1.
         -2   -1    0    0    0  501 -0.00000000000E+00 -0.00000000000E+00 -0.13158430362E+04  0.13158430362E+04  0.25500000000E-02 0.  1.
    8880023    1    1    2    0    0 -0.67733891775E+02 -0.63161968097E+03 -0.10047553917E+04  0.13589977575E+04  0.65864270000E+03 0.  1.
    8880022    1    1    2    0    0  0.67733891775E+02  0.63161968097E+03  0.66273099089E+03  0.93066391398E+03  0.15294330000E+03 0.  0.
<mgrwt>
<rscale>  0 0.84116689E+03</rscale>
<asrwt>0</asrwt>
<pdfrwt beam="1">  1        2 0.14981825E+00 0.91506366E+03</pdfrwt>
<pdfrwt beam="2">  1       -2 0.20243739E+00 0.91506366E+03</pdfrwt>
<totfact> 0.33645718E+00</totfact>
</mgrwt>
</event>
<event>
 4    5  0.8511149E-008  0.9152541E+03  0.7818608E-02  0.9501975E-01
         -2   -1    0    0    0  501 -0.00000000000E+00  0.00000000000E+00  0.67985412032E+03  0.67985412033E+03  0.25500000000E-02 0.  1.
          2   -1    0    0  501    0  0.00000000000E+00 -0.00000000000E+00 -0.13557965487E+04  0.13557965487E+04  0.25500000000E-02 0. -1.
    8880023    1    1    2    0    0  0.62253726060E+03 -0.12777779138E+03  0.20573862373E+03  0.93809295508E+03  0.65864270000E+03 0.  1.
    8880022    1    1    2    0    0 -0.62253726060E+03  0.12777779138E+03 -0.88168105213E+03  0.10975577140E+04  0.15294330000E+03 0.  0.
<mgrwt>
<rscale>  0 0.84138398E+03</rscale>
<asrwt>0</asrwt>
<pdfrwt beam="1">  1        2 0.20858408E+00 0.91525407E+03</pdfrwt>
<pdfrwt beam="2">  1       -2 0.10459294E+00 0.91525407E+03</pdfrwt>
<totfact> 0.11415382E+01</totfact>
</mgrwt>
</event>
<event>
 4    5  0.8511149E-008  0.8000648E+03  0.7818608E-02  0.9710656E-01
         -2   -1    0    0    0  501 -0.00000000000E+00  0.00000000000E+00  0.55927650273E+03  0.55927650274E+03  0.25500000000E-02 0.  1.
          2   -1    0    0  501    0  0.00000000000E+00 -0.00000000000E+00 -0.16830553872E+04  0.16830553872E+04  0.25500000000E-02 0. -1.
    8880023    1    1    2    0    0 -0.29644984047E+03 -0.34410885091E+03  0.20823851655E+03  0.82672056659E+03  0.65864270000E+03 0.  1.
    8880022    1    1    2    0    0  0.29644984047E+03  0.34410885091E+03 -0.13320174011E+04  0.14156113234E+04  0.15294330000E+03 0.  0.
<mgrwt>
<rscale>  0 0.70385864E+03</rscale>
<asrwt>0</asrwt>
<pdfrwt beam="1">  1        2 0.25893160E+00 0.80006476E+03</pdfrwt>
<pdfrwt beam="2">  1       -2 0.86042540E-01 0.80006476E+03</pdfrwt>
<totfact> 0.11994076E+01</totfact>
</mgrwt>
</event>
<event>
 4    5  0.8511149E-008  0.7029560E+03  0.7818608E-02  0.9985153E-01
         -2   -1    0    0    0  501 -0.00000000000E+00  0.00000000000E+00  0.16687920411E+03  0.16687920413E+03  0.25500000000E-02 0.  1.
          2   -1    0    0  501    0  0.00000000000E+00 -0.00000000000E+00 -0.19917840421E+04  0.19917840421E+04  0.25500000000E-02 0. -1.
    8880023    1    1    2    0    0  0.22143852579E+03 -0.10631045956E+03 -0.68099883863E+03  0.97872700943E+03  0.65864270000E+03 0.  0.
    8880022    1    1    2    0    0 -0.22143852579E+03  0.10631045956E+03 -0.11439059994E+04  0.11799362368E+04  0.15294330000E+03 0.  0.
<mgrwt>
<rscale>  0 0.56306085E+03</rscale>
<asrwt>0</asrwt>
<pdfrwt beam="1">  1        2 0.30642830E+00 0.70295600E+03</pdfrwt>
<pdfrwt beam="2">  1       -2 0.25673725E-01 0.70295600E+03</pdfrwt>
<totfact> 0.95137101E+01</totfact>
</mgrwt>
</event>
<event>
 4    5  0.8511149E-008  0.1069120E+04  0.7818608E-02  0.9296242E-01
          2   -1    0    0  501    0  0.00000000000E+00  0.00000000000E+00  0.12341536533E+04  0.12341536533E+04  0.25500000000E-02 0. -1.
         -2   -1    0    0    0  501 -0.00000000000E+00 -0.00000000000E+00 -0.15637823636E+04  0.15637823636E+04  0.25500000000E-02 0.  1.
    8880023    1    1    2    0    0  0.58308173939E+03  0.60763788276E+03  0.83222385568E+03  0.13548486497E+04  0.65864270000E+03 0. -1.
    8880022    1    1    2    0    0 -0.58308173939E+03 -0.60763788276E+03 -0.11618525660E+04  0.14430873672E+04  0.15294330000E+03 0.  0.
<mgrwt>
<rscale>  0 0.10112960E+04</rscale>
<asrwt>0</asrwt>
<pdfrwt beam="1">  1        2 0.18986979E+00 0.10691203E+04</pdfrwt>
<pdfrwt beam="2">  1       -2 0.24058190E+00 0.10691203E+04</pdfrwt>
<totfact> 0.13104992E+00</totfact>
</mgrwt>
</event>
<event>
 4    5  0.8511149E-008  0.7939559E+03  0.7818608E-02  0.9724020E-01
         -2   -1    0    0    0  501 -0.00000000000E+00  0.00000000000E+00  0.12535148150E+04  0.12535148150E+04  0.25500000000E-02 0.  1.
          2   -1    0    0  501    0  0.00000000000E+00 -0.00000000000E+00 -0.86696374799E+03  0.86696374799E+03  0.25500000000E-02 0. -1.
    8880023    1    1    2    0    0  0.33518844772E+03 -0.29017999066E+03  0.10448042497E+04  0.13122430602E+04  0.65864270000E+03 0.  0.
    8880022    1    1    2    0    0 -0.33518844772E+03  0.29017999066E+03 -0.65825318271E+03  0.80823550283E+03  0.15294330000E+03 0.  0.
<mgrwt>
<rscale>  0 0.69604469E+03</rscale>
<asrwt>0</asrwt>
<pdfrwt beam="1">  1        2 0.13337904E+00 0.79395587E+03</pdfrwt>
<pdfrwt beam="2">  1       -2 0.19284843E+00 0.79395587E+03</pdfrwt>
<totfact> 0.46535574E+00</totfact>
</mgrwt>
</event>
<event>
 4    5  0.8511149E-008  0.9466617E+03  0.7818608E-02  0.9454933E-01
         -2   -1    0    0    0  501 -0.00000000000E+00  0.00000000000E+00  0.12697227498E+04  0.12697227498E+04  0.25500000000E-02 0.  1.
          2   -1    0    0  501    0  0.00000000000E+00 -0.00000000000E+00 -0.14524225138E+04  0.14524225138E+04  0.25500000000E-02 0. -1.
    8880023    1    1    2    0    0 -0.41411444113E+03 -0.53932131634E+03  0.98253357712E+03  0.13643828968E+04  0.65864270000E+03 0.  0.
    8880022    1    1    2    0    0  0.41411444113E+03  0.53932131634E+03 -0.11652333411E+04  0.13577623669E+04  0.15294330000E+03 0.  0.
<mgrwt>
<rscale>  0 0.87689524E+03</rscale>
<asrwt>0</asrwt>
<pdfrwt beam="1">  1        2 0.22344962E+00 0.94666174E+03</pdfrwt>
<pdfrwt beam="2">  1       -2 0.19534196E+00 0.94666174E+03</pdfrwt>
<totfact> 0.19285976E+00</totfact>
</mgrwt>
</event>
<event>
 4    5  0.8511149E-008  0.7109136E+03  0.7818608E-02  0.9954624E-01
          2   -1    0    0  501    0  0.00000000000E+00  0.00000000000E+00  0.11383047035E+04  0.11383047035E+04  0.25500000000E-02 0. -1.
         -2   -1    0    0    0  501 -0.00000000000E+00 -0.00000000000E+00 -0.28069283049E+03  0.28069283050E+03  0.25500000000E-02 0.  1.
    8880023    1    1    2    0    0 -0.72959416675E+02 -0.25741958763E+03  0.27952783137E+03  0.76389392939E+03  0.65864270000E+03 0.  1.
    8880022    1    1    2    0    0  0.72959416675E+02  0.25741958763E+03  0.57808404165E+03  0.65510360463E+03  0.15294330000E+03 0.  0.
<mgrwt>
<rscale>  0 0.57685464E+03</rscale>
<asrwt>0</asrwt>
<pdfrwt beam="1">  1        2 0.17512380E+00 0.71091359E+03</pdfrwt>
<pdfrwt beam="2">  1       -2 0.43183512E-01 0.71091359E+03</pdfrwt>
<totfact> 0.10676295E+02</totfact>
</mgrwt>
</event>
<event>
 4    5  0.8511149E-008  0.1522281E+04  0.7818608E-02  0.8894061E-01
          2   -1    0    0  501    0  0.00000000000E+00  0.00000000000E+00  0.54074905493E+04  0.54074905493E+04  0.25500000000E-02 0. -1.
         -2   -1    0    0    0  501 -0.00000000000E+00 -0.00000000000E+00 -0.89715018217E+03  0.89715018217E+03  0.25500000000E-02 0.  1.
    8880023    1    1    2    0    0 -0.21937638706E+03 -0.13547702916E+04 -0.66781518686E+02  0.15237448998E+04  0.65864270000E+03 0.  1.
    8880022    1    1    2    0    0  0.21937638706E+03  0.13547702916E+04  0.45771218858E+04  0.47808958317E+04  0.15294330000E+03 0.  0.
<mgrwt>
<rscale>  0 0.14856368E+04</rscale>
<asrwt>0</asrwt>
<pdfrwt beam="1">  1        2 0.83192160E+00 0.15222808E+04</pdfrwt>
<pdfrwt beam="2">  1       -2 0.13802311E+00 0.15222808E+04</pdfrwt>
<totfact> 0.32533119E-03</totfact>
</mgrwt>
</event>
<event>
 4    5  0.8511149E-008  0.1165247E+04  0.7818608E-02  0.9191668E-01
          2   -1    0    0  501    0  0.00000000000E+00  0.00000000000E+00  0.39121846261E+04  0.39121846261E+04  0.25500000000E-02 0. -1.
         -2   -1    0    0    0  501 -0.00000000000E+00 -0.00000000000E+00 -0.64351017958E+03  0.64351017959E+03  0.25500000000E-02 0.  1.
    8880023    1    1    2    0    0 -0.53665590550E+03 -0.79749028632E+03  0.33807487222E+04  0.35759281937E+04  0.65864270000E+03 0. -1.
    8880022    1    1    2    0    0  0.53665590550E+03  0.79749028632E+03 -0.11207427566E+03  0.97976661199E+03  0.15294330000E+03 0.  0.
<mgrwt>
<rscale>  0 0.11139845E+04</rscale>
<asrwt>0</asrwt>
<pdfrwt beam="1">  1        2 0.60187457E+00 0.11652470E+04</pdfrwt>
<pdfrwt beam="2">  1       -2 0.99001563E-01 0.11652470E+04</pdfrwt>
<totfact> 0.34590725E-01</totfact>
</mgrwt>
</event>
<event>
 4    5  0.8511149E-008  0.8018277E+03  0.7818608E-02  0.9706858E-01
         -2   -1    0    0    0  501 -0.00000000000E+00  0.00000000000E+00  0.58760520968E+03  0.58760520968E+03  0.25500000000E-02 0.  1.
          2   -1    0    0  501    0  0.00000000000E+00 -0.00000000000E+00 -0.91007624041E+03  0.91007624041E+03  0.25500000000E-02 0. -1.
    8880023    1    1    2    0    0  0.13283581158E+03  0.43757527812E+03  0.15769784621E+03  0.81718804068E+03  0.65864270000E+03 0.  0.
    8880022    1    1    2    0    0 -0.13283581158E+03 -0.43757527812E+03 -0.48016887694E+03  0.68049340941E+03  0.15294330000E+03 0.  0.
<mgrwt>
<rscale>  0 0.70609933E+03</rscale>
<asrwt>0</asrwt>
<pdfrwt beam="1">  1        2 0.14001173E+00 0.80182771E+03</pdfrwt>
<pdfrwt beam="2">  1       -2 0.90400802E-01 0.80182771E+03</pdfrwt>
<totfact> 0.30509171E+01</totfact>
</mgrwt>
</event>
<event>
 4    5  0.8511149E-008  0.1923369E+04  0.7818608E-02  0.8657198E-01
         -2   -1    0    0    0  501 -0.00000000000E+00  0.00000000000E+00  0.12844156516E+04  0.12844156516E+04  0.25500000000E-02 0.  1.
          2   -1    0    0  501    0  0.00000000000E+00 -0.00000000000E+00 -0.47390733971E+04  0.47390733971E+04  0.25500000000E-02 0. -1.
    8880023    1    1    2    0    0  0.91009659114E+03  0.15611729121E+04 -0.37227381793E+04  0.41902418099E+04  0.65864270000E+03 0.  0.
    8880022    1    1    2    0    0 -0.91009659114E+03 -0.15611729121E+04  0.26808043376E+03  0.18332472389E+04  0.15294330000E+03 0.  0.
<mgrwt>
<rscale>  0 0.18953032E+04</rscale>
<asrwt>0</asrwt>
<pdfrwt beam="1">  1        2 0.72908821E+00 0.19233686E+04</pdfrwt>
<pdfrwt beam="2">  1       -2 0.19760241E+00 0.19233686E+04</pdfrwt>
<totfact> 0.87543453E-03</totfact>
</mgrwt>
</event>
<event>
 4    5  0.8511149E-008  0.7245883E+03  0.7818608E-02  0.9907356E-01
         -2   -1    0    0    0  501 -0.00000000000E+00  0.00000000000E+00  0.30079350262E+03  0.30079350263E+03  0.25500000000E-02 0.  1.
          2   -1    0    0  501    0  0.00000000000E+00 -0.00000000000E+00 -0.25311892278E+04  0.25311892278E+04  0.25500000000E-02 0. -1.
    8880023    1    1    2    0    0  0.55761440331E+02  0.29683107973E+03 -0.17040082409E+03  0.74435520770E+03  0.65864270000E+03 0.  0.
    8880022    1    1    2    0    0 -0.55761440331E+02 -0.29683107973E+03 -0.20599949011E+04  0.20876275227E+04  0.15294330000E+03 0.  0.
<mgrwt>
<rscale>  0 0.59906116E+03</rscale>
<asrwt>0</asrwt>
<pdfrwt beam="1">  1        2 0.38941371E+00 0.72458832E+03</pdfrwt>
<pdfrwt beam="2">  1       -2 0.46275925E-01 0.72458832E+03</pdfrwt>
<totfact> 0.15551931E+01</totfact>
</mgrwt>
</event>
<event>
 4    5  0.8511149E-008  0.9533221E+03  0.7818608E-02  0.9445350E-01
          2   -1    0    0  501    0  0.00000000000E+00  0.00000000000E+00  0.17307191373E+04  0.17307191373E+04  0.25500000000E-02 0. -1.
         -2   -1    0    0    0  501 -0.00000000000E+00 -0.00000000000E+00 -0.45322582368E+03  0.45322582369E+03  0.25500000000E-02 0.  1.
    8880023    1    1    2    0    0 -0.59657260362E+02 -0.68662501081E+03  0.34385659824E+03  0.10134399146E+04  0.65864270000E+03 0.  1.
    8880022    1    1    2    0    0  0.59657260362E+02  0.68662501081E+03  0.93363671536E+03  0.11705050463E+04  0.15294330000E+03 0.  0.
<mgrwt>
<rscale>  0 0.88435678E+03</rscale>
<asrwt>0</asrwt>
<pdfrwt beam="1">  1        2 0.26626448E+00 0.95332214E+03</pdfrwt>
<pdfrwt beam="2">  1       -2 0.69727051E-01 0.95332214E+03</pdfrwt>
<totfact> 0.17757633E+01</totfact>
</mgrwt>
</event>
<event>
 4    5  0.8511149E-008  0.7585953E+03  0.7818608E-02  0.9808758E-01
          2   -1    0    0  501    0  0.00000000000E+00  0.00000000000E+00  0.18962677795E+04  0.18962677795E+04  0.25500000000E-02 0. -1.
         -2   -1    0    0    0  501 -0.00000000000E+00 -0.00000000000E+00 -0.59715766483E+03  0.59715766484E+03  0.25500000000E-02 0.  1.
    8880023    1    1    2    0    0 -0.20986985230E+03  0.31242794890E+03 -0.32058708488E+03  0.82355501541E+03  0.65864270000E+03 0.  1.
    8880022    1    1    2    0    0  0.20986985230E+03 -0.31242794890E+03  0.16196971996E+04  0.16698704289E+04  0.15294330000E+03 0.  0.
<mgrwt>
<rscale>  0 0.64894659E+03</rscale>
<asrwt>0</asrwt>
<pdfrwt beam="1">  1        2 0.29173350E+00 0.75859527E+03</pdfrwt>
<pdfrwt beam="2">  1       -2 0.91870410E-01 0.75859527E+03</pdfrwt>
<totfact> 0.79329503E+00</totfact>
</mgrwt>
</event>
<event>
 4    5  0.8511149E-008  0.7371518E+03  0.7818608E-02  0.9868323E-01
          2   -1    0    0  501    0  0.00000000000E+00  0.00000000000E+00  0.18585800079E+04  0.18585800079E+04  0.25500000000E-02 0. -1.
         -2   -1    0    0    0  501 -0.00000000000E+00 -0.00000000000E+00 -0.16339908481E+03  0.16339908483E+03  0.25500000000E-02 0.  1.
    8880023    1    1    2    0    0 -0.12398306313E+03 -0.30693761177E+03  0.11580724852E+04  0.13727798748E+04  0.65864270000E+03 0.  0.
    8880022    1    1    2    0    0  0.12398306313E+03  0.30693761177E+03  0.53710843785E+03  0.64919921788E+03  0.15294330000E+03 0. -1.
<mgrwt>
<rscale>  0 0.61821363E+03</rscale>
<asrwt>0</asrwt>
<pdfrwt beam="1">  1        2 0.28593540E+00 0.73715175E+03</pdfrwt>
<pdfrwt beam="2">  1       -2 0.25138319E-01 0.73715175E+03</pdfrwt>
<totfact> 0.11636763E+02</totfact>
</mgrwt>
</event>
<event>
 4    5  0.8511149E-008  0.1254980E+04  0.7818608E-02  0.9105447E-01
         -2   -1    0    0    0  501 -0.00000000000E+00  0.00000000000E+00  0.10999434331E+04  0.10999434331E+04  0.25500000000E-02 0.  1.
          2   -1    0    0  501    0  0.00000000000E+00 -0.00000000000E+00 -0.14121695480E+04  0.14121695480E+04  0.25500000000E-02 0. -1.
    8880023    1    1    2    0    0  0.10176626071E+04 -0.32484895928E+03  0.27323986772E+03  0.12843808858E+04  0.65864270000E+03 0.  0.
    8880022    1    1    2    0    0 -0.10176626071E+04  0.32484895928E+03 -0.58546598268E+03  0.12277320954E+04  0.15294330000E+03 0.  0.
<mgrwt>
<rscale>  0 0.12085026E+04</rscale>
<asrwt>0</asrwt>
<pdfrwt beam="1">  1        2 0.21725685E+00 0.12549798E+04</pdfrwt>
<pdfrwt beam="2">  1       -2 0.16922207E+00 0.12549798E+04</pdfrwt>
<totfact> 0.29691588E+00</totfact>
</mgrwt>
</event>
<event>
 4    5  0.8511149E-008  0.9047698E+03  0.7818608E-02  0.9518418E-01
          2   -1    0    0  501    0  0.00000000000E+00  0.00000000000E+00  0.65248560532E+03  0.65248560533E+03  0.25500000000E-02 0. -1.
         -2   -1    0    0    0  501 -0.00000000000E+00 -0.00000000000E+00 -0.22524868013E+04  0.22524868013E+04  0.25500000000E-02 0.  1.
    8880023    1    1    2    0    0  0.33042254313E+03  0.52499436362E+03 -0.19691742070E+04  0.21670845398E+04  0.65864270000E+03 0.  0.
    8880022    1    1    2    0    0 -0.33042254313E+03 -0.52499436362E+03  0.36917301107E+03  0.73788786679E+03  0.15294330000E+03 0.  0.
<mgrwt>
<rscale>  0 0.82939484E+03</rscale>
<asrwt>0</asrwt>
<pdfrwt beam="1">  1        2 0.10038240E+00 0.90476977E+03</pdfrwt>
<pdfrwt beam="2">  1       -2 0.34653643E+00 0.90476977E+03</pdfrwt>
<totfact> 0.75179327E-01</totfact>
</mgrwt>
</event>
<event>
 4    5  0.1029911E-007  0.8923423E+03  0.7818608E-02  0.9538438E-01
         -2   -1    0    0    0  501 -0.00000000000E+00  0.00000000000E+00  0.18334732973E+04  0.18334732973E+04  0.25500000000E-02 0.  1.
          2   -1    0    0  501    0  0.00000000000E+00 -0.00000000000E+00 -0.20636330072E+04  0.20636330072E+04  0.25500000000E-02 0. -1.
    8880023    1    1    2    0    0  0.40372003908E+02  0.60069519704E+03  0.16724744569E+04  0.18956385820E+04  0.65864270000E+03 0.  0.
    8880022    1    1    2    0    0 -0.40372003908E+02 -0.60069519704E+03 -0.19026341668E+04  0.20014677225E+04  0.15294330000E+03 0. -1.
<mgrwt>
<rscale>  0 0.81508296E+03</rscale>
<asrwt>0</asrwt>
<pdfrwt beam="1">  1        2 0.31748200E+00 0.89234232E+03</pdfrwt>
<pdfrwt beam="2">  1       -2 0.28207282E+00 0.89234232E+03</pdfrwt>
<totfact> 0.25936280E-01</totfact>
</mgrwt>
</event>
<event>
 4    5  0.8511149E-008  0.6897334E+03  0.7818608E-02  0.1004280E+00
          2   -1    0    0  501    0  0.00000000000E+00  0.00000000000E+00  0.10860054487E+04  0.10860054487E+04  0.25500000000E-02 0. -1.
         -2   -1    0    0    0  501 -0.00000000000E+00 -0.00000000000E+00 -0.76310181522E+03  0.76310181523E+03  0.25500000000E-02 0.  1.
    8880023    1    1    2    0    0 -0.18530447564E+03 -0.87087384374E+02 -0.58593799073E+03  0.90501684871E+03  0.65864270000E+03 0.  1.
    8880022    1    1    2    0    0  0.18530447564E+03  0.87087384374E+02  0.90884162418E+03  0.94409041520E+03  0.15294330000E+03 0.  0.
<mgrwt>
<rscale>  0 0.53812901E+03</rscale>
<asrwt>0</asrwt>
<pdfrwt beam="1">  1        2 0.16707776E+00 0.68973340E+03</pdfrwt>
<pdfrwt beam="2">  1       -2 0.11740028E+00 0.68973340E+03</pdfrwt>
<totfact> 0.12777012E+01</totfact>
</mgrwt>
</event>
<event>
 4    5  0.8511149E-008  0.8923225E+03  0.7818608E-02  0.9538471E-01
         -2   -1    0    0    0  501 -0.00000000000E+00  0.00000000000E+00  0.13347237339E+04  0.13347237339E+04  0.25500000000E-02 0.  1.
          2   -1    0    0  501    0  0.00000000000E+00 -0.00000000000E+00 -0.78904955221E+03  0.78904955221E+03  0.25500000000E-02 0. -1.
    8880023    1    1    2    0    0  0.35120874238E+03  0.48895970067E+03  0.10104039325E+04  0.13480190958E+04  0.65864270000E+03 0.  0.
    8880022    1    1    2    0    0 -0.35120874238E+03 -0.48895970067E+03 -0.46472975075E+03  0.77575419035E+03  0.15294330000E+03 0.  0.
<mgrwt>
<rscale>  0 0.81505999E+03</rscale>
<asrwt>0</asrwt>
<pdfrwt beam="1">  1        2 0.12139224E+00 0.89232246E+03</pdfrwt>
<pdfrwt beam="2">  1       -2 0.20534211E+00 0.89232246E+03</pdfrwt>
<totfact> 0.43262307E+00</totfact>
</mgrwt>
</event>
<event>
 4    5  0.8511149E-008  0.7418920E+03  0.7818608E-02  0.9854470E-01
         -2   -1    0    0    0  501 -0.00000000000E+00  0.00000000000E+00  0.55085359820E+03  0.55085359820E+03  0.25500000000E-02 0.  1.
          2   -1    0    0  501    0  0.00000000000E+00 -0.00000000000E+00 -0.93873164523E+03  0.93873164523E+03  0.25500000000E-02 0. -1.
    8880023    1    1    2    0    0 -0.19389863982E+03 -0.28106388401E+03  0.22173022342E+03  0.77431782083E+03  0.65864270000E+03 0.  0.
    8880022    1    1    2    0    0  0.19389863982E+03  0.28106388401E+03 -0.60960827046E+03  0.71526742260E+03  0.15294330000E+03 0.  0.
<mgrwt>
<rscale>  0 0.62519546E+03</rscale>
<asrwt>0</asrwt>
<pdfrwt beam="1">  1        2 0.14442025E+00 0.74189204E+03</pdfrwt>
<pdfrwt beam="2">  1       -2 0.84746708E-01 0.74189204E+03</pdfrwt>
<totfact> 0.34046158E+01</totfact>
</mgrwt>
</event>
<event>
 4    5  0.8511149E-008  0.1150890E+04  0.7818608E-02  0.9206405E-01
          2   -1    0    0  501    0  0.00000000000E+00  0.00000000000E+00  0.28418433155E+04  0.28418433155E+04  0.25500000000E-02 0. -1.
         -2   -1    0    0    0  501 -0.00000000000E+00 -0.00000000000E+00 -0.98173305431E+03  0.98173305431E+03  0.25500000000E-02 0.  1.
    8880023    1    1    2    0    0 -0.77091685619E+03  0.54444867807E+03 -0.51678566559E+03  0.12615921657E+04  0.65864270000E+03 0.  0.
    8880022    1    1    2    0    0  0.77091685619E+03 -0.54444867807E+03  0.23768959267E+04  0.25619842040E+04  0.15294330000E+03 0.  0.
<mgrwt>
<rscale>  0 0.10987559E+04</rscale>
<asrwt>0</asrwt>
<pdfrwt beam="1">  1        2 0.43720666E+00 0.11508898E+04</pdfrwt>
<pdfrwt beam="2">  1       -2 0.15103586E+00 0.11508898E+04</pdfrwt>
<totfact> 0.63468458E-01</totfact>
</mgrwt>
</event>
<event>
 4    5  0.8511149E-008  0.8333470E+03  0.7818608E-02  0.9642855E-01
         -2   -1    0    0    0  501 -0.00000000000E+00  0.00000000000E+00  0.98428071037E+03  0.98428071038E+03  0.25500000000E-02 0.  1.
          2   -1    0    0  501    0  0.00000000000E+00 -0.00000000000E+00 -0.15918460861E+04  0.15918460861E+04  0.25500000000E-02 0. -1.
    8880023    1    1    2    0    0 -0.39404657946E+03 -0.32462945049E+03  0.74784037345E+03  0.11197019324E+04  0.65864270000E+03 0.  1.
    8880022    1    1    2    0    0  0.39404657946E+03  0.32462945049E+03 -0.13554057492E+04  0.14564248641E+04  0.15294330000E+03 0.  0.
<mgrwt>
<rscale>  0 0.74523542E+03</rscale>
<asrwt>0</asrwt>
<pdfrwt beam="1">  1        2 0.24489940E+00 0.83334698E+03</pdfrwt>
<pdfrwt beam="2">  1       -2 0.15142780E+00 0.83334698E+03</pdfrwt>
<totfact> 0.33436110E+00</totfact>
</mgrwt>
</event>
<event>
 4    5  0.8511149E-008  0.8816797E+03  0.7818608E-02  0.9556106E-01
          2   -1    0    0  501    0  0.00000000000E+00  0.00000000000E+00  0.14221620544E+04  0.14221620544E+04  0.25500000000E-02 0. -1.
         -2   -1    0    0    0  501 -0.00000000000E+00 -0.00000000000E+00 -0.67122341419E+03  0.67122341420E+03  0.25500000000E-02 0.  1.
    8880023    1    1    2    0    0 -0.37568853650E+02 -0.58492524315E+03 -0.25616699747E+03  0.91813980182E+03  0.65864270000E+03 0.  1.
    8880022    1    1    2    0    0  0.37568853650E+02  0.58492524315E+03  0.10071056377E+04  0.11752456668E+04  0.15294330000E+03 0.  0.
<mgrwt>
<rscale>  0 0.80270805E+03</rscale>
<asrwt>0</asrwt>
<pdfrwt beam="1">  1        2 0.21879416E+00 0.88167974E+03</pdfrwt>
<pdfrwt beam="2">  1       -2 0.10326514E+00 0.88167974E+03</pdfrwt>
<totfact> 0.10828127E+01</totfact>
</mgrwt>
</event>
<event>
 4    5  0.9112598E-008  0.1115858E+04  0.7818608E-02  0.9243602E-01
          2   -1    0    0  501    0  0.00000000000E+00  0.00000000000E+00  0.27422809881E+04  0.27422809881E+04  0.25500000000E-02 0. -1.
         -2   -1    0    0    0  501 -0.00000000000E+00 -0.00000000000E+00 -0.13345444433E+04  0.13345444433E+04  0.25500000000E-02 0.  1.
    8880023    1    1    2    0    0  0.81629119909E+03 -0.38078637779E+03 -0.10019938199E+04  0.14997104416E+04  0.65864270000E+03 0.  0.
    8880022    1    1    2    0    0 -0.81629119909E+03  0.38078637779E+03  0.24097303647E+04  0.25771149898E+04  0.15294330000E+03 0. -1.
<mgrwt>
<rscale>  0 0.10614498E+04</rscale>
<asrwt>0</asrwt>
<pdfrwt beam="1">  1        2 0.42188938E+00 0.11158583E+04</pdfrwt>
<pdfrwt beam="2">  1       -2 0.20531453E+00 0.11158583E+04</pdfrwt>
<totfact> 0.30512622E-01</totfact>
</mgrwt>
</event>
<event>
 4    5  0.8511149E-008  0.9942103E+03  0.7818608E-02  0.9389172E-01
         -2   -1    0    0    0  501 -0.00000000000E+00  0.00000000000E+00  0.35413125124E+03  0.35413125125E+03  0.25500000000E-02 0.  1.
          2   -1    0    0  501    0  0.00000000000E+00 -0.00000000000E+00 -0.23012032874E+04  0.23012032874E+04  0.25500000000E-02 0. -1.
    8880023    1    1    2    0    0  0.21827042161E+03 -0.71204063938E+03 -0.78550729315E+03  0.12670737007E+04  0.65864270000E+03 0.  1.
    8880022    1    1    2    0    0 -0.21827042161E+03  0.71204063938E+03 -0.11615647430E+04  0.13882608380E+04  0.15294330000E+03 0. -1.
<mgrwt>
<rscale>  0 0.92972176E+03</rscale>
<asrwt>0</asrwt>
<pdfrwt beam="1">  1        2 0.35403127E+00 0.99421027E+03</pdfrwt>
<pdfrwt beam="2">  1       -2 0.54481732E-01 0.99421027E+03</pdfrwt>
<totfact> 0.14483280E+01</totfact>
</mgrwt>
</event>
<event>
 4    5  0.8511149E-008  0.9885231E+03  0.7818608E-02  0.9396729E-01
          2   -1    0    0  501    0  0.00000000000E+00  0.00000000000E+00  0.50696693355E+04  0.50696693355E+04  0.25500000000E-02 0. -1.
         -2   -1    0    0    0  501 -0.00000000000E+00 -0.00000000000E+00 -0.29853717534E+03  0.29853717535E+03  0.25500000000E-02 0.  1.
    8880023    1    1    2    0    0  0.73176987418E+03 -0.88772280740E+02  0.65974429036E+03  0.11884613589E+04  0.65864270000E+03 0.  0.
    8880022    1    1    2    0    0 -0.73176987418E+03  0.88772280740E+02  0.41113878698E+04  0.41797451520E+04  0.15294330000E+03 0.  0.
<mgrwt>
<rscale>  0 0.92345331E+03</rscale>
<asrwt>0</asrwt>
<pdfrwt beam="1">  1        2 0.77994915E+00 0.98852308E+03</pdfrwt>
<pdfrwt beam="2">  1       -2 0.45928795E-01 0.98852308E+03</pdfrwt>
<totfact> 0.13959186E-01</totfact>
</mgrwt>
</event>
<event>
 4    5  0.8511149E-008  0.1051134E+04  0.7818608E-02  0.9317519E-01
         -2   -1    0    0    0  501 -0.00000000000E+00  0.00000000000E+00  0.13092948460E+04  0.13092948460E+04  0.25500000000E-02 0.  1.
          2   -1    0    0  501    0  0.00000000000E+00 -0.00000000000E+00 -0.89725023966E+03  0.89725023966E+03  0.25500000000E-02 0. -1.
    8880023    1    1    2    0    0  0.49377913511E+03  0.65364738840E+03  0.76652543469E+03  0.13009397338E+04  0.65864270000E+03 0.  0.
    8880022    1    1    2    0    0 -0.49377913511E+03 -0.65364738840E+03 -0.35448082836E+03  0.90560535187E+03  0.15294330000E+03 0.  0.
<mgrwt>
<rscale>  0 0.99185880E+03</rscale>
<asrwt>0</asrwt>
<pdfrwt beam="1">  1        2 0.13803850E+00 0.10511341E+04</pdfrwt>
<pdfrwt beam="2">  1       -2 0.20142998E+00 0.10511341E+04</pdfrwt>
<totfact> 0.37841897E+00</totfact>
</mgrwt>
</event>
<event>
 4    5  0.8511149E-008  0.9044687E+03  0.7818608E-02  0.9518896E-01
         -2   -1    0    0    0  501 -0.00000000000E+00  0.00000000000E+00  0.23652473756E+04  0.23652473756E+04  0.25500000000E-02 0.  1.
          2   -1    0    0  501    0  0.00000000000E+00 -0.00000000000E+00 -0.82557544845E+03  0.82557544845E+03  0.25500000000E-02 0. -1.
    8880023    1    1    2    0    0 -0.25164168073E+03 -0.56650673300E+03  0.21344880060E+04  0.23182110922E+04  0.65864270000E+03 0.  0.
    8880022    1    1    2    0    0  0.25164168073E+03  0.56650673300E+03 -0.59481607880E+03  0.87261173189E+03  0.15294330000E+03 0.  0.
<mgrwt>
<rscale>  0 0.82904944E+03</rscale>
<asrwt>0</asrwt>
<pdfrwt beam="1">  1        2 0.12701161E+00 0.90446870E+03</pdfrwt>
<pdfrwt beam="2">  1       -2 0.36388421E+00 0.90446870E+03</pdfrwt>
<totfact> 0.43189974E-01</totfact>
</mgrwt>
</event>
<event>
 4    5  0.8511149E-008  0.7212888E+03  0.7818608E-02  0.9918249E-01
          2   -1    0    0  501    0  0.00000000000E+00  0.00000000000E+00  0.51714030045E+03  0.51714030045E+03  0.25500000000E-02 0. -1.
         -2   -1    0    0    0  501 -0.00000000000E+00 -0.00000000000E+00 -0.12404945331E+04  0.12404945331E+04  0.25500000000E-02 0.  1.
    8880023    1    1    2    0    0  0.29015722806E+03 -0.47498288817E+02 -0.10620100208E+04  0.12837923488E+04  0.65864270000E+03 0.  0.
    8880022    1    1    2    0    0 -0.29015722806E+03  0.47498288817E+02  0.33865578815E+03  0.47384248469E+03  0.15294330000E+03 0. -1.
<mgrwt>
<rscale>  0 0.59384955E+03</rscale>
<asrwt>0</asrwt>
<pdfrwt beam="1">  1        2 0.79560047E-01 0.72128878E+03</pdfrwt>
<pdfrwt beam="2">  1       -2 0.19084531E+00 0.72128878E+03</pdfrwt>
<totfact> 0.92504871E+00</totfact>
</mgrwt>
</event>
<event>
 4    5  0.8511149E-008  0.9411390E+03  0.7818608E-02  0.9462979E-01
          2   -1    0    0  501    0  0.00000000000E+00  0.00000000000E+00  0.12504406876E+04  0.12504406876E+04  0.25500000000E-02 0. -1.
         -2   -1    0    0    0  501 -0.00000000000E+00 -0.00000000000E+00 -0.10657655096E+04  0.10657655096E+04  0.25500000000E-02 0.  1.
    8880023    1    1    2    0    0 -0.43815666841E+03 -0.50985397956E+03 -0.71557823726E+03  0.11822837081E+04  0.65864270000E+03 0.  1.
    8880022    1    1    2    0    0  0.43815666841E+03  0.50985397956E+03  0.90025341528E+03  0.11339224891E+04  0.15294330000E+03 0.  0.
<mgrwt>
<rscale>  0 0.87069096E+03</rscale>
<asrwt>0</asrwt>
<pdfrwt beam="1">  1        2 0.19237549E+00 0.94113897E+03</pdfrwt>
<pdfrwt beam="2">  1       -2 0.16396392E+00 0.94113897E+03</pdfrwt>
<totfact> 0.41557816E+00</totfact>
</mgrwt>
</event>
<event>
 4    5  0.8511149E-008  0.7215119E+03  0.7818608E-02  0.9917503E-01
         -2   -1    0    0    0  501 -0.00000000000E+00  0.00000000000E+00  0.67536344181E+03  0.67536344182E+03  0.25500000000E-02 0.  1.
          2   -1    0    0  501    0  0.00000000000E+00 -0.00000000000E+00 -0.27648148861E+04  0.27648148861E+04  0.25500000000E-02 0. -1.
    8880023    1    1    2    0    0 -0.25406709885E+02 -0.29346831688E+03  0.46883168064E+03  0.86045482447E+03  0.65864270000E+03 0.  1.
    8880022    1    1    2    0    0  0.25406709885E+02  0.29346831688E+03 -0.25582831250E+04  0.25797235035E+04  0.15294330000E+03 0.  0.
<mgrwt>
<rscale>  0 0.59420458E+03</rscale>
<asrwt>0</asrwt>
<pdfrwt beam="1">  1        2 0.42535613E+00 0.72151186E+03</pdfrwt>
<pdfrwt beam="2">  1       -2 0.10390207E+00 0.72151186E+03</pdfrwt>
<totfact> 0.19506916E+00</totfact>
</mgrwt>
</event>
<event>
 4    5  0.8511149E-008  0.1219529E+04  0.7818608E-02  0.9138369E-01
          2   -1    0    0  501    0  0.00000000000E+00  0.00000000000E+00  0.36077756215E+04  0.36077756215E+04  0.25500000000E-02 0. -1.
         -2   -1    0    0    0  501 -0.00000000000E+00 -0.00000000000E+00 -0.35606041199E+03  0.35606041200E+03  0.25500000000E-02 0.  1.
    8880023    1    1    2    0    0 -0.10001642467E+04 -0.23046099038E+03  0.19369389422E+04  0.22888825791E+04  0.65864270000E+03 0.  0.
    8880022    1    1    2    0    0  0.10001642467E+04  0.23046099038E+03  0.13147762673E+04  0.16749534545E+04  0.15294330000E+03 0.  0.
<mgrwt>
<rscale>  0 0.11712851E+04</rscale>
<asrwt>0</asrwt>
<pdfrwt beam="1">  1        2 0.55504235E+00 0.12195290E+04</pdfrwt>
<pdfrwt beam="2">  1       -2 0.54778530E-01 0.12195290E+04</pdfrwt>
<totfact> 0.21521038E+00</totfact>
</mgrwt>
</event>
<event>
 4    5  0.8511149E-008  0.1069419E+04  0.7818608E-02  0.9295893E-01
         -2   -1    0    0    0  501 -0.00000000000E+00  0.00000000000E+00  0.77874356114E+03  0.77874356114E+03  0.25500000000E-02 0.  1.
          2   -1    0    0  501    0  0.00000000000E+00 -0.00000000000E+00 -0.22899628694E+04  0.22899628694E+04  0.25500000000E-02 0. -1.
    8880023    1    1    2    0    0  0.67984167710E+03 -0.49765683928E+03  0.26069270193E+03  0.11007351756E+04  0.65864270000E+03 0.  1.
    8880022    1    1    2    0    0 -0.67984167710E+03  0.49765683928E+03 -0.17719120102E+04  0.19679712550E+04  0.15294330000E+03 0.  0.
<mgrwt>
<rscale>  0 0.10116182E+04</rscale>
<asrwt>0</asrwt>
<pdfrwt beam="1">  1        2 0.35230198E+00 0.10694191E+04</pdfrwt>
<pdfrwt beam="2">  1       -2 0.11980670E+00 0.10694191E+04</pdfrwt>
<totfact> 0.24344991E+00</totfact>
</mgrwt>
</event>
<event>
 4    5  0.8511149E-008  0.7018106E+03  0.7818608E-02  0.9989771E-01
          2   -1    0    0  501    0  0.00000000000E+00  0.00000000000E+00  0.20016516739E+04  0.20016516739E+04  0.25500000000E-02 0. -1.
         -2   -1    0    0    0  501 -0.00000000000E+00 -0.00000000000E+00 -0.34526204744E+03  0.34526204745E+03  0.25500000000E-02 0.  1.
    8880023    1    1    2    0    0  0.23190050574E+03 -0.70356952392E+02  0.37451684931E+02  0.70280920617E+03  0.65864270000E+03 0.  0.
    8880022    1    1    2    0    0 -0.23190050574E+03  0.70356952392E+02  0.16189379415E+04  0.16441045152E+04  0.15294330000E+03 0.  0.
<mgrwt>
<rscale>  0 0.56101026E+03</rscale>
<asrwt>0</asrwt>
<pdfrwt beam="1">  1        2 0.30794641E+00 0.70181062E+03</pdfrwt>
<pdfrwt beam="2">  1       -2 0.53117239E-01 0.70181062E+03</pdfrwt>
<totfact> 0.23185827E+01</totfact>
</mgrwt>
</event>
<event>
 4    5  0.8511149E-008  0.1158985E+04  0.7818608E-02  0.9198061E-01
          2   -1    0    0  501    0  0.00000000000E+00  0.00000000000E+00  0.21376474415E+04  0.21376474415E+04  0.25500000000E-02 0. -1.
         -2   -1    0    0    0  501 -0.00000000000E+00 -0.00000000000E+00 -0.15001295208E+04  0.15001295208E+04  0.25500000000E-02 0.  1.
    8880023    1    1    2    0    0  0.94894213200E+03  0.94576456076E+02 -0.11331110589E+04  0.16208598810E+04  0.65864270000E+03 0.  1.
    8880022    1    1    2    0    0 -0.94894213200E+03 -0.94576456076E+02  0.17706289797E+04  0.20169170813E+04  0.15294330000E+03 0.  0.
<mgrwt>
<rscale>  0 0.11073464E+04</rscale>
<asrwt>0</asrwt>
<pdfrwt beam="1">  1        2 0.32886883E+00 0.11589849E+04</pdfrwt>
<pdfrwt beam="2">  1       -2 0.23078916E+00 0.11589849E+04</pdfrwt>
<totfact> 0.46304214E-01</totfact>
</mgrwt>
</event>
<event>
 4    5  0.8511149E-008  0.9562236E+03  0.7818608E-02  0.9441216E-01
         -2   -1    0    0    0  501 -0.00000000000E+00  0.00000000000E+00  0.87206041792E+03  0.87206041793E+03  0.25500000000E-02 0.  1.
          2   -1    0    0  501    0  0.00000000000E+00 -0.00000000000E+00 -0.14486544245E+04  0.14486544245E+04  0.25500000000E-02 0. -1.
    8880023    1    1    2    0    0 -0.65800027051E+03 -0.21814919121E+03  0.46256204324E+03  0.10622275066E+04  0.65864270000E+03 0.  1.
    8880022    1    1    2    0    0  0.65800027051E+03  0.21814919121E+03 -0.10391560498E+04  0.12584873359E+04  0.15294330000E+03 0.  0.
<mgrwt>
<rscale>  0 0.88760043E+03</rscale>
<asrwt>0</asrwt>
<pdfrwt beam="1">  1        2 0.22286991E+00 0.95622363E+03</pdfrwt>
<pdfrwt beam="2">  1       -2 0.13416314E+00 0.95622363E+03</pdfrwt>
<totfact> 0.54288488E+00</totfact>
</mgrwt>
</event>
<event>
 4    5  0.8511149E-008  0.1498917E+04  0.7818608E-02  0.8910401E-01
          2   -1    0    0  501    0  0.00000000000E+00  0.00000000000E+00  0.43752914548E+04  0.43752914548E+04  0.25500000000E-02 0. -1.
         -2   -1    0    0    0  501 -0.00000000000E+00 -0.00000000000E+00 -0.56747798988E+03  0.56747798988E+03  0.25500000000E-02 0.  1.
    8880023    1    1    2    0    0 -0.14286325230E+03 -0.13388548586E+04  0.30295318377E+04  0.33800614792E+04  0.65864270000E+03 0.  0.
    8880022    1    1    2    0    0  0.14286325230E+03  0.13388548586E+04  0.77828162725E+03  0.15627079655E+04  0.15294330000E+03 0.  0.
<mgrwt>
<rscale>  0 0.14615954E+04</rscale>
<asrwt>0</asrwt>
<pdfrwt beam="1">  1        2 0.67312173E+00 0.14989171E+04</pdfrwt>
<pdfrwt beam="2">  1       -2 0.87304310E-01 0.14989171E+04</pdfrwt>
<totfact> 0.17986646E-01</totfact>
</mgrwt>
</event>
<event>
 4    5  0.8511149E-008  0.1091089E+04  0.7818608E-02  0.9271043E-01
          2   -1    0    0  501    0  0.00000000000E+00  0.00000000000E+00  0.30703700617E+04  0.30703700617E+04  0.25500000000E-02 0. -1.
         -2   -1    0    0    0  501 -0.00000000000E+00 -0.00000000000E+00 -0.44973971266E+03  0.44973971266E+03  0.25500000000E-02 0.  1.
    8880023    1    1    2    0    0  0.74233275615E+03 -0.45343841310E+03  0.45658105859E+03  0.11827682718E+04  0.65864270000E+03 0.  0.
    8880022    1    1    2    0    0 -0.74233275615E+03  0.45343841310E+03  0.21640492905E+04  0.23373415026E+04  0.15294330000E+03 0.  0.
<mgrwt>
<rscale>  0 0.10349295E+04</rscale>
<asrwt>0</asrwt>
<pdfrwt beam="1">  1        2 0.47236463E+00 0.10910887E+04</pdfrwt>
<pdfrwt beam="2">  1       -2 0.69190724E-01 0.10910887E+04</pdfrwt>
<totfact> 0.30287360E+00</totfact>
</mgrwt>
</event>
<event>
 4    5  0.8511149E-008  0.1582244E+04  0.7818608E-02  0.8853643E-01
         -2   -1    0    0    0  501 -0.00000000000E+00  0.00000000000E+00  0.11518033214E+04  0.11518033214E+04  0.25500000000E-02 0.  1.
          2   -1    0    0  501    0  0.00000000000E+00 -0.00000000000E+00 -0.21941695839E+04  0.21941695839E+04  0.25500000000E-02 0. -1.
    8880023    1    1    2    0    0 -0.55742609818E+03 -0.13262587996E+04 -0.34221347979E+02  0.15826141556E+04  0.65864270000E+03 0.  0.
    8880022    1    1    2    0    0  0.55742609818E+03  0.13262587996E+04 -0.10081449145E+04  0.17633587497E+04  0.15294330000E+03 0.  0.
<mgrwt>
<rscale>  0 0.15472244E+04</rscale>
<asrwt>0</asrwt>
<pdfrwt beam="1">  1        2 0.33756455E+00 0.15822441E+04</pdfrwt>
<pdfrwt beam="2">  1       -2 0.17720051E+00 0.15822441E+04</pdfrwt>
<totfact> 0.92118901E-01</totfact>
</mgrwt>
</event>
<event>
 4    5  0.8511149E-008  0.1312221E+04  0.7818608E-02  0.9055077E-01
         -2   -1    0    0    0  501 -0.00000000000E+00  0.00000000000E+00  0.11552950877E+04  0.11552950877E+04  0.25500000000E-02 0.  1.
          2   -1    0    0  501    0  0.00000000000E+00 -0.00000000000E+00 -0.13211787347E+04  0.13211787348E+04  0.25500000000E-02 0. -1.
    8880023    1    1    2    0    0 -0.24958514655E+03  0.11071683899E+04  0.40353144565E+02  0.13128416399E+04  0.65864270000E+03 0.  0.
    8880022    1    1    2    0    0  0.24958514655E+03 -0.11071683899E+04 -0.20623679161E+03  0.11636321825E+04  0.15294330000E+03 0.  0.
<mgrwt>
<rscale>  0 0.12683135E+04</rscale>
<asrwt>0</asrwt>
<pdfrwt beam="1">  1        2 0.20325827E+00 0.13122213E+04</pdfrwt>
<pdfrwt beam="2">  1       -2 0.17773770E+00 0.13122213E+04</pdfrwt>
<totfact> 0.29027329E+00</totfact>
</mgrwt>
</event>
<event>
 4    5  0.8511149E-008  0.8408491E+03  0.7818608E-02  0.9628581E-01
         -2   -1    0    0    0  501 -0.00000000000E+00  0.00000000000E+00  0.29390519936E+03  0.29390519937E+03  0.25500000000E-02 0.  1.
          2   -1    0    0  501    0  0.00000000000E+00 -0.00000000000E+00 -0.35003633351E+04  0.35003633351E+04  0.25500000000E-02 0. -1.
    8880023    1    1    2    0    0 -0.19390401539E+03  0.48540526584E+03 -0.39223886980E+03  0.92783542535E+03  0.65864270000E+03 0.  1.
    8880022    1    1    2    0    0  0.19390401539E+03 -0.48540526584E+03 -0.28142192659E+04  0.28664331091E+04  0.15294330000E+03 0.  0.
<mgrwt>
<rscale>  0 0.75433028E+03</rscale>
<asrwt>0</asrwt>
<pdfrwt beam="1">  1        2 0.53851741E+00 0.84084912E+03</pdfrwt>
<pdfrwt beam="2">  1       -2 0.45216187E-01 0.84084912E+03</pdfrwt>
<totfact> 0.40157630E+00</totfact>
</mgrwt>
</event>
<event>
 4    5  0.8511149E-008  0.1053346E+04  0.7818608E-02  0.9314870E-01
          2   -1    0    0  501    0  0.00000000000E+00  0.00000000000E+00  0.24912501917E+04  0.24912501917E+04  0.25500000000E-02 0. -1.
         -2   -1    0    0    0  501 -0.00000000000E+00 -0.00000000000E+00 -0.98753981128E+03  0.98753981129E+03  0.25500000000E-02 0.  1.
    8880023    1    1    2    0    0  0.76913631142E+03 -0.29009689930E+03 -0.60193825542E+03  0.12132051542E+04  0.65864270000E+03 0.  0.
    8880022    1    1    2    0    0 -0.76913631142E+03  0.29009689930E+03  0.21056486358E+04  0.22655848488E+04  0.15294330000E+03 0.  0.
<mgrwt>
<rscale>  0 0.99425329E+03</rscale>
<asrwt>0</asrwt>
<pdfrwt beam="1">  1        2 0.38326926E+00 0.10533457E+04</pdfrwt>
<pdfrwt beam="2">  1       -2 0.15192920E+00 0.10533457E+04</pdfrwt>
<totfact> 0.10173646E+00</totfact>
</mgrwt>
</event>
<event>
 4    5  0.8511149E-008  0.1071930E+04  0.7818608E-02  0.9292971E-01
         -2   -1    0    0    0  501 -0.00000000000E+00  0.00000000000E+00  0.64355638224E+03  0.64355638224E+03  0.25500000000E-02 0.  1.
          2   -1    0    0  501    0  0.00000000000E+00 -0.00000000000E+00 -0.45550469186E+04  0.45550469186E+04  0.25500000000E-02 0. -1.
    8880023    1    1    2    0    0  0.58395072990E+03  0.61173966379E+03  0.11806938181E+03  0.10784129341E+04  0.65864270000E+03 0.  0.
    8880022    1    1    2    0    0 -0.58395072990E+03 -0.61173966379E+03 -0.40295599182E+04  0.41201903668E+04  0.15294330000E+03 0.  0.
<mgrwt>
<rscale>  0 0.10143250E+04</rscale>
<asrwt>0</asrwt>
<pdfrwt beam="1">  1        2 0.70077643E+00 0.10719301E+04</pdfrwt>
<pdfrwt beam="2">  1       -2 0.99008677E-01 0.10719301E+04</pdfrwt>
<totfact> 0.97172735E-02</totfact>
</mgrwt>
</event>
<event>
 4    5  0.8511149E-008  0.8170886E+03  0.7818608E-02  0.9674996E-01
         -2   -1    0    0    0  501 -0.00000000000E+00  0.00000000000E+00  0.86784753470E+03  0.86784753471E+03  0.25500000000E-02 0.  1.
          2   -1    0    0  501    0  0.00000000000E+00 -0.00000000000E+00 -0.10612203478E+04  0.10612203478E+04  0.25500000000E-02 0. -1.
    8880023    1    1    2    0    0  0.44595176531E+03  0.18695089807E+03  0.58156618681E+03  0.10029222558E+04  0.65864270000E+03 0.  1.
    8880022    1    1    2    0    0 -0.44595176531E+03 -0.18695089807E+03 -0.77493899987E+03  0.92614562667E+03  0.15294330000E+03 0.  0.
<mgrwt>
<rscale>  0 0.72525205E+03</rscale>
<asrwt>0</asrwt>
<pdfrwt beam="1">  1        2 0.16326467E+00 0.81708863E+03</pdfrwt>
<pdfrwt beam="2">  1       -2 0.13351501E+00 0.81708863E+03</pdfrwt>
<totfact> 0.94428899E+00</totfact>
</mgrwt>
</event>
<event>
 4    5  0.8511149E-008  0.1594091E+04  0.7818608E-02  0.8845903E-01
          2   -1    0    0  501    0  0.00000000000E+00  0.00000000000E+00  0.28920046594E+04  0.28920046594E+04  0.25500000000E-02 0. -1.
         -2   -1    0    0    0  501 -0.00000000000E+00 -0.00000000000E+00 -0.13797194293E+04  0.13797194293E+04  0.25500000000E-02 0.  1.
    8880023    1    1    2    0    0 -0.14169562195E+04  0.31551475171E+03 -0.60074678343E+03  0.17035320340E+04  0.65864270000E+03 0.  0.
    8880022    1    1    2    0    0  0.14169562195E+04 -0.31551475171E+03  0.21130320136E+04  0.25681920547E+04  0.15294330000E+03 0.  0.
<mgrwt>
<rscale>  0 0.15593736E+04</rscale>
<asrwt>0</asrwt>
<pdfrwt beam="1">  1        2 0.44492379E+00 0.15940906E+04</pdfrwt>
<pdfrwt beam="2">  1       -2 0.21226453E+00 0.15940906E+04</pdfrwt>
<totfact> 0.20935341E-01</totfact>
</mgrwt>
</event>
<event>
 4    5  0.8511149E-008  0.1096328E+04  0.7818608E-02  0.9265155E-01
         -2   -1    0    0    0  501 -0.00000000000E+00  0.00000000000E+00  0.10529996086E+04  0.10529996086E+04  0.25500000000E-02 0.  1.
          2   -1    0    0  501    0  0.00000000000E+00 -0.00000000000E+00 -0.24563726529E+04  0.24563726530E+04  0.25500000000E-02 0. -1.
    8880023    1    1    2    0    0  0.16136937285E+03 -0.86144352144E+03  0.64790777910E+03  0.12734675935E+04  0.65864270000E+03 0.  0.
    8880022    1    1    2    0    0 -0.16136937285E+03  0.86144352144E+03 -0.20512808235E+04  0.22359046681E+04  0.15294330000E+03 0.  0.
<mgrwt>
<rscale>  0 0.10405499E+04</rscale>
<asrwt>0</asrwt>
<pdfrwt beam="1">  1        2 0.37790348E+00 0.10963281E+04</pdfrwt>
<pdfrwt beam="2">  1       -2 0.16199994E+00 0.10963281E+04</pdfrwt>
<totfact> 0.88968028E-01</totfact>
</mgrwt>
</event>
<event>
 4    5  0.8511149E-008  0.8281977E+03  0.7818608E-02  0.9652849E-01
          2   -1    0    0  501    0  0.00000000000E+00  0.00000000000E+00  0.11085795115E+04  0.11085795115E+04  0.25500000000E-02 0. -1.
         -2   -1    0    0    0  501 -0.00000000000E+00 -0.00000000000E+00 -0.95034433048E+03  0.95034433049E+03  0.25500000000E-02 0.  1.
    8880023    1    1    2    0    0 -0.41729878723E+03 -0.27921854960E+03 -0.67887000524E+03  0.10708762611E+04  0.65864270000E+03 0.  0.
    8880022    1    1    2    0    0  0.41729878723E+03  0.27921854960E+03  0.83710518627E+03  0.98804758092E+03  0.15294330000E+03 0. -1.
<mgrwt>
<rscale>  0 0.73894878E+03</rscale>
<asrwt>0</asrwt>
<pdfrwt beam="1">  1        2 0.17055069E+00 0.82819773E+03</pdfrwt>
<pdfrwt beam="2">  1       -2 0.14620682E+00 0.82819773E+03</pdfrwt>
<totfact> 0.69677697E+00</totfact>
</mgrwt>
</event>
<event>
 4    5  0.8511149E-008  0.7013803E+03  0.7818608E-02  0.9991523E-01
          2   -1    0    0  501    0  0.00000000000E+00  0.00000000000E+00  0.12282104845E+04  0.12282104845E+04  0.25500000000E-02 0. -1.
         -2   -1    0    0    0  501 -0.00000000000E+00 -0.00000000000E+00 -0.72165599538E+03  0.72165599539E+03  0.25500000000E-02 0.  1.
    8880023    1    1    2    0    0 -0.24108629744E+03 -0.12072743248E+01 -0.52719026030E+03  0.87741884932E+03  0.65864270000E+03 0.  1.
    8880022    1    1    2    0    0  0.24108629744E+03  0.12072743248E+01  0.10337447494E+04  0.10724476305E+04  0.15294330000E+03 0.  0.
<mgrwt>
<rscale>  0 0.56023511E+03</rscale>
<asrwt>0</asrwt>
<pdfrwt beam="1">  1        2 0.18895546E+00 0.70138026E+03</pdfrwt>
<pdfrwt beam="2">  1       -2 0.11102400E+00 0.70138026E+03</pdfrwt>
<totfact> 0.12014215E+01</totfact>
</mgrwt>
</event>
<event>
 4    5  0.8511149E-008  0.1198756E+04  0.7818608E-02  0.9158333E-01
         -2   -1    0    0    0  501 -0.00000000000E+00  0.00000000000E+00  0.10454692838E+04  0.10454692838E+04  0.25500000000E-02 0.  1.
          2   -1    0    0  501    0  0.00000000000E+00 -0.00000000000E+00 -0.27706851897E+04  0.27706851897E+04  0.25500000000E-02 0. -1.
    8880023    1    1    2    0    0  0.73788096824E+03 -0.67730158927E+03  0.55497204471E+03  0.13209882448E+04  0.65864270000E+03 0.  0.
    8880022    1    1    2    0    0 -0.73788096824E+03  0.67730158927E+03 -0.22801879506E+04  0.24951662287E+04  0.15294330000E+03 0.  0.
<mgrwt>
<rscale>  0 0.11494051E+04</rscale>
<asrwt>0</asrwt>
<pdfrwt beam="1">  1        2 0.42625926E+00 0.11987560E+04</pdfrwt>
<pdfrwt beam="2">  1       -2 0.16084143E+00 0.11987560E+04</pdfrwt>
<totfact> 0.58657405E-01</totfact>
</mgrwt>
</event>
<event>
 4    5  0.8511149E-008  0.1058510E+04  0.7818608E-02  0.9308720E-01
         -2   -1    0    0    0  501 -0.00000000000E+00  0.00000000000E+00  0.10854202688E+04  0.10854202688E+04  0.25500000000E-02 0.  1.
          2   -1    0    0  501    0  0.00000000000E+00 -0.00000000000E+00 -0.90572683833E+03  0.90572683834E+03  0.25500000000E-02 0. -1.
    8880023    1    1    2    0    0 -0.49635708140E+03  0.66352360971E+03  0.38067250726E+03  0.11248803034E+04  0.65864270000E+03 0. -1.
    8880022    1    1    2    0    0  0.49635708140E+03 -0.66352360971E+03 -0.20097907682E+03  0.86626680373E+03  0.15294330000E+03 0.  0.
<mgrwt>
<rscale>  0 0.99984016E+03</rscale>
<asrwt>0</asrwt>
<pdfrwt beam="1">  1        2 0.13934259E+00 0.10585103E+04</pdfrwt>
<pdfrwt beam="2">  1       -2 0.16698773E+00 0.10585103E+04</pdfrwt>
<totfact> 0.64184833E+00</totfact>
</mgrwt>
</event>
<event>
 4    5  0.8511149E-008  0.6858031E+03  0.7818608E-02  0.1006215E+00
          2   -1    0    0  501    0  0.00000000000E+00  0.00000000000E+00  0.17427508458E+04  0.17427508458E+04  0.25500000000E-02 0. -1.
         -2   -1    0    0    0  501 -0.00000000000E+00 -0.00000000000E+00 -0.20604411263E+03  0.20604411265E+03  0.25500000000E-02 0.  1.
    8880023    1    1    2    0    0 -0.19032323317E+03 -0.17111809853E+02  0.41695852134E+03  0.80260847360E+03  0.65864270000E+03 0.  1.
    8880022    1    1    2    0    0  0.19032323317E+03  0.17111809853E+02  0.11197482118E+04  0.11461864848E+04  0.15294330000E+03 0.  0.
<mgrwt>
<rscale>  0 0.53007175E+03</rscale>
<asrwt>0</asrwt>
<pdfrwt beam="1">  1        2 0.26811550E+00 0.68580314E+03</pdfrwt>
<pdfrwt beam="2">  1       -2 0.31699096E-01 0.68580314E+03</pdfrwt>
<totfact> 0.88355134E+01</totfact>
</mgrwt>
</event>
<event>
 4    5  0.8511149E-008  0.9763908E+03  0.7818608E-02  0.9413119E-01
         -2   -1    0    0    0  501 -0.00000000000E+00  0.00000000000E+00  0.11767976929E+04  0.11767976929E+04  0.25500000000E-02 0.  1.
          2   -1    0    0  501    0  0.00000000000E+00 -0.00000000000E+00 -0.16572625407E+04  0.16572625407E+04  0.25500000000E-02 0. -1.
    8880023    1    1    2    0    0  0.66687407468E+03 -0.27350996309E+03  0.86214631519E+03  0.13025495025E+04  0.65864270000E+03 0.  0.
    8880022    1    1    2    0    0 -0.66687407468E+03  0.27350996309E+03 -0.13426111630E+04  0.15315107310E+04  0.15294330000E+03 0.  0.
<mgrwt>
<rscale>  0 0.91003850E+03</rscale>
<asrwt>0</asrwt>
<pdfrwt beam="1">  1        2 0.25496347E+00 0.97639077E+03</pdfrwt>
<pdfrwt beam="2">  1       -2 0.18104580E+00 0.97639077E+03</pdfrwt>
<totfact> 0.18423385E+00</totfact>
</mgrwt>
</event>
<event>
 4    5  0.8511149E-008  0.9081702E+03  0.7818608E-02  0.9513041E-01
          2   -1    0    0  501    0  0.00000000000E+00  0.00000000000E+00  0.20976338118E+04  0.20976338118E+04  0.25500000000E-02 0. -1.
         -2   -1    0    0    0  501 -0.00000000000E+00 -0.00000000000E+00 -0.35353584346E+03  0.35353584347E+03  0.25500000000E-02 0.  1.
    8880023    1    1    2    0    0 -0.58892415221E+03 -0.21007417481E+03  0.46743202148E+03  0.10214037972E+04  0.65864270000E+03 0.  1.
    8880022    1    1    2    0    0  0.58892415221E+03  0.21007417481E+03  0.12766659468E+04  0.14297658580E+04  0.15294330000E+03 0.  1.
<mgrwt>
<rscale>  0 0.83329144E+03</rscale>
<asrwt>0</asrwt>
<pdfrwt beam="1">  1        2 0.32271289E+00 0.90817015E+03</pdfrwt>
<pdfrwt beam="2">  1       -2 0.54390130E-01 0.90817015E+03</pdfrwt>
<totfact> 0.19044120E+01</totfact>
</mgrwt>
</event>
<event>
 4    5  0.8511149E-008  0.7367729E+03  0.7818608E-02  0.9869449E-01
          2   -1    0    0  501    0  0.00000000000E+00  0.00000000000E+00  0.18089097126E+04  0.18089097126E+04  0.25500000000E-02 0. -1.
         -2   -1    0    0    0  501 -0.00000000000E+00 -0.00000000000E+00 -0.30880287666E+03  0.30880287667E+03  0.25500000000E-02 0.  1.
    8880023    1    1    2    0    0 -0.30700048057E+03 -0.12155153582E+03  0.19403385156E+03  0.76189462050E+03  0.65864270000E+03 0.  1.
    8880022    1    1    2    0    0  0.30700048057E+03  0.12155153582E+03  0.13060729844E+04  0.13558179688E+04  0.15294330000E+03 0.  0.
<mgrwt>
<rscale>  0 0.61765032E+03</rscale>
<asrwt>0</asrwt>
<pdfrwt beam="1">  1        2 0.27829380E+00 0.73677288E+03</pdfrwt>
<pdfrwt beam="2">  1       -2 0.47508135E-01 0.73677288E+03</pdfrwt>
<totfact> 0.36881839E+01</totfact>
</mgrwt>
</event>
<event>
 4    5  0.8511149E-008  0.6604458E+03  0.7818608E-02  0.1023704E+00
         -2   -1    0    0    0  501 -0.00000000000E+00  0.00000000000E+00  0.54073203165E+02  0.54073203225E+02  0.25500000000E-02 0.  1.
          2   -1    0    0  501    0  0.00000000000E+00 -0.00000000000E+00 -0.33948292954E+04  0.33948292954E+04  0.25500000000E-02 0. -1.
    8880023    1    1    2    0    0 -0.19079111728E+02 -0.44882531953E+02 -0.22027465079E+04  0.22996262389E+04  0.65864270000E+03 0.  0.
    8880022    1    1    2    0    0  0.19079111728E+02  0.44882531953E+02 -0.11380095843E+04  0.11492762598E+04  0.15294330000E+03 0.  0.
<mgrwt>
<rscale>  0 0.46373238E+03</rscale>
<asrwt>0</asrwt>
<pdfrwt beam="1">  1        2 0.52228126E+00 0.66044580E+03</pdfrwt>
<pdfrwt beam="2">  1       -2 0.83189570E-02 0.66044580E+03</pdfrwt>
<totfact> 0.96420878E+01</totfact>
</mgrwt>
</event>
<event>
 4    5  0.8511149E-008  0.1257866E+04  0.7818608E-02  0.9102827E-01
         -2   -1    0    0    0  501 -0.00000000000E+00  0.00000000000E+00  0.19019272540E+04  0.19019272540E+04  0.25500000000E-02 0.  1.
          2   -1    0    0  501    0  0.00000000000E+00 -0.00000000000E+00 -0.85588614718E+03  0.85588614718E+03  0.25500000000E-02 0. -1.
    8880023    1    1    2    0    0  0.10714531614E+04  0.20088365432E+02  0.11041840289E+04  0.16737526686E+04  0.65864270000E+03 0.  0.
    8880022    1    1    2    0    0 -0.10714531614E+04 -0.20088365432E+02 -0.58142922154E+02  0.10840607326E+04  0.15294330000E+03 0.  0.
<mgrwt>
<rscale>  0 0.12115258E+04</rscale>
<asrwt>0</asrwt>
<pdfrwt beam="1">  1        2 0.13167479E+00 0.12578655E+04</pdfrwt>
<pdfrwt beam="2">  1       -2 0.29260419E+00 0.12578655E+04</pdfrwt>
<totfact> 0.10791019E+00</totfact>
</mgrwt>
</event>
<event>
 4    5  0.8511149E-008  0.7358764E+03  0.7818608E-02  0.9872126E-01
          2   -1    0    0  501    0  0.00000000000E+00  0.00000000000E+00  0.25771919473E+04  0.25771919473E+04  0.25500000000E-02 0. -1.
         -2   -1    0    0    0  501 -0.00000000000E+00 -0.00000000000E+00 -0.51309948325E+03  0.51309948325E+03  0.25500000000E-02 0.  1.
    8880023    1    1    2    0    0 -0.29963143394E+03 -0.13388379041E+03 -0.22752437103E+03  0.77024762980E+03  0.65864270000E+03 0.  0.
    8880022    1    1    2    0    0  0.29963143394E+03  0.13388379041E+03  0.22916168351E+04  0.23200438008E+04  0.15294330000E+03 0. -1.
<mgrwt>
<rscale>  0 0.61631415E+03</rscale>
<asrwt>0</asrwt>
<pdfrwt beam="1">  1        2 0.39649107E+00 0.73587640E+03</pdfrwt>
<pdfrwt beam="2">  1       -2 0.78938382E-01 0.73587640E+03</pdfrwt>
<totfact> 0.47164671E+00</totfact>
</mgrwt>
</event>
<event>
 4    5  0.8511149E-008  0.8278862E+03  0.7818608E-02  0.9653459E-01
         -2   -1    0    0    0  501 -0.00000000000E+00  0.00000000000E+00  0.42108064904E+03  0.42108064905E+03  0.25500000000E-02 0.  1.
          2   -1    0    0  501    0  0.00000000000E+00 -0.00000000000E+00 -0.34858247437E+04  0.34858247437E+04  0.25500000000E-02 0. -1.
    8880023    1    1    2    0    0  0.18023170214E+03  0.46808320870E+03 -0.31307345108E+02  0.82847794952E+03  0.65864270000E+03 0.  1.
    8880022    1    1    2    0    0 -0.18023170214E+03 -0.46808320870E+03 -0.30334367496E+04  0.30784274433E+04  0.15294330000E+03 0.  0.
<mgrwt>
<rscale>  0 0.73856723E+03</rscale>
<asrwt>0</asrwt>
<pdfrwt beam="1">  1        2 0.53628071E+00 0.82788620E+03</pdfrwt>
<pdfrwt beam="2">  1       -2 0.64781641E-01 0.82788620E+03</pdfrwt>
<totfact> 0.19552075E+00</totfact>
</mgrwt>
</event>
<event>
 4    5  0.8511149E-008  0.7227342E+03  0.7818608E-02  0.9913441E-01
          2   -1    0    0  501    0  0.00000000000E+00  0.00000000000E+00  0.15684066991E+04  0.15684066991E+04  0.25500000000E-02 0. -1.
         -2   -1    0    0    0  501 -0.00000000000E+00 -0.00000000000E+00 -0.40564940174E+03  0.40564940175E+03  0.25500000000E-02 0.  1.
    8880023    1    1    2    0    0  0.29751343793E+03  0.44972307506E+01 -0.41761241538E+02  0.72393969251E+03  0.65864270000E+03 0.  1.
    8880022    1    1    2    0    0 -0.29751343793E+03 -0.44972307506E+01  0.12045185389E+04  0.12501164084E+04  0.15294330000E+03 0.  0.
<mgrwt>
<rscale>  0 0.59614290E+03</rscale>
<asrwt>0</asrwt>
<pdfrwt beam="1">  1        2 0.24129334E+00 0.72273417E+03</pdfrwt>
<pdfrwt beam="2">  1       -2 0.62407600E-01 0.72273417E+03</pdfrwt>
<totfact> 0.28443681E+01</totfact>
</mgrwt>
</event>
<event>
 4    5  0.8511149E-008  0.1053232E+04  0.7818608E-02  0.9315006E-01
          2   -1    0    0  501    0  0.00000000000E+00  0.00000000000E+00  0.13221436804E+04  0.13221436804E+04  0.25500000000E-02 0. -1.
         -2   -1    0    0    0  501 -0.00000000000E+00 -0.00000000000E+00 -0.95059152461E+03  0.95059152462E+03  0.25500000000E-02 0.  1.
    8880023    1    1    2    0    0 -0.82054161747E+03  0.46892842758E+02 -0.40817385209E+03  0.11295590221E+04  0.65864270000E+03 0.  0.
    8880022    1    1    2    0    0  0.82054161747E+03 -0.46892842758E+02  0.77972600786E+03  0.11431761829E+04  0.15294330000E+03 0.  0.
<mgrwt>
<rscale>  0 0.99413028E+03</rscale>
<asrwt>0</asrwt>
<pdfrwt beam="1">  1        2 0.20340672E+00 0.10532320E+04</pdfrwt>
<pdfrwt beam="2">  1       -2 0.14624485E+00 0.10532320E+04</pdfrwt>
<totfact> 0.50712515E+00</totfact>
</mgrwt>
</event>
<event>
 4    5  0.8511149E-008  0.6979854E+03  0.7818608E-02  0.1000566E+00
         -2   -1    0    0    0  501 -0.00000000000E+00  0.00000000000E+00  0.23787056368E+03  0.23787056369E+03  0.25500000000E-02 0.  1.
          2   -1    0    0  501    0  0.00000000000E+00 -0.00000000000E+00 -0.24026690956E+04  0.24026690956E+04  0.25500000000E-02 0. -1.
    8880023    1    1    2    0    0 -0.15689222967E+03 -0.16958242130E+03 -0.30755059695E+03  0.76273910696E+03  0.65864270000E+03 0.  1.
    8880022    1    1    2    0    0  0.15689222967E+03  0.16958242130E+03 -0.18572479350E+04  0.18778005524E+04  0.15294330000E+03 0.  0.
<mgrwt>
<rscale>  0 0.55402602E+03</rscale>
<asrwt>0</asrwt>
<pdfrwt beam="1">  1        2 0.36964138E+00 0.69798537E+03</pdfrwt>
<pdfrwt beam="2">  1       -2 0.36595473E-01 0.69798537E+03</pdfrwt>
<totfact> 0.29230463E+01</totfact>
</mgrwt>
</event>
<event>
 4    5  0.8511149E-008  0.1798909E+04  0.7818608E-02  0.8723140E-01
         -2   -1    0    0    0  501 -0.00000000000E+00  0.00000000000E+00  0.14492765112E+04  0.14492765112E+04  0.25500000000E-02 0.  1.
          2   -1    0    0  501    0  0.00000000000E+00 -0.00000000000E+00 -0.25438556110E+04  0.25438556110E+04  0.25500000000E-02 0. -1.
    8880023    1    1    2    0    0  0.14721047755E+03  0.16675105471E+04  0.28143474167E+03  0.18207905067E+04  0.65864270000E+03 0.  0.
    8880022    1    1    2    0    0 -0.14721047755E+03 -0.16675105471E+04 -0.13760138415E+04  0.21723416155E+04  0.15294330000E+03 0.  0.
<mgrwt>
<rscale>  0 0.17686696E+04</rscale>
<asrwt>0</asrwt>
<pdfrwt beam="1">  1        2 0.39136240E+00 0.17989087E+04</pdfrwt>
<pdfrwt beam="2">  1       -2 0.22296562E+00 0.17989087E+04</pdfrwt>
<totfact> 0.28248885E-01</totfact>
</mgrwt>
</event>
<event>
 4    5  0.8511149E-008  0.6928639E+03  0.7818608E-02  0.1002820E+00
         -2   -1    0    0    0  501 -0.00000000000E+00  0.00000000000E+00  0.35808279455E+03  0.35808279456E+03  0.25500000000E-02 0.  1.
          2   -1    0    0  501    0  0.00000000000E+00 -0.00000000000E+00 -0.23875705815E+04  0.23875705815E+04  0.25500000000E-02 0. -1.
    8880023    1    1    2    0    0  0.10479078171E+03 -0.18780067439E+03  0.62399334867E+01  0.69289201487E+03  0.65864270000E+03 0.  1.
    8880022    1    1    2    0    0 -0.10479078171E+03  0.18780067439E+03 -0.20357277204E+04  0.20527613612E+04  0.15294330000E+03 0.  0.
<mgrwt>
<rscale>  0 0.54430804E+03</rscale>
<asrwt>0</asrwt>
<pdfrwt beam="1">  1        2 0.36731854E+00 0.69286392E+03</pdfrwt>
<pdfrwt beam="2">  1       -2 0.55089662E-01 0.69286392E+03</pdfrwt>
<totfact> 0.13204625E+01</totfact>
</mgrwt>
</event>
<event>
 4    5  0.8511149E-008  0.8947089E+03  0.7818608E-02  0.9534579E-01
          2   -1    0    0  501    0  0.00000000000E+00  0.00000000000E+00  0.29842645076E+04  0.29842645076E+04  0.25500000000E-02 0. -1.
         -2   -1    0    0    0  501 -0.00000000000E+00 -0.00000000000E+00 -0.46206900570E+03  0.46206900571E+03  0.25500000000E-02 0.  1.
    8880023    1    1    2    0    0  0.34491903943E+03  0.49771943633E+03  0.49607414892E+02  0.89608307814E+03  0.65864270000E+03 0.  1.
    8880022    1    1    2    0    0 -0.34491903943E+03 -0.49771943633E+03  0.24725880870E+04  0.25502504352E+04  0.15294330000E+03 0.  0.
<mgrwt>
<rscale>  0 0.81781727E+03</rscale>
<asrwt>0</asrwt>
<pdfrwt beam="1">  1        2 0.45911763E+00 0.89470888E+03</pdfrwt>
<pdfrwt beam="2">  1       -2 0.71087537E-01 0.89470888E+03</pdfrwt>
<totfact> 0.33243652E+00</totfact>
</mgrwt>
</event>
<event>
 4    5  0.8511149E-008  0.9082014E+03  0.7818608E-02  0.9512992E-01
          2   -1    0    0  501    0  0.00000000000E+00  0.00000000000E+00  0.87751637853E+03  0.87751637853E+03  0.25500000000E-02 0. -1.
         -2   -1    0    0    0  501 -0.00000000000E+00 -0.00000000000E+00 -0.10696397382E+04  0.10696397382E+04  0.25500000000E-02 0.  1.
    8880023    1    1    2    0    0 -0.58240597547E+03 -0.22764627671E+03  0.47090477071E+03  0.10230254429E+04  0.65864270000E+03 0. -1.
    8880022    1    1    2    0    0  0.58240597547E+03  0.22764627671E+03 -0.66302813040E+03  0.92413067381E+03  0.15294330000E+03 0.  0.
<mgrwt>
<rscale>  0 0.83332720E+03</rscale>
<asrwt>0</asrwt>
<pdfrwt beam="1">  1        2 0.13500252E+00 0.90820138E+03</pdfrwt>
<pdfrwt beam="2">  1       -2 0.16455996E+00 0.90820138E+03</pdfrwt>
<totfact> 0.70866808E+00</totfact>
</mgrwt>
</event>
<event>
 4    5  0.8511149E-008  0.9153991E+03  0.7818608E-02  0.9501750E-01
         -2   -1    0    0    0  501 -0.00000000000E+00  0.00000000000E+00  0.15289335525E+04  0.15289335525E+04  0.25500000000E-02 0.  1.
          2   -1    0    0  501    0  0.00000000000E+00 -0.00000000000E+00 -0.11733151572E+04  0.11733151572E+04  0.25500000000E-02 0. -1.
    8880023    1    1    2    0    0 -0.63559844337E+03 -0.12644913464E+02  0.12777549097E+04  0.15718184026E+04  0.65864270000E+03 0.  1.
    8880022    1    1    2    0    0  0.63559844337E+03  0.12644913464E+02 -0.92213651441E+03  0.11304303071E+04  0.15294330000E+03 0.  0.
<mgrwt>
<rscale>  0 0.84154929E+03</rscale>
<asrwt>0</asrwt>
<pdfrwt beam="1">  1        2 0.18051002E+00 0.91539908E+03</pdfrwt>
<pdfrwt beam="2">  1       -2 0.23522055E+00 0.91539908E+03</pdfrwt>
<totfact> 0.15691858E+00</totfact>
</mgrwt>
</event>
<event>
 4    5  0.8511149E-008  0.8081267E+03  0.7818608E-02  0.9693492E-01
          2   -1    0    0  501    0  0.00000000000E+00  0.00000000000E+00  0.87466118267E+03  0.87466118267E+03  0.25500000000E-02 0. -1.
         -2   -1    0    0    0  501 -0.00000000000E+00 -0.00000000000E+00 -0.10737033953E+04  0.10737033953E+04  0.25500000000E-02 0.  1.
    8880023    1    1    2    0    0 -0.45517103511E+03 -0.10989959195E+03 -0.82297878669E+03  0.11534135777E+04  0.65864270000E+03 0.  1.
    8880022    1    1    2    0    0  0.45517103511E+03  0.10989959195E+03  0.62393657404E+03  0.79495100035E+03  0.15294330000E+03 0.  0.
<mgrwt>
<rscale>  0 0.71405587E+03</rscale>
<asrwt>0</asrwt>
<pdfrwt beam="1">  1        2 0.13456326E+00 0.80812672E+03</pdfrwt>
<pdfrwt beam="2">  1       -2 0.16518514E+00 0.80812672E+03</pdfrwt>
<totfact> 0.71215734E+00</totfact>
</mgrwt>
</event>
<event>
 4    5  0.8511149E-008  0.6715275E+03  0.7818608E-02  0.1014591E+00
          2   -1    0    0  501    0  0.00000000000E+00  0.00000000000E+00  0.24081031918E+04  0.24081031918E+04  0.25500000000E-02 0. -1.
         -2   -1    0    0    0  501 -0.00000000000E+00 -0.00000000000E+00 -0.18745459426E+03  0.18745459427E+03  0.25500000000E-02 0.  1.
    8880023    1    1    2    0    0 -0.63744152326E+02  0.11434888754E+03  0.43837282806E+03  0.80194758413E+03  0.65864270000E+03 0.  0.
    8880022    1    1    2    0    0  0.63744152326E+02 -0.11434888754E+03  0.17822757694E+04  0.17936102019E+04  0.15294330000E+03 0. -1.
<mgrwt>
<rscale>  0 0.49690205E+03</rscale>
<asrwt>0</asrwt>
<pdfrwt beam="1">  1        2 0.37047740E+00 0.67152751E+03</pdfrwt>
<pdfrwt beam="2">  1       -2 0.28839169E-01 0.67152751E+03</pdfrwt>
<totfact> 0.45586747E+01</totfact>
</mgrwt>
</event>
<event>
 4    5  0.8511149E-008  0.9671744E+03  0.7818608E-02  0.9425823E-01
          2   -1    0    0  501    0  0.00000000000E+00  0.00000000000E+00  0.11748067434E+04  0.11748067434E+04  0.25500000000E-02 0. -1.
         -2   -1    0    0    0  501 -0.00000000000E+00 -0.00000000000E+00 -0.71484377636E+03  0.71484377637E+03  0.25500000000E-02 0.  1.
    8880023    1    1    2    0    0 -0.36173467054E+02  0.70732421013E+03  0.61837644971E+03  0.11479615402E+04  0.65864270000E+03 0.  0.
    8880022    1    1    2    0    0  0.36173467054E+02 -0.70732421013E+03 -0.15841348264E+03  0.74168897960E+03  0.15294330000E+03 0.  0.
<mgrwt>
<rscale>  0 0.89980685E+03</rscale>
<asrwt>0</asrwt>
<pdfrwt beam="1">  1        2 0.18073950E+00 0.96717437E+03</pdfrwt>
<pdfrwt beam="2">  1       -2 0.10997597E+00 0.96717437E+03</pdfrwt>
<totfact> 0.12844989E+01</totfact>
</mgrwt>
</event>
<event>
 4    5  0.8511149E-008  0.8519012E+03  0.7818608E-02  0.9608135E-01
          2   -1    0    0  501    0  0.00000000000E+00  0.00000000000E+00  0.20636325723E+04  0.20636325723E+04  0.25500000000E-02 0. -1.
         -2   -1    0    0    0  501 -0.00000000000E+00 -0.00000000000E+00 -0.38111496667E+03  0.38111496668E+03  0.25500000000E-02 0.  1.
    8880023    1    1    2    0    0 -0.42401766066E+03 -0.33486481924E+03  0.22251406726E+03  0.88048176592E+03  0.65864270000E+03 0.  1.
    8880022    1    1    2    0    0  0.42401766066E+03  0.33486481924E+03  0.14600035384E+04  0.15642657731E+04  0.15294330000E+03 0.  0.
<mgrwt>
<rscale>  0 0.76760068E+03</rscale>
<asrwt>0</asrwt>
<pdfrwt beam="1">  1        2 0.31748194E+00 0.85190119E+03</pdfrwt>
<pdfrwt beam="2">  1       -2 0.58633071E-01 0.85190119E+03</pdfrwt>
<totfact> 0.17107789E+01</totfact>
</mgrwt>
</event>
<event>
 4    5  0.8511149E-008  0.1073398E+04  0.7818608E-02  0.9291269E-01
          2   -1    0    0  501    0  0.00000000000E+00  0.00000000000E+00  0.19862914331E+04  0.19862914331E+04  0.25500000000E-02 0. -1.
         -2   -1    0    0    0  501 -0.00000000000E+00 -0.00000000000E+00 -0.61645696121E+03  0.61645696122E+03  0.25500000000E-02 0.  1.
    8880023    1    1    2    0    0  0.19097815038E+03  0.82577225812E+03  0.13713511269E+04  0.17414897633E+04  0.65864270000E+03 0.  0.
    8880022    1    1    2    0    0 -0.19097815038E+03 -0.82577225812E+03 -0.15166550383E+01  0.86125863099E+03  0.15294330000E+03 0.  0.
<mgrwt>
<rscale>  0 0.10159065E+04</rscale>
<asrwt>0</asrwt>
<pdfrwt beam="1">  1        2 0.30558329E+00 0.10733977E+04</pdfrwt>
<pdfrwt beam="2">  1       -2 0.94839533E-01 0.10733977E+04</pdfrwt>
<totfact> 0.63141911E+00</totfact>
</mgrwt>
</event>
<event>
 4    5  0.8511149E-008  0.9788621E+03  0.7818608E-02  0.9409750E-01
         -2   -1    0    0    0  501 -0.00000000000E+00  0.00000000000E+00  0.50334201283E+03  0.50334201283E+03  0.25500000000E-02 0.  1.
          2   -1    0    0  501    0  0.00000000000E+00 -0.00000000000E+00 -0.33541370568E+04  0.33541370568E+04  0.25500000000E-02 0. -1.
    8880023    1    1    2    0    0 -0.10990853325E+03 -0.71573801272E+03 -0.29523947084E+04  0.31104349389E+04  0.65864270000E+03 0.  0.
    8880022    1    1    2    0    0  0.10990853325E+03  0.71573801272E+03  0.10159966440E+03  0.74704413079E+03  0.15294330000E+03 0.  0.
<mgrwt>
<rscale>  0 0.91277592E+03</rscale>
<asrwt>0</asrwt>
<pdfrwt beam="1">  1        2 0.51602107E+00 0.97886209E+03</pdfrwt>
<pdfrwt beam="2">  1       -2 0.77437235E-01 0.97886209E+03</pdfrwt>
<totfact> 0.15760903E+00</totfact>
</mgrwt>
</event>
<event>
 4    5  0.8511149E-008  0.9372180E+03  0.7818608E-02  0.9468748E-01
          2   -1    0    0  501    0  0.00000000000E+00  0.00000000000E+00  0.87869534059E+03  0.87869534059E+03  0.25500000000E-02 0. -1.
         -2   -1    0    0    0  501 -0.00000000000E+00 -0.00000000000E+00 -0.15080418164E+04  0.15080418164E+04  0.25500000000E-02 0.  1.
    8880023    1    1    2    0    0 -0.32568504343E+03 -0.58180465074E+03 -0.11811764608E+04  0.15078313689E+04  0.65864270000E+03 0.  0.
    8880022    1    1    2    0    0  0.32568504343E+03  0.58180465074E+03  0.55182998496E+03  0.87890578815E+03  0.15294330000E+03 0.  0.
<mgrwt>
<rscale>  0 0.86627634E+03</rscale>
<asrwt>0</asrwt>
<pdfrwt beam="1">  1        2 0.13518390E+00 0.93721801E+03</pdfrwt>
<pdfrwt beam="2">  1       -2 0.23200643E+00 0.93721801E+03</pdfrwt>
<totfact> 0.25247967E+00</totfact>
</mgrwt>
</event>
<event>
 4    5  0.8511149E-008  0.6656199E+03  0.7818608E-02  0.1019019E+00
         -2   -1    0    0    0  501 -0.00000000000E+00  0.00000000000E+00  0.30652511830E+03  0.30652511831E+03  0.25500000000E-02 0.  1.
          2   -1    0    0  501    0  0.00000000000E+00 -0.00000000000E+00 -0.59753885407E+03  0.59753885407E+03  0.25500000000E-02 0. -1.
    8880023    1    1    2    0    0 -0.91822933101E+02  0.28428093203E+02 -0.17114701281E+03  0.68727077181E+03  0.65864270000E+03 0.  0.
    8880022    1    1    2    0    0  0.91822933101E+02 -0.28428093203E+02 -0.11986672296E+03  0.21679320057E+03  0.15294330000E+03 0.  0.
<mgrwt>
<rscale>  0 0.48042317E+03</rscale>
<asrwt>0</asrwt>
<pdfrwt beam="1">  1        2 0.91929054E-01 0.66561987E+03</pdfrwt>
<pdfrwt beam="2">  1       -2 0.47157711E-01 0.66561987E+03</pdfrwt>
<totfact> 0.21520042E+02</totfact>
</mgrwt>
</event>
<event>
 4    5  0.8511149E-008  0.1765630E+04  0.7818608E-02  0.8741791E-01
          2   -1    0    0  501    0  0.00000000000E+00  0.00000000000E+00  0.28394528158E+04  0.28394528158E+04  0.25500000000E-02 0. -1.
         -2   -1    0    0    0  501 -0.00000000000E+00 -0.00000000000E+00 -0.14827866970E+04  0.14827866970E+04  0.25500000000E-02 0.  1.
    8880023    1    1    2    0    0  0.96642084026E+03  0.13227507889E+04 -0.50626031705E+03  0.18367766889E+04  0.65864270000E+03 0.  1.
    8880022    1    1    2    0    0 -0.96642084026E+03 -0.13227507889E+04  0.18629264358E+04  0.24854628238E+04  0.15294330000E+03 0.  0.
<mgrwt>
<rscale>  0 0.17347481E+04</rscale>
<asrwt>0</asrwt>
<pdfrwt beam="1">  1        2 0.43683890E+00 0.17656299E+04</pdfrwt>
<pdfrwt beam="2">  1       -2 0.22812103E+00 0.17656299E+04</pdfrwt>
<totfact> 0.17524283E-01</totfact>
</mgrwt>
</event>
<event>
 4    5  0.8511149E-008  0.6610345E+03  0.7818608E-02  0.1023121E+00
          2   -1    0    0  501    0  0.00000000000E+00  0.00000000000E+00  0.26592972398E+04  0.26592972398E+04  0.25500000000E-02 0. -1.
         -2   -1    0    0    0  501 -0.00000000000E+00 -0.00000000000E+00 -0.14131672364E+03  0.14131672367E+03  0.25500000000E-02 0.  1.
    8880023    1    1    2    0    0  0.22306765593E+01 -0.56137397235E+02  0.65522177920E+03  0.93074280523E+03  0.65864270000E+03 0.  1.
    8880022    1    1    2    0    0 -0.22306765593E+01  0.56137397235E+02  0.18627587370E+04  0.18698711582E+04  0.15294330000E+03 0.  0.
<mgrwt>
<rscale>  0 0.46577067E+03</rscale>
<asrwt>0</asrwt>
<pdfrwt beam="1">  1        2 0.40912265E+00 0.66103448E+03</pdfrwt>
<pdfrwt beam="2">  1       -2 0.21741034E-01 0.66103448E+03</pdfrwt>
<totfact> 0.54713996E+01</totfact>
</mgrwt>
</event>
<event>
 4    5  0.2041143E-007  0.1376761E+04  0.7818608E-02  0.9001953E-01
          2   -1    0    0  501    0  0.00000000000E+00  0.00000000000E+00  0.34131975344E+04  0.34131975344E+04  0.25500000000E-02 0. -1.
         -2   -1    0    0    0  501 -0.00000000000E+00 -0.00000000000E+00 -0.24499192970E+04  0.24499192970E+04  0.25500000000E-02 0.  1.
    8880023    1    1    2    0    0 -0.22759421983E+03  0.11873761575E+04 -0.21312629901E+04  0.25372728287E+04  0.65864270000E+03 0.  1.
    8880022    1    1    2    0    0  0.22759421983E+03 -0.11873761575E+04  0.30945412275E+04  0.33258440027E+04  0.15294330000E+03 0.  0.
<mgrwt>
<rscale>  0 0.13354010E+04</rscale>
<asrwt>0</asrwt>
<pdfrwt beam="1">  1        2 0.52510731E+00 0.13767612E+04</pdfrwt>
<pdfrwt beam="2">  1       -2 0.37691066E+00 0.13767612E+04</pdfrwt>
<totfact> 0.94776312E-03</totfact>
</mgrwt>
</event>
<event>
 4    5  0.8511149E-008  0.7144285E+03  0.7818608E-02  0.9941909E-01
         -2   -1    0    0    0  501 -0.00000000000E+00  0.00000000000E+00  0.68896683045E+03  0.68896683046E+03  0.25500000000E-02 0.  1.
          2   -1    0    0  501    0  0.00000000000E+00 -0.00000000000E+00 -0.97569731768E+03  0.97569731768E+03  0.25500000000E-02 0. -1.
    8880023    1    1    2    0    0 -0.14395599129E+03  0.23637802400E+03  0.46275391447E+03  0.85120461070E+03  0.65864270000E+03 0.  1.
    8880022    1    1    2    0    0  0.14395599129E+03 -0.23637802400E+03 -0.74948440170E+03  0.81345953744E+03  0.15294330000E+03 0.  0.
<mgrwt>
<rscale>  0 0.58272468E+03</rscale>
<asrwt>0</asrwt>
<pdfrwt beam="1">  1        2 0.15010728E+00 0.71442852E+03</pdfrwt>
<pdfrwt beam="2">  1       -2 0.10599490E+00 0.71442852E+03</pdfrwt>
<totfact> 0.19146880E+01</totfact>
</mgrwt>
</event>
<event>
 4    5  0.8511149E-008  0.1413340E+04  0.7818608E-02  0.8973386E-01
          2   -1    0    0  501    0  0.00000000000E+00  0.00000000000E+00  0.27146836952E+04  0.27146836952E+04  0.25500000000E-02 0. -1.
         -2   -1    0    0    0  501 -0.00000000000E+00 -0.00000000000E+00 -0.96228720615E+03  0.96228720616E+03  0.25500000000E-02 0.  1.
    8880023    1    1    2    0    0 -0.11210240862E+04  0.55409844115E+03 -0.12194773389E+03  0.14185913931E+04  0.65864270000E+03 0.  0.
    8880022    1    1    2    0    0  0.11210240862E+04 -0.55409844115E+03  0.18743442230E+04  0.22583795083E+04  0.15294330000E+03 0.  0.
<mgrwt>
<rscale>  0 0.13732859E+04</rscale>
<asrwt>0</asrwt>
<pdfrwt beam="1">  1        2 0.41764364E+00 0.14133401E+04</pdfrwt>
<pdfrwt beam="2">  1       -2 0.14804419E+00 0.14133401E+04</pdfrwt>
<totfact> 0.77115530E-01</totfact>
</mgrwt>
</event>
<event>
 4    5  0.8511149E-008  0.1777239E+04  0.7818608E-02  0.8735233E-01
         -2   -1    0    0    0  501 -0.00000000000E+00  0.00000000000E+00  0.22403954297E+04  0.22403954297E+04  0.25500000000E-02 0.  1.
          2   -1    0    0  501    0  0.00000000000E+00 -0.00000000000E+00 -0.22377481488E+04  0.22377481489E+04  0.25500000000E-02 0. -1.
    8880023    1    1    2    0    0 -0.15638804230E+04  0.52824763045E+03  0.14373774976E+04  0.22857453518E+04  0.65864270000E+03 0.  0.
    8880022    1    1    2    0    0  0.15638804230E+04 -0.52824763045E+03 -0.14347302168E+04  0.21923982267E+04  0.15294330000E+03 0.  0.
<mgrwt>
<rscale>  0 0.17465844E+04</rscale>
<asrwt>0</asrwt>
<pdfrwt beam="1">  1        2 0.34426894E+00 0.17772388E+04</pdfrwt>
<pdfrwt beam="2">  1       -2 0.34467622E+00 0.17772388E+04</pdfrwt>
<totfact> 0.74986099E-02</totfact>
</mgrwt>
</event>
<event>
 4    5  0.8511149E-008  0.7795947E+03  0.7818608E-02  0.9756790E-01
         -2   -1    0    0    0  501 -0.00000000000E+00  0.00000000000E+00  0.32028189601E+03  0.32028189602E+03  0.25500000000E-02 0.  1.
          2   -1    0    0  501    0  0.00000000000E+00 -0.00000000000E+00 -0.15203267632E+04  0.15203267632E+04  0.25500000000E-02 0. -1.
    8880023    1    1    2    0    0 -0.24049712951E+02  0.41638833205E+03 -0.29707905325E+03  0.83428040964E+03  0.65864270000E+03 0.  0.
    8880022    1    1    2    0    0  0.24049712951E+02 -0.41638833205E+03 -0.90296581398E+03  0.10063282496E+04  0.15294330000E+03 0.  0.
<mgrwt>
<rscale>  0 0.67733901E+03</rscale>
<asrwt>0</asrwt>
<pdfrwt beam="1">  1        2 0.23389642E+00 0.77959466E+03</pdfrwt>
<pdfrwt beam="2">  1       -2 0.49274139E-01 0.77959466E+03</pdfrwt>
<totfact> 0.49114210E+01</totfact>
</mgrwt>
</event>
<event>
 4    5  0.8511149E-008  0.1169424E+04  0.7818608E-02  0.9187433E-01
          2   -1    0    0  501    0  0.00000000000E+00  0.00000000000E+00  0.39332090036E+04  0.39332090036E+04  0.25500000000E-02 0. -1.
         -2   -1    0    0    0  501 -0.00000000000E+00 -0.00000000000E+00 -0.69337351311E+03  0.69337351311E+03  0.25500000000E-02 0.  1.
    8880023    1    1    2    0    0 -0.84642017445E+02  0.96258938178E+03 -0.73594645058E+02  0.11717375846E+04  0.65864270000E+03 0.  0.
    8880022    1    1    2    0    0  0.84642017445E+02 -0.96258938178E+03  0.33134301355E+04  0.34548449321E+04  0.15294330000E+03 0.  0.
<mgrwt>
<rscale>  0 0.11184090E+04</rscale>
<asrwt>0</asrwt>
<pdfrwt beam="1">  1        2 0.60510909E+00 0.11694241E+04</pdfrwt>
<pdfrwt beam="2">  1       -2 0.10667285E+00 0.11694241E+04</pdfrwt>
<totfact> 0.27822543E-01</totfact>
</mgrwt>
</event>
<event>
 4    5  0.8511149E-008  0.7695696E+03  0.7818608E-02  0.9780934E-01
          2   -1    0    0  501    0  0.00000000000E+00  0.00000000000E+00  0.39279616833E+04  0.39279616833E+04  0.25500000000E-02 0. -1.
         -2   -1    0    0    0  501 -0.00000000000E+00 -0.00000000000E+00 -0.14305300947E+03  0.14305300950E+03  0.25500000000E-02 0.  1.
    8880023    1    1    2    0    0 -0.31516660132E+03  0.24309924454E+03  0.10431794890E+04  0.12963259165E+04  0.65864270000E+03 0.  0.
    8880022    1    1    2    0    0  0.31516660132E+03 -0.24309924454E+03  0.27417291848E+04  0.27746887763E+04  0.15294330000E+03 0.  0.
<mgrwt>
<rscale>  0 0.66395832E+03</rscale>
<asrwt>0</asrwt>
<pdfrwt beam="1">  1        2 0.60430182E+00 0.76956964E+03</pdfrwt>
<pdfrwt beam="2">  1       -2 0.22008155E-01 0.76956964E+03</pdfrwt>
<totfact> 0.77073518E+00</totfact>
</mgrwt>
</event>
<event>
 4    5  0.8511149E-008  0.8611484E+03  0.7818608E-02  0.9591524E-01
         -2   -1    0    0    0  501 -0.00000000000E+00  0.00000000000E+00  0.16956121456E+04  0.16956121457E+04  0.25500000000E-02 0.  1.
          2   -1    0    0  501    0  0.00000000000E+00 -0.00000000000E+00 -0.39051751539E+03  0.39051751539E+03  0.25500000000E-02 0. -1.
    8880023    1    1    2    0    0 -0.47503343848E+03  0.28654761439E+03  0.12361750053E+04  0.15065540657E+04  0.65864270000E+03 0.  0.
    8880022    1    1    2    0    0  0.47503343848E+03 -0.28654761439E+03  0.68919624986E+02  0.57957559533E+03  0.15294330000E+03 0.  0.
<mgrwt>
<rscale>  0 0.77859729E+03</rscale>
<asrwt>0</asrwt>
<pdfrwt beam="1">  1        2 0.60079619E-01 0.86114837E+03</pdfrwt>
<pdfrwt beam="2">  1       -2 0.26086340E+00 0.86114837E+03</pdfrwt>
<totfact> 0.45806399E+00</totfact>
</mgrwt>
</event>
<event>
 4    5  0.8511149E-008  0.7644895E+03  0.7818608E-02  0.9793620E-01
          2   -1    0    0  501    0  0.00000000000E+00  0.00000000000E+00  0.12986324604E+04  0.12986324604E+04  0.25500000000E-02 0. -1.
         -2   -1    0    0    0  501 -0.00000000000E+00 -0.00000000000E+00 -0.44565413626E+03  0.44565413627E+03  0.25500000000E-02 0.  1.
    8880023    1    1    2    0    0  0.32818751590E+03 -0.20718828877E+03 -0.32797663010E+02  0.76519273752E+03  0.65864270000E+03 0.  0.
    8880022    1    1    2    0    0 -0.32818751590E+03  0.20718828877E+03  0.88577598712E+03  0.97909385912E+03  0.15294330000E+03 0.  0.
<mgrwt>
<rscale>  0 0.65706045E+03</rscale>
<asrwt>0</asrwt>
<pdfrwt beam="1">  1        2 0.19978961E+00 0.76448953E+03</pdfrwt>
<pdfrwt beam="2">  1       -2 0.68562174E-01 0.76448953E+03</pdfrwt>
<totfact> 0.32805723E+01</totfact>
</mgrwt>
</event>
<event>
 4    5  0.8511149E-008  0.9129560E+03  0.7818608E-02  0.9505545E-01
          2   -1    0    0  501    0  0.00000000000E+00  0.00000000000E+00  0.99580313876E+03  0.99580313877E+03  0.25500000000E-02 0. -1.
         -2   -1    0    0    0  501 -0.00000000000E+00 -0.00000000000E+00 -0.79712729851E+03  0.79712729851E+03  0.25500000000E-02 0.  1.
    8880023    1    1    2    0    0 -0.62016918764E+03  0.12275443262E+03 -0.31324791235E+03  0.96520098056E+03  0.65864270000E+03 0.  0.
    8880022    1    1    2    0    0  0.62016918764E+03 -0.12275443262E+03  0.51192375260E+03  0.82772945672E+03  0.15294330000E+03 0.  0.
<mgrwt>
<rscale>  0 0.83876236E+03</rscale>
<asrwt>0</asrwt>
<pdfrwt beam="1">  1        2 0.15320048E+00 0.91295601E+03</pdfrwt>
<pdfrwt beam="2">  1       -2 0.12263497E+00 0.91295601E+03</pdfrwt>
<totfact> 0.12750510E+01</totfact>
</mgrwt>
</event>
<event>
 4    5  0.8511149E-008  0.8538449E+03  0.7818608E-02  0.9604607E-01
          2   -1    0    0  501    0  0.00000000000E+00  0.00000000000E+00  0.29515933959E+04  0.29515933959E+04  0.25500000000E-02 0. -1.
         -2   -1    0    0    0  501 -0.00000000000E+00 -0.00000000000E+00 -0.36753415636E+03  0.36753415637E+03  0.25500000000E-02 0.  1.
    8880023    1    1    2    0    0  0.34409877478E+03  0.42051975199E+03  0.21055375038E+03  0.87942249044E+03  0.65864270000E+03 0.  1.
    8880022    1    1    2    0    0 -0.34409877478E+03 -0.42051975199E+03  0.23735054892E+04  0.24397050619E+04  0.15294330000E+03 0.  0.
<mgrwt>
<rscale>  0 0.76991978E+03</rscale>
<asrwt>0</asrwt>
<pdfrwt beam="1">  1        2 0.45409132E+00 0.85384485E+03</pdfrwt>
<pdfrwt beam="2">  1       -2 0.56543713E-01 0.85384485E+03</pdfrwt>
<totfact> 0.57216903E+00</totfact>
</mgrwt>
</event>
<event>
 4    5  0.8511149E-008  0.7436948E+03  0.7818608E-02  0.9849312E-01
          2   -1    0    0  501    0  0.00000000000E+00  0.00000000000E+00  0.31762095149E+04  0.31762095149E+04  0.25500000000E-02 0. -1.
         -2   -1    0    0    0  501 -0.00000000000E+00 -0.00000000000E+00 -0.37454007831E+03  0.37454007832E+03  0.25500000000E-02 0.  1.
    8880023    1    1    2    0    0 -0.34443383451E+03  0.25241735031E+02  0.20425363196E+02  0.74397527732E+03  0.65864270000E+03 0.  0.
    8880022    1    1    2    0    0  0.34443383451E+03 -0.25241735031E+02  0.27812440734E+04  0.28067743159E+04  0.15294330000E+03 0.  0.
<mgrwt>
<rscale>  0 0.62782004E+03</rscale>
<asrwt>0</asrwt>
<pdfrwt beam="1">  1        2 0.48864761E+00 0.74369484E+03</pdfrwt>
<pdfrwt beam="2">  1       -2 0.57621551E-01 0.74369484E+03</pdfrwt>
<totfact> 0.40715865E+00</totfact>
</mgrwt>
</event>
<event>
 4    5  0.8511149E-008  0.1008078E+04  0.7818608E-02  0.9371065E-01
         -2   -1    0    0    0  501 -0.00000000000E+00  0.00000000000E+00  0.43881915822E+03  0.43881915823E+03  0.25500000000E-02 0.  1.
          2   -1    0    0  501    0  0.00000000000E+00 -0.00000000000E+00 -0.32305160020E+04  0.32305160020E+04  0.25500000000E-02 0. -1.
    8880023    1    1    2    0    0  0.71197911003E+03 -0.27476655189E+03 -0.28941900811E+03  0.10488014491E+04  0.65864270000E+03 0.  0.
    8880022    1    1    2    0    0 -0.71197911003E+03  0.27476655189E+03 -0.25022778356E+04  0.26205337111E+04  0.15294330000E+03 0.  0.
<mgrwt>
<rscale>  0 0.94495683E+03</rscale>
<asrwt>0</asrwt>
<pdfrwt beam="1">  1        2 0.49700245E+00 0.10080779E+04</pdfrwt>
<pdfrwt beam="2">  1       -2 0.67510642E-01 0.10080779E+04</pdfrwt>
<totfact> 0.25582668E+00</totfact>
</mgrwt>
</event>
<event>
 4    5  0.8511149E-008  0.8466806E+03  0.7818608E-02  0.9617710E-01
         -2   -1    0    0    0  501 -0.00000000000E+00  0.00000000000E+00  0.29828426826E+04  0.29828426826E+04  0.25500000000E-02 0.  1.
          2   -1    0    0  501    0  0.00000000000E+00 -0.00000000000E+00 -0.13490808873E+04  0.13490808873E+04  0.25500000000E-02 0. -1.
    8880023    1    1    2    0    0 -0.26463028901E+03  0.46155029910E+03  0.28620453089E+04  0.29846559977E+04  0.65864270000E+03 0.  0.
    8880022    1    1    2    0    0  0.26463028901E+03 -0.46155029910E+03 -0.12282835136E+04  0.13472675722E+04  0.15294330000E+03 0.  0.
<mgrwt>
<rscale>  0 0.76135041E+03</rscale>
<asrwt>0</asrwt>
<pdfrwt beam="1">  1        2 0.20755091E+00 0.84668062E+03</pdfrwt>
<pdfrwt beam="2">  1       -2 0.45889887E+00 0.84668062E+03</pdfrwt>
<totfact> 0.49335518E-02</totfact>
</mgrwt>
</event>
<event>
 4    5  0.8511149E-008  0.9212346E+03  0.7818608E-02  0.9492769E-01
          2   -1    0    0  501    0  0.00000000000E+00  0.00000000000E+00  0.11883879455E+04  0.11883879455E+04  0.25500000000E-02 0. -1.
         -2   -1    0    0    0  501 -0.00000000000E+00 -0.00000000000E+00 -0.11041148594E+04  0.11041148594E+04  0.25500000000E-02 0.  1.
    8880023    1    1    2    0    0  0.63551260728E+03 -0.10481760950E+03 -0.77772821009E+03  0.12056261362E+04  0.65864270000E+03 0.  1.
    8880022    1    1    2    0    0 -0.63551260728E+03  0.10481760950E+03  0.86200129621E+03  0.10868766687E+04  0.15294330000E+03 0.  0.
<mgrwt>
<rscale>  0 0.84819069E+03</rscale>
<asrwt>0</asrwt>
<pdfrwt beam="1">  1        2 0.18282892E+00 0.92123461E+03</pdfrwt>
<pdfrwt beam="2">  1       -2 0.16986382E+00 0.92123461E+03</pdfrwt>
<totfact> 0.41118662E+00</totfact>
</mgrwt>
</event>
<event>
 4    5  0.8511149E-008  0.8269398E+03  0.7818608E-02  0.9655316E-01
         -2   -1    0    0    0  501 -0.00000000000E+00  0.00000000000E+00  0.19478695933E+03  0.19478695935E+03  0.25500000000E-02 0.  1.
          2   -1    0    0  501    0  0.00000000000E+00 -0.00000000000E+00 -0.29146555823E+04  0.29146555823E+04  0.25500000000E-02 0. -1.
    8880023    1    1    2    0    0  0.47090203204E+03  0.16813851671E+03 -0.92868215982E+03  0.12434950924E+04  0.65864270000E+03 0.  1.
    8880022    1    1    2    0    0 -0.47090203204E+03 -0.16813851671E+03 -0.17911864631E+04  0.18659474492E+04  0.15294330000E+03 0.  0.
<mgrwt>
<rscale>  0 0.73740728E+03</rscale>
<asrwt>0</asrwt>
<pdfrwt beam="1">  1        2 0.44840852E+00 0.82693984E+03</pdfrwt>
<pdfrwt beam="2">  1       -2 0.29967227E-01 0.82693984E+03</pdfrwt>
<totfact> 0.21102136E+01</totfact>
</mgrwt>
</event>
<event>
 4    5  0.8511149E-008  0.7157210E+03  0.7818608E-02  0.9937340E-01
          2   -1    0    0  501    0  0.00000000000E+00  0.00000000000E+00  0.13675427086E+04  0.13675427086E+04  0.25500000000E-02 0. -1.
         -2   -1    0    0    0  501 -0.00000000000E+00 -0.00000000000E+00 -0.31401413373E+03  0.31401413374E+03  0.25500000000E-02 0.  1.
    8880023    1    1    2    0    0 -0.14139998803E+03  0.24176931313E+03  0.16087891813E+03  0.73357930038E+03  0.65864270000E+03 0.  1.
    8880022    1    1    2    0    0  0.14139998803E+03 -0.24176931313E+03  0.89264965676E+03  0.94797754199E+03  0.15294330000E+03 0.  0.
<mgrwt>
<rscale>  0 0.58485279E+03</rscale>
<asrwt>0</asrwt>
<pdfrwt beam="1">  1        2 0.21039118E+00 0.71572101E+03</pdfrwt>
<pdfrwt beam="2">  1       -2 0.48309867E-01 0.71572101E+03</pdfrwt>
<totfact> 0.62686241E+01</totfact>
</mgrwt>
</event>
<event>
 4    5  0.8511149E-008  0.1764341E+04  0.7818608E-02  0.8742522E-01
          2   -1    0    0  501    0  0.00000000000E+00  0.00000000000E+00  0.12198527316E+04  0.12198527316E+04  0.25500000000E-02 0. -1.
         -2   -1    0    0    0  501 -0.00000000000E+00 -0.00000000000E+00 -0.49704563878E+04  0.49704563878E+04  0.25500000000E-02 0.  1.
    8880023    1    1    2    0    0  0.13986620314E+04 -0.85019590850E+03 -0.41405392233E+04  0.45007736921E+04  0.65864270000E+03 0.  1.
    8880022    1    1    2    0    0 -0.13986620314E+04  0.85019590850E+03  0.38993556720E+03  0.16895354274E+04  0.15294330000E+03 0.  0.
<mgrwt>
<rscale>  0 0.17334335E+04</rscale>
<asrwt>0</asrwt>
<pdfrwt beam="1">  1        2 0.18766965E+00 0.17643409E+04</pdfrwt>
<pdfrwt beam="2">  1       -2 0.76468559E+00 0.17643409E+04</pdfrwt>
<totfact> 0.20729902E-03</totfact>
</mgrwt>
</event>
<event>
 4    5  0.8511149E-008  0.1068378E+04  0.7818608E-02  0.9297107E-01
         -2   -1    0    0    0  501 -0.00000000000E+00  0.00000000000E+00  0.85359240068E+03  0.85359240069E+03  0.25500000000E-02 0.  1.
          2   -1    0    0  501    0  0.00000000000E+00 -0.00000000000E+00 -0.13206171155E+04  0.13206171155E+04  0.25500000000E-02 0. -1.
    8880023    1    1    2    0    0  0.57531172383E+03  0.61370906611E+03  0.20357533749E+03  0.10876008099E+04  0.65864270000E+03 0.  0.
    8880022    1    1    2    0    0 -0.57531172383E+03 -0.61370906611E+03 -0.67060005230E+03  0.10866087063E+04  0.15294330000E+03 0.  0.
<mgrwt>
<rscale>  0 0.10104959E+04</rscale>
<asrwt>0</asrwt>
<pdfrwt beam="1">  1        2 0.20317186E+00 0.10683785E+04</pdfrwt>
<pdfrwt beam="2">  1       -2 0.13132191E+00 0.10683785E+04</pdfrwt>
<totfact> 0.67096025E+00</totfact>
</mgrwt>
</event>
<event>
 4    5  0.8511149E-008  0.7468717E+03  0.7818608E-02  0.9840364E-01
         -2   -1    0    0    0  501 -0.00000000000E+00  0.00000000000E+00  0.23491210896E+03  0.23491210897E+03  0.25500000000E-02 0.  1.
          2   -1    0    0  501    0  0.00000000000E+00 -0.00000000000E+00 -0.19190288630E+04  0.19190288630E+04  0.25500000000E-02 0. -1.
    8880023    1    1    2    0    0  0.18660148060E+03  0.29864200911E+03 -0.47449170560E+03  0.88485012692E+03  0.65864270000E+03 0.  1.
    8880022    1    1    2    0    0 -0.18660148060E+03 -0.29864200911E+03 -0.12096250485E+04  0.12690908451E+04  0.15294330000E+03 0.  0.
<mgrwt>
<rscale>  0 0.63240641E+03</rscale>
<asrwt>0</asrwt>
<pdfrwt beam="1">  1        2 0.29523520E+00 0.74687172E+03</pdfrwt>
<pdfrwt beam="2">  1       -2 0.36140326E-01 0.74687172E+03</pdfrwt>
<totfact> 0.54891110E+01</totfact>
</mgrwt>
</event>
<event>
 4    5  0.8511149E-008  0.1260548E+04  0.7818608E-02  0.9100400E-01
         -2   -1    0    0    0  501 -0.00000000000E+00  0.00000000000E+00  0.91984795237E+03  0.91984795237E+03  0.25500000000E-02 0.  1.
          2   -1    0    0  501    0  0.00000000000E+00 -0.00000000000E+00 -0.16774252268E+04  0.16774252268E+04  0.25500000000E-02 0. -1.
    8880023    1    1    2    0    0  0.99501162430E+02 -0.10701733807E+04  0.22010327376E+02  0.12607403408E+04  0.65864270000E+03 0.  1.
    8880022    1    1    2    0    0 -0.99501162430E+02  0.10701733807E+04 -0.77958760183E+03  0.13365328384E+04  0.15294330000E+03 0.  0.
<mgrwt>
<rscale>  0 0.12143355E+04</rscale>
<asrwt>0</asrwt>
<pdfrwt beam="1">  1        2 0.25806542E+00 0.12605482E+04</pdfrwt>
<pdfrwt beam="2">  1       -2 0.14151507E+00 0.12605482E+04</pdfrwt>
<totfact> 0.34094058E+00</totfact>
</mgrwt>
</event>
<event>
 4    5  0.8511149E-008  0.1289280E+04  0.7818608E-02  0.9074873E-01
         -2   -1    0    0    0  501 -0.00000000000E+00  0.00000000000E+00  0.18569331082E+04  0.18569331082E+04  0.25500000000E-02 0.  1.
          2   -1    0    0  501    0  0.00000000000E+00 -0.00000000000E+00 -0.12415584268E+04  0.12415584268E+04  0.25500000000E-02 0. -1.
    8880023    1    1    2    0    0 -0.32464558576E+03  0.10597352885E+04  0.12637452920E+04  0.18053520453E+04  0.65864270000E+03 0.  0.
    8880022    1    1    2    0    0  0.32464558576E+03 -0.10597352885E+04 -0.64837061057E+03  0.12931394897E+04  0.15294330000E+03 0.  0.
<mgrwt>
<rscale>  0 0.12443813E+04</rscale>
<asrwt>0</asrwt>
<pdfrwt beam="1">  1        2 0.19100899E+00 0.12892804E+04</pdfrwt>
<pdfrwt beam="2">  1       -2 0.28568202E+00 0.12892804E+04</pdfrwt>
<totfact> 0.67119083E-01</totfact>
</mgrwt>
</event>
<event>
 4    5  0.8511149E-008  0.7345233E+03  0.7818608E-02  0.9876197E-01
         -2   -1    0    0    0  501 -0.00000000000E+00  0.00000000000E+00  0.34878158081E+03  0.34878158082E+03  0.25500000000E-02 0.  1.
          2   -1    0    0  501    0  0.00000000000E+00 -0.00000000000E+00 -0.38871721685E+04  0.38871721685E+04  0.25500000000E-02 0. -1.
    8880023    1    1    2    0    0 -0.23529041984E+03 -0.22439409826E+03 -0.57721647204E+02  0.73678781737E+03  0.65864270000E+03 0.  1.
    8880022    1    1    2    0    0  0.23529041984E+03  0.22439409826E+03 -0.34806689405E+04  0.34991659319E+04  0.15294330000E+03 0.  0.
<mgrwt>
<rscale>  0 0.61428862E+03</rscale>
<asrwt>0</asrwt>
<pdfrwt beam="1">  1        2 0.59802646E+00 0.73452331E+03</pdfrwt>
<pdfrwt beam="2">  1       -2 0.53658708E-01 0.73452331E+03</pdfrwt>
<totfact> 0.15277519E+00</totfact>
</mgrwt>
</event>
<event>
 4    5  0.8511149E-008  0.9245884E+03  0.7818608E-02  0.9487659E-01
          2   -1    0    0  501    0  0.00000000000E+00  0.00000000000E+00  0.33529647188E+03  0.33529647189E+03  0.25500000000E-02 0. -1.
         -2   -1    0    0    0  501 -0.00000000000E+00 -0.00000000000E+00 -0.26400598268E+04  0.26400598268E+04  0.25500000000E-02 0.  1.
    8880023    1    1    2    0    0  0.55959421210E+03  0.32849336855E+03 -0.20725003926E+04  0.22693879481E+04  0.65864270000E+03 0.  1.
    8880022    1    1    2    0    0 -0.55959421210E+03 -0.32849336855E+03 -0.23226296236E+03  0.70596835064E+03  0.15294330000E+03 0.  0.
<mgrwt>
<rscale>  0 0.85199810E+03</rscale>
<asrwt>0</asrwt>
<pdfrwt beam="1">  1        2 0.51584074E-01 0.92458844E+03</pdfrwt>
<pdfrwt beam="2">  1       -2 0.40616304E+00 0.92458844E+03</pdfrwt>
<totfact> 0.67771347E-01</totfact>
</mgrwt>
</event>
<event>
 4    5  0.8511149E-008  0.8526850E+03  0.7818608E-02  0.9606710E-01
          2   -1    0    0  501    0  0.00000000000E+00  0.00000000000E+00  0.41808872738E+04  0.41808872738E+04  0.25500000000E-02 0. -1.
         -2   -1    0    0    0  501 -0.00000000000E+00 -0.00000000000E+00 -0.25600721286E+03  0.25600721287E+03  0.25500000000E-02 0.  1.
    8880023    1    1    2    0    0 -0.27137661032E+03  0.46863236265E+03  0.54832641852E+03  0.10137719780E+04  0.65864270000E+03 0.  1.
    8880022    1    1    2    0    0  0.27137661032E+03 -0.46863236265E+03  0.33765536424E+04  0.34231225086E+04  0.15294330000E+03 0.  0.
<mgrwt>
<rscale>  0 0.76853644E+03</rscale>
<asrwt>0</asrwt>
<pdfrwt beam="1">  1        2 0.64321343E+00 0.85268503E+03</pdfrwt>
<pdfrwt beam="2">  1       -2 0.39385725E-01 0.85268503E+03</pdfrwt>
<totfact> 0.16097139E+00</totfact>
</mgrwt>
</event>
<event>
 4    5  0.8511149E-008  0.6786808E+03  0.7818608E-02  0.1010080E+00
         -2   -1    0    0    0  501 -0.00000000000E+00  0.00000000000E+00  0.96648476521E+03  0.96648476521E+03  0.25500000000E-02 0.  1.
          2   -1    0    0  501    0  0.00000000000E+00 -0.00000000000E+00 -0.53751467004E+03  0.53751467005E+03  0.25500000000E-02 0. -1.
    8880023    1    1    2    0    0 -0.16290070770E+03  0.16147920740E+02  0.81321794317E+03  0.10592124552E+04  0.65864270000E+03 0.  1.
    8880022    1    1    2    0    0  0.16290070770E+03 -0.16147920740E+02 -0.38424784801E+03  0.44478698005E+03  0.15294330000E+03 0.  0.
<mgrwt>
<rscale>  0 0.51442881E+03</rscale>
<asrwt>0</asrwt>
<pdfrwt beam="1">  1        2 0.82694565E-01 0.67868078E+03</pdfrwt>
<pdfrwt beam="2">  1       -2 0.14868996E+00 0.67868078E+03</pdfrwt>
<totfact> 0.17708744E+01</totfact>
</mgrwt>
</event>
<event>
 4    5  0.8511149E-008  0.1413171E+04  0.7818608E-02  0.8973516E-01
          2   -1    0    0  501    0  0.00000000000E+00  0.00000000000E+00  0.26025769634E+04  0.26025769634E+04  0.25500000000E-02 0. -1.
         -2   -1    0    0    0  501 -0.00000000000E+00 -0.00000000000E+00 -0.72451456757E+03  0.72451456758E+03  0.25500000000E-02 0.  1.
    8880023    1    1    2    0    0 -0.11370101515E+04 -0.52004708904E+03  0.60828525504E+03  0.15385259885E+04  0.65864270000E+03 0.  1.
    8880022    1    1    2    0    0  0.11370101515E+04  0.52004708904E+03  0.12697771408E+04  0.17885655425E+04  0.15294330000E+03 0.  0.
<mgrwt>
<rscale>  0 0.13731106E+04</rscale>
<asrwt>0</asrwt>
<pdfrwt beam="1">  1        2 0.40039645E+00 0.14131706E+04</pdfrwt>
<pdfrwt beam="2">  1       -2 0.11146378E+00 0.14131706E+04</pdfrwt>
<totfact> 0.18524645E+00</totfact>
</mgrwt>
</event>
<event>
 4    5  0.8511149E-008  0.1214699E+04  0.7818608E-02  0.9142965E-01
          2   -1    0    0  501    0  0.00000000000E+00  0.00000000000E+00  0.16656986567E+04  0.16656986567E+04  0.25500000000E-02 0. -1.
         -2   -1    0    0    0  501 -0.00000000000E+00 -0.00000000000E+00 -0.12476922926E+04  0.12476922926E+04  0.25500000000E-02 0.  1.
    8880023    1    1    2    0    0  0.57788032595E+03  0.84127114855E+03 -0.69180431314E+03  0.13978863439E+04  0.65864270000E+03 0.  1.
    8880022    1    1    2    0    0 -0.57788032595E+03 -0.84127114855E+03  0.11098106773E+04  0.15155046054E+04  0.15294330000E+03 0.  0.
<mgrwt>
<rscale>  0 0.11662024E+04</rscale>
<asrwt>0</asrwt>
<pdfrwt beam="1">  1        2 0.25626133E+00 0.12146987E+04</pdfrwt>
<pdfrwt beam="2">  1       -2 0.19195266E+00 0.12146987E+04</pdfrwt>
<totfact> 0.14929104E+00</totfact>
</mgrwt>
</event>
<event>
 4    5  0.8511149E-008  0.1832779E+04  0.7818608E-02  0.8704618E-01
         -2   -1    0    0    0  501 -0.00000000000E+00  0.00000000000E+00  0.15388482106E+04  0.15388482106E+04  0.25500000000E-02 0.  1.
          2   -1    0    0  501    0  0.00000000000E+00 -0.00000000000E+00 -0.46526673790E+04  0.46526673790E+04  0.25500000000E-02 0. -1.
    8880023    1    1    2    0    0 -0.69131046182E+03  0.15644032730E+04  0.73682242016E+03  0.19753443346E+04  0.65864270000E+03 0.  0.
    8880022    1    1    2    0    0  0.69131046182E+03 -0.15644032730E+04 -0.38506415885E+04  0.42161712550E+04  0.15294330000E+03 0.  0.
<mgrwt>
<rscale>  0 0.18031656E+04</rscale>
<asrwt>0</asrwt>
<pdfrwt beam="1">  1        2 0.71579498E+00 0.18327788E+04</pdfrwt>
<pdfrwt beam="2">  1       -2 0.23674588E+00 0.18327788E+04</pdfrwt>
<totfact> 0.61367377E-03</totfact>
</mgrwt>
</event>
<event>
 4    5  0.8511149E-008  0.9426709E+03  0.7818608E-02  0.9460738E-01
          2   -1    0    0  501    0  0.00000000000E+00  0.00000000000E+00  0.36798149467E+04  0.36798149467E+04  0.25500000000E-02 0. -1.
         -2   -1    0    0    0  501 -0.00000000000E+00 -0.00000000000E+00 -0.25942369261E+03  0.25942369262E+03  0.25500000000E-02 0.  1.
    8880023    1    1    2    0    0  0.57654978312E+03  0.34986946142E+03  0.29649703083E+04  0.31112179975E+04  0.65864270000E+03 0. -1.
    8880022    1    1    2    0    0 -0.57654978312E+03 -0.34986946142E+03  0.45542094579E+03  0.82802064185E+03  0.15294330000E+03 0.  0.
<mgrwt>
<rscale>  0 0.87241357E+03</rscale>
<asrwt>0</asrwt>
<pdfrwt beam="1">  1        2 0.56612541E+00 0.94267094E+03</pdfrwt>
<pdfrwt beam="2">  1       -2 0.39911335E-01 0.94267094E+03</pdfrwt>
<totfact> 0.37775407E+00</totfact>
</mgrwt>
</event>
<event>
 4    5  0.8511149E-008  0.1140846E+04  0.7818608E-02  0.9216886E-01
         -2   -1    0    0    0  501 -0.00000000000E+00  0.00000000000E+00  0.59161101025E+03  0.59161101026E+03  0.25500000000E-02 0.  1.
          2   -1    0    0  501    0  0.00000000000E+00 -0.00000000000E+00 -0.19083010819E+04  0.19083010819E+04  0.25500000000E-02 0. -1.
    8880023    1    1    2    0    0  0.79019311244E+03 -0.49326998187E+03 -0.47715833945E+03  0.12366125978E+04  0.65864270000E+03 0.  0.
    8880022    1    1    2    0    0 -0.79019311244E+03  0.49326998187E+03 -0.83953173217E+03  0.12632994943E+04  0.15294330000E+03 0.  0.
<mgrwt>
<rscale>  0 0.10880828E+04</rscale>
<asrwt>0</asrwt>
<pdfrwt beam="1">  1        2 0.29358478E+00 0.11408465E+04</pdfrwt>
<pdfrwt beam="2">  1       -2 0.91017079E-01 0.11408465E+04</pdfrwt>
<totfact> 0.76228088E+00</totfact>
</mgrwt>
</event>
<event>
 4    5  0.8511149E-008  0.8052810E+03  0.7818608E-02  0.9699492E-01
         -2   -1    0    0    0  501 -0.00000000000E+00  0.00000000000E+00  0.10542080464E+04  0.10542080464E+04  0.25500000000E-02 0.  1.
          2   -1    0    0  501    0  0.00000000000E+00 -0.00000000000E+00 -0.21671994116E+04  0.21671994116E+04  0.25500000000E-02 0. -1.
    8880023    1    1    2    0    0 -0.36352073854E+03  0.28726291435E+03  0.86635400343E+03  0.11828130769E+04  0.65864270000E+03 0.  1.
    8880022    1    1    2    0    0  0.36352073854E+03 -0.28726291435E+03 -0.19793453686E+04  0.20385943811E+04  0.15294330000E+03 0.  0.
<mgrwt>
<rscale>  0 0.71047068E+03</rscale>
<asrwt>0</asrwt>
<pdfrwt beam="1">  1        2 0.33341529E+00 0.80528102E+03</pdfrwt>
<pdfrwt beam="2">  1       -2 0.16218585E+00 0.80528102E+03</pdfrwt>
<totfact> 0.13502664E+00</totfact>
</mgrwt>
</event>
<event>
 4    5  0.8511149E-008  0.1022428E+04  0.7818608E-02  0.9352786E-01
         -2   -1    0    0    0  501 -0.00000000000E+00  0.00000000000E+00  0.11441973386E+04  0.11441973386E+04  0.25500000000E-02 0.  1.
          2   -1    0    0  501    0  0.00000000000E+00 -0.00000000000E+00 -0.18509073536E+04  0.18509073536E+04  0.25500000000E-02 0. -1.
    8880023    1    1    2    0    0  0.64585286558E+03  0.44093355209E+03  0.79496314253E+03  0.12951157962E+04  0.65864270000E+03 0.  0.
    8880022    1    1    2    0    0 -0.64585286558E+03 -0.44093355209E+03 -0.15016731576E+04  0.16999888960E+04  0.15294330000E+03 0.  0.
<mgrwt>
<rscale>  0 0.96065193E+03</rscale>
<asrwt>0</asrwt>
<pdfrwt beam="1">  1        2 0.28475498E+00 0.10224278E+04</pdfrwt>
<pdfrwt beam="2">  1       -2 0.17603036E+00 0.10224278E+04</pdfrwt>
<totfact> 0.15510726E+00</totfact>
</mgrwt>
</event>
<event>
 4    5  0.8511149E-008  0.8760196E+03  0.7818608E-02  0.9565679E-01
         -2   -1    0    0    0  501 -0.00000000000E+00  0.00000000000E+00  0.13729438125E+04  0.13729438125E+04  0.25500000000E-02 0.  1.
          2   -1    0    0  501    0  0.00000000000E+00 -0.00000000000E+00 -0.42480978162E+03  0.42480978163E+03  0.25500000000E-02 0. -1.
    8880023    1    1    2    0    0  0.99441477610E+02  0.56895656599E+03  0.79017046153E+03  0.11797371512E+04  0.65864270000E+03 0.  0.
    8880022    1    1    2    0    0 -0.99441477610E+02 -0.56895656599E+03  0.15796356936E+03  0.61801644291E+03  0.15294330000E+03 0.  0.
<mgrwt>
<rscale>  0 0.79610007E+03</rscale>
<asrwt>0</asrwt>
<pdfrwt beam="1">  1        2 0.65355350E-01 0.87601963E+03</pdfrwt>
<pdfrwt beam="2">  1       -2 0.21122213E+00 0.87601963E+03</pdfrwt>
<totfact> 0.84175904E+00</totfact>
</mgrwt>
</event>
<event>
 4    5  0.8511149E-008  0.7940115E+03  0.7818608E-02  0.9723897E-01
          2   -1    0    0  501    0  0.00000000000E+00  0.00000000000E+00  0.21055854359E+04  0.21055854359E+04  0.25500000000E-02 0. -1.
         -2   -1    0    0    0  501 -0.00000000000E+00 -0.00000000000E+00 -0.23214925611E+03  0.23214925612E+03  0.25500000000E-02 0.  1.
    8880023    1    1    2    0    0 -0.23540569805E+03 -0.37580336968E+03  0.64562630387E+03  0.10233706786E+04  0.65864270000E+03 0.  0.
    8880022    1    1    2    0    0  0.23540569805E+03  0.37580336968E+03  0.12278098760E+04  0.13143640135E+04  0.15294330000E+03 0.  0.
<mgrwt>
<rscale>  0 0.69611617E+03</rscale>
<asrwt>0</asrwt>
<pdfrwt beam="1">  1        2 0.32393623E+00 0.79401147E+03</pdfrwt>
<pdfrwt beam="2">  1       -2 0.35715269E-01 0.79401147E+03</pdfrwt>
<totfact> 0.44152670E+01</totfact>
</mgrwt>
</event>
<event>
 4    5  0.8511149E-008  0.7426354E+03  0.7818608E-02  0.9852336E-01
          2   -1    0    0  501    0  0.00000000000E+00  0.00000000000E+00  0.17482806804E+04  0.17482806804E+04  0.25500000000E-02 0. -1.
         -2   -1    0    0    0  501 -0.00000000000E+00 -0.00000000000E+00 -0.22773467567E+03  0.22773467568E+03  0.25500000000E-02 0.  1.
    8880023    1    1    2    0    0 -0.19642822002E+03  0.28127035931E+03  0.51808595760E+03  0.90549452034E+03  0.65864270000E+03 0.  0.
    8880022    1    1    2    0    0  0.19642822002E+03 -0.28127035931E+03  0.10024600471E+04  0.10705208358E+04  0.15294330000E+03 0.  0.
<mgrwt>
<rscale>  0 0.62627958E+03</rscale>
<asrwt>0</asrwt>
<pdfrwt beam="1">  1        2 0.26896626E+00 0.74263535E+03</pdfrwt>
<pdfrwt beam="2">  1       -2 0.35036103E-01 0.74263535E+03</pdfrwt>
<totfact> 0.72196731E+01</totfact>
</mgrwt>
</event>
<event>
 4    5  0.8511149E-008  0.1452285E+04  0.7818608E-02  0.8944086E-01
         -2   -1    0    0    0  501 -0.00000000000E+00  0.00000000000E+00  0.17622542333E+04  0.17622542333E+04  0.25500000000E-02 0.  1.
          2   -1    0    0  501    0  0.00000000000E+00 -0.00000000000E+00 -0.19609127931E+04  0.19609127931E+04  0.25500000000E-02 0. -1.
    8880023    1    1    2    0    0 -0.28715175353E+03 -0.12620871601E+04  0.11463972861E+04  0.18502316269E+04  0.65864270000E+03 0.  0.
    8880022    1    1    2    0    0  0.28715175353E+03  0.12620871601E+04 -0.13450558460E+04  0.18729353996E+04  0.15294330000E+03 0.  0.
<mgrwt>
<rscale>  0 0.14135258E+04</rscale>
<asrwt>0</asrwt>
<pdfrwt beam="1">  1        2 0.30167889E+00 0.14522845E+04</pdfrwt>
<pdfrwt beam="2">  1       -2 0.27111604E+00 0.14522845E+04</pdfrwt>
<totfact> 0.31599312E-01</totfact>
</mgrwt>
</event>
<event>
 4    5  0.8511149E-008  0.7229142E+03  0.7818608E-02  0.9912846E-01
          2   -1    0    0  501    0  0.00000000000E+00  0.00000000000E+00  0.61413490204E+03  0.61413490205E+03  0.25500000000E-02 0. -1.
         -2   -1    0    0    0  501 -0.00000000000E+00 -0.00000000000E+00 -0.75804741507E+03  0.75804741507E+03  0.25500000000E-02 0.  1.
    8880023    1    1    2    0    0 -0.11767383821E+03 -0.27376556138E+03 -0.50333988601E+03  0.88088362563E+03  0.65864270000E+03 0.  1.
    8880022    1    1    2    0    0  0.11767383821E+03  0.27376556138E+03  0.35942737298E+03  0.49129869149E+03  0.15294330000E+03 0.  0.
<mgrwt>
<rscale>  0 0.59642738E+03</rscale>
<asrwt>0</asrwt>
<pdfrwt beam="1">  1        2 0.94482293E-01 0.72291419E+03</pdfrwt>
<pdfrwt beam="2">  1       -2 0.11662268E+00 0.72291419E+03</pdfrwt>
<totfact> 0.27889353E+01</totfact>
</mgrwt>
</event>
<event>
 4    5  0.8511149E-008  0.1292476E+04  0.7818608E-02  0.9072085E-01
         -2   -1    0    0    0  501 -0.00000000000E+00  0.00000000000E+00  0.12863112684E+04  0.12863112684E+04  0.25500000000E-02 0.  1.
          2   -1    0    0  501    0  0.00000000000E+00 -0.00000000000E+00 -0.37915325709E+04  0.37915325709E+04  0.25500000000E-02 0. -1.
    8880023    1    1    2    0    0 -0.45996903342E+03 -0.10124783122E+04  0.84525166309E+03  0.15443265278E+04  0.65864270000E+03 0.  0.
    8880022    1    1    2    0    0  0.45996903342E+03  0.10124783122E+04 -0.33504729656E+04  0.35335173115E+04  0.15294330000E+03 0.  0.
<mgrwt>
<rscale>  0 0.12477179E+04</rscale>
<asrwt>0</asrwt>
<pdfrwt beam="1">  1        2 0.58331270E+00 0.12924759E+04</pdfrwt>
<pdfrwt beam="2">  1       -2 0.19789404E+00 0.12924759E+04</pdfrwt>
<totfact> 0.67331323E-02</totfact>
</mgrwt>
</event>
<event>
 4    5  0.8511149E-008  0.6806363E+03  0.7818608E-02  0.1008966E+00
          2   -1    0    0  501    0  0.00000000000E+00  0.00000000000E+00  0.11242410093E+04  0.11242410093E+04  0.25500000000E-02 0. -1.
         -2   -1    0    0    0  501 -0.00000000000E+00 -0.00000000000E+00 -0.11748219204E+04  0.11748219204E+04  0.25500000000E-02 0.  1.
    8880023    1    1    2    0    0 -0.16404184865E+03  0.50456044140E+02 -0.10622507035E+04  0.12616030691E+04  0.65864270000E+03 0.  1.
    8880022    1    1    2    0    0  0.16404184865E+03 -0.50456044140E+02  0.10116697924E+04  0.10374598606E+04  0.15294330000E+03 0.  0.
<mgrwt>
<rscale>  0 0.51887657E+03</rscale>
<asrwt>0</asrwt>
<pdfrwt beam="1">  1        2 0.17296016E+00 0.68063628E+03</pdfrwt>
<pdfrwt beam="2">  1       -2 0.18074183E+00 0.68063628E+03</pdfrwt>
<totfact> 0.39014441E+00</totfact>
</mgrwt>
</event>
<event>
 4    5  0.8511149E-008  0.7200033E+03  0.7818608E-02  0.9922575E-01
          2   -1    0    0  501    0  0.00000000000E+00  0.00000000000E+00  0.18324108260E+04  0.18324108260E+04  0.25500000000E-02 0. -1.
         -2   -1    0    0    0  501 -0.00000000000E+00 -0.00000000000E+00 -0.54416063727E+03  0.54416063727E+03  0.25500000000E-02 0.  1.
    8880023    1    1    2    0    0 -0.25227161943E+03  0.14475365914E+03 -0.28128978516E+03  0.77299983267E+03  0.65864270000E+03 0.  1.
    8880022    1    1    2    0    0  0.25227161943E+03 -0.14475365914E+03  0.15695399739E+04  0.16035716306E+04  0.15294330000E+03 0.  0.
<mgrwt>
<rscale>  0 0.59179588E+03</rscale>
<asrwt>0</asrwt>
<pdfrwt beam="1">  1        2 0.28190935E+00 0.72000333E+03</pdfrwt>
<pdfrwt beam="2">  1       -2 0.83717023E-01 0.72000333E+03</pdfrwt>
<totfact> 0.10697775E+01</totfact>
</mgrwt>
</event>
<event>
 4    5  0.8511149E-008  0.8166762E+03  0.7818608E-02  0.9675835E-01
         -2   -1    0    0    0  501 -0.00000000000E+00  0.00000000000E+00  0.46240770291E+03  0.46240770291E+03  0.25500000000E-02 0.  1.
          2   -1    0    0  501    0  0.00000000000E+00 -0.00000000000E+00 -0.17406079334E+04  0.17406079334E+04  0.25500000000E-02 0. -1.
    8880023    1    1    2    0    0  0.38953030910E+03  0.28533478347E+03  0.12203890007E+02  0.81676737298E+03  0.65864270000E+03 0.  0.
    8880022    1    1    2    0    0 -0.38953030910E+03 -0.28533478347E+03 -0.12904041205E+04  0.13862482633E+04  0.15294330000E+03 0.  0.
<mgrwt>
<rscale>  0 0.72473981E+03</rscale>
<asrwt>0</asrwt>
<pdfrwt beam="1">  1        2 0.26778583E+00 0.81667619E+03</pdfrwt>
<pdfrwt beam="2">  1       -2 0.71139647E-01 0.81667619E+03</pdfrwt>
<totfact> 0.17041130E+01</totfact>
</mgrwt>
</event>
<event>
 4    5  0.8511149E-008  0.6609072E+03  0.7818608E-02  0.1023246E+00
          2   -1    0    0  501    0  0.00000000000E+00  0.00000000000E+00  0.12740804397E+04  0.12740804397E+04  0.25500000000E-02 0. -1.
         -2   -1    0    0    0  501 -0.00000000000E+00 -0.00000000000E+00 -0.14268363783E+03  0.14268363785E+03  0.25500000000E-02 0.  1.
    8880023    1    1    2    0    0 -0.84277609371E+01  0.54009679150E+02  0.73533945319E+03  0.98869731985E+03  0.65864270000E+03 0.  1.
    8880022    1    1    2    0    0  0.84277609371E+01 -0.54009679150E+02  0.39605734871E+03  0.42806675774E+03  0.15294330000E+03 0. -1.
<mgrwt>
<rscale>  0 0.46533330E+03</rscale>
<asrwt>0</asrwt>
<pdfrwt beam="1">  1        2 0.19601238E+00 0.66090716E+03</pdfrwt>
<pdfrwt beam="2">  1       -2 0.21951328E-01 0.66090716E+03</pdfrwt>
<totfact> 0.31476640E+02</totfact>
</mgrwt>
</event>
<event>
 4    5  0.8511149E-008  0.9370248E+03  0.7818608E-02  0.9469034E-01
         -2   -1    0    0    0  501 -0.00000000000E+00  0.00000000000E+00  0.44531501173E+03  0.44531501174E+03  0.25500000000E-02 0.  1.
          2   -1    0    0  501    0  0.00000000000E+00 -0.00000000000E+00 -0.18716247365E+04  0.18716247365E+04  0.25500000000E-02 0. -1.
    8880023    1    1    2    0    0 -0.60672423835E+03 -0.27584581020E+03 -0.27271573897E+03  0.97590434621E+03  0.65864270000E+03 0.  1.
    8880022    1    1    2    0    0  0.60672423835E+03  0.27584581020E+03 -0.11535939858E+04  0.13410354021E+04  0.15294330000E+03 0.  0.
<mgrwt>
<rscale>  0 0.86605855E+03</rscale>
<asrwt>0</asrwt>
<pdfrwt beam="1">  1        2 0.28794226E+00 0.93702477E+03</pdfrwt>
<pdfrwt beam="2">  1       -2 0.68510003E-01 0.93702477E+03</pdfrwt>
<totfact> 0.15466506E+01</totfact>
</mgrwt>
</event>
<event>
 4    5  0.8511149E-008  0.9602020E+03  0.7818608E-02  0.9435585E-01
          2   -1    0    0  501    0  0.00000000000E+00  0.00000000000E+00  0.32620062642E+04  0.32620062642E+04  0.25500000000E-02 0. -1.
         -2   -1    0    0    0  501 -0.00000000000E+00 -0.00000000000E+00 -0.67413956954E+03  0.67413956954E+03  0.25500000000E-02 0.  1.
    8880023    1    1    2    0    0  0.39781852544E+03 -0.57438497453E+03 -0.26409982651E+03  0.99585973047E+03  0.65864270000E+03 0.  1.
    8880022    1    1    2    0    0 -0.39781852544E+03  0.57438497453E+03  0.28519665212E+04  0.29402861033E+04  0.15294330000E+03 0.  0.
<mgrwt>
<rscale>  0 0.89204141E+03</rscale>
<asrwt>0</asrwt>
<pdfrwt beam="1">  1        2 0.50184711E+00 0.96020200E+03</pdfrwt>
<pdfrwt beam="2">  1       -2 0.10371378E+00 0.96020200E+03</pdfrwt>
<totfact> 0.92368424E-01</totfact>
</mgrwt>
</event>
<event>
 4    5  0.9629018E-008  0.1048619E+04  0.7818608E-02  0.9320543E-01
         -2   -1    0    0    0  501 -0.00000000000E+00  0.00000000000E+00  0.14945481110E+04  0.14945481110E+04  0.25500000000E-02 0.  1.
          2   -1    0    0  501    0  0.00000000000E+00 -0.00000000000E+00 -0.21692838713E+04  0.21692838713E+04  0.25500000000E-02 0. -1.
    8880023    1    1    2    0    0  0.80379977889E+03  0.14034901853E+03  0.12119186927E+04  0.16026069560E+04  0.65864270000E+03 0.  1.
    8880022    1    1    2    0    0 -0.80379977889E+03 -0.14034901853E+03 -0.18866544529E+04  0.20612250263E+04  0.15294330000E+03 0.  0.
<mgrwt>
<rscale>  0 0.98913417E+03</rscale>
<asrwt>0</asrwt>
<pdfrwt beam="1">  1        2 0.33373598E+00 0.10486192E+04</pdfrwt>
<pdfrwt beam="2">  1       -2 0.22993048E+00 0.10486192E+04</pdfrwt>
<totfact> 0.45773338E-01</totfact>
</mgrwt>
</event>
<event>
 4    5  0.8511149E-008  0.6739126E+03  0.7818608E-02  0.1013001E+00
          2   -1    0    0  501    0  0.00000000000E+00  0.00000000000E+00  0.15895583520E+04  0.15895583520E+04  0.25500000000E-02 0. -1.
         -2   -1    0    0    0  501 -0.00000000000E+00 -0.00000000000E+00 -0.25138383533E+03  0.25138383534E+03  0.25500000000E-02 0.  1.
    8880023    1    1    2    0    0 -0.30714720021E+02 -0.13930060026E+03  0.22829728111E+03  0.71153208366E+03  0.65864270000E+03 0.  1.
    8880022    1    1    2    0    0  0.30714720021E+02  0.13930060026E+03  0.11098772356E+04  0.11294101037E+04  0.15294330000E+03 0.  0.
<mgrwt>
<rscale>  0 0.50299328E+03</rscale>
<asrwt>0</asrwt>
<pdfrwt beam="1">  1        2 0.24454743E+00 0.67391265E+03</pdfrwt>
<pdfrwt beam="2">  1       -2 0.38674437E-01 0.67391265E+03</pdfrwt>
<totfact> 0.73499834E+01</totfact>
</mgrwt>
</event>
<event>
 4    5  0.8511149E-008  0.7581948E+03  0.7818608E-02  0.9809804E-01
          2   -1    0    0  501    0  0.00000000000E+00  0.00000000000E+00  0.14229733497E+04  0.14229733497E+04  0.25500000000E-02 0. -1.
         -2   -1    0    0    0  501 -0.00000000000E+00 -0.00000000000E+00 -0.29113583375E+03  0.29113583376E+03  0.25500000000E-02 0.  1.
    8880023    1    1    2    0    0 -0.30478435265E+03 -0.21944387737E+03  0.35367906357E+03  0.83662907146E+03  0.65864270000E+03 0. -1.
    8880022    1    1    2    0    0  0.30478435265E+03  0.21944387737E+03  0.77815845239E+03  0.87748011201E+03  0.15294330000E+03 0.  0.
<mgrwt>
<rscale>  0 0.64839070E+03</rscale>
<asrwt>0</asrwt>
<pdfrwt beam="1">  1        2 0.21891898E+00 0.75819478E+03</pdfrwt>
<pdfrwt beam="2">  1       -2 0.44790127E-01 0.75819478E+03</pdfrwt>
<totfact> 0.67600378E+01</totfact>
</mgrwt>
</event>
<event>
 4    5  0.8511149E-008  0.8050799E+03  0.7818608E-02  0.9699918E-01
          2   -1    0    0  501    0  0.00000000000E+00  0.00000000000E+00  0.16975445085E+04  0.16975445085E+04  0.25500000000E-02 0. -1.
         -2   -1    0    0    0  501 -0.00000000000E+00 -0.00000000000E+00 -0.13352714140E+04  0.13352714140E+04  0.25500000000E-02 0.  1.
    8880023    1    1    2    0    0 -0.44093035844E+03 -0.14115181832E+03 -0.11725924129E+04  0.14223665456E+04  0.65864270000E+03 0.  0.
    8880022    1    1    2    0    0  0.44093035844E+03  0.14115181832E+03  0.15348655074E+04  0.16104493769E+04  0.15294330000E+03 0.  0.
<mgrwt>
<rscale>  0 0.71021671E+03</rscale>
<asrwt>0</asrwt>
<pdfrwt beam="1">  1        2 0.26116069E+00 0.80507989E+03</pdfrwt>
<pdfrwt beam="2">  1       -2 0.20542637E+00 0.80507989E+03</pdfrwt>
<totfact> 0.12383266E+00</totfact>
</mgrwt>
</event>
<event>
 4    5  0.8511149E-008  0.8522259E+03  0.7818608E-02  0.9607544E-01
         -2   -1    0    0    0  501 -0.00000000000E+00  0.00000000000E+00  0.29292794458E+03  0.29292794460E+03  0.25500000000E-02 0.  1.
          2   -1    0    0  501    0  0.00000000000E+00 -0.00000000000E+00 -0.21145745745E+04  0.21145745745E+04  0.25500000000E-02 0. -1.
    8880023    1    1    2    0    0  0.47481946690E+03 -0.25889243053E+03 -0.54227167842E+03  0.10101225649E+04  0.65864270000E+03 0.  1.
    8880022    1    1    2    0    0 -0.47481946690E+03  0.25889243053E+03 -0.12793749514E+04  0.13973799541E+04  0.15294330000E+03 0.  0.
<mgrwt>
<rscale>  0 0.76798844E+03</rscale>
<asrwt>0</asrwt>
<pdfrwt beam="1">  1        2 0.32531916E+00 0.85222592E+03</pdfrwt>
<pdfrwt beam="2">  1       -2 0.45065839E-01 0.85222592E+03</pdfrwt>
<totfact> 0.27517385E+01</totfact>
</mgrwt>
</event>
<event>
 4    5  0.1273065E-007  0.1347855E+04  0.7818608E-02  0.9025298E-01
         -2   -1    0    0    0  501 -0.00000000000E+00  0.00000000000E+00  0.18716421173E+04  0.18716421173E+04  0.25500000000E-02 0.  1.
          2   -1    0    0  501    0  0.00000000000E+00 -0.00000000000E+00 -0.38990147514E+04  0.38990147514E+04  0.25500000000E-02 0. -1.
    8880023    1    1    2    0    0  0.11329541891E+04 -0.31514536578E+03  0.15192850268E+04  0.20309945827E+04  0.65864270000E+03 0.  0.
    8880022    1    1    2    0    0 -0.11329541891E+04  0.31514536578E+03 -0.35466576609E+04  0.37396622860E+04  0.15294330000E+03 0.  0.
<mgrwt>
<rscale>  0 0.13053945E+04</rscale>
<asrwt>0</asrwt>
<pdfrwt beam="1">  1        2 0.59984842E+00 0.13478546E+04</pdfrwt>
<pdfrwt beam="2">  1       -2 0.28794494E+00 0.13478546E+04</pdfrwt>
<totfact> 0.15173583E-02</totfact>
</mgrwt>
</event>
<event>
 4    5  0.8511149E-008  0.8149446E+03  0.7818608E-02  0.9679368E-01
         -2   -1    0    0    0  501 -0.00000000000E+00  0.00000000000E+00  0.16910218166E+04  0.16910218166E+04  0.25500000000E-02 0.  1.
          2   -1    0    0  501    0  0.00000000000E+00 -0.00000000000E+00 -0.12688527314E+04  0.12688527314E+04  0.25500000000E-02 0. -1.
    8880023    1    1    2    0    0 -0.43654372793E+03  0.19938409883E+03  0.15352437293E+04  0.17381334701E+04  0.65864270000E+03 0.  1.
    8880022    1    1    2    0    0  0.43654372793E+03 -0.19938409883E+03 -0.11130746440E+04  0.12217410779E+04  0.15294330000E+03 0.  0.
<mgrwt>
<rscale>  0 0.72258602E+03</rscale>
<asrwt>0</asrwt>
<pdfrwt beam="1">  1        2 0.19520811E+00 0.81494457E+03</pdfrwt>
<pdfrwt beam="2">  1       -2 0.26015720E+00 0.81494457E+03</pdfrwt>
<totfact> 0.98673719E-01</totfact>
</mgrwt>
</event>
<event>
 4    5  0.8511149E-008  0.1025914E+04  0.7818608E-02  0.9348413E-01
         -2   -1    0    0    0  501 -0.00000000000E+00  0.00000000000E+00  0.23992508701E+04  0.23992508701E+04  0.25500000000E-02 0.  1.
          2   -1    0    0  501    0  0.00000000000E+00 -0.00000000000E+00 -0.75038719699E+03  0.75038719699E+03  0.25500000000E-02 0. -1.
    8880023    1    1    2    0    0  0.82449679846E+02  0.78223477586E+03  0.20207406201E+04  0.22662506600E+04  0.65864270000E+03 0.  1.
    8880022    1    1    2    0    0 -0.82449679846E+02 -0.78223477586E+03 -0.37187694696E+03  0.88338740706E+03  0.15294330000E+03 0.  0.
<mgrwt>
<rscale>  0 0.96445487E+03</rscale>
<asrwt>0</asrwt>
<pdfrwt beam="1">  1        2 0.11544418E+00 0.10259139E+04</pdfrwt>
<pdfrwt beam="2">  1       -2 0.36911553E+00 0.10259139E+04</pdfrwt>
<totfact> 0.44560416E-01</totfact>
</mgrwt>
</event>
<event>
 4    5  0.8511149E-008  0.1314525E+04  0.7818608E-02  0.9053117E-01
          2   -1    0    0  501    0  0.00000000000E+00  0.00000000000E+00  0.29150253645E+04  0.29150253645E+04  0.25500000000E-02 0. -1.
         -2   -1    0    0    0  501 -0.00000000000E+00 -0.00000000000E+00 -0.67291882753E+03  0.67291882753E+03  0.25500000000E-02 0.  1.
    8880023    1    1    2    0    0 -0.67805919751E+03 -0.91345542261E+03  0.32602073045E+03  0.13543503267E+04  0.65864270000E+03 0.  0.
    8880022    1    1    2    0    0  0.67805919751E+03  0.91345542261E+03  0.19160858066E+04  0.22335938654E+04  0.15294330000E+03 0.  0.
<mgrwt>
<rscale>  0 0.12707138E+04</rscale>
<asrwt>0</asrwt>
<pdfrwt beam="1">  1        2 0.44846545E+00 0.13145247E+04</pdfrwt>
<pdfrwt beam="2">  1       -2 0.10352597E+00 0.13145247E+04</pdfrwt>
<totfact> 0.14578234E+00</totfact>
</mgrwt>
</event>
<event>
 4    5  0.8511149E-008  0.7534923E+03  0.7818608E-02  0.9822256E-01
         -2   -1    0    0    0  501 -0.00000000000E+00  0.00000000000E+00  0.35932453370E+03  0.35932453371E+03  0.25500000000E-02 0.  1.
          2   -1    0    0  501    0  0.00000000000E+00 -0.00000000000E+00 -0.34422228195E+04  0.34422228195E+04  0.25500000000E-02 0. -1.
    8880023    1    1    2    0    0 -0.43835617182E+01  0.36595251538E+03 -0.63451878326E+02  0.75615924662E+03  0.65864270000E+03 0.  1.
    8880022    1    1    2    0    0  0.43835617182E+01 -0.36595251538E+03 -0.30194464074E+04  0.30453881065E+04  0.15294330000E+03 0.  0.
<mgrwt>
<rscale>  0 0.64181711E+03</rscale>
<asrwt>0</asrwt>
<pdfrwt beam="1">  1        2 0.52957272E+00 0.75349231E+03</pdfrwt>
<pdfrwt beam="2">  1       -2 0.55280700E-01 0.75349231E+03</pdfrwt>
<totfact> 0.29713542E+00</totfact>
</mgrwt>
</event>
<event>
 4    5  0.8511149E-008  0.9634396E+03  0.7818608E-02  0.9431035E-01
         -2   -1    0    0    0  501 -0.00000000000E+00  0.00000000000E+00  0.15823085337E+04  0.15823085337E+04  0.25500000000E-02 0.  1.
          2   -1    0    0  501    0  0.00000000000E+00 -0.00000000000E+00 -0.54163289369E+03  0.54163289369E+03  0.25500000000E-02 0. -1.
    8880023    1    1    2    0    0 -0.33938206898E+03  0.61581285748E+03  0.10214144674E+04  0.14041023413E+04  0.65864270000E+03 0.  0.
    8880022    1    1    2    0    0  0.33938206898E+03 -0.61581285748E+03  0.19261172614E+02  0.71983908617E+03  0.15294330000E+03 0.  0.
<mgrwt>
<rscale>  0 0.89565003E+03</rscale>
<asrwt>0</asrwt>
<pdfrwt beam="1">  1        2 0.83328139E-01 0.96343960E+03</pdfrwt>
<pdfrwt beam="2">  1       -2 0.24343208E+00 0.96343960E+03</pdfrwt>
<totfact> 0.39646302E+00</totfact>
</mgrwt>
</event>
<event>
 4    5  0.8511149E-008  0.8794793E+03  0.7818608E-02  0.9559811E-01
          2   -1    0    0  501    0  0.00000000000E+00  0.00000000000E+00  0.25306597070E+04  0.25306597070E+04  0.25500000000E-02 0. -1.
         -2   -1    0    0    0  501 -0.00000000000E+00 -0.00000000000E+00 -0.59568797992E+03  0.59568797993E+03  0.25500000000E-02 0.  1.
    8880023    1    1    2    0    0 -0.42438788206E+03 -0.39946038531E+03 -0.20509163274E+03  0.90307610862E+03  0.65864270000E+03 0.  1.
    8880022    1    1    2    0    0  0.42438788206E+03  0.39946038531E+03  0.21400633599E+04  0.22232715783E+04  0.15294330000E+03 0.  0.
<mgrwt>
<rscale>  0 0.80014247E+03</rscale>
<asrwt>0</asrwt>
<pdfrwt beam="1">  1        2 0.38933225E+00 0.87947932E+03</pdfrwt>
<pdfrwt beam="2">  1       -2 0.91644307E-01 0.87947932E+03</pdfrwt>
<totfact> 0.34807661E+00</totfact>
</mgrwt>
</event>
<event>
 4    5  0.8511149E-008  0.1301096E+04  0.7818608E-02  0.9064614E-01
         -2   -1    0    0    0  501 -0.00000000000E+00  0.00000000000E+00  0.54115129467E+03  0.54115129468E+03  0.25500000000E-02 0.  1.
          2   -1    0    0  501    0  0.00000000000E+00 -0.00000000000E+00 -0.27545459374E+04  0.27545459374E+04  0.25500000000E-02 0. -1.
    8880023    1    1    2    0    0  0.91660909321E+03  0.64719968410E+03 -0.13181679068E+04  0.18521383581E+04  0.65864270000E+03 0.  0.
    8880022    1    1    2    0    0 -0.91660909321E+03 -0.64719968410E+03 -0.89522673593E+03  0.14435588740E+04  0.15294330000E+03 0.  0.
<mgrwt>
<rscale>  0 0.12567132E+04</rscale>
<asrwt>0</asrwt>
<pdfrwt beam="1">  1        2 0.42377629E+00 0.13010956E+04</pdfrwt>
<pdfrwt beam="2">  1       -2 0.83254047E-01 0.13010956E+04</pdfrwt>
<totfact> 0.30424015E+00</totfact>
</mgrwt>
</event>
<event>
 4    5  0.8511149E-008  0.7645585E+03  0.7818608E-02  0.9793446E-01
          2   -1    0    0  501    0  0.00000000000E+00  0.00000000000E+00  0.10822184648E+04  0.10822184648E+04  0.25500000000E-02 0. -1.
         -2   -1    0    0    0  501 -0.00000000000E+00 -0.00000000000E+00 -0.90245101702E+03  0.90245101702E+03  0.25500000000E-02 0.  1.
    8880023    1    1    2    0    0 -0.12304210821E+03  0.36823931730E+03 -0.68369202603E+03  0.10256629797E+04  0.65864270000E+03 0.  1.
    8880022    1    1    2    0    0  0.12304210821E+03 -0.36823931730E+03  0.86345947377E+03  0.95900650209E+03  0.15294330000E+03 0.  0.
<mgrwt>
<rscale>  0 0.65715472E+03</rscale>
<asrwt>0</asrwt>
<pdfrwt beam="1">  1        2 0.16649515E+00 0.76455854E+03</pdfrwt>
<pdfrwt beam="2">  1       -2 0.13883862E+00 0.76455854E+03</pdfrwt>
<totfact> 0.83408421E+00</totfact>
</mgrwt>
</event>
<event>
 4    5  0.8511149E-008  0.6708327E+03  0.7818608E-02  0.1015073E+00
          2   -1    0    0  501    0  0.00000000000E+00  0.00000000000E+00  0.18966197014E+04  0.18966197014E+04  0.25500000000E-02 0. -1.
         -2   -1    0    0    0  501 -0.00000000000E+00 -0.00000000000E+00 -0.15331573584E+03  0.15331573586E+03  0.25500000000E-02 0.  1.
    8880023    1    1    2    0    0 -0.55439305795E+02 -0.11459844517E+03  0.63433265919E+03  0.92325210481E+03  0.65864270000E+03 0.  1.
    8880022    1    1    2    0    0  0.55439305795E+02  0.11459844517E+03  0.11089713064E+04  0.11266833325E+04  0.15294330000E+03 0.  0.
<mgrwt>
<rscale>  0 0.49507363E+03</rscale>
<asrwt>0</asrwt>
<pdfrwt beam="1">  1        2 0.29178765E+00 0.67083271E+03</pdfrwt>
<pdfrwt beam="2">  1       -2 0.23587036E-01 0.67083271E+03</pdfrwt>
<totfact> 0.12526206E+02</totfact>
</mgrwt>
</event>
<event>
 4    5  0.8511149E-008  0.7094183E+03  0.7818608E-02  0.9960167E-01
         -2   -1    0    0    0  501 -0.00000000000E+00  0.00000000000E+00  0.32861481171E+03  0.32861481172E+03  0.25500000000E-02 0.  1.
          2   -1    0    0  501    0  0.00000000000E+00 -0.00000000000E+00 -0.14379809833E+04  0.14379809833E+04  0.25500000000E-02 0. -1.
    8880023    1    1    2    0    0  0.37936089450E+02  0.26081589474E+03 -0.10515495147E+03  0.71716933002E+03  0.65864270000E+03 0.  0.
    8880022    1    1    2    0    0 -0.37936089450E+02 -0.26081589474E+03 -0.10042112201E+04  0.10494264650E+04  0.15294330000E+03 0.  0.
<mgrwt>
<rscale>  0 0.57431858E+03</rscale>
<asrwt>0</asrwt>
<pdfrwt beam="1">  1        2 0.22122784E+00 0.70941827E+03</pdfrwt>
<pdfrwt beam="2">  1       -2 0.50556126E-01 0.70941827E+03</pdfrwt>
<totfact> 0.52199876E+01</totfact>
</mgrwt>
</event>
<event>
 4    5  0.8511149E-008  0.9058696E+03  0.7818608E-02  0.9516674E-01
          2   -1    0    0  501    0  0.00000000000E+00  0.00000000000E+00  0.13633497766E+04  0.13633497766E+04  0.25500000000E-02 0. -1.
         -2   -1    0    0    0  501 -0.00000000000E+00 -0.00000000000E+00 -0.20567772326E+04  0.20567772326E+04  0.25500000000E-02 0.  1.
    8880023    1    1    2    0    0 -0.41135350659E+03  0.46645245517E+03 -0.18715049583E+04  0.20792139417E+04  0.65864270000E+03 0.  1.
    8880022    1    1    2    0    0  0.41135350659E+03 -0.46645245517E+03  0.11780775022E+04  0.13409130675E+04  0.15294330000E+03 0.  0.
<mgrwt>
<rscale>  0 0.83065609E+03</rscale>
<asrwt>0</asrwt>
<pdfrwt beam="1">  1        2 0.20974612E+00 0.90586964E+03</pdfrwt>
<pdfrwt beam="2">  1       -2 0.31642727E+00 0.90586964E+03</pdfrwt>
<totfact> 0.39170209E-01</totfact>
</mgrwt>
</event>
<event>
 4    5  0.8511149E-008  0.8404554E+03  0.7818608E-02  0.9629322E-01
         -2   -1    0    0    0  501 -0.00000000000E+00  0.00000000000E+00  0.68393021619E+03  0.68393021619E+03  0.25500000000E-02 0.  1.
          2   -1    0    0  501    0  0.00000000000E+00 -0.00000000000E+00 -0.11874338150E+04  0.11874338150E+04  0.25500000000E-02 0. -1.
    8880023    1    1    2    0    0  0.21021067514E+03  0.47787709855E+03  0.30738053449E+03  0.89490113896E+03  0.65864270000E+03 0.  1.
    8880022    1    1    2    0    0 -0.21021067514E+03 -0.47787709855E+03 -0.81088413330E+03  0.97646289223E+03  0.15294330000E+03 0.  0.
<mgrwt>
<rscale>  0 0.75385477E+03</rscale>
<asrwt>0</asrwt>
<pdfrwt beam="1">  1        2 0.18268212E+00 0.84045539E+03</pdfrwt>
<pdfrwt beam="2">  1       -2 0.10522003E+00 0.84045539E+03</pdfrwt>
<totfact> 0.14223111E+01</totfact>
</mgrwt>
</event>
<event>
 4    5  0.8511149E-008  0.7878540E+03  0.7818608E-02  0.9737701E-01
         -2   -1    0    0    0  501 -0.00000000000E+00  0.00000000000E+00  0.88019206755E+03  0.88019206756E+03  0.25500000000E-02 0.  1.
          2   -1    0    0  501    0  0.00000000000E+00 -0.00000000000E+00 -0.94629974527E+03  0.94629974528E+03  0.25500000000E-02 0. -1.
    8880023    1    1    2    0    0  0.17668808070E+03 -0.39456942577E+03  0.61909420951E+03  0.10019937905E+04  0.65864270000E+03 0.  0.
    8880022    1    1    2    0    0 -0.17668808070E+03  0.39456942577E+03 -0.68520188723E+03  0.82449802237E+03  0.15294330000E+03 0.  0.
<mgrwt>
<rscale>  0 0.68815777E+03</rscale>
<asrwt>0</asrwt>
<pdfrwt beam="1">  1        2 0.14558458E+00 0.78785399E+03</pdfrwt>
<pdfrwt beam="2">  1       -2 0.13541416E+00 0.78785399E+03</pdfrwt>
<totfact> 0.10821526E+01</totfact>
</mgrwt>
</event>
<event>
 4    5  0.8511149E-008  0.6623825E+03  0.7818608E-02  0.1021838E+00
          2   -1    0    0  501    0  0.00000000000E+00  0.00000000000E+00  0.87965051947E+03  0.87965051948E+03  0.25500000000E-02 0. -1.
         -2   -1    0    0    0  501 -0.00000000000E+00 -0.00000000000E+00 -0.20477560238E+03  0.20477560240E+03  0.25500000000E-02 0.  1.
    8880023    1    1    2    0    0  0.90306949109E+01 -0.69705622658E+02  0.43899969653E+03  0.79465172692E+03  0.65864270000E+03 0. -1.
    8880022    1    1    2    0    0 -0.90306949109E+01  0.69705622658E+02  0.23587522056E+03  0.28977439495E+03  0.15294330000E+03 0.  0.
<mgrwt>
<rscale>  0 0.47029078E+03</rscale>
<asrwt>0</asrwt>
<pdfrwt beam="1">  1        2 0.13533085E+00 0.66238254E+03</pdfrwt>
<pdfrwt beam="2">  1       -2 0.31503939E-01 0.66238254E+03</pdfrwt>
<totfact> 0.28660763E+02</totfact>
</mgrwt>
</event>
<event>
 4    5  0.8511149E-008  0.1114636E+04  0.7818608E-02  0.9244933E-01
          2   -1    0    0  501    0  0.00000000000E+00  0.00000000000E+00  0.11140030645E+04  0.11140030645E+04  0.25500000000E-02 0. -1.
         -2   -1    0    0    0  501 -0.00000000000E+00 -0.00000000000E+00 -0.12756874995E+04  0.12756874995E+04  0.25500000000E-02 0.  1.
    8880023    1    1    2    0    0  0.74197211674E+03 -0.50801630565E+03 -0.71367449173E+03  0.13235349165E+04  0.65864270000E+03 0.  0.
    8880022    1    1    2    0    0 -0.74197211674E+03  0.50801630565E+03  0.55199005678E+03  0.10661556475E+04  0.15294330000E+03 0.  0.
<mgrwt>
<rscale>  0 0.10601440E+04</rscale>
<asrwt>0</asrwt>
<pdfrwt beam="1">  1        2 0.17138509E+00 0.11146360E+04</pdfrwt>
<pdfrwt beam="2">  1       -2 0.19625961E+00 0.11146360E+04</pdfrwt>
<totfact> 0.29459923E+00</totfact>
</mgrwt>
</event>
<event>
 4    5  0.8511149E-008  0.6681971E+03  0.7818608E-02  0.1016990E+00
          2   -1    0    0  501    0  0.00000000000E+00  0.00000000000E+00  0.59402407587E+03  0.59402407588E+03  0.25500000000E-02 0. -1.
         -2   -1    0    0    0  501 -0.00000000000E+00 -0.00000000000E+00 -0.42658080826E+03  0.42658080827E+03  0.25500000000E-02 0.  1.
    8880023    1    1    2    0    0  0.11887067146E+02  0.11196366375E+03 -0.11722220188E+03  0.67840136736E+03  0.65864270000E+03 0.  1.
    8880022    1    1    2    0    0 -0.11887067146E+02 -0.11196366375E+03  0.28466546949E+03  0.34220351678E+03  0.15294330000E+03 0.  0.
<mgrwt>
<rscale>  0 0.48788777E+03</rscale>
<asrwt>0</asrwt>
<pdfrwt beam="1">  1        2 0.91388319E-01 0.66819710E+03</pdfrwt>
<pdfrwt beam="2">  1       -2 0.65627817E-01 0.66819710E+03</pdfrwt>
<totfact> 0.10908093E+02</totfact>
</mgrwt>
</event>
<event>
 4    5  0.8511149E-008  0.6848089E+03  0.7818608E-02  0.1006725E+00
         -2   -1    0    0    0  501 -0.00000000000E+00  0.00000000000E+00  0.29627729921E+03  0.29627729922E+03  0.25500000000E-02 0.  1.
          2   -1    0    0  501    0  0.00000000000E+00 -0.00000000000E+00 -0.16532741902E+04  0.16532741902E+04  0.25500000000E-02 0. -1.
    8880023    1    1    2    0    0  0.85505364458E+02 -0.16685885206E+03 -0.12763110316E+03  0.69660099671E+03  0.65864270000E+03 0.  0.
    8880022    1    1    2    0    0 -0.85505364458E+02  0.16685885206E+03 -0.12293657878E+04  0.12529504927E+04  0.15294330000E+03 0.  0.
<mgrwt>
<rscale>  0 0.52797456E+03</rscale>
<asrwt>0</asrwt>
<pdfrwt beam="1">  1        2 0.25434987E+00 0.68480892E+03</pdfrwt>
<pdfrwt beam="2">  1       -2 0.45581124E-01 0.68480892E+03</pdfrwt>
<totfact> 0.49041600E+01</totfact>
</mgrwt>
</event>
<event>
 4    5  0.8511149E-008  0.1243493E+04  0.7818608E-02  0.9115961E-01
          2   -1    0    0  501    0  0.00000000000E+00  0.00000000000E+00  0.28215243222E+04  0.28215243222E+04  0.25500000000E-02 0. -1.
         -2   -1    0    0    0  501 -0.00000000000E+00 -0.00000000000E+00 -0.10996296554E+04  0.10996296554E+04  0.25500000000E-02 0.  1.
    8880023    1    1    2    0    0  0.74238413876E+03 -0.74922046461E+03 -0.58930126332E+03  0.13760638427E+04  0.65864270000E+03 0.  1.
    8880022    1    1    2    0    0 -0.74238413876E+03  0.74922046461E+03  0.23111959301E+04  0.25450901349E+04  0.15294330000E+03 0.  0.
<mgrwt>
<rscale>  0 0.11964597E+04</rscale>
<asrwt>0</asrwt>
<pdfrwt beam="1">  1        2 0.43408065E+00 0.12434934E+04</pdfrwt>
<pdfrwt beam="2">  1       -2 0.16917380E+00 0.12434934E+04</pdfrwt>
<totfact> 0.47256388E-01</totfact>
</mgrwt>
</event>
<event>
 4    5  0.8511149E-008  0.1375994E+04  0.7818608E-02  0.9002564E-01
          2   -1    0    0  501    0  0.00000000000E+00  0.00000000000E+00  0.36440860378E+04  0.36440860378E+04  0.25500000000E-02 0. -1.
         -2   -1    0    0    0  501 -0.00000000000E+00 -0.00000000000E+00 -0.64968275691E+03  0.64968275692E+03  0.25500000000E-02 0.  1.
    8880023    1    1    2    0    0 -0.11548672694E+04  0.35472676746E+03  0.40829791610E+03  0.14352933094E+04  0.65864270000E+03 0.  0.
    8880022    1    1    2    0    0  0.11548672694E+04 -0.35472676746E+03  0.25861053648E+04  0.28584754854E+04  0.15294330000E+03 0.  0.
<mgrwt>
<rscale>  0 0.13346055E+04</rscale>
<asrwt>0</asrwt>
<pdfrwt beam="1">  1        2 0.56062863E+00 0.13759941E+04</pdfrwt>
<pdfrwt beam="2">  1       -2 0.99951192E-01 0.13759941E+04</pdfrwt>
<totfact> 0.51950375E-01</totfact>
</mgrwt>
</event>
<event>
 4    5  0.8511149E-008  0.9891040E+03  0.7818608E-02  0.9395954E-01
         -2   -1    0    0    0  501 -0.00000000000E+00  0.00000000000E+00  0.36418862500E+03  0.36418862501E+03  0.25500000000E-02 0.  1.
          2   -1    0    0  501    0  0.00000000000E+00 -0.00000000000E+00 -0.28158232723E+04  0.28158232723E+04  0.25500000000E-02 0. -1.
    8880023    1    1    2    0    0  0.42163077898E+03  0.60559398563E+03 -0.54380488359E+03  0.11287384759E+04  0.65864270000E+03 0.  1.
    8880022    1    1    2    0    0 -0.42163077898E+03 -0.60559398563E+03 -0.19078297637E+04  0.20512734214E+04  0.15294330000E+03 0.  0.
<mgrwt>
<rscale>  0 0.92409422E+03</rscale>
<asrwt>0</asrwt>
<pdfrwt beam="1">  1        2 0.43320357E+00 0.98910404E+03</pdfrwt>
<pdfrwt beam="2">  1       -2 0.56029021E-01 0.98910404E+03</pdfrwt>
<totfact> 0.69013055E+00</totfact>
</mgrwt>
</event>
<event>
 4    5  0.8511149E-008  0.1007315E+04  0.7818608E-02  0.9372049E-01
         -2   -1    0    0    0  501 -0.00000000000E+00  0.00000000000E+00  0.35238120118E+03  0.35238120119E+03  0.25500000000E-02 0.  1.
          2   -1    0    0  501    0  0.00000000000E+00 -0.00000000000E+00 -0.31329486737E+04  0.31329486737E+04  0.25500000000E-02 0. -1.
    8880023    1    1    2    0    0 -0.34545116791E+03 -0.67936549243E+03 -0.60494973203E+03  0.11750099430E+04  0.65864270000E+03 0.  1.
    8880022    1    1    2    0    0  0.34545116791E+03  0.67936549243E+03 -0.21756177405E+04  0.23103199318E+04  0.15294330000E+03 0.  0.
<mgrwt>
<rscale>  0 0.94412081E+03</rscale>
<asrwt>0</asrwt>
<pdfrwt beam="1">  1        2 0.48199208E+00 0.10073153E+04</pdfrwt>
<pdfrwt beam="2">  1       -2 0.54212495E-01 0.10073153E+04</pdfrwt>
<totfact> 0.47081294E+00</totfact>
</mgrwt>
</event>
<event>
 4    5  0.8511149E-008  0.8598186E+03  0.7818608E-02  0.9593886E-01
         -2   -1    0    0    0  501 -0.00000000000E+00  0.00000000000E+00  0.48670356872E+03  0.48670356873E+03  0.25500000000E-02 0.  1.
          2   -1    0    0  501    0  0.00000000000E+00 -0.00000000000E+00 -0.13890076733E+04  0.13890076733E+04  0.25500000000E-02 0. -1.
    8880023    1    1    2    0    0 -0.43093755662E+03 -0.34607889497E+03 -0.66903192893E+02  0.86241754547E+03  0.65864270000E+03 0.  1.
    8880022    1    1    2    0    0  0.43093755662E+03  0.34607889497E+03 -0.83540091170E+03  0.10132936966E+04  0.15294330000E+03 0.  0.
<mgrwt>
<rscale>  0 0.77702154E+03</rscale>
<asrwt>0</asrwt>
<pdfrwt beam="1">  1        2 0.21369349E+00 0.85981858E+03</pdfrwt>
<pdfrwt beam="2">  1       -2 0.74877473E-01 0.85981858E+03</pdfrwt>
<totfact> 0.23761951E+01</totfact>
</mgrwt>
</event>
<event>
 4    5  0.8511149E-008  0.1090713E+04  0.7818608E-02  0.9271467E-01
         -2   -1    0    0    0  501 -0.00000000000E+00  0.00000000000E+00  0.11200018265E+04  0.11200018265E+04  0.25500000000E-02 0.  1.
          2   -1    0    0  501    0  0.00000000000E+00 -0.00000000000E+00 -0.10176080783E+04  0.10176080784E+04  0.25500000000E-02 0. -1.
    8880023    1    1    2    0    0 -0.25338480851E+03 -0.83164919133E+03  0.46187631834E+03  0.11844763308E+04  0.65864270000E+03 0.  0.
    8880022    1    1    2    0    0  0.25338480851E+03  0.83164919133E+03 -0.35948257019E+03  0.95313357401E+03  0.15294330000E+03 0.  0.
<mgrwt>
<rscale>  0 0.10345260E+04</rscale>
<asrwt>0</asrwt>
<pdfrwt beam="1">  1        2 0.15655509E+00 0.10907128E+04</pdfrwt>
<pdfrwt beam="2">  1       -2 0.17230797E+00 0.10907128E+04</pdfrwt>
<totfact> 0.49491000E+00</totfact>
</mgrwt>
</event>
<event>
 4    5  0.8511149E-008  0.7867218E+03  0.7818608E-02  0.9740278E-01
          2   -1    0    0  501    0  0.00000000000E+00  0.00000000000E+00  0.74155182250E+03  0.74155182250E+03  0.25500000000E-02 0. -1.
         -2   -1    0    0    0  501 -0.00000000000E+00 -0.00000000000E+00 -0.23771559909E+04  0.23771559909E+04  0.25500000000E-02 0.  1.
    8880023    1    1    2    0    0 -0.41647154790E+03 -0.10803895069E+03 -0.22325660958E+04  0.23671253755E+04  0.65864270000E+03 0.  1.
    8880022    1    1    2    0    0  0.41647154790E+03  0.10803895069E+03  0.59696192743E+03  0.75158243785E+03  0.15294330000E+03 0.  0.
<mgrwt>
<rscale>  0 0.68668479E+03</rscale>
<asrwt>0</asrwt>
<pdfrwt beam="1">  1        2 0.11408490E+00 0.78672179E+03</pdfrwt>
<pdfrwt beam="2">  1       -2 0.36571630E+00 0.78672179E+03</pdfrwt>
<totfact> 0.49503558E-01</totfact>
</mgrwt>
</event>
<event>
 4    5  0.8511149E-008  0.7335704E+03  0.7818608E-02  0.9879088E-01
         -2   -1    0    0    0  501 -0.00000000000E+00  0.00000000000E+00  0.21313551360E+03  0.21313551362E+03  0.25500000000E-02 0.  1.
          2   -1    0    0  501    0  0.00000000000E+00 -0.00000000000E+00 -0.24381042934E+04  0.24381042934E+04  0.25500000000E-02 0. -1.
    8880023    1    1    2    0    0  0.23197686007E+03 -0.22472675564E+03 -0.49550401333E+03  0.88523997413E+03  0.65864270000E+03 0.  1.
    8880022    1    1    2    0    0 -0.23197686007E+03  0.22472675564E+03 -0.17294647664E+04  0.17659998329E+04  0.15294330000E+03 0.  0.
<mgrwt>
<rscale>  0 0.61285568E+03</rscale>
<asrwt>0</asrwt>
<pdfrwt beam="1">  1        2 0.37509295E+00 0.73357044E+03</pdfrwt>
<pdfrwt beam="2">  1       -2 0.32790081E-01 0.73357044E+03</pdfrwt>
<totfact> 0.34217137E+01</totfact>
</mgrwt>
</event>
<event>
 4    5  0.8511149E-008  0.8493638E+03  0.7818608E-02  0.9612771E-01
         -2   -1    0    0    0  501 -0.00000000000E+00  0.00000000000E+00  0.76440239855E+03  0.76440239856E+03  0.25500000000E-02 0.  1.
          2   -1    0    0  501    0  0.00000000000E+00 -0.00000000000E+00 -0.10706497397E+04  0.10706497397E+04  0.25500000000E-02 0. -1.
    8880023    1    1    2    0    0 -0.11672924778E+03  0.52343376828E+03  0.39696600214E+03  0.93755044674E+03  0.65864270000E+03 0.  1.
    8880022    1    1    2    0    0  0.11672924778E+03 -0.52343376828E+03 -0.70321334327E+03  0.89750169149E+03  0.15294330000E+03 0.  0.
<mgrwt>
<rscale>  0 0.76456674E+03</rscale>
<asrwt>0</asrwt>
<pdfrwt beam="1">  1        2 0.16471534E+00 0.84936378E+03</pdfrwt>
<pdfrwt beam="2">  1       -2 0.11760037E+00 0.84936378E+03</pdfrwt>
<totfact> 0.12769901E+01</totfact>
</mgrwt>
</event>
<event>
 4    5  0.8511149E-008  0.7391507E+03  0.7818608E-02  0.9862428E-01
         -2   -1    0    0    0  501 -0.00000000000E+00  0.00000000000E+00  0.78383612285E+03  0.78383612286E+03  0.25500000000E-02 0.  1.
          2   -1    0    0  501    0  0.00000000000E+00 -0.00000000000E+00 -0.34789850867E+04  0.34789850867E+04  0.25500000000E-02 0. -1.
    8880023    1    1    2    0    0 -0.26197157133E+03 -0.20953378167E+03  0.59697517638E+03  0.95011740186E+03  0.65864270000E+03 0.  1.
    8880022    1    1    2    0    0  0.26197157133E+03  0.20953378167E+03 -0.32921241402E+04  0.33127038077E+04  0.15294330000E+03 0.  0.
<mgrwt>
<rscale>  0 0.62117249E+03</rscale>
<asrwt>0</asrwt>
<pdfrwt beam="1">  1        2 0.53522847E+00 0.73915067E+03</pdfrwt>
<pdfrwt beam="2">  1       -2 0.12059017E+00 0.73915067E+03</pdfrwt>
<totfact> 0.48139717E-01</totfact>
</mgrwt>
</event>
<event>
 4    5  0.8511149E-008  0.9136848E+03  0.7818608E-02  0.9504411E-01
          2   -1    0    0  501    0  0.00000000000E+00  0.00000000000E+00  0.30301654671E+04  0.30301654671E+04  0.25500000000E-02 0. -1.
         -2   -1    0    0    0  501 -0.00000000000E+00 -0.00000000000E+00 -0.95310388772E+03  0.95310388773E+03  0.25500000000E-02 0.  1.
    8880023    1    1    2    0    0  0.53768409164E+03 -0.33452272093E+03 -0.68720664922E+03  0.11432728538E+04  0.65864270000E+03 0.  0.
    8880022    1    1    2    0    0 -0.53768409164E+03  0.33452272093E+03  0.27642682286E+04  0.28399965010E+04  0.15294330000E+03 0.  0.
<mgrwt>
<rscale>  0 0.83959409E+03</rscale>
<asrwt>0</asrwt>
<pdfrwt beam="1">  1        2 0.46617929E+00 0.91368476E+03</pdfrwt>
<pdfrwt beam="2">  1       -2 0.14663137E+00 0.91368476E+03</pdfrwt>
<totfact> 0.54825384E-01</totfact>
</mgrwt>
</event>
<event>
 4    5  0.8511149E-008  0.6946734E+03  0.7818608E-02  0.1002006E+00
          2   -1    0    0  501    0  0.00000000000E+00  0.00000000000E+00  0.94618028783E+03  0.94618028783E+03  0.25500000000E-02 0. -1.
         -2   -1    0    0    0  501 -0.00000000000E+00 -0.00000000000E+00 -0.33163829466E+03  0.33163829467E+03  0.25500000000E-02 0.  1.
    8880023    1    1    2    0    0  0.48167142939E+02 -0.21550131276E+03  0.10602646813E+03  0.70271808549E+03  0.65864270000E+03 0.  1.
    8880022    1    1    2    0    0 -0.48167142939E+02  0.21550131276E+03  0.50851552503E+03  0.57510049702E+03  0.15294330000E+03 0.  0.
<mgrwt>
<rscale>  0 0.54779359E+03</rscale>
<asrwt>0</asrwt>
<pdfrwt beam="1">  1        2 0.14556620E+00 0.69467337E+03</pdfrwt>
<pdfrwt beam="2">  1       -2 0.51021277E-01 0.69467337E+03</pdfrwt>
<totfact> 0.10086639E+02</totfact>
</mgrwt>
</event>
<event>
 4    5  0.8511149E-008  0.1689015E+04  0.7818608E-02  0.8786548E-01
          2   -1    0    0  501    0  0.00000000000E+00  0.00000000000E+00  0.37242861731E+04  0.37242861731E+04  0.25500000000E-02 0. -1.
         -2   -1    0    0    0  501 -0.00000000000E+00 -0.00000000000E+00 -0.86286572448E+03  0.86286572448E+03  0.25500000000E-02 0.  1.
    8880023    1    1    2    0    0 -0.11610192720E+04  0.10348893978E+04  0.24417301533E+04  0.29689759453E+04  0.65864270000E+03 0. -1.
    8880022    1    1    2    0    0  0.11610192720E+04 -0.10348893978E+04  0.41969029530E+03  0.16181759523E+04  0.15294330000E+03 0.  0.
<mgrwt>
<rscale>  0 0.16565373E+04</rscale>
<asrwt>0</asrwt>
<pdfrwt beam="1">  1        2 0.57296710E+00 0.16890151E+04</pdfrwt>
<pdfrwt beam="2">  1       -2 0.13274857E+00 0.16890151E+04</pdfrwt>
<totfact> 0.21617870E-01</totfact>
</mgrwt>
</event>
<event>
 4    5  0.8511149E-008  0.8158898E+03  0.7818608E-02  0.9677437E-01
         -2   -1    0    0    0  501 -0.00000000000E+00  0.00000000000E+00  0.10757046276E+04  0.10757046276E+04  0.25500000000E-02 0.  1.
          2   -1    0    0  501    0  0.00000000000E+00 -0.00000000000E+00 -0.16942536492E+04  0.16942536492E+04  0.25500000000E-02 0. -1.
    8880023    1    1    2    0    0  0.35239264401E+03 -0.32815458092E+03  0.87315272780E+03  0.11950196220E+04  0.65864270000E+03 0.  1.
    8880022    1    1    2    0    0 -0.35239264401E+03  0.32815458092E+03 -0.14917017494E+04  0.15749386549E+04  0.15294330000E+03 0.  0.
<mgrwt>
<rscale>  0 0.72376235E+03</rscale>
<asrwt>0</asrwt>
<pdfrwt beam="1">  1        2 0.26065441E+00 0.81588983E+03</pdfrwt>
<pdfrwt beam="2">  1       -2 0.16549302E+00 0.81588983E+03</pdfrwt>
<totfact> 0.23155189E+00</totfact>
</mgrwt>
</event>
<event>
 4    5  0.8511149E-008  0.8115490E+03  0.7818608E-02  0.9686359E-01
         -2   -1    0    0    0  501 -0.00000000000E+00  0.00000000000E+00  0.48844837283E+03  0.48844837284E+03  0.25500000000E-02 0.  1.
          2   -1    0    0  501    0  0.00000000000E+00 -0.00000000000E+00 -0.99130268506E+03  0.99130268507E+03  0.25500000000E-02 0. -1.
    8880023    1    1    2    0    0  0.44496724890E+03 -0.16372429995E+03 -0.60985360736E+02  0.81383715784E+03  0.65864270000E+03 0.  0.
    8880022    1    1    2    0    0 -0.44496724890E+03  0.16372429995E+03 -0.44186895150E+03  0.66591390007E+03  0.15294330000E+03 0.  0.
<mgrwt>
<rscale>  0 0.71834780E+03</rscale>
<asrwt>0</asrwt>
<pdfrwt beam="1">  1        2 0.15250810E+00 0.81154895E+03</pdfrwt>
<pdfrwt beam="2">  1       -2 0.75145904E-01 0.81154895E+03</pdfrwt>
<totfact> 0.40985474E+01</totfact>
</mgrwt>
</event>
<event>
 4    5  0.8511149E-008  0.7527609E+03  0.7818608E-02  0.9824223E-01
         -2   -1    0    0    0  501 -0.00000000000E+00  0.00000000000E+00  0.20528056469E+03  0.20528056470E+03  0.25500000000E-02 0.  1.
          2   -1    0    0  501    0  0.00000000000E+00 -0.00000000000E+00 -0.32028285535E+04  0.32028285535E+04  0.25500000000E-02 0. -1.
    8880023    1    1    2    0    0  0.34714388631E+03  0.11103997583E+03 -0.55870330684E+03  0.93744244910E+03  0.65864270000E+03 0.  1.
    8880022    1    1    2    0    0 -0.34714388631E+03 -0.11103997583E+03 -0.24388446820E+04  0.24706666692E+04  0.15294330000E+03 0.  0.
<mgrwt>
<rscale>  0 0.64078669E+03</rscale>
<asrwt>0</asrwt>
<pdfrwt beam="1">  1        2 0.49274282E+00 0.75276089E+03</pdfrwt>
<pdfrwt beam="2">  1       -2 0.31581628E-01 0.75276089E+03</pdfrwt>
<totfact> 0.12834848E+01</totfact>
</mgrwt>
</event>
<event>
 4    5  0.8511149E-008  0.9881672E+03  0.7818608E-02  0.9397205E-01
         -2   -1    0    0    0  501 -0.00000000000E+00  0.00000000000E+00  0.73909628203E+03  0.73909628204E+03  0.25500000000E-02 0.  1.
          2   -1    0    0  501    0  0.00000000000E+00 -0.00000000000E+00 -0.12110926587E+04  0.12110926587E+04  0.25500000000E-02 0. -1.
    8880023    1    1    2    0    0 -0.61897224747E+03 -0.39942149052E+03  0.11648667960E+03  0.99500930801E+03  0.65864270000E+03 0.  0.
    8880022    1    1    2    0    0  0.61897224747E+03  0.39942149052E+03 -0.58848305622E+03  0.95517963269E+03  0.15294330000E+03 0.  0.
<mgrwt>
<rscale>  0 0.92306063E+03</rscale>
<asrwt>0</asrwt>
<pdfrwt beam="1">  1        2 0.18632195E+00 0.98816718E+03</pdfrwt>
<pdfrwt beam="2">  1       -2 0.11370712E+00 0.98816718E+03</pdfrwt>
<totfact> 0.11241878E+01</totfact>
</mgrwt>
</event>
<event>
 4    5  0.8511149E-008  0.6820054E+03  0.7818608E-02  0.1008211E+00
         -2   -1    0    0    0  501 -0.00000000000E+00  0.00000000000E+00  0.48249668535E+03  0.48249668536E+03  0.25500000000E-02 0.  1.
          2   -1    0    0  501    0  0.00000000000E+00 -0.00000000000E+00 -0.16896691137E+04  0.16896691137E+04  0.25500000000E-02 0. -1.
    8880023    1    1    2    0    0  0.10497292309E+03  0.14248456505E+03  0.22719414442E+03  0.71885224586E+03  0.65864270000E+03 0.  1.
    8880022    1    1    2    0    0 -0.10497292309E+03 -0.14248456505E+03 -0.14343665727E+04  0.14533135532E+04  0.15294330000E+03 0.  0.
<mgrwt>
<rscale>  0 0.52191767E+03</rscale>
<asrwt>0</asrwt>
<pdfrwt beam="1">  1        2 0.25994909E+00 0.68200540E+03</pdfrwt>
<pdfrwt beam="2">  1       -2 0.74230260E-01 0.68200540E+03</pdfrwt>
<totfact> 0.16845740E+01</totfact>
</mgrwt>
</event>
<event>
 4    5  0.8511149E-008  0.1212618E+04  0.7818608E-02  0.9144954E-01
          2   -1    0    0  501    0  0.00000000000E+00  0.00000000000E+00  0.18497849204E+04  0.18497849204E+04  0.25500000000E-02 0. -1.
         -2   -1    0    0    0  501 -0.00000000000E+00 -0.00000000000E+00 -0.84213461630E+03  0.84213461631E+03  0.25500000000E-02 0.  1.
    8880023    1    1    2    0    0  0.60587761680E+03 -0.81825640783E+03  0.11269799769E+04  0.16554532038E+04  0.65864270000E+03 0.  0.
    8880022    1    1    2    0    0 -0.60587761680E+03  0.81825640783E+03 -0.11932967274E+03  0.10364663329E+04  0.15294330000E+03 0.  0.
<mgrwt>
<rscale>  0 0.11640116E+04</rscale>
<asrwt>0</asrwt>
<pdfrwt beam="1">  1        2 0.28458229E+00 0.12126176E+04</pdfrwt>
<pdfrwt beam="2">  1       -2 0.12955917E+00 0.12126176E+04</pdfrwt>
<totfact> 0.34519437E+00</totfact>
</mgrwt>
</event>
<event>
 4    5  0.8511149E-008  0.6777140E+03  0.7818608E-02  0.1010647E+00
         -2   -1    0    0    0  501 -0.00000000000E+00  0.00000000000E+00  0.27958594417E+03  0.27958594419E+03  0.25500000000E-02 0.  1.
          2   -1    0    0  501    0  0.00000000000E+00 -0.00000000000E+00 -0.16109575667E+04  0.16109575667E+04  0.25500000000E-02 0. -1.
    8880023    1    1    2    0    0 -0.52393714261E+02  0.15080099832E+03 -0.15715696095E+03  0.69569717480E+03  0.65864270000E+03 0.  1.
    8880022    1    1    2    0    0  0.52393714261E+02 -0.15080099832E+03 -0.11742146616E+04  0.11948463361E+04  0.15294330000E+03 0.  0.
<mgrwt>
<rscale>  0 0.51218125E+03</rscale>
<asrwt>0</asrwt>
<pdfrwt beam="1">  1        2 0.24783962E+00 0.67771399E+03</pdfrwt>
<pdfrwt beam="2">  1       -2 0.43013223E-01 0.67771399E+03</pdfrwt>
<totfact> 0.58090198E+01</totfact>
</mgrwt>
</event>
<event>
 4    5  0.8511149E-008  0.7999303E+03  0.7818608E-02  0.9710947E-01
          2   -1    0    0  501    0  0.00000000000E+00  0.00000000000E+00  0.26575105123E+04  0.26575105123E+04  0.25500000000E-02 0. -1.
         -2   -1    0    0    0  501 -0.00000000000E+00 -0.00000000000E+00 -0.74964803871E+03  0.74964803871E+03  0.25500000000E-02 0.  1.
    8880023    1    1    2    0    0 -0.28357116259E+02 -0.45307184311E+03 -0.50579578318E+03  0.94642369033E+03  0.65864270000E+03 0.  0.
    8880022    1    1    2    0    0  0.28357116259E+02  0.45307184311E+03  0.24136582567E+04  0.24607348606E+04  0.15294330000E+03 0.  0.
<mgrwt>
<rscale>  0 0.70368745E+03</rscale>
<asrwt>0</asrwt>
<pdfrwt beam="1">  1        2 0.40884777E+00 0.79993026E+03</pdfrwt>
<pdfrwt beam="2">  1       -2 0.11533047E+00 0.79993026E+03</pdfrwt>
<totfact> 0.17229703E+00</totfact>
</mgrwt>
</event>
<event>
 4    5  0.8511149E-008  0.1407219E+04  0.7818608E-02  0.8978094E-01
          2   -1    0    0  501    0  0.00000000000E+00  0.00000000000E+00  0.13573876190E+04  0.13573876190E+04  0.25500000000E-02 0. -1.
         -2   -1    0    0    0  501 -0.00000000000E+00 -0.00000000000E+00 -0.19197997290E+04  0.19197997290E+04  0.25500000000E-02 0.  1.
    8880023    1    1    2    0    0 -0.87425248244E+03  0.88438519549E+03 -0.12197650714E+04  0.18622812926E+04  0.65864270000E+03 0.  1.
    8880022    1    1    2    0    0  0.87425248244E+03 -0.88438519549E+03  0.65735296139E+03  0.14149060555E+04  0.15294330000E+03 0.  0.
<mgrwt>
<rscale>  0 0.13669523E+04</rscale>
<asrwt>0</asrwt>
<pdfrwt beam="1">  1        2 0.20882886E+00 0.14072188E+04</pdfrwt>
<pdfrwt beam="2">  1       -2 0.29535381E+00 0.14072188E+04</pdfrwt>
<totfact> 0.49446078E-01</totfact>
</mgrwt>
</event>
<event>
 4    5  0.8511149E-008  0.7201651E+03  0.7818608E-02  0.9922028E-01
         -2   -1    0    0    0  501 -0.00000000000E+00  0.00000000000E+00  0.45129059837E+03  0.45129059837E+03  0.25500000000E-02 0.  1.
          2   -1    0    0  501    0  0.00000000000E+00 -0.00000000000E+00 -0.70567463733E+03  0.70567463733E+03  0.25500000000E-02 0. -1.
    8880023    1    1    2    0    0  0.16634648641E+03  0.23907404938E+03  0.31900324977E+02  0.72087127257E+03  0.65864270000E+03 0.  0.
    8880022    1    1    2    0    0 -0.16634648641E+03 -0.23907404938E+03 -0.28628436394E+03  0.43609396313E+03  0.15294330000E+03 0.  0.
<mgrwt>
<rscale>  0 0.59205506E+03</rscale>
<asrwt>0</asrwt>
<pdfrwt beam="1">  1        2 0.10856533E+00 0.72016509E+03</pdfrwt>
<pdfrwt beam="2">  1       -2 0.69429323E-01 0.72016509E+03</pdfrwt>
<totfact> 0.77858048E+01</totfact>
</mgrwt>
</event>
<event>
 4    5  0.8511149E-008  0.8215263E+03  0.7818608E-02  0.9666050E-01
         -2   -1    0    0    0  501 -0.00000000000E+00  0.00000000000E+00  0.14865706131E+04  0.14865706131E+04  0.25500000000E-02 0.  1.
          2   -1    0    0  501    0  0.00000000000E+00 -0.00000000000E+00 -0.40822506154E+03  0.40822506155E+03  0.25500000000E-02 0. -1.
    8880023    1    1    2    0    0 -0.88791736195E+02  0.48291948797E+03  0.11083738470E+04  0.13796369070E+04  0.65864270000E+03 0.  0.
    8880022    1    1    2    0    0  0.88791736195E+02 -0.48291948797E+03 -0.30028295466E+02  0.51515876759E+03  0.15294330000E+03 0.  0.
<mgrwt>
<rscale>  0 0.73074626E+03</rscale>
<asrwt>0</asrwt>
<pdfrwt beam="1">  1        2 0.62803856E-01 0.82152627E+03</pdfrwt>
<pdfrwt beam="2">  1       -2 0.22870317E+00 0.82152627E+03</pdfrwt>
<totfact> 0.68766036E+00</totfact>
</mgrwt>
</event>
<event>
 4    5  0.8511149E-008  0.9746486E+03  0.7818608E-02  0.9415503E-01
          2   -1    0    0  501    0  0.00000000000E+00  0.00000000000E+00  0.33123139765E+04  0.33123139765E+04  0.25500000000E-02 0. -1.
         -2   -1    0    0    0  501 -0.00000000000E+00 -0.00000000000E+00 -0.34937705422E+03  0.34937705423E+03  0.25500000000E-02 0.  1.
    8880023    1    1    2    0    0 -0.17302494224E+03  0.69727470379E+03  0.50773413665E+03  0.10989694277E+04  0.65864270000E+03 0.  0.
    8880022    1    1    2    0    0  0.17302494224E+03 -0.69727470379E+03  0.24552027857E+04  0.25627216031E+04  0.15294330000E+03 0.  0.
<mgrwt>
<rscale>  0 0.90810719E+03</rscale>
<asrwt>0</asrwt>
<pdfrwt beam="1">  1        2 0.50958674E+00 0.97464858E+03</pdfrwt>
<pdfrwt beam="2">  1       -2 0.53750319E-01 0.97464858E+03</pdfrwt>
<totfact> 0.36904719E+00</totfact>
</mgrwt>
</event>
<event>
 4    5  0.8511149E-008  0.1367346E+04  0.7818608E-02  0.9009480E-01
          2   -1    0    0  501    0  0.00000000000E+00  0.00000000000E+00  0.12490676241E+04  0.12490676241E+04  0.25500000000E-02 0. -1.
         -2   -1    0    0    0  501 -0.00000000000E+00 -0.00000000000E+00 -0.15666289361E+04  0.15666289361E+04  0.25500000000E-02 0.  1.
    8880023    1    1    2    0    0 -0.10623888544E+04  0.55421539016E+03 -0.71630224581E+03  0.15436074275E+04  0.65864270000E+03 0.  0.
    8880022    1    1    2    0    0  0.10623888544E+04 -0.55421539016E+03  0.39874093381E+03  0.12720891328E+04  0.15294330000E+03 0.  0.
<mgrwt>
<rscale>  0 0.13256344E+04</rscale>
<asrwt>0</asrwt>
<pdfrwt beam="1">  1        2 0.19216425E+00 0.13673460E+04</pdfrwt>
<pdfrwt beam="2">  1       -2 0.24101984E+00 0.13673460E+04</pdfrwt>
<totfact> 0.12350085E+00</totfact>
</mgrwt>
</event>
<event>
 4    5  0.8511149E-008  0.8351357E+03  0.7818608E-02  0.9639421E-01
          2   -1    0    0  501    0  0.00000000000E+00  0.00000000000E+00  0.11446015764E+04  0.11446015764E+04  0.25500000000E-02 0. -1.
         -2   -1    0    0    0  501 -0.00000000000E+00 -0.00000000000E+00 -0.12862329766E+04  0.12862329766E+04  0.25500000000E-02 0.  1.
    8880023    1    1    2    0    0 -0.36443663418E+03  0.36170073145E+03 -0.10709873858E+04  0.13581110655E+04  0.65864270000E+03 0.  1.
    8880022    1    1    2    0    0  0.36443663418E+03 -0.36170073145E+03  0.92935598563E+03  0.10727234874E+04  0.15294330000E+03 0. -1.
<mgrwt>
<rscale>  0 0.74741068E+03</rscale>
<asrwt>0</asrwt>
<pdfrwt beam="1">  1        2 0.17609255E+00 0.83513573E+03</pdfrwt>
<pdfrwt beam="2">  1       -2 0.19788200E+00 0.83513573E+03</pdfrwt>
<totfact> 0.28462155E+00</totfact>
</mgrwt>
</event>
<event>
 4    5  0.8511149E-008  0.7586571E+03  0.7818608E-02  0.9808597E-01
          2   -1    0    0  501    0  0.00000000000E+00  0.00000000000E+00  0.29630421660E+04  0.29630421660E+04  0.25500000000E-02 0. -1.
         -2   -1    0    0    0  501 -0.00000000000E+00 -0.00000000000E+00 -0.10455746150E+04  0.10455746150E+04  0.25500000000E-02 0.  1.
    8880023    1    1    2    0    0  0.33804535628E+03  0.16575801837E+03 -0.89138224487E+03  0.11705224886E+04  0.65864270000E+03 0.  1.
    8880022    1    1    2    0    0 -0.33804535628E+03 -0.16575801837E+03  0.28088497959E+04  0.28380942924E+04  0.15294330000E+03 0.  0.
<mgrwt>
<rscale>  0 0.64903236E+03</rscale>
<asrwt>0</asrwt>
<pdfrwt beam="1">  1        2 0.45585263E+00 0.75865710E+03</pdfrwt>
<pdfrwt beam="2">  1       -2 0.16085764E+00 0.75865710E+03</pdfrwt>
<totfact> 0.48648269E-01</totfact>
</mgrwt>
</event>
<event>
 4    5  0.8511149E-008  0.7722499E+03  0.7818608E-02  0.9774367E-01
          2   -1    0    0  501    0  0.00000000000E+00  0.00000000000E+00  0.16910143879E+04  0.16910143879E+04  0.25500000000E-02 0. -1.
         -2   -1    0    0    0  501 -0.00000000000E+00 -0.00000000000E+00 -0.10674929919E+04  0.10674929919E+04  0.25500000000E-02 0.  1.
    8880023    1    1    2    0    0 -0.23071552565E+03 -0.33065101943E+03 -0.89373783703E+03  0.11811592941E+04  0.65864270000E+03 0.  1.
    8880022    1    1    2    0    0  0.23071552565E+03  0.33065101943E+03  0.15172592330E+04  0.15773480857E+04  0.15294330000E+03 0.  0.
<mgrwt>
<rscale>  0 0.66756467E+03</rscale>
<asrwt>0</asrwt>
<pdfrwt beam="1">  1        2 0.26015606E+00 0.77224993E+03</pdfrwt>
<pdfrwt beam="2">  1       -2 0.16422969E+00 0.77224993E+03</pdfrwt>
<totfact> 0.23914707E+00</totfact>
</mgrwt>
</event>
<event>
 4    5  0.8511149E-008  0.8455362E+03  0.7818608E-02  0.9619828E-01
          2   -1    0    0  501    0  0.00000000000E+00  0.00000000000E+00  0.20630760230E+04  0.20630760230E+04  0.25500000000E-02 0. -1.
         -2   -1    0    0    0  501 -0.00000000000E+00 -0.00000000000E+00 -0.42390429045E+03  0.42390429046E+03  0.25500000000E-02 0.  1.
    8880023    1    1    2    0    0  0.51442908512E+02  0.52770714395E+03  0.99456363159E+02  0.85136536049E+03  0.65864270000E+03 0.  0.
    8880022    1    1    2    0    0 -0.51442908512E+02 -0.52770714395E+03  0.15397153694E+04  0.16356149529E+04  0.15294330000E+03 0.  0.
<mgrwt>
<rscale>  0 0.75997594E+03</rscale>
<asrwt>0</asrwt>
<pdfrwt beam="1">  1        2 0.31739631E+00 0.84553617E+03</pdfrwt>
<pdfrwt beam="2">  1       -2 0.65216044E-01 0.84553617E+03</pdfrwt>
<totfact> 0.13660284E+01</totfact>
</mgrwt>
</event>
<event>
 4    5  0.8511149E-008  0.6741902E+03  0.7818608E-02  0.1012822E+00
          2   -1    0    0  501    0  0.00000000000E+00  0.00000000000E+00  0.24224101641E+04  0.24224101641E+04  0.25500000000E-02 0. -1.
         -2   -1    0    0    0  501 -0.00000000000E+00 -0.00000000000E+00 -0.21909272125E+03  0.21909272127E+03  0.25500000000E-02 0.  1.
    8880023    1    1    2    0    0 -0.14082345394E+03  0.29849931936E+02  0.31959171239E+03  0.74610410300E+03  0.65864270000E+03 0.  0.
    8880022    1    1    2    0    0  0.14082345394E+03 -0.29849931936E+02  0.18837257305E+04  0.18953987824E+04  0.15294330000E+03 0. -1.
<mgrwt>
<rscale>  0 0.50368474E+03</rscale>
<asrwt>0</asrwt>
<pdfrwt beam="1">  1        2 0.37267849E+00 0.67419023E+03</pdfrwt>
<pdfrwt beam="2">  1       -2 0.33706572E-01 0.67419023E+03</pdfrwt>
<totfact> 0.33446509E+01</totfact>
</mgrwt>
</event>
<event>
 4    5  0.8511149E-008  0.9665457E+03  0.7818608E-02  0.9426698E-01
          2   -1    0    0  501    0  0.00000000000E+00  0.00000000000E+00  0.14565504935E+04  0.14565504935E+04  0.25500000000E-02 0. -1.
         -2   -1    0    0    0  501 -0.00000000000E+00 -0.00000000000E+00 -0.96007175207E+03  0.96007175208E+03  0.25500000000E-02 0.  1.
    8880023    1    1    2    0    0  0.61163084709E+03 -0.35539857779E+03 -0.57423061882E+03  0.11242559549E+04  0.65864270000E+03 0.  0.
    8880022    1    1    2    0    0 -0.61163084709E+03  0.35539857779E+03  0.10707093602E+04  0.12923662907E+04  0.15294330000E+03 0.  0.
<mgrwt>
<rscale>  0 0.89910761E+03</rscale>
<asrwt>0</asrwt>
<pdfrwt beam="1">  1        2 0.22408469E+00 0.96654573E+03</pdfrwt>
<pdfrwt beam="2">  1       -2 0.14770335E+00 0.96654573E+03</pdfrwt>
<totfact> 0.41777038E+00</totfact>
</mgrwt>
</event>
<event>
 4    5  0.8511149E-008  0.7484897E+03  0.7818608E-02  0.9835873E-01
         -2   -1    0    0    0  501 -0.00000000000E+00  0.00000000000E+00  0.51190384367E+03  0.51190384368E+03  0.25500000000E-02 0.  1.
          2   -1    0    0  501    0  0.00000000000E+00 -0.00000000000E+00 -0.10959806772E+04  0.10959806772E+04  0.25500000000E-02 0. -1.
    8880023    1    1    2    0    0  0.17498596104E+03 -0.30952642786E+03  0.16341686561E+03  0.76612138355E+03  0.65864270000E+03 0.  0.
    8880022    1    1    2    0    0 -0.17498596104E+03  0.30952642786E+03 -0.74749369917E+03  0.84176313736E+03  0.15294330000E+03 0.  0.
<mgrwt>
<rscale>  0 0.63472414E+03</rscale>
<asrwt>0</asrwt>
<pdfrwt beam="1">  1        2 0.16861241E+00 0.74848975E+03</pdfrwt>
<pdfrwt beam="2">  1       -2 0.78754438E-01 0.74848975E+03</pdfrwt>
<totfact> 0.31919996E+01</totfact>
</mgrwt>
</event>
<event>
 4    5  0.8511149E-008  0.9643671E+03  0.7818608E-02  0.9429737E-01
          2   -1    0    0  501    0  0.00000000000E+00  0.00000000000E+00  0.32602654475E+04  0.32602654475E+04  0.25500000000E-02 0. -1.
         -2   -1    0    0    0  501 -0.00000000000E+00 -0.00000000000E+00 -0.39602130613E+03  0.39602130614E+03  0.25500000000E-02 0.  1.
    8880023    1    1    2    0    0 -0.51844035413E+03  0.47687865954E+03  0.32647183673E+03  0.10181295218E+04  0.65864270000E+03 0.  1.
    8880022    1    1    2    0    0  0.51844035413E+03 -0.47687865954E+03  0.25377723046E+04  0.26381572318E+04  0.15294330000E+03 0.  0.
<mgrwt>
<rscale>  0 0.89668291E+03</rscale>
<asrwt>0</asrwt>
<pdfrwt beam="1">  1        2 0.50157929E+00 0.96436708E+03</pdfrwt>
<pdfrwt beam="2">  1       -2 0.60926356E-01 0.96436708E+03</pdfrwt>
<totfact> 0.30726847E+00</totfact>
</mgrwt>
</event>
<event>
 4    5  0.8511149E-008  0.1050415E+04  0.7818608E-02  0.9318383E-01
         -2   -1    0    0    0  501 -0.00000000000E+00  0.00000000000E+00  0.11360706572E+04  0.11360706572E+04  0.25500000000E-02 0.  1.
          2   -1    0    0  501    0  0.00000000000E+00 -0.00000000000E+00 -0.20402071133E+04  0.20402071133E+04  0.25500000000E-02 0. -1.
    8880023    1    1    2    0    0  0.29714462781E+03  0.76240813850E+03  0.77281865407E+03  0.13040782100E+04  0.65864270000E+03 0.  1.
    8880022    1    1    2    0    0 -0.29714462781E+03 -0.76240813850E+03 -0.16769551102E+04  0.18721995604E+04  0.15294330000E+03 0.  0.
<mgrwt>
<rscale>  0 0.99107971E+03</rscale>
<asrwt>0</asrwt>
<pdfrwt beam="1">  1        2 0.31387802E+00 0.10504148E+04</pdfrwt>
<pdfrwt beam="2">  1       -2 0.17478010E+00 0.10504148E+04</pdfrwt>
<totfact> 0.12399376E+00</totfact>
</mgrwt>
</event>
<event>
 4    5  0.8511149E-008  0.8658107E+03  0.7818608E-02  0.9583310E-01
          2   -1    0    0  501    0  0.00000000000E+00  0.00000000000E+00  0.22500765800E+04  0.22500765800E+04  0.25500000000E-02 0. -1.
         -2   -1    0    0    0  501 -0.00000000000E+00 -0.00000000000E+00 -0.62578282018E+03  0.62578282019E+03  0.25500000000E-02 0.  1.
    8880023    1    1    2    0    0 -0.42552136432E+03 -0.36708239690E+03 -0.25967981881E+03  0.90391467084E+03  0.65864270000E+03 0.  0.
    8880022    1    1    2    0    0  0.42552136432E+03  0.36708239690E+03  0.18839735786E+04  0.19719447293E+04  0.15294330000E+03 0.  0.
<mgrwt>
<rscale>  0 0.78410769E+03</rscale>
<asrwt>0</asrwt>
<pdfrwt beam="1">  1        2 0.34616563E+00 0.86581067E+03</pdfrwt>
<pdfrwt beam="2">  1       -2 0.96274281E-01 0.86581067E+03</pdfrwt>
<totfact> 0.44729637E+00</totfact>
</mgrwt>
</event>
<event>
 4    5  0.8511149E-008  0.1178091E+04  0.7818608E-02  0.9178719E-01
         -2   -1    0    0    0  501 -0.00000000000E+00  0.00000000000E+00  0.22799803958E+04  0.22799803958E+04  0.25500000000E-02 0.  1.
          2   -1    0    0  501    0  0.00000000000E+00 -0.00000000000E+00 -0.75232041623E+03  0.75232041623E+03  0.25500000000E-02 0. -1.
    8880023    1    1    2    0    0 -0.67218999713E+03 -0.70869487447E+03  0.16592074349E+04  0.20349121198E+04  0.65864270000E+03 0.  0.
    8880022    1    1    2    0    0  0.67218999713E+03  0.70869487447E+03 -0.13154745526E+03  0.99738869221E+03  0.15294330000E+03 0.  0.
<mgrwt>
<rscale>  0 0.11275805E+04</rscale>
<asrwt>0</asrwt>
<pdfrwt beam="1">  1        2 0.11574161E+00 0.11780908E+04</pdfrwt>
<pdfrwt beam="2">  1       -2 0.35076621E+00 0.11780908E+04</pdfrwt>
<totfact> 0.56813179E-01</totfact>
</mgrwt>
</event>
<event>
 4    5  0.8511149E-008  0.1231733E+04  0.7818608E-02  0.9126876E-01
          2   -1    0    0  501    0  0.00000000000E+00  0.00000000000E+00  0.94983812024E+03  0.94983812024E+03  0.25500000000E-02 0. -1.
         -2   -1    0    0    0  501 -0.00000000000E+00 -0.00000000000E+00 -0.32721678174E+04  0.32721678174E+04  0.25500000000E-02 0.  1.
    8880023    1    1    2    0    0 -0.10329897726E+04  0.12762284100E+03 -0.28057639805E+04  0.30642253801E+04  0.65864270000E+03 0.  1.
    8880022    1    1    2    0    0  0.10329897726E+04 -0.12762284100E+03  0.48343428334E+03  0.11577805575E+04  0.15294330000E+03 0.  0.
<mgrwt>
<rscale>  0 0.11841138E+04</rscale>
<asrwt>0</asrwt>
<pdfrwt beam="1">  1        2 0.14612894E+00 0.12317328E+04</pdfrwt>
<pdfrwt beam="2">  1       -2 0.50341043E+00 0.12317328E+04</pdfrwt>
<totfact> 0.41520440E-02</totfact>
</mgrwt>
</event>
<event>
 4    5  0.1356909E-007  0.1201261E+04  0.7818608E-02  0.9155898E-01
         -2   -1    0    0    0  501 -0.00000000000E+00  0.00000000000E+00  0.23887774188E+04  0.23887774188E+04  0.25500000000E-02 0.  1.
          2   -1    0    0  501    0  0.00000000000E+00 -0.00000000000E+00 -0.19668259366E+04  0.19668259366E+04  0.25500000000E-02 0. -1.
    8880023    1    1    2    0    0  0.24706361213E+03  0.97374343988E+03  0.20852188646E+04  0.24064838738E+04  0.65864270000E+03 0.  1.
    8880022    1    1    2    0    0 -0.24706361213E+03 -0.97374343988E+03 -0.16632673824E+04  0.19491194816E+04  0.15294330000E+03 0.  0.
<mgrwt>
<rscale>  0 0.11520461E+04</rscale>
<asrwt>0</asrwt>
<pdfrwt beam="1">  1        2 0.30258861E+00 0.12012606E+04</pdfrwt>
<pdfrwt beam="2">  1       -2 0.36750422E+00 0.12012606E+04</pdfrwt>
<totfact> 0.82498414E-02</totfact>
</mgrwt>
</event>
<event>
 4    5  0.1564565E-007  0.9706348E+03  0.7818608E-02  0.9421027E-01
          2   -1    0    0  501    0  0.00000000000E+00  0.00000000000E+00  0.29226403147E+04  0.29226403147E+04  0.25500000000E-02 0. -1.
         -2   -1    0    0    0  501 -0.00000000000E+00 -0.00000000000E+00 -0.17200438287E+04  0.17200438287E+04  0.25500000000E-02 0.  1.
    8880023    1    1    2    0    0  0.71154735888E+03 -0.44968233419E+02 -0.15314114672E+04  0.18131059192E+04  0.65864270000E+03 0.  1.
    8880022    1    1    2    0    0 -0.71154735888E+03  0.44968233419E+02  0.27340079532E+04  0.28295782242E+04  0.15294330000E+03 0.  0.
<mgrwt>
<rscale>  0 0.90365283E+03</rscale>
<asrwt>0</asrwt>
<pdfrwt beam="1">  1        2 0.44963697E+00 0.97063484E+03</pdfrwt>
<pdfrwt beam="2">  1       -2 0.26462213E+00 0.97063484E+03</pdfrwt>
<totfact> 0.10464411E-01</totfact>
</mgrwt>
</event>
<event>
 4    5  0.8511149E-008  0.1671857E+04  0.7818608E-02  0.8796942E-01
         -2   -1    0    0    0  501 -0.00000000000E+00  0.00000000000E+00  0.77118608333E+03  0.77118608333E+03  0.25500000000E-02 0.  1.
          2   -1    0    0  501    0  0.00000000000E+00 -0.00000000000E+00 -0.37724842431E+04  0.37724842431E+04  0.25500000000E-02 0. -1.
    8880023    1    1    2    0    0 -0.11280166883E+04 -0.10434907408E+04 -0.79658097824E+03  0.18519303541E+04  0.65864270000E+03 0.  0.
    8880022    1    1    2    0    0  0.11280166883E+04  0.10434907408E+04 -0.22047171816E+04  0.26917399724E+04  0.15294330000E+03 0.  0.
<mgrwt>
<rscale>  0 0.16389971E+04</rscale>
<asrwt>0</asrwt>
<pdfrwt beam="1">  1        2 0.58038218E+00 0.16718567E+04</pdfrwt>
<pdfrwt beam="2">  1       -2 0.11864402E+00 0.16718567E+04</pdfrwt>
<totfact> 0.26532679E-01</totfact>
</mgrwt>
</event>
<event>
 4    5  0.8511149E-008  0.7927083E+03  0.7818608E-02  0.9726790E-01
          2   -1    0    0  501    0  0.00000000000E+00  0.00000000000E+00  0.80233747368E+03  0.80233747368E+03  0.25500000000E-02 0. -1.
         -2   -1    0    0    0  501 -0.00000000000E+00 -0.00000000000E+00 -0.69107572481E+03  0.69107572481E+03  0.25500000000E-02 0.  1.
    8880023    1    1    2    0    0  0.42172939960E+03  0.12930791013E+03  0.45467246308E+03  0.91384543390E+03  0.65864270000E+03 0. -1.
    8880022    1    1    2    0    0 -0.42172939960E+03 -0.12930791013E+03 -0.34341071421E+03  0.57956776460E+03  0.15294330000E+03 0.  0.
<mgrwt>
<rscale>  0 0.69443901E+03</rscale>
<asrwt>0</asrwt>
<pdfrwt beam="1">  1        2 0.12343653E+00 0.79270829E+03</pdfrwt>
<pdfrwt beam="2">  1       -2 0.10631934E+00 0.79270829E+03</pdfrwt>
<totfact> 0.24732345E+01</totfact>
</mgrwt>
</event>
<event>
 4    5  0.8511149E-008  0.1266700E+04  0.7818608E-02  0.9094864E-01
         -2   -1    0    0    0  501 -0.00000000000E+00  0.00000000000E+00  0.36331801303E+03  0.36331801304E+03  0.25500000000E-02 0.  1.
          2   -1    0    0  501    0  0.00000000000E+00 -0.00000000000E+00 -0.44935400258E+04  0.44935400258E+04  0.25500000000E-02 0. -1.
    8880023    1    1    2    0    0 -0.86345575251E+03 -0.65204493418E+03 -0.12643622264E+04  0.17897319572E+04  0.65864270000E+03 0.  0.
    8880022    1    1    2    0    0  0.86345575251E+03  0.65204493418E+03 -0.28658597863E+04  0.30671260816E+04  0.15294330000E+03 0.  0.
<mgrwt>
<rscale>  0 0.12207756E+04</rscale>
<asrwt>0</asrwt>
<pdfrwt beam="1">  1        2 0.69131381E+00 0.12666999E+04</pdfrwt>
<pdfrwt beam="2">  1       -2 0.55895082E-01 0.12666999E+04</pdfrwt>
<totfact> 0.38476160E-01</totfact>
</mgrwt>
</event>
<event>
 4    5  0.8511149E-008  0.6991002E+03  0.7818608E-02  0.1000095E+00
         -2   -1    0    0    0  501 -0.00000000000E+00  0.00000000000E+00  0.14231809389E+04  0.14231809389E+04  0.25500000000E-02 0.  1.
          2   -1    0    0  501    0  0.00000000000E+00 -0.00000000000E+00 -0.25170631945E+04  0.25170631945E+04  0.25500000000E-02 0. -1.
    8880023    1    1    2    0    0 -0.91402323939E+02 -0.21581573275E+03  0.13287831132E+04  0.15014678097E+04  0.65864270000E+03 0.  1.
    8880022    1    1    2    0    0  0.91402323939E+02  0.21581573275E+03 -0.24226653687E+04  0.24387763237E+04  0.15294330000E+03 0.  0.
<mgrwt>
<rscale>  0 0.55608393E+03</rscale>
<asrwt>0</asrwt>
<pdfrwt beam="1">  1        2 0.38724049E+00 0.69910015E+03</pdfrwt>
<pdfrwt beam="2">  1       -2 0.21895091E+00 0.69910015E+03</pdfrwt>
<totfact> 0.36745301E-01</totfact>
</mgrwt>
</event>
<event>
 4    5  0.8511149E-008  0.7616994E+03  0.7818608E-02  0.9800728E-01
         -2   -1    0    0    0  501 -0.00000000000E+00  0.00000000000E+00  0.29807942892E+03  0.29807942893E+03  0.25500000000E-02 0.  1.
          2   -1    0    0  501    0  0.00000000000E+00 -0.00000000000E+00 -0.21842702207E+04  0.21842702207E+04  0.25500000000E-02 0. -1.
    8880023    1    1    2    0    0 -0.25397512429E+03  0.28613347982E+03 -0.26012168228E+03  0.80489081737E+03  0.65864270000E+03 0.  1.
    8880022    1    1    2    0    0  0.25397512429E+03 -0.28613347982E+03 -0.16260691095E+04  0.16774588322E+04  0.15294330000E+03 0.  0.
<mgrwt>
<rscale>  0 0.65323505E+03</rscale>
<asrwt>0</asrwt>
<pdfrwt beam="1">  1        2 0.33604156E+00 0.76169938E+03</pdfrwt>
<pdfrwt beam="2">  1       -2 0.45858375E-01 0.76169938E+03</pdfrwt>
<totfact> 0.24609550E+01</totfact>
</mgrwt>
</event>
<event>
 4    5  0.8511149E-008  0.6767903E+03  0.7818608E-02  0.1011201E+00
         -2   -1    0    0    0  501 -0.00000000000E+00  0.00000000000E+00  0.39601296885E+03  0.39601296886E+03  0.25500000000E-02 0.  1.
          2   -1    0    0  501    0  0.00000000000E+00 -0.00000000000E+00 -0.13318291241E+04  0.13318291241E+04  0.25500000000E-02 0. -1.
    8880023    1    1    2    0    0  0.42237748325E+01 -0.15561841288E+03  0.86677652396E+02  0.68231821930E+03  0.65864270000E+03 0.  1.
    8880022    1    1    2    0    0 -0.42237748325E+01  0.15561841288E+03 -0.10224938077E+04  0.10455238737E+04  0.15294330000E+03 0.  0.
<mgrwt>
<rscale>  0 0.51000189E+03</rscale>
<asrwt>0</asrwt>
<pdfrwt beam="1">  1        2 0.20489679E+00 0.67679032E+03</pdfrwt>
<pdfrwt beam="2">  1       -2 0.60925073E-01 0.67679032E+03</pdfrwt>
<totfact> 0.40834023E+01</totfact>
</mgrwt>
</event>
<event>
 4    5  0.8511149E-008  0.6605199E+03  0.7818608E-02  0.1023630E+00
         -2   -1    0    0    0  501 -0.00000000000E+00  0.00000000000E+00  0.56804520296E+03  0.56804520297E+03  0.25500000000E-02 0.  1.
          2   -1    0    0  501    0  0.00000000000E+00 -0.00000000000E+00 -0.92685459459E+03  0.92685459459E+03  0.25500000000E-02 0. -1.
    8880023    1    1    2    0    0  0.17927778097E+02 -0.46420740085E+02  0.36416166834E+03  0.75425474297E+03  0.65864270000E+03 0.  1.
    8880022    1    1    2    0    0 -0.17927778097E+02  0.46420740085E+02 -0.72297105996E+03  0.74064505459E+03  0.15294330000E+03 0.  0.
<mgrwt>
<rscale>  0 0.46399110E+03</rscale>
<asrwt>0</asrwt>
<pdfrwt beam="1">  1        2 0.14259301E+00 0.66051987E+03</pdfrwt>
<pdfrwt beam="2">  1       -2 0.87391570E-01 0.66051987E+03</pdfrwt>
<totfact> 0.32578980E+01</totfact>
</mgrwt>
</event>
<event>
 4    5  0.8511149E-008  0.1290287E+04  0.7818608E-02  0.9073994E-01
         -2   -1    0    0    0  501 -0.00000000000E+00  0.00000000000E+00  0.67382361693E+03  0.67382361694E+03  0.25500000000E-02 0.  1.
          2   -1    0    0  501    0  0.00000000000E+00 -0.00000000000E+00 -0.22070594045E+04  0.22070594045E+04  0.25500000000E-02 0. -1.
    8880023    1    1    2    0    0  0.36793469231E+03  0.10467348113E+04 -0.59974304669E+03  0.14228603696E+04  0.65864270000E+03 0.  0.
    8880022    1    1    2    0    0 -0.36793469231E+03 -0.10467348113E+04 -0.93349274092E+03  0.14580226519E+04  0.15294330000E+03 0.  1.
<mgrwt>
<rscale>  0 0.12454323E+04</rscale>
<asrwt>0</asrwt>
<pdfrwt beam="1">  1        2 0.33954760E+00 0.12902868E+04</pdfrwt>
<pdfrwt beam="2">  1       -2 0.10366517E+00 0.12902868E+04</pdfrwt>
<totfact> 0.37653247E+00</totfact>
</mgrwt>
</event>
<event>
 4    5  0.8511149E-008  0.1451515E+04  0.7818608E-02  0.8944654E-01
         -2   -1    0    0    0  501 -0.00000000000E+00  0.00000000000E+00  0.13343726324E+04  0.13343726324E+04  0.25500000000E-02 0.  1.
          2   -1    0    0  501    0  0.00000000000E+00 -0.00000000000E+00 -0.19255997814E+04  0.19255997814E+04  0.25500000000E-02 0. -1.
    8880023    1    1    2    0    0  0.12740679432E+04  0.22324258681E+03  0.52608540574E+03  0.15439114084E+04  0.65864270000E+03 0.  0.
    8880022    1    1    2    0    0 -0.12740679432E+04 -0.22324258681E+03 -0.11173125547E+04  0.17160610054E+04  0.15294330000E+03 0.  0.
<mgrwt>
<rscale>  0 0.14127319E+04</rscale>
<asrwt>0</asrwt>
<pdfrwt beam="1">  1        2 0.29624612E+00 0.14515153E+04</pdfrwt>
<pdfrwt beam="2">  1       -2 0.20528810E+00 0.14515153E+04</pdfrwt>
<totfact> 0.85200873E-01</totfact>
</mgrwt>
</event>
<event>
 4    5  0.8511149E-008  0.8160694E+03  0.7818608E-02  0.9677071E-01
          2   -1    0    0  501    0  0.00000000000E+00  0.00000000000E+00  0.25363725766E+04  0.25363725766E+04  0.25500000000E-02 0. -1.
         -2   -1    0    0    0  501 -0.00000000000E+00 -0.00000000000E+00 -0.60645051635E+03  0.60645051636E+03  0.25500000000E-02 0.  1.
    8880023    1    1    2    0    0 -0.86623899834E+02  0.47397817349E+03 -0.29000354416E+03  0.86606655106E+03  0.65864270000E+03 0.  0.
    8880022    1    1    2    0    0  0.86623899834E+02 -0.47397817349E+03  0.22199256044E+04  0.22767565419E+04  0.15294330000E+03 0.  0.
<mgrwt>
<rscale>  0 0.72398561E+03</rscale>
<asrwt>0</asrwt>
<pdfrwt beam="1">  1        2 0.39021116E+00 0.81606937E+03</pdfrwt>
<pdfrwt beam="2">  1       -2 0.93300081E-01 0.81606937E+03</pdfrwt>
<totfact> 0.33487951E+00</totfact>
</mgrwt>
</event>
<event>
 4    5  0.8511149E-008  0.8421024E+03  0.7818608E-02  0.9626229E-01
         -2   -1    0    0    0  501 -0.00000000000E+00  0.00000000000E+00  0.97716729742E+03  0.97716729742E+03  0.25500000000E-02 0.  1.
          2   -1    0    0  501    0  0.00000000000E+00 -0.00000000000E+00 -0.11560724067E+04  0.11560724067E+04  0.25500000000E-02 0. -1.
    8880023    1    1    2    0    0 -0.15589518875E+03 -0.50102188239E+03  0.70215182181E+03  0.10964276646E+04  0.65864270000E+03 0.  1.
    8880022    1    1    2    0    0  0.15589518875E+03  0.50102188239E+03 -0.88105693108E+03  0.10368120395E+04  0.15294330000E+03 0.  0.
<mgrwt>
<rscale>  0 0.75584254E+03</rscale>
<asrwt>0</asrwt>
<pdfrwt beam="1">  1        2 0.17785729E+00 0.84210239E+03</pdfrwt>
<pdfrwt beam="2">  1       -2 0.15033343E+00 0.84210239E+03</pdfrwt>
<totfact> 0.60482108E+00</totfact>
</mgrwt>
</event>
<event>
 4    5  0.8511149E-008  0.9103850E+03  0.7818608E-02  0.9509562E-01
          2   -1    0    0  501    0  0.00000000000E+00  0.00000000000E+00  0.19837920790E+04  0.19837920790E+04  0.25500000000E-02 0. -1.
         -2   -1    0    0    0  501 -0.00000000000E+00 -0.00000000000E+00 -0.94912493422E+03  0.94912493422E+03  0.25500000000E-02 0.  1.
    8880023    1    1    2    0    0  0.61877294836E+03 -0.11004872269E+03 -0.65641361166E+03  0.11223545424E+04  0.65864270000E+03 0.  1.
    8880022    1    1    2    0    0 -0.61877294836E+03  0.11004872269E+03  0.16910807564E+04  0.18105624708E+04  0.15294330000E+03 0.  0.
<mgrwt>
<rscale>  0 0.83582527E+03</rscale>
<asrwt>0</asrwt>
<pdfrwt beam="1">  1        2 0.30519878E+00 0.91038502E+03</pdfrwt>
<pdfrwt beam="2">  1       -2 0.14601922E+00 0.91038502E+03</pdfrwt>
<totfact> 0.22170816E+00</totfact>
</mgrwt>
</event>
<event>
 4    5  0.8511149E-008  0.9605780E+03  0.7818608E-02  0.9435055E-01
          2   -1    0    0  501    0  0.00000000000E+00  0.00000000000E+00  0.11624959979E+04  0.11624959980E+04  0.25500000000E-02 0. -1.
         -2   -1    0    0    0  501 -0.00000000000E+00 -0.00000000000E+00 -0.61750556068E+03  0.61750556068E+03  0.25500000000E-02 0.  1.
    8880023    1    1    2    0    0  0.56131917279E+03 -0.41691807676E+03  0.44015087817E+03  0.10566186153E+04  0.65864270000E+03 0. -1.
    8880022    1    1    2    0    0 -0.56131917279E+03  0.41691807676E+03  0.10483955910E+03  0.72338294329E+03  0.15294330000E+03 0.  0.
<mgrwt>
<rscale>  0 0.89246075E+03</rscale>
<asrwt>0</asrwt>
<pdfrwt beam="1">  1        2 0.17884554E+00 0.96057800E+03</pdfrwt>
<pdfrwt beam="2">  1       -2 0.95000857E-01 0.96057800E+03</pdfrwt>
<totfact> 0.18553713E+01</totfact>
</mgrwt>
</event>
<event>
 4    5  0.8511149E-008  0.8453033E+03  0.7818608E-02  0.9620260E-01
         -2   -1    0    0    0  501 -0.00000000000E+00  0.00000000000E+00  0.93118889547E+03  0.93118889547E+03  0.25500000000E-02 0.  1.
          2   -1    0    0  501    0  0.00000000000E+00 -0.00000000000E+00 -0.13862462236E+04  0.13862462236E+04  0.25500000000E-02 0. -1.
    8880023    1    1    2    0    0 -0.28711775521E+03  0.44529861238E+03  0.66067204005E+03  0.10728584298E+04  0.65864270000E+03 0.  1.
    8880022    1    1    2    0    0  0.28711775521E+03 -0.44529861238E+03 -0.11157293681E+04  0.12445766893E+04  0.15294330000E+03 0.  0.
<mgrwt>
<rscale>  0 0.75969608E+03</rscale>
<asrwt>0</asrwt>
<pdfrwt beam="1">  1        2 0.21326865E+00 0.84530330E+03</pdfrwt>
<pdfrwt beam="2">  1       -2 0.14325983E+00 0.84530330E+03</pdfrwt>
<totfact> 0.50368949E+00</totfact>
</mgrwt>
</event>
<event>
 4    5  0.8511149E-008  0.7393708E+03  0.7818608E-02  0.9861784E-01
         -2   -1    0    0    0  501 -0.00000000000E+00  0.00000000000E+00  0.91326825429E+03  0.91326825430E+03  0.25500000000E-02 0.  1.
          2   -1    0    0  501    0  0.00000000000E+00 -0.00000000000E+00 -0.42896527488E+03  0.42896527489E+03  0.25500000000E-02 0. -1.
    8880023    1    1    2    0    0 -0.31570521151E+03  0.11484392676E+03  0.60343899886E+03  0.95436247815E+03  0.65864270000E+03 0.  1.
    8880022    1    1    2    0    0  0.31570521151E+03 -0.11484392676E+03 -0.11913601945E+03  0.38787105104E+03  0.15294330000E+03 0.  0.
<mgrwt>
<rscale>  0 0.62149693E+03</rscale>
<asrwt>0</asrwt>
<pdfrwt beam="1">  1        2 0.65994657E-01 0.73937076E+03</pdfrwt>
<pdfrwt beam="2">  1       -2 0.14050281E+00 0.73937076E+03</pdfrwt>
<totfact> 0.26486495E+01</totfact>
</mgrwt>
</event>
<event>
 4    5  0.8511149E-008  0.9246054E+03  0.7818608E-02  0.9487633E-01
          2   -1    0    0  501    0  0.00000000000E+00  0.00000000000E+00  0.42562068524E+04  0.42562068524E+04  0.25500000000E-02 0. -1.
         -2   -1    0    0    0  501 -0.00000000000E+00 -0.00000000000E+00 -0.89743344479E+03  0.89743344479E+03  0.25500000000E-02 0.  1.
    8880023    1    1    2    0    0  0.11588686502E+03 -0.63847884910E+03 -0.62398929034E+03  0.11154630639E+04  0.65864270000E+03 0.  0.
    8880022    1    1    2    0    0 -0.11588686502E+03  0.63847884910E+03  0.39827626980E+04  0.40381772333E+04  0.15294330000E+03 0.  0.
<mgrwt>
<rscale>  0 0.85201738E+03</rscale>
<asrwt>0</asrwt>
<pdfrwt beam="1">  1        2 0.65480106E+00 0.92460544E+03</pdfrwt>
<pdfrwt beam="2">  1       -2 0.13806668E+00 0.92460544E+03</pdfrwt>
<totfact> 0.83317273E-02</totfact>
</mgrwt>
</event>
<event>
 4    5  0.8511149E-008  0.1337050E+04  0.7818608E-02  0.9034208E-01
         -2   -1    0    0    0  501 -0.00000000000E+00  0.00000000000E+00  0.10218402562E+04  0.10218402562E+04  0.25500000000E-02 0.  1.
          2   -1    0    0  501    0  0.00000000000E+00 -0.00000000000E+00 -0.26954505381E+04  0.26954505381E+04  0.25500000000E-02 0. -1.
    8880023    1    1    2    0    0 -0.67728935938E+03  0.94613450665E+03  0.34632854047E+03  0.13811752406E+04  0.65864270000E+03 0.  1.
    8880022    1    1    2    0    0  0.67728935938E+03 -0.94613450665E+03 -0.20199388224E+04  0.23361155537E+04  0.15294330000E+03 0.  0.
<mgrwt>
<rscale>  0 0.12941617E+04</rscale>
<asrwt>0</asrwt>
<pdfrwt beam="1">  1        2 0.41468469E+00 0.13370496E+04</pdfrwt>
<pdfrwt beam="2">  1       -2 0.15720619E+00 0.13370496E+04</pdfrwt>
<totfact> 0.67966077E-01</totfact>
</mgrwt>
</event>
<event>
 4    5  0.8511149E-008  0.7435377E+03  0.7818608E-02  0.9849759E-01
          2   -1    0    0  501    0  0.00000000000E+00  0.00000000000E+00  0.22172390250E+04  0.22172390250E+04  0.25500000000E-02 0. -1.
         -2   -1    0    0    0  501 -0.00000000000E+00 -0.00000000000E+00 -0.30844363595E+03  0.30844363596E+03  0.25500000000E-02 0.  1.
    8880023    1    1    2    0    0 -0.31320928899E+03  0.14469984927E+03  0.19204392095E+03  0.76793826505E+03  0.65864270000E+03 0.  1.
    8880022    1    1    2    0    0  0.31320928899E+03 -0.14469984927E+03  0.17167514681E+04  0.17577443959E+04  0.15294330000E+03 0.  0.
<mgrwt>
<rscale>  0 0.62759191E+03</rscale>
<asrwt>0</asrwt>
<pdfrwt beam="1">  1        2 0.34111369E+00 0.74353770E+03</pdfrwt>
<pdfrwt beam="2">  1       -2 0.47452868E-01 0.74353770E+03</pdfrwt>
<totfact> 0.22091411E+01</totfact>
</mgrwt>
</event>
<event>
 4    5  0.8511149E-008  0.1149848E+04  0.7818608E-02  0.9207486E-01
         -2   -1    0    0    0  501 -0.00000000000E+00  0.00000000000E+00  0.95478924897E+03  0.95478924897E+03  0.25500000000E-02 0.  1.
          2   -1    0    0  501    0  0.00000000000E+00 -0.00000000000E+00 -0.13071032904E+04  0.13071032904E+04  0.25500000000E-02 0. -1.
    8880023    1    1    2    0    0 -0.78809364146E+03 -0.51696132535E+03  0.18747524463E+03  0.11650312327E+04  0.65864270000E+03 0.  0.
    8880022    1    1    2    0    0  0.78809364146E+03  0.51696132535E+03 -0.53978928603E+03  0.10968613066E+04  0.15294330000E+03 0.  0.
<mgrwt>
<rscale>  0 0.10976498E+04</rscale>
<asrwt>0</asrwt>
<pdfrwt beam="1">  1        2 0.20109281E+00 0.11498482E+04</pdfrwt>
<pdfrwt beam="2">  1       -2 0.14689065E+00 0.11498482E+04</pdfrwt>
<totfact> 0.50672716E+00</totfact>
</mgrwt>
</event>
<event>
 4    5  0.8511149E-008  0.7306805E+03  0.7818608E-02  0.9887976E-01
          2   -1    0    0  501    0  0.00000000000E+00  0.00000000000E+00  0.44511111165E+03  0.44511111166E+03  0.25500000000E-02 0. -1.
         -2   -1    0    0    0  501 -0.00000000000E+00 -0.00000000000E+00 -0.10160864455E+04  0.10160864455E+04  0.25500000000E-02 0.  1.
    8880023    1    1    2    0    0  0.20724993909E+03  0.23902147883E+03 -0.76658435608E+03  0.10590304933E+04  0.65864270000E+03 0.  1.
    8880022    1    1    2    0    0 -0.20724993909E+03 -0.23902147883E+03  0.19560902225E+03  0.40216706379E+03  0.15294330000E+03 0.  0.
<mgrwt>
<rscale>  0 0.60847568E+03</rscale>
<asrwt>0</asrwt>
<pdfrwt beam="1">  1        2 0.68478633E-01 0.73068051E+03</pdfrwt>
<pdfrwt beam="2">  1       -2 0.15632099E+00 0.73068051E+03</pdfrwt>
<totfact> 0.19186978E+01</totfact>
</mgrwt>
</event>
<event>
 4    5  0.8511149E-008  0.8652372E+03  0.7818608E-02  0.9584315E-01
         -2   -1    0    0    0  501 -0.00000000000E+00  0.00000000000E+00  0.11619207650E+04  0.11619207650E+04  0.25500000000E-02 0.  1.
          2   -1    0    0  501    0  0.00000000000E+00 -0.00000000000E+00 -0.10723335188E+04  0.10723335188E+04  0.25500000000E-02 0. -1.
    8880023    1    1    2    0    0 -0.16507999145E+03  0.53625906033E+03  0.89236318561E+03  0.12429591484E+04  0.65864270000E+03 0.  0.
    8880022    1    1    2    0    0  0.16507999145E+03 -0.53625906033E+03 -0.80277593947E+03  0.99129513535E+03  0.15294330000E+03 0.  0.
<mgrwt>
<rscale>  0 0.78343106E+03</rscale>
<asrwt>0</asrwt>
<pdfrwt beam="1">  1        2 0.16497439E+00 0.86523719E+03</pdfrwt>
<pdfrwt beam="2">  1       -2 0.17875704E+00 0.86523719E+03</pdfrwt>
<totfact> 0.42200311E+00</totfact>
</mgrwt>
</event>
<event>
 4    5  0.8511149E-008  0.9305956E+03  0.7818608E-02  0.9478600E-01
         -2   -1    0    0    0  501 -0.00000000000E+00  0.00000000000E+00  0.53703994947E+03  0.53703994947E+03  0.25500000000E-02 0.  1.
          2   -1    0    0  501    0  0.00000000000E+00 -0.00000000000E+00 -0.24475997167E+04  0.24475997167E+04  0.25500000000E-02 0. -1.
    8880023    1    1    2    0    0  0.61752171849E+03 -0.22553241472E+03  0.28940041762E+02  0.93104547428E+03  0.65864270000E+03 0.  1.
    8880022    1    1    2    0    0 -0.61752171849E+03  0.22553241472E+03 -0.19394998090E+04  0.20535941919E+04  0.15294330000E+03 0.  0.
<mgrwt>
<rscale>  0 0.85880085E+03</rscale>
<asrwt>0</asrwt>
<pdfrwt beam="1">  1        2 0.37655380E+00 0.93059559E+03</pdfrwt>
<pdfrwt beam="2">  1       -2 0.82621532E-01 0.93059559E+03</pdfrwt>
<totfact> 0.48868138E+00</totfact>
</mgrwt>
</event>
<event>
 4    5  0.8511149E-008  0.6749397E+03  0.7818608E-02  0.1012344E+00
          2   -1    0    0  501    0  0.00000000000E+00  0.00000000000E+00  0.18551108118E+03  0.18551108119E+03  0.25500000000E-02 0. -1.
         -2   -1    0    0    0  501 -0.00000000000E+00 -0.00000000000E+00 -0.12162763891E+04  0.12162763891E+04  0.25500000000E-02 0.  1.
    8880023    1    1    2    0    0 -0.13170004738E+02 -0.14683284167E+03 -0.96839321462E+03  0.11803935601E+04  0.65864270000E+03 0.  1.
    8880022    1    1    2    0    0  0.13170004738E+02  0.14683284167E+03 -0.62372093297E+02  0.22139391015E+03  0.15294330000E+03 0.  0.
<mgrwt>
<rscale>  0 0.50553455E+03</rscale>
<asrwt>0</asrwt>
<pdfrwt beam="1">  1        2 0.28540167E-01 0.67493966E+03</pdfrwt>
<pdfrwt beam="2">  1       -2 0.18711944E+00 0.67493966E+03</pdfrwt>
<totfact> 0.31138589E+01</totfact>
</mgrwt>
</event>
<event>
 4    5  0.8511149E-008  0.1132263E+04  0.7818608E-02  0.9225958E-01
         -2   -1    0    0    0  501 -0.00000000000E+00  0.00000000000E+00  0.50882591929E+03  0.50882591930E+03  0.25500000000E-02 0.  1.
          2   -1    0    0  501    0  0.00000000000E+00 -0.00000000000E+00 -0.22151736362E+04  0.22151736362E+04  0.25500000000E-02 0. -1.
    8880023    1    1    2    0    0  0.85946848989E+03 -0.33094257088E+03 -0.61746796206E+03  0.12896844423E+04  0.65864270000E+03 0.  0.
    8880022    1    1    2    0    0 -0.85946848989E+03  0.33094257088E+03 -0.10888797548E+04  0.14343151132E+04  0.15294330000E+03 0.  0.
<mgrwt>
<rscale>  0 0.10789471E+04</rscale>
<asrwt>0</asrwt>
<pdfrwt beam="1">  1        2 0.34079594E+00 0.11322629E+04</pdfrwt>
<pdfrwt beam="2">  1       -2 0.78280912E-01 0.11322629E+04</pdfrwt>
<totfact> 0.72791594E+00</totfact>
</mgrwt>
</event>
<event>
 4    5  0.8511149E-008  0.7393731E+03  0.7818608E-02  0.9861777E-01
         -2   -1    0    0    0  501 -0.00000000000E+00  0.00000000000E+00  0.11828019305E+04  0.11828019305E+04  0.25500000000E-02 0.  1.
          2   -1    0    0  501    0  0.00000000000E+00 -0.00000000000E+00 -0.60096664118E+03  0.60096664118E+03  0.25500000000E-02 0. -1.
    8880023    1    1    2    0    0 -0.27063152901E+03 -0.19905011685E+03  0.98858756190E+03  0.12344950171E+04  0.65864270000E+03 0.  1.
    8880022    1    1    2    0    0  0.27063152901E+03  0.19905011685E+03 -0.40675227255E+03  0.54927355458E+03  0.15294330000E+03 0.  0.
<mgrwt>
<rscale>  0 0.62150039E+03</rscale>
<asrwt>0</asrwt>
<pdfrwt beam="1">  1        2 0.92456408E-01 0.73937310E+03</pdfrwt>
<pdfrwt beam="2">  1       -2 0.18196952E+00 0.73937310E+03</pdfrwt>
<totfact> 0.88629123E+00</totfact>
</mgrwt>
</event>
<event>
 4    5  0.8511149E-008  0.9294702E+03  0.7818608E-02  0.9480288E-01
         -2   -1    0    0    0  501 -0.00000000000E+00  0.00000000000E+00  0.61288613141E+03  0.61288613141E+03  0.25500000000E-02 0.  1.
          2   -1    0    0  501    0  0.00000000000E+00 -0.00000000000E+00 -0.20981085100E+04  0.20981085100E+04  0.25500000000E-02 0. -1.
    8880023    1    1    2    0    0  0.22340042513E+03 -0.61660112561E+03  0.15095818153E+03  0.94164923241E+03  0.65864270000E+03 0.  0.
    8880022    1    1    2    0    0 -0.22340042513E+03  0.61660112561E+03 -0.16361805602E+04  0.17693454090E+04  0.15294330000E+03 0.  0.
<mgrwt>
<rscale>  0 0.85752805E+03</rscale>
<asrwt>0</asrwt>
<pdfrwt beam="1">  1        2 0.32278592E+00 0.92947023E+03</pdfrwt>
<pdfrwt beam="2">  1       -2 0.94290175E-01 0.92947023E+03</pdfrwt>
<totfact> 0.56501392E+00</totfact>
</mgrwt>
</event>
<event>
 4    5  0.8511149E-008  0.1050606E+04  0.7818608E-02  0.9318153E-01
         -2   -1    0    0    0  501 -0.00000000000E+00  0.00000000000E+00  0.23074661617E+04  0.23074661617E+04  0.25500000000E-02 0.  1.
          2   -1    0    0  501    0  0.00000000000E+00 -0.00000000000E+00 -0.83995159498E+03  0.83995159499E+03  0.25500000000E-02 0. -1.
    8880023    1    1    2    0    0 -0.45865446423E+03  0.67793727968E+03  0.19281645624E+04  0.21958123005E+04  0.65864270000E+03 0.  1.
    8880022    1    1    2    0    0  0.45865446423E+03 -0.67793727968E+03 -0.46064999573E+03  0.95160545622E+03  0.15294330000E+03 0.  0.
<mgrwt>
<rscale>  0 0.99128685E+03</rscale>
<asrwt>0</asrwt>
<pdfrwt beam="1">  1        2 0.12922332E+00 0.10506061E+04</pdfrwt>
<pdfrwt beam="2">  1       -2 0.35499479E+00 0.10506061E+04</pdfrwt>
<totfact> 0.46899230E-01</totfact>
</mgrwt>
</event>
<event>
 4    5  0.8511149E-008  0.7302635E+03  0.7818608E-02  0.9889274E-01
         -2   -1    0    0    0  501 -0.00000000000E+00  0.00000000000E+00  0.40449368598E+03  0.40449368599E+03  0.25500000000E-02 0.  1.
          2   -1    0    0  501    0  0.00000000000E+00 -0.00000000000E+00 -0.20467317792E+04  0.20467317792E+04  0.25500000000E-02 0. -1.
    8880023    1    1    2    0    0  0.86093345784E+02 -0.30341815503E+03  0.41448242683E+02  0.73143885874E+03  0.65864270000E+03 0.  1.
    8880022    1    1    2    0    0 -0.86093345784E+02  0.30341815503E+03 -0.16836863359E+04  0.17197866064E+04  0.15294330000E+03 0.  0.
<mgrwt>
<rscale>  0 0.60783935E+03</rscale>
<asrwt>0</asrwt>
<pdfrwt beam="1">  1        2 0.31488181E+00 0.73026355E+03</pdfrwt>
<pdfrwt beam="2">  1       -2 0.62229799E-01 0.73026355E+03</pdfrwt>
<totfact> 0.15664940E+01</totfact>
</mgrwt>
</event>
<event>
 4    5  0.8511149E-008  0.7308643E+03  0.7818608E-02  0.9887405E-01
          2   -1    0    0  501    0  0.00000000000E+00  0.00000000000E+00  0.20496185045E+04  0.20496185045E+04  0.25500000000E-02 0. -1.
         -2   -1    0    0    0  501 -0.00000000000E+00 -0.00000000000E+00 -0.59741269925E+03  0.59741269925E+03  0.25500000000E-02 0.  1.
    8880023    1    1    2    0    0 -0.10839057380E+03  0.29766404448E+03 -0.35033095278E+03  0.81049021130E+03  0.65864270000E+03 0.  1.
    8880022    1    1    2    0    0  0.10839057380E+03 -0.29766404448E+03  0.18025367580E+04  0.18365409924E+04  0.15294330000E+03 0.  0.
<mgrwt>
<rscale>  0 0.60875578E+03</rscale>
<asrwt>0</asrwt>
<pdfrwt beam="1">  1        2 0.31532592E+00 0.73086429E+03</pdfrwt>
<pdfrwt beam="2">  1       -2 0.91909648E-01 0.73086429E+03</pdfrwt>
<totfact> 0.65652356E+00</totfact>
</mgrwt>
</event>
<event>
 4    5  0.8511149E-008  0.1258733E+04  0.7818608E-02  0.9102042E-01
         -2   -1    0    0    0  501 -0.00000000000E+00  0.00000000000E+00  0.46757653886E+03  0.46757653887E+03  0.25500000000E-02 0.  1.
          2   -1    0    0  501    0  0.00000000000E+00 -0.00000000000E+00 -0.39160531889E+04  0.39160531889E+04  0.25500000000E-02 0. -1.
    8880023    1    1    2    0    0 -0.66330647203E+03  0.84298425128E+03 -0.29165752674E+04  0.31766050149E+04  0.65864270000E+03 0. -1.
    8880022    1    1    2    0    0  0.66330647203E+03 -0.84298425128E+03 -0.53190138266E+03  0.12070247129E+04  0.15294330000E+03 0.  0.
<mgrwt>
<rscale>  0 0.12124342E+04</rscale>
<asrwt>0</asrwt>
<pdfrwt beam="1">  1        2 0.60246970E+00 0.12587327E+04</pdfrwt>
<pdfrwt beam="2">  1       -2 0.71934855E-01 0.12587327E+04</pdfrwt>
<totfact> 0.70366700E-01</totfact>
</mgrwt>
</event>
<event>
 4    5  0.8511149E-008  0.7587247E+03  0.7818608E-02  0.9808420E-01
          2   -1    0    0  501    0  0.00000000000E+00  0.00000000000E+00  0.10432994472E+04  0.10432994472E+04  0.25500000000E-02 0. -1.
         -2   -1    0    0    0  501 -0.00000000000E+00 -0.00000000000E+00 -0.25152230386E+04  0.25152230386E+04  0.25500000000E-02 0.  1.
    8880023    1    1    2    0    0  0.15716308190E+03  0.34227588587E+03 -0.24150994478E+04  0.25314755708E+04  0.65864270000E+03 0.  1.
    8880022    1    1    2    0    0 -0.15716308190E+03 -0.34227588587E+03  0.94317585645E+03  0.10270469150E+04  0.15294330000E+03 0.  0.
<mgrwt>
<rscale>  0 0.64912616E+03</rscale>
<asrwt>0</asrwt>
<pdfrwt beam="1">  1        2 0.16050761E+00 0.75872473E+03</pdfrwt>
<pdfrwt beam="2">  1       -2 0.38695739E+00 0.75872473E+03</pdfrwt>
<totfact> 0.22726986E-01</totfact>
</mgrwt>
</event>
<event>
 4    5  0.8511149E-008  0.6823779E+03  0.7818608E-02  0.1008009E+00
         -2   -1    0    0    0  501 -0.00000000000E+00  0.00000000000E+00  0.20992650915E+03  0.20992650917E+03  0.25500000000E-02 0.  1.
          2   -1    0    0  501    0  0.00000000000E+00 -0.00000000000E+00 -0.30639562967E+04  0.30639562967E+04  0.25500000000E-02 0. -1.
    8880023    1    1    2    0    0 -0.72755782436E+02  0.16289858923E+03 -0.36515014088E+03  0.77393422582E+03  0.65864270000E+03 0.  1.
    8880022    1    1    2    0    0  0.72755782436E+02 -0.16289858923E+03 -0.24888796467E+04  0.24999485800E+04  0.15294330000E+03 0.  0.
<mgrwt>
<rscale>  0 0.52273520E+03</rscale>
<asrwt>0</asrwt>
<pdfrwt beam="1">  1        2 0.47137786E+00 0.68237787E+03</pdfrwt>
<pdfrwt beam="2">  1       -2 0.32296388E-01 0.68237787E+03</pdfrwt>
<totfact> 0.15237491E+01</totfact>
</mgrwt>
</event>
<event>
 4    5  0.9639674E-008  0.6640884E+03  0.7818608E-02  0.1020311E+00
         -2   -1    0    0    0  501 -0.00000000000E+00  0.00000000000E+00  0.19459900512E+04  0.19459900512E+04  0.25500000000E-02 0.  1.
          2   -1    0    0  501    0  0.00000000000E+00 -0.00000000000E+00 -0.18919709050E+04  0.18919709050E+04  0.25500000000E-02 0. -1.
    8880023    1    1    2    0    0 -0.68773467191E+02  0.49732853707E+02  0.18850439746E+04  0.19986005452E+04  0.65864270000E+03 0.  1.
    8880022    1    1    2    0    0  0.68773467191E+02 -0.49732853707E+02 -0.18310248284E+04  0.18393604110E+04  0.15294330000E+03 0.  0.
<mgrwt>
<rscale>  0 0.47574623E+03</rscale>
<asrwt>0</asrwt>
<pdfrwt beam="1">  1        2 0.29107245E+00 0.66408836E+03</pdfrwt>
<pdfrwt beam="2">  1       -2 0.29938309E+00 0.66408836E+03</pdfrwt>
<totfact> 0.26759332E-01</totfact>
</mgrwt>
</event>
<event>
 4    5  0.8511149E-008  0.8385428E+03  0.7818608E-02  0.9632934E-01
         -2   -1    0    0    0  501 -0.00000000000E+00  0.00000000000E+00  0.48949937866E+03  0.48949937867E+03  0.25500000000E-02 0.  1.
          2   -1    0    0  501    0  0.00000000000E+00 -0.00000000000E+00 -0.25737390812E+04  0.25737390812E+04  0.25500000000E-02 0. -1.
    8880023    1    1    2    0    0 -0.51079843362E+03  0.91808135321E+02  0.70602078781E+02  0.84150973452E+03  0.65864270000E+03 0.  1.
    8880022    1    1    2    0    0  0.51079843362E+03 -0.91808135321E+02 -0.21548417813E+04  0.22217287253E+04  0.15294330000E+03 0.  0.
<mgrwt>
<rscale>  0 0.75154212E+03</rscale>
<asrwt>0</asrwt>
<pdfrwt beam="1">  1        2 0.39595985E+00 0.83854277E+03</pdfrwt>
<pdfrwt beam="2">  1       -2 0.75307598E-01 0.83854277E+03</pdfrwt>
<totfact> 0.51703601E+00</totfact>
</mgrwt>
</event>
<event>
 4    5  0.8511149E-008  0.7599960E+03  0.7818608E-02  0.9805118E-01
         -2   -1    0    0    0  501 -0.00000000000E+00  0.00000000000E+00  0.18281632934E+04  0.18281632934E+04  0.25500000000E-02 0.  1.
          2   -1    0    0  501    0  0.00000000000E+00 -0.00000000000E+00 -0.24896390958E+03  0.24896390960E+03  0.25500000000E-02 0. -1.
    8880023    1    1    2    0    0 -0.31701182204E+03  0.20805597415E+03  0.14685453259E+04  0.16535475089E+04  0.65864270000E+03 0.  0.
    8880022    1    1    2    0    0  0.31701182204E+03 -0.20805597415E+03  0.11065405789E+03  0.42357969408E+03  0.15294330000E+03 0.  0.
<mgrwt>
<rscale>  0 0.65088619E+03</rscale>
<asrwt>0</asrwt>
<pdfrwt beam="1">  1        2 0.38302140E-01 0.75999605E+03</pdfrwt>
<pdfrwt beam="2">  1       -2 0.28125589E+00 0.75999605E+03</pdfrwt>
<totfact> 0.57781705E+00</totfact>
</mgrwt>
</event>
<event>
 4    5  0.8511149E-008  0.9418898E+03  0.7818608E-02  0.9461880E-01
          2   -1    0    0  501    0  0.00000000000E+00  0.00000000000E+00  0.15453693036E+04  0.15453693036E+04  0.25500000000E-02 0. -1.
         -2   -1    0    0    0  501 -0.00000000000E+00 -0.00000000000E+00 -0.12759233052E+04  0.12759233052E+04  0.25500000000E-02 0.  1.
    8880023    1    1    2    0    0 -0.67305501445E+03  0.18522543838E+02 -0.10015454773E+04  0.13748635156E+04  0.65864270000E+03 0.  1.
    8880022    1    1    2    0    0  0.67305501445E+03 -0.18522543838E+02  0.12709914758E+04  0.14464290932E+04  0.15294330000E+03 0.  0.
<mgrwt>
<rscale>  0 0.87153535E+03</rscale>
<asrwt>0</asrwt>
<pdfrwt beam="1">  1        2 0.23774912E+00 0.94188977E+03</pdfrwt>
<pdfrwt beam="2">  1       -2 0.19629589E+00 0.94188977E+03</pdfrwt>
<totfact> 0.16867112E+00</totfact>
</mgrwt>
</event>
<event>
 4    5  0.8511149E-008  0.8436340E+03  0.7818608E-02  0.9623366E-01
         -2   -1    0    0    0  501 -0.00000000000E+00  0.00000000000E+00  0.19323711038E+03  0.19323711040E+03  0.25500000000E-02 0.  1.
          2   -1    0    0  501    0  0.00000000000E+00 -0.00000000000E+00 -0.41370086291E+04  0.41370086291E+04  0.25500000000E-02 0. -1.
    8880023    1    1    2    0    0  0.52644780532E+03  0.27583613640E+02 -0.88525362239E+03  0.12228623511E+04  0.65864270000E+03 0.  1.
    8880022    1    1    2    0    0 -0.52644780532E+03 -0.27583613640E+02 -0.30585178963E+04  0.31073833884E+04  0.15294330000E+03 0.  0.
<mgrwt>
<rscale>  0 0.75768801E+03</rscale>
<asrwt>0</asrwt>
<pdfrwt beam="1">  1        2 0.63646280E+00 0.84363402E+03</pdfrwt>
<pdfrwt beam="2">  1       -2 0.29728789E-01 0.84363402E+03</pdfrwt>
<totfact> 0.29958373E+00</totfact>
</mgrwt>
</event>
<event>
 4    5  0.8511149E-008  0.1104225E+04  0.7818608E-02  0.9256367E-01
         -2   -1    0    0    0  501 -0.00000000000E+00  0.00000000000E+00  0.19516722537E+04  0.19516722537E+04  0.25500000000E-02 0.  1.
          2   -1    0    0  501    0  0.00000000000E+00 -0.00000000000E+00 -0.82256408067E+03  0.82256408068E+03  0.25500000000E-02 0. -1.
    8880023    1    1    2    0    0  0.57127543645E+03 -0.67760364130E+03  0.14471112815E+04  0.18202866769E+04  0.65864270000E+03 0.  0.
    8880022    1    1    2    0    0 -0.57127543645E+03  0.67760364130E+03 -0.31800310842E+03  0.95394965747E+03  0.15294330000E+03 0.  0.
<mgrwt>
<rscale>  0 0.10490099E+04</rscale>
<asrwt>0</asrwt>
<pdfrwt beam="1">  1        2 0.12654832E+00 0.11042249E+04</pdfrwt>
<pdfrwt beam="2">  1       -2 0.30025727E+00 0.11042249E+04</pdfrwt>
<totfact> 0.10417123E+00</totfact>
</mgrwt>
</event>
<event>
 4    5  0.8511149E-008  0.1551015E+04  0.7818608E-02  0.8874428E-01
         -2   -1    0    0    0  501 -0.00000000000E+00  0.00000000000E+00  0.13266092915E+04  0.13266092915E+04  0.25500000000E-02 0.  1.
          2   -1    0    0  501    0  0.00000000000E+00 -0.00000000000E+00 -0.24504393792E+04  0.24504393792E+04  0.25500000000E-02 0. -1.
    8880023    1    1    2    0    0  0.50110973167E+03 -0.13117644868E+04  0.49548184483E+03  0.16282350865E+04  0.65864270000E+03 0.  1.
    8880022    1    1    2    0    0 -0.50110973167E+03  0.13117644868E+04 -0.16193119325E+04  0.21488135842E+04  0.15294330000E+03 0.  0.
<mgrwt>
<rscale>  0 0.15151690E+04</rscale>
<asrwt>0</asrwt>
<pdfrwt beam="1">  1        2 0.37699067E+00 0.15510149E+04</pdfrwt>
<pdfrwt beam="2">  1       -2 0.20409374E+00 0.15510149E+04</pdfrwt>
<totfact> 0.43431895E-01</totfact>
</mgrwt>
</event>
<event>
 4    5  0.8511149E-008  0.7062080E+03  0.7818608E-02  0.9972361E-01
          2   -1    0    0  501    0  0.00000000000E+00  0.00000000000E+00  0.10972333552E+04  0.10972333552E+04  0.25500000000E-02 0. -1.
         -2   -1    0    0    0  501 -0.00000000000E+00 -0.00000000000E+00 -0.23100468447E+03  0.23100468449E+03  0.25500000000E-02 0.  1.
    8880023    1    1    2    0    0 -0.24485391571E+03 -0.70470275852E+02  0.55768343624E+03  0.89985583353E+03  0.65864270000E+03 0.  0.
    8880022    1    1    2    0    0  0.24485391571E+03  0.70470275852E+02  0.30854523449E+03  0.42838220616E+03  0.15294330000E+03 0. -1.
<mgrwt>
<rscale>  0 0.56878929E+03</rscale>
<asrwt>0</asrwt>
<pdfrwt beam="1">  1        2 0.16880513E+00 0.70620798E+03</pdfrwt>
<pdfrwt beam="2">  1       -2 0.35539182E-01 0.70620798E+03</pdfrwt>
<totfact> 0.16510785E+02</totfact>
</mgrwt>
</event>
<event>
 4    5  0.8511149E-008  0.8709231E+03  0.7818608E-02  0.9574421E-01
         -2   -1    0    0    0  501 -0.00000000000E+00  0.00000000000E+00  0.64248336466E+03  0.64248336466E+03  0.25500000000E-02 0.  1.
          2   -1    0    0  501    0  0.00000000000E+00 -0.00000000000E+00 -0.89006676892E+03  0.89006676892E+03  0.25500000000E-02 0. -1.
    8880023    1    1    2    0    0 -0.47151169526E+03  0.31995855282E+03  0.48819510239E+02  0.87229026427E+03  0.65864270000E+03 0.  1.
    8880022    1    1    2    0    0  0.47151169526E+03 -0.31995855282E+03 -0.29640291450E+03  0.66025986932E+03  0.15294330000E+03 0.  0.
<mgrwt>
<rscale>  0 0.79012542E+03</rscale>
<asrwt>0</asrwt>
<pdfrwt beam="1">  1        2 0.13693335E+00 0.87092305E+03</pdfrwt>
<pdfrwt beam="2">  1       -2 0.98843595E-01 0.87092305E+03</pdfrwt>
<totfact> 0.25394243E+01</totfact>
</mgrwt>
</event>
<event>
 4    5  0.8511149E-008  0.6827525E+03  0.7818608E-02  0.1007808E+00
         -2   -1    0    0    0  501 -0.00000000000E+00  0.00000000000E+00  0.51659030623E+03  0.51659030623E+03  0.25500000000E-02 0.  1.
          2   -1    0    0  501    0  0.00000000000E+00 -0.00000000000E+00 -0.83475039606E+03  0.83475039606E+03  0.25500000000E-02 0. -1.
    8880023    1    1    2    0    0  0.13756403566E+03 -0.11583137566E+03  0.25707488913E+03  0.72954676092E+03  0.65864270000E+03 0.  0.
    8880022    1    1    2    0    0 -0.13756403566E+03  0.11583137566E+03 -0.57523497896E+03  0.62179394137E+03  0.15294330000E+03 0.  0.
<mgrwt>
<rscale>  0 0.52355338E+03</rscale>
<asrwt>0</asrwt>
<pdfrwt beam="1">  1        2 0.12842314E+00 0.68275250E+03</pdfrwt>
<pdfrwt beam="2">  1       -2 0.79475432E-01 0.68275250E+03</pdfrwt>
<totfact> 0.46546894E+01</totfact>
</mgrwt>
</event>
<event>
 4    5  0.8511149E-008  0.8559627E+03  0.7818608E-02  0.9600786E-01
         -2   -1    0    0    0  501 -0.00000000000E+00  0.00000000000E+00  0.61416092547E+03  0.61416092548E+03  0.25500000000E-02 0.  1.
          2   -1    0    0  501    0  0.00000000000E+00 -0.00000000000E+00 -0.10024707330E+04  0.10024707330E+04  0.25500000000E-02 0. -1.
    8880023    1    1    2    0    0 -0.16138581037E+03 -0.52231849750E+03  0.10779819990E+03  0.86272397138E+03  0.65864270000E+03 0.  0.
    8880022    1    1    2    0    0  0.16138581037E+03  0.52231849750E+03 -0.49610800741E+03  0.75390768709E+03  0.15294330000E+03 0.  0.
<mgrwt>
<rscale>  0 0.77244199E+03</rscale>
<asrwt>0</asrwt>
<pdfrwt beam="1">  1        2 0.15422627E+00 0.85596273E+03</pdfrwt>
<pdfrwt beam="2">  1       -2 0.94486296E-01 0.85596273E+03</pdfrwt>
<totfact> 0.23836423E+01</totfact>
</mgrwt>
</event>
<event>
 4    5  0.8511149E-008  0.6790149E+03  0.7818608E-02  0.1009886E+00
          2   -1    0    0  501    0  0.00000000000E+00  0.00000000000E+00  0.31470754456E+03  0.31470754457E+03  0.25500000000E-02 0. -1.
         -2   -1    0    0    0  501 -0.00000000000E+00 -0.00000000000E+00 -0.64976833460E+03  0.64976833461E+03  0.25500000000E-02 0.  1.
    8880023    1    1    2    0    0 -0.15977044307E+03  0.41525497324E+02 -0.23997614590E+03  0.72017339459E+03  0.65864270000E+03 0.  0.
    8880022    1    1    2    0    0  0.15977044307E+03 -0.41525497324E+02 -0.95084644150E+02  0.24430248459E+03  0.15294330000E+03 0.  1.
<mgrwt>
<rscale>  0 0.51519776E+03</rscale>
<asrwt>0</asrwt>
<pdfrwt beam="1">  1        2 0.48416546E-01 0.67901485E+03</pdfrwt>
<pdfrwt beam="2">  1       -2 0.99964359E-01 0.67901485E+03</pdfrwt>
<totfact> 0.87210172E+01</totfact>
</mgrwt>
</event>
<event>
 4    5  0.8511149E-008  0.1048637E+04  0.7818608E-02  0.9320521E-01
         -2   -1    0    0    0  501 -0.00000000000E+00  0.00000000000E+00  0.28854344862E+04  0.28854344862E+04  0.25500000000E-02 0.  1.
          2   -1    0    0  501    0  0.00000000000E+00 -0.00000000000E+00 -0.10190211126E+04  0.10190211126E+04  0.25500000000E-02 0. -1.
    8880023    1    1    2    0    0  0.39909504045E+03 -0.71172541447E+03  0.25956451180E+04  0.27994666817E+04  0.65864270000E+03 0.  0.
    8880022    1    1    2    0    0 -0.39909504045E+03  0.71172541447E+03 -0.72923174436E+03  0.11049889171E+04  0.15294330000E+03 0.  0.
<mgrwt>
<rscale>  0 0.98915380E+03</rscale>
<asrwt>0</asrwt>
<pdfrwt beam="1">  1        2 0.15677248E+00 0.10486373E+04</pdfrwt>
<pdfrwt beam="2">  1       -2 0.44391300E+00 0.10486373E+04</pdfrwt>
<totfact> 0.94117897E-02</totfact>
</mgrwt>
</event>
<event>
 4    5  0.8511149E-008  0.1106303E+04  0.7818608E-02  0.9254071E-01
          2   -1    0    0  501    0  0.00000000000E+00  0.00000000000E+00  0.17773327207E+04  0.17773327207E+04  0.25500000000E-02 0. -1.
         -2   -1    0    0    0  501 -0.00000000000E+00 -0.00000000000E+00 -0.13671929605E+04  0.13671929605E+04  0.25500000000E-02 0.  1.
    8880023    1    1    2    0    0  0.68230123151E+03 -0.56970295099E+03 -0.98630882357E+03  0.14821308055E+04  0.65864270000E+03 0.  0.
    8880022    1    1    2    0    0 -0.68230123151E+03  0.56970295099E+03  0.13964485838E+04  0.16623948758E+04  0.15294330000E+03 0.  0.
<mgrwt>
<rscale>  0 0.10512343E+04</rscale>
<asrwt>0</asrwt>
<pdfrwt beam="1">  1        2 0.27343580E+00 0.11063031E+04</pdfrwt>
<pdfrwt beam="2">  1       -2 0.21033738E+00 0.11063031E+04</pdfrwt>
<totfact> 0.99387028E-01</totfact>
</mgrwt>
</event>
<event>
 4    5  0.8511149E-008  0.8843157E+03  0.7818608E-02  0.9551694E-01
         -2   -1    0    0    0  501 -0.00000000000E+00  0.00000000000E+00  0.13046303423E+04  0.13046303423E+04  0.25500000000E-02 0.  1.
          2   -1    0    0  501    0  0.00000000000E+00 -0.00000000000E+00 -0.86637654774E+03  0.86637654775E+03  0.25500000000E-02 0. -1.
    8880023    1    1    2    0    0  0.54752758975E+03  0.22004015432E+03  0.10049943057E+04  0.13386664602E+04  0.65864270000E+03 0.  1.
    8880022    1    1    2    0    0 -0.54752758975E+03 -0.22004015432E+03 -0.56674051115E+03  0.83234042978E+03  0.15294330000E+03 0.  0.
<mgrwt>
<rscale>  0 0.80577607E+03</rscale>
<asrwt>0</asrwt>
<pdfrwt beam="1">  1        2 0.13328870E+00 0.88431575E+03</pdfrwt>
<pdfrwt beam="2">  1       -2 0.20071236E+00 0.88431575E+03</pdfrwt>
<totfact> 0.40895217E+00</totfact>
</mgrwt>
</event>
<event>
 4    5  0.8511149E-008  0.6683026E+03  0.7818608E-02  0.1016910E+00
         -2   -1    0    0    0  501 -0.00000000000E+00  0.00000000000E+00  0.28916147337E+03  0.28916147338E+03  0.25500000000E-02 0.  1.
          2   -1    0    0  501    0  0.00000000000E+00 -0.00000000000E+00 -0.30880028139E+04  0.30880028139E+04  0.25500000000E-02 0. -1.
    8880023    1    1    2    0    0 -0.66339084652E+02  0.91745430366E+02 -0.10486978737E+03  0.67648058118E+03  0.65864270000E+03 0.  1.
    8880022    1    1    2    0    0  0.66339084652E+02 -0.91745430366E+02 -0.26939715531E+04  0.27006837061E+04  0.15294330000E+03 0.  0.
<mgrwt>
<rscale>  0 0.48818343E+03</rscale>
<asrwt>0</asrwt>
<pdfrwt beam="1">  1        2 0.47507733E+00 0.66830255E+03</pdfrwt>
<pdfrwt beam="2">  1       -2 0.44486383E-01 0.66830255E+03</pdfrwt>
<totfact> 0.79613538E+00</totfact>
</mgrwt>
</event>
<event>
 4    5  0.8511149E-008  0.1207005E+04  0.7818608E-02  0.9150343E-01
         -2   -1    0    0    0  501 -0.00000000000E+00  0.00000000000E+00  0.38193214895E+03  0.38193214896E+03  0.25500000000E-02 0.  1.
          2   -1    0    0  501    0  0.00000000000E+00 -0.00000000000E+00 -0.46399851133E+04  0.46399851133E+04  0.25500000000E-02 0. -1.
    8880023    1    1    2    0    0 -0.40022946371E+03 -0.92890670813E+03 -0.88372673144E+03  0.14959393163E+04  0.65864270000E+03 0.  0.
    8880022    1    1    2    0    0  0.40022946371E+03  0.92890670813E+03 -0.33743262329E+04  0.35259779459E+04  0.15294330000E+03 0.  0.
<mgrwt>
<rscale>  0 0.11581006E+04</rscale>
<asrwt>0</asrwt>
<pdfrwt beam="1">  1        2 0.71384382E+00 0.12070052E+04</pdfrwt>
<pdfrwt beam="2">  1       -2 0.58758795E-01 0.12070052E+04</pdfrwt>
<totfact> 0.25022044E-01</totfact>
</mgrwt>
</event>
<event>
 4    5  0.8511149E-008  0.9025873E+03  0.7818608E-02  0.9521891E-01
          2   -1    0    0  501    0  0.00000000000E+00  0.00000000000E+00  0.30082143335E+04  0.30082143335E+04  0.25500000000E-02 0. -1.
         -2   -1    0    0    0  501 -0.00000000000E+00 -0.00000000000E+00 -0.28726007305E+03  0.28726007307E+03  0.25500000000E-02 0.  1.
    8880023    1    1    2    0    0  0.49992866863E+03  0.36183552212E+03  0.60633365446E+03  0.10873381836E+04  0.65864270000E+03 0.  1.
    8880022    1    1    2    0    0 -0.49992866863E+03 -0.36183552212E+03  0.21146206060E+04  0.22081362229E+04  0.15294330000E+03 0.  0.
<mgrwt>
<rscale>  0 0.82688960E+03</rscale>
<asrwt>0</asrwt>
<pdfrwt beam="1">  1        2 0.46280220E+00 0.90258729E+03</pdfrwt>
<pdfrwt beam="2">  1       -2 0.44193858E-01 0.90258729E+03</pdfrwt>
<totfact> 0.86685485E+00</totfact>
</mgrwt>
</event>
<event>
 4    5  0.8511149E-008  0.2116764E+04  0.7818608E-02  0.8564998E-01
          2   -1    0    0  501    0  0.00000000000E+00  0.00000000000E+00  0.24727704352E+04  0.24727704352E+04  0.25500000000E-02 0. -1.
         -2   -1    0    0    0  501 -0.00000000000E+00 -0.00000000000E+00 -0.19400337607E+04  0.19400337607E+04  0.25500000000E-02 0.  1.
    8880023    1    1    2    0    0 -0.12516953811E+04  0.15748460939E+04 -0.45712570076E+03  0.21655612803E+04  0.65864270000E+03 0.  0.
    8880022    1    1    2    0    0  0.12516953811E+04 -0.15748460939E+04  0.98986237532E+03  0.22472429155E+04  0.15294330000E+03 0.  0.
<mgrwt>
<rscale>  0 0.20914975E+04</rscale>
<asrwt>0</asrwt>
<pdfrwt beam="1">  1        2 0.38042622E+00 0.21167645E+04</pdfrwt>
<pdfrwt beam="2">  1       -2 0.29846673E+00 0.21167645E+04</pdfrwt>
<totfact> 0.10283669E-01</totfact>
</mgrwt>
</event>
<event>
 4    5  0.8511149E-008  0.1543209E+04  0.7818608E-02  0.8879712E-01
         -2   -1    0    0    0  501 -0.00000000000E+00  0.00000000000E+00  0.16025474998E+04  0.16025474998E+04  0.25500000000E-02 0.  1.
          2   -1    0    0  501    0  0.00000000000E+00 -0.00000000000E+00 -0.19260157411E+04  0.19260157411E+04  0.25500000000E-02 0. -1.
    8880023    1    1    2    0    0 -0.13951726886E+04  0.34292708752E+02  0.79278624238E+03  0.17349360372E+04  0.65864270000E+03 0.  1.
    8880022    1    1    2    0    0  0.13951726886E+04 -0.34292708752E+02 -0.11162544836E+04  0.17936272038E+04  0.15294330000E+03 0.  0.
<mgrwt>
<rscale>  0 0.15071496E+04</rscale>
<asrwt>0</asrwt>
<pdfrwt beam="1">  1        2 0.29631011E+00 0.15432087E+04</pdfrwt>
<pdfrwt beam="2">  1       -2 0.24654577E+00 0.15432087E+04</pdfrwt>
<totfact> 0.46275793E-01</totfact>
</mgrwt>
</event>
<event>
 4    5  0.8511149E-008  0.1229754E+04  0.7818608E-02  0.9128728E-01
         -2   -1    0    0    0  501 -0.00000000000E+00  0.00000000000E+00  0.80993963488E+03  0.80993963489E+03  0.25500000000E-02 0.  1.
          2   -1    0    0  501    0  0.00000000000E+00 -0.00000000000E+00 -0.20287210116E+04  0.20287210116E+04  0.25500000000E-02 0. -1.
    8880023    1    1    2    0    0 -0.10382609952E+04 -0.22346201653E+02  0.52277586629E+00  0.12297543358E+04  0.65864270000E+03 0.  0.
    8880022    1    1    2    0    0  0.10382609952E+04  0.22346201653E+02 -0.12193041525E+04  0.16089063106E+04  0.15294330000E+03 0.  0.
<mgrwt>
<rscale>  0 0.11820351E+04</rscale>
<asrwt>0</asrwt>
<pdfrwt beam="1">  1        2 0.31211092E+00 0.12297542E+04</pdfrwt>
<pdfrwt beam="2">  1       -2 0.12460610E+00 0.12297542E+04</pdfrwt>
<totfact> 0.30278512E+00</totfact>
</mgrwt>
</event>
<event>
 4    5  0.8511149E-008  0.8942275E+03  0.7818608E-02  0.9535363E-01
         -2   -1    0    0    0  501 -0.00000000000E+00  0.00000000000E+00  0.61867790194E+03  0.61867790195E+03  0.25500000000E-02 0.  1.
          2   -1    0    0  501    0  0.00000000000E+00 -0.00000000000E+00 -0.14253115819E+04  0.14253115819E+04  0.25500000000E-02 0. -1.
    8880023    1    1    2    0    0 -0.35638453771E+03  0.48869487535E+03 -0.10456677072E+04  0.13758865433E+04  0.65864270000E+03 0. -1.
    8880022    1    1    2    0    0  0.35638453771E+03 -0.48869487535E+03  0.23903402728E+03  0.66810294052E+03  0.15294330000E+03 0.  0.
<mgrwt>
<rscale>  0 0.81726144E+03</rscale>
<asrwt>0</asrwt>
<pdfrwt beam="1">  1        2 0.21927870E+00 0.89422750E+03</pdfrwt>
<pdfrwt beam="2">  1       -2 0.95181216E-01 0.89422750E+03</pdfrwt>
<totfact> 0.13064820E+01</totfact>
</mgrwt>
</event>
<event>
 4    5  0.8511149E-008  0.8739343E+03  0.7818608E-02  0.9569242E-01
          2   -1    0    0  501    0  0.00000000000E+00  0.00000000000E+00  0.24766178754E+04  0.24766178754E+04  0.25500000000E-02 0. -1.
         -2   -1    0    0    0  501 -0.00000000000E+00 -0.00000000000E+00 -0.32181487554E+03  0.32181487555E+03  0.25500000000E-02 0.  1.
    8880023    1    1    2    0    0 -0.55884700434E+03 -0.13281965454E+03  0.42983990100E+03  0.97392175335E+03  0.65864270000E+03 0.  1.
    8880022    1    1    2    0    0  0.55884700434E+03  0.13281965454E+03  0.17249630988E+04  0.18245109975E+04  0.15294330000E+03 0.  0.
<mgrwt>
<rscale>  0 0.79365840E+03</rscale>
<asrwt>0</asrwt>
<pdfrwt beam="1">  1        2 0.38101814E+00 0.87393435E+03</pdfrwt>
<pdfrwt beam="2">  1       -2 0.49509981E-01 0.87393435E+03</pdfrwt>
<totfact> 0.14252530E+01</totfact>
</mgrwt>
</event>
<event>
 4    5  0.8511149E-008  0.7749231E+03  0.7818608E-02  0.9767901E-01
          2   -1    0    0  501    0  0.00000000000E+00  0.00000000000E+00  0.12909092557E+04  0.12909092557E+04  0.25500000000E-02 0. -1.
         -2   -1    0    0    0  501 -0.00000000000E+00 -0.00000000000E+00 -0.36416334301E+03  0.36416334302E+03  0.25500000000E-02 0.  1.
    8880023    1    1    2    0    0  0.40341455202E+03  0.62867202887E+02  0.18821790725E+03  0.79745330450E+03  0.65864270000E+03 0.  1.
    8880022    1    1    2    0    0 -0.40341455202E+03 -0.62867202887E+02  0.73852800546E+03  0.85761929423E+03  0.15294330000E+03 0.  0.
<mgrwt>
<rscale>  0 0.67113992E+03</rscale>
<asrwt>0</asrwt>
<pdfrwt beam="1">  1        2 0.19860142E+00 0.77492309E+03</pdfrwt>
<pdfrwt beam="2">  1       -2 0.56025130E-01 0.77492309E+03</pdfrwt>
<totfact> 0.50882312E+01</totfact>
</mgrwt>
</event>
<event>
 4    5  0.8511149E-008  0.6938770E+03  0.7818608E-02  0.1002362E+00
          2   -1    0    0  501    0  0.00000000000E+00  0.00000000000E+00  0.97418277756E+03  0.97418277756E+03  0.25500000000E-02 0. -1.
         -2   -1    0    0    0  501 -0.00000000000E+00 -0.00000000000E+00 -0.62362779631E+03  0.62362779632E+03  0.25500000000E-02 0.  1.
    8880023    1    1    2    0    0 -0.15084509202E+03 -0.15779985075E+03 -0.40028843472E+03  0.80105934357E+03  0.65864270000E+03 0.  1.
    8880022    1    1    2    0    0  0.15084509202E+03  0.15779985075E+03  0.75084341597E+03  0.79675123031E+03  0.15294330000E+03 0.  0.
<mgrwt>
<rscale>  0 0.54626683E+03</rscale>
<asrwt>0</asrwt>
<pdfrwt beam="1">  1        2 0.14987427E+00 0.69387696E+03</pdfrwt>
<pdfrwt beam="2">  1       -2 0.95942738E-01 0.69387696E+03</pdfrwt>
<totfact> 0.24363607E+01</totfact>
</mgrwt>
</event>
<event>
 4    5  0.8511149E-008  0.1003109E+04  0.7818608E-02  0.9377501E-01
          2   -1    0    0  501    0  0.00000000000E+00  0.00000000000E+00  0.26718395768E+04  0.26718395768E+04  0.25500000000E-02 0. -1.
         -2   -1    0    0    0  501 -0.00000000000E+00 -0.00000000000E+00 -0.48472996406E+03  0.48472996406E+03  0.25500000000E-02 0.  1.
    8880023    1    1    2    0    0  0.13629194969E+03 -0.74420592538E+03  0.21630283043E+04  0.23843069447E+04  0.65864270000E+03 0.  0.
    8880022    1    1    2    0    0 -0.13629194969E+03  0.74420592538E+03  0.24081308350E+02  0.77226259611E+03  0.15294330000E+03 0.  0.
<mgrwt>
<rscale>  0 0.93950612E+03</rscale>
<asrwt>0</asrwt>
<pdfrwt beam="1">  1        2 0.41105224E+00 0.10031092E+04</pdfrwt>
<pdfrwt beam="2">  1       -2 0.74573842E-01 0.10031092E+04</pdfrwt>
<totfact> 0.45244959E+00</totfact>
</mgrwt>
</event>
<event>
 4    5  0.8511149E-008  0.1248693E+04  0.7818608E-02  0.9111184E-01
         -2   -1    0    0    0  501 -0.00000000000E+00  0.00000000000E+00  0.14708310636E+04  0.14708310636E+04  0.25500000000E-02 0.  1.
          2   -1    0    0  501    0  0.00000000000E+00 -0.00000000000E+00 -0.10426183267E+04  0.10426183267E+04  0.25500000000E-02 0. -1.
    8880023    1    1    2    0    0 -0.16065706486E+03  0.10486241043E+04  0.66652672502E+03  0.14154473801E+04  0.65864270000E+03 0.  0.
    8880022    1    1    2    0    0  0.16065706486E+03 -0.10486241043E+04 -0.23831398813E+03  0.10980020102E+04  0.15294330000E+03 0.  0.
<mgrwt>
<rscale>  0 0.12019127E+04</rscale>
<asrwt>0</asrwt>
<pdfrwt beam="1">  1        2 0.16040282E+00 0.12486927E+04</pdfrwt>
<pdfrwt beam="2">  1       -2 0.22628170E+00 0.12486927E+04</pdfrwt>
<totfact> 0.20663437E+00</totfact>
</mgrwt>
</event>
<event>
 4    5  0.8511149E-008  0.6732919E+03  0.7818608E-02  0.1013405E+00
         -2   -1    0    0    0  501 -0.00000000000E+00  0.00000000000E+00  0.55981598648E+03  0.55981598649E+03  0.25500000000E-02 0.  1.
          2   -1    0    0  501    0  0.00000000000E+00 -0.00000000000E+00 -0.16308338273E+04  0.16308338273E+04  0.25500000000E-02 0. -1.
    8880023    1    1    2    0    0 -0.11746990648E+03  0.75581827017E+02  0.34709223713E+03  0.75749258666E+03  0.65864270000E+03 0.  1.
    8880022    1    1    2    0    0  0.11746990648E+03 -0.75581827017E+02 -0.14181100780E+04  0.14331572272E+04  0.15294330000E+03 0.  0.
<mgrwt>
<rscale>  0 0.50143433E+03</rscale>
<asrwt>0</asrwt>
<pdfrwt beam="1">  1        2 0.25089751E+00 0.67329191E+03</pdfrwt>
<pdfrwt beam="2">  1       -2 0.86125537E-01 0.67329191E+03</pdfrwt>
<totfact> 0.13011503E+01</totfact>
</mgrwt>
</event>
<event>
 4    5  0.8511149E-008  0.7633287E+03  0.7818608E-02  0.9796565E-01
         -2   -1    0    0    0  501 -0.00000000000E+00  0.00000000000E+00  0.54421420222E+03  0.54421420222E+03  0.25500000000E-02 0.  1.
          2   -1    0    0  501    0  0.00000000000E+00 -0.00000000000E+00 -0.14324718199E+04  0.14324718199E+04  0.25500000000E-02 0. -1.
    8880023    1    1    2    0    0  0.38347453640E+03 -0.42517528053E+02  0.21906392554E+03  0.79414083763E+03  0.65864270000E+03 0.  1.
    8880022    1    1    2    0    0 -0.38347453640E+03  0.42517528053E+02 -0.11073215432E+04  0.11825451845E+04  0.15294330000E+03 0.  0.
<mgrwt>
<rscale>  0 0.65547216E+03</rscale>
<asrwt>0</asrwt>
<pdfrwt beam="1">  1        2 0.22038028E+00 0.76332868E+03</pdfrwt>
<pdfrwt beam="2">  1       -2 0.83725262E-01 0.76332868E+03</pdfrwt>
<totfact> 0.17658528E+01</totfact>
</mgrwt>
</event>
<event>
 4    5  0.8511149E-008  0.6738900E+03  0.7818608E-02  0.1013015E+00
          2   -1    0    0  501    0  0.00000000000E+00  0.00000000000E+00  0.22207437869E+04  0.22207437869E+04  0.25500000000E-02 0. -1.
         -2   -1    0    0    0  501 -0.00000000000E+00 -0.00000000000E+00 -0.21259858220E+03  0.21259858222E+03  0.25500000000E-02 0.  1.
    8880023    1    1    2    0    0  0.63577506164E+02 -0.12757522114E+03  0.34492613632E+03  0.75703486189E+03  0.65864270000E+03 0.  1.
    8880022    1    1    2    0    0 -0.63577506164E+02  0.12757522114E+03  0.16632190684E+04  0.16763075072E+04  0.15294330000E+03 0.  0.
<mgrwt>
<rscale>  0 0.50293673E+03</rscale>
<asrwt>0</asrwt>
<pdfrwt beam="1">  1        2 0.34165286E+00 0.67389001E+03</pdfrwt>
<pdfrwt beam="2">  1       -2 0.32707477E-01 0.67389001E+03</pdfrwt>
<totfact> 0.45802118E+01</totfact>
</mgrwt>
</event>
<event>
 4    5  0.8511149E-008  0.9147942E+03  0.7818608E-02  0.9502688E-01
          2   -1    0    0  501    0  0.00000000000E+00  0.00000000000E+00  0.10533648029E+04  0.10533648029E+04  0.25500000000E-02 0. -1.
         -2   -1    0    0    0  501 -0.00000000000E+00 -0.00000000000E+00 -0.10543646881E+04  0.10543646881E+04  0.25500000000E-02 0.  1.
    8880023    1    1    2    0    0  0.39004102476E+03  0.50090532175E+03 -0.69945293952E+03  0.11515566696E+04  0.65864270000E+03 0.  0.
    8880022    1    1    2    0    0 -0.39004102476E+03 -0.50090532175E+03  0.69845305437E+03  0.95617282147E+03  0.15294330000E+03 0.  0.
<mgrwt>
<rscale>  0 0.84085958E+03</rscale>
<asrwt>0</asrwt>
<pdfrwt beam="1">  1        2 0.16205612E+00 0.91479416E+03</pdfrwt>
<pdfrwt beam="2">  1       -2 0.16220995E+00 0.91479416E+03</pdfrwt>
<totfact> 0.56517109E+00</totfact>
</mgrwt>
</event>
<event>
 4    5  0.8511149E-008  0.1016159E+04  0.7818608E-02  0.9360716E-01
         -2   -1    0    0    0  501 -0.00000000000E+00  0.00000000000E+00  0.59337123959E+03  0.59337123960E+03  0.25500000000E-02 0.  1.
          2   -1    0    0  501    0  0.00000000000E+00 -0.00000000000E+00 -0.25672754432E+04  0.25672754432E+04  0.25500000000E-02 0. -1.
    8880023    1    1    2    0    0 -0.10812236721E+03  0.76621028314E+03  0.20041664511E+02  0.10163564920E+04  0.65864270000E+03 0.  0.
    8880022    1    1    2    0    0  0.10812236721E+03 -0.76621028314E+03 -0.19939458681E+04  0.21442901908E+04  0.15294330000E+03 0.  0.
<mgrwt>
<rscale>  0 0.95380369E+03</rscale>
<asrwt>0</asrwt>
<pdfrwt beam="1">  1        2 0.39496545E+00 0.10161589E+04</pdfrwt>
<pdfrwt beam="2">  1       -2 0.91287884E-01 0.10161589E+04</pdfrwt>
<totfact> 0.32799202E+00</totfact>
</mgrwt>
</event>
<event>
 4    5  0.8511149E-008  0.1020904E+04  0.7818608E-02  0.9354706E-01
         -2   -1    0    0    0  501 -0.00000000000E+00  0.00000000000E+00  0.22904675060E+03  0.22904675062E+03  0.25500000000E-02 0.  1.
          2   -1    0    0  501    0  0.00000000000E+00 -0.00000000000E+00 -0.51855929429E+04  0.51855929429E+04  0.25500000000E-02 0. -1.
    8880023    1    1    2    0    0 -0.68744026399E+03  0.36859269066E+03 -0.12027579938E+04  0.15776158234E+04  0.65864270000E+03 0.  0.
    8880022    1    1    2    0    0  0.68744026399E+03 -0.36859269066E+03 -0.37537881985E+04  0.38370238702E+04  0.15294330000E+03 0.  0.
<mgrwt>
<rscale>  0 0.95898846E+03</rscale>
<asrwt>0</asrwt>
<pdfrwt beam="1">  1        2 0.79778344E+00 0.10209040E+04</pdfrwt>
<pdfrwt beam="2">  1       -2 0.35237966E-01 0.10209040E+04</pdfrwt>
<totfact> 0.16273365E-01</totfact>
</mgrwt>
</event>
<event>
 4    5  0.8511149E-008  0.7734064E+03  0.7818608E-02  0.9771560E-01
          2   -1    0    0  501    0  0.00000000000E+00  0.00000000000E+00  0.81683084921E+03  0.81683084922E+03  0.25500000000E-02 0. -1.
         -2   -1    0    0    0  501 -0.00000000000E+00 -0.00000000000E+00 -0.11016709067E+04  0.11016709067E+04  0.25500000000E-02 0.  1.
    8880023    1    1    2    0    0  0.20930566098E+03 -0.34718629721E+03 -0.88688937918E+03  0.11767455808E+04  0.65864270000E+03 0.  0.
    8880022    1    1    2    0    0 -0.20930566098E+03  0.34718629721E+03  0.60204932166E+03  0.74175617518E+03  0.15294330000E+03 0.  0.
<mgrwt>
<rscale>  0 0.66911392E+03</rscale>
<asrwt>0</asrwt>
<pdfrwt beam="1">  1        2 0.12566628E+00 0.77340636E+03</pdfrwt>
<pdfrwt beam="2">  1       -2 0.16948783E+00 0.77340636E+03</pdfrwt>
<totfact> 0.73096475E+00</totfact>
</mgrwt>
</event>
<event>
 4    5  0.1001572E-007  0.9560406E+03  0.7818608E-02  0.9441476E-01
          2   -1    0    0  501    0  0.00000000000E+00  0.00000000000E+00  0.35678072466E+04  0.35678072466E+04  0.25500000000E-02 0. -1.
         -2   -1    0    0    0  501 -0.00000000000E+00 -0.00000000000E+00 -0.12363685752E+04  0.12363685752E+04  0.25500000000E-02 0.  1.
    8880023    1    1    2    0    0 -0.13506137577E+03 -0.67967771584E+03 -0.10085260139E+04  0.13896540216E+04  0.65864270000E+03 0.  1.
    8880022    1    1    2    0    0  0.13506137577E+03  0.67967771584E+03  0.33399646853E+04  0.34145218002E+04  0.15294330000E+03 0.  0.
<mgrwt>
<rscale>  0 0.88739591E+03</rscale>
<asrwt>0</asrwt>
<pdfrwt beam="1">  1        2 0.54889342E+00 0.95604057E+03</pdfrwt>
<pdfrwt beam="2">  1       -2 0.19021055E+00 0.95604057E+03</pdfrwt>
<totfact> 0.11733093E-01</totfact>
</mgrwt>
</event>
<event>
 4    5  0.8511149E-008  0.6753018E+03  0.7818608E-02  0.1012117E+00
          2   -1    0    0  501    0  0.00000000000E+00  0.00000000000E+00  0.49245064652E+03  0.49245064653E+03  0.25500000000E-02 0. -1.
         -2   -1    0    0    0  501 -0.00000000000E+00 -0.00000000000E+00 -0.60289285543E+03  0.60289285543E+03  0.25500000000E-02 0.  1.
    8880023    1    1    2    0    0  0.14206626854E+03  0.45161281331E+02 -0.36130414899E+03  0.76588070894E+03  0.65864270000E+03 0.  1.
    8880022    1    1    2    0    0 -0.14206626854E+03 -0.45161281331E+02  0.25086194008E+03  0.32946279302E+03  0.15294330000E+03 0.  0.
<mgrwt>
<rscale>  0 0.50641987E+03</rscale>
<asrwt>0</asrwt>
<pdfrwt beam="1">  1        2 0.75761637E-01 0.67530184E+03</pdfrwt>
<pdfrwt beam="2">  1       -2 0.92752748E-01 0.67530184E+03</pdfrwt>
<totfact> 0.62786655E+01</totfact>
</mgrwt>
</event>
<event>
 4    5  0.8834628E-008  0.1866737E+04  0.7818608E-02  0.8686491E-01
          2   -1    0    0  501    0  0.00000000000E+00  0.00000000000E+00  0.35611245304E+04  0.35611245304E+04  0.25500000000E-02 0. -1.
         -2   -1    0    0    0  501 -0.00000000000E+00 -0.00000000000E+00 -0.21559865877E+04  0.21559865877E+04  0.25500000000E-02 0.  1.
    8880023    1    1    2    0    0  0.16844184465E+04 -0.46220323070E+03 -0.14519415393E+04  0.23649189773E+04  0.65864270000E+03 0.  0.
    8880022    1    1    2    0    0 -0.16844184465E+04  0.46220323070E+03  0.28570794821E+04  0.33521921408E+04  0.15294330000E+03 0.  0.
<mgrwt>
<rscale>  0 0.18377247E+04</rscale>
<asrwt>0</asrwt>
<pdfrwt beam="1">  1        2 0.54786530E+00 0.18667371E+04</pdfrwt>
<pdfrwt beam="2">  1       -2 0.33169025E+00 0.18667371E+04</pdfrwt>
<totfact> 0.13396301E-02</totfact>
</mgrwt>
</event>
<event>
 4    5  0.8511149E-008  0.9014599E+03  0.7818608E-02  0.9523692E-01
          2   -1    0    0  501    0  0.00000000000E+00  0.00000000000E+00  0.29602959950E+04  0.29602959950E+04  0.25500000000E-02 0. -1.
         -2   -1    0    0    0  501 -0.00000000000E+00 -0.00000000000E+00 -0.11232443422E+04  0.11232443422E+04  0.25500000000E-02 0.  1.
    8880023    1    1    2    0    0  0.39820034007E+03 -0.46931454979E+03 -0.90008870761E+03  0.12738875717E+04  0.65864270000E+03 0.  0.
    8880022    1    1    2    0    0 -0.39820034007E+03  0.46931454979E+03  0.27371403604E+04  0.28096527655E+04  0.15294330000E+03 0.  0.
<mgrwt>
<rscale>  0 0.82559409E+03</rscale>
<asrwt>0</asrwt>
<pdfrwt beam="1">  1        2 0.45543015E+00 0.90145985E+03</pdfrwt>
<pdfrwt beam="2">  1       -2 0.17280682E+00 0.90145985E+03</pdfrwt>
<totfact> 0.38846045E-01</totfact>
</mgrwt>
</event>
<event>
 4    5  0.8511149E-008  0.7337428E+03  0.7818608E-02  0.9878563E-01
         -2   -1    0    0    0  501 -0.00000000000E+00  0.00000000000E+00  0.31394159319E+03  0.31394159320E+03  0.25500000000E-02 0.  1.
          2   -1    0    0  501    0  0.00000000000E+00 -0.00000000000E+00 -0.13697023718E+04  0.13697023718E+04  0.25500000000E-02 0. -1.
    8880023    1    1    2    0    0  0.31315050115E+03  0.80654194944E+02 -0.20669339261E+03  0.76229961324E+03  0.65864270000E+03 0.  1.
    8880022    1    1    2    0    0 -0.31315050115E+03 -0.80654194944E+02 -0.84906738601E+03  0.92134435176E+03  0.15294330000E+03 0.  0.
<mgrwt>
<rscale>  0 0.61311533E+03</rscale>
<asrwt>0</asrwt>
<pdfrwt beam="1">  1        2 0.21072344E+00 0.73374283E+03</pdfrwt>
<pdfrwt beam="2">  1       -2 0.48298707E-01 0.73374283E+03</pdfrwt>
<totfact> 0.62427397E+01</totfact>
</mgrwt>
</event>
<event>
 4    5  0.8511149E-008  0.9967776E+03  0.7818608E-02  0.9385786E-01
          2   -1    0    0  501    0  0.00000000000E+00  0.00000000000E+00  0.16145668862E+04  0.16145668862E+04  0.25500000000E-02 0. -1.
         -2   -1    0    0    0  501 -0.00000000000E+00 -0.00000000000E+00 -0.23946744880E+04  0.23946744880E+04  0.25500000000E-02 0.  1.
    8880023    1    1    2    0    0 -0.55251483106E+03  0.50446284799E+03 -0.21898059388E+04  0.24059957729E+04  0.65864270000E+03 0.  0.
    8880022    1    1    2    0    0  0.55251483106E+03 -0.50446284799E+03  0.14096983370E+04  0.16032456012E+04  0.15294330000E+03 0. -1.
<mgrwt>
<rscale>  0 0.93254751E+03</rscale>
<asrwt>0</asrwt>
<pdfrwt beam="1">  1        2 0.24839491E+00 0.99677761E+03</pdfrwt>
<pdfrwt beam="2">  1       -2 0.36841146E+00 0.99677761E+03</pdfrwt>
<totfact> 0.13225490E-01</totfact>
</mgrwt>
</event>
<event>
 4    5  0.8511149E-008  0.9462715E+03  0.7818608E-02  0.9455499E-01
         -2   -1    0    0    0  501 -0.00000000000E+00  0.00000000000E+00  0.43036188664E+03  0.43036188664E+03  0.25500000000E-02 0.  1.
          2   -1    0    0  501    0  0.00000000000E+00 -0.00000000000E+00 -0.27832501335E+04  0.27832501335E+04  0.25500000000E-02 0. -1.
    8880023    1    1    2    0    0  0.26246414218E+03 -0.62668337882E+03 -0.22221910260E+03  0.97201389859E+03  0.65864270000E+03 0.  0.
    8880022    1    1    2    0    0 -0.26246414218E+03  0.62668337882E+03 -0.21306691443E+04  0.22415981216E+04  0.15294330000E+03 0.  0.
<mgrwt>
<rscale>  0 0.87645732E+03</rscale>
<asrwt>0</asrwt>
<pdfrwt beam="1">  1        2 0.42819232E+00 0.94627147E+03</pdfrwt>
<pdfrwt beam="2">  1       -2 0.66209523E-01 0.94627147E+03</pdfrwt>
<totfact> 0.50903415E+00</totfact>
</mgrwt>
</event>
<event>
 4    5  0.8511149E-008  0.1468660E+04  0.7818608E-02  0.8932089E-01
         -2   -1    0    0    0  501 -0.00000000000E+00  0.00000000000E+00  0.13551886376E+04  0.13551886376E+04  0.25500000000E-02 0.  1.
          2   -1    0    0  501    0  0.00000000000E+00 -0.00000000000E+00 -0.17937085971E+04  0.17937085971E+04  0.25500000000E-02 0. -1.
    8880023    1    1    2    0    0 -0.12110488247E+04 -0.50647011703E+03  0.47359080582E+03  0.15431298367E+04  0.65864270000E+03 0.  1.
    8880022    1    1    2    0    0  0.12110488247E+04  0.50647011703E+03 -0.91211076535E+03  0.16057673980E+04  0.15294330000E+03 0.  0.
<mgrwt>
<rscale>  0 0.14304191E+04</rscale>
<asrwt>0</asrwt>
<pdfrwt beam="1">  1        2 0.27595517E+00 0.14686597E+04</pdfrwt>
<pdfrwt beam="2">  1       -2 0.20849056E+00 0.14686597E+04</pdfrwt>
<totfact> 0.96007530E-01</totfact>
</mgrwt>
</event>
<event>
 4    5  0.8511149E-008  0.1070322E+04  0.7818608E-02  0.9294842E-01
         -2   -1    0    0    0  501 -0.00000000000E+00  0.00000000000E+00  0.80488501643E+03  0.80488501643E+03  0.25500000000E-02 0.  1.
          2   -1    0    0  501    0  0.00000000000E+00 -0.00000000000E+00 -0.14337512547E+04  0.14337512547E+04  0.25500000000E-02 0. -1.
    8880023    1    1    2    0    0  0.76697582136E+03  0.35146274235E+03  0.14937478683E+03  0.10806946854E+04  0.65864270000E+03 0.  1.
    8880022    1    1    2    0    0 -0.76697582136E+03 -0.35146274235E+03 -0.77824102507E+03  0.11579415857E+04  0.15294330000E+03 0.  0.
<mgrwt>
<rscale>  0 0.10125912E+04</rscale>
<asrwt>0</asrwt>
<pdfrwt beam="1">  1        2 0.22057712E+00 0.10703215E+04</pdfrwt>
<pdfrwt beam="2">  1       -2 0.12382846E+00 0.10703215E+04</pdfrwt>
<totfact> 0.67027204E+00</totfact>
</mgrwt>
</event>
<event>
 4    5  0.8511149E-008  0.1276154E+04  0.7818608E-02  0.9086431E-01
         -2   -1    0    0    0  501 -0.00000000000E+00  0.00000000000E+00  0.87824054472E+03  0.87824054473E+03  0.25500000000E-02 0.  1.
          2   -1    0    0  501    0  0.00000000000E+00 -0.00000000000E+00 -0.22662908969E+04  0.22662908969E+04  0.25500000000E-02 0. -1.
    8880023    1    1    2    0    0 -0.71214446377E+03 -0.82922216394E+03  0.11326943230E+03  0.12811710678E+04  0.65864270000E+03 0.  0.
    8880022    1    1    2    0    0  0.71214446377E+03  0.82922216394E+03 -0.15013197845E+04  0.18633603738E+04  0.15294330000E+03 0.  0.
<mgrwt>
<rscale>  0 0.12306654E+04</rscale>
<asrwt>0</asrwt>
<pdfrwt beam="1">  1        2 0.34866014E+00 0.12761541E+04</pdfrwt>
<pdfrwt beam="2">  1       -2 0.13511393E+00 0.12761541E+04</pdfrwt>
<totfact> 0.18056899E+00</totfact>
</mgrwt>
</event>
<event>
 4    5  0.8511149E-008  0.7837431E+03  0.7818608E-02  0.9747117E-01
         -2   -1    0    0    0  501 -0.00000000000E+00  0.00000000000E+00  0.20875026755E+04  0.20875026755E+04  0.25500000000E-02 0.  1.
          2   -1    0    0  501    0  0.00000000000E+00 -0.00000000000E+00 -0.11058926543E+04  0.11058926543E+04  0.25500000000E-02 0. -1.
    8880023    1    1    2    0    0 -0.11577900503E+03 -0.40870319680E+03  0.19627063728E+04  0.21134023737E+04  0.65864270000E+03 0.  1.
    8880022    1    1    2    0    0  0.11577900503E+03  0.40870319680E+03 -0.98109635161E+03  0.10799929561E+04  0.15294330000E+03 0.  0.
<mgrwt>
<rscale>  0 0.68279461E+03</rscale>
<asrwt>0</asrwt>
<pdfrwt beam="1">  1        2 0.17013733E+00 0.78374313E+03</pdfrwt>
<pdfrwt beam="2">  1       -2 0.32115425E+00 0.78374313E+03</pdfrwt>
<totfact> 0.53234283E-01</totfact>
</mgrwt>
</event>
<event>
 4    5  0.8511149E-008  0.8275416E+03  0.7818608E-02  0.9654135E-01
         -2   -1    0    0    0  501 -0.00000000000E+00  0.00000000000E+00  0.10159227985E+04  0.10159227985E+04  0.25500000000E-02 0.  1.
          2   -1    0    0  501    0  0.00000000000E+00 -0.00000000000E+00 -0.79533168670E+03  0.79533168670E+03  0.25500000000E-02 0. -1.
    8880023    1    1    2    0    0 -0.37078627461E+03  0.33694579235E+03  0.71298606385E+03  0.10923251631E+04  0.65864270000E+03 0.  1.
    8880022    1    1    2    0    0  0.37078627461E+03 -0.33694579235E+03 -0.49239495204E+03  0.71892932213E+03  0.15294330000E+03 0.  0.
<mgrwt>
<rscale>  0 0.73814503E+03</rscale>
<asrwt>0</asrwt>
<pdfrwt beam="1">  1        2 0.12235872E+00 0.82754162E+03</pdfrwt>
<pdfrwt beam="2">  1       -2 0.15629581E+00 0.82754162E+03</pdfrwt>
<totfact> 0.93938097E+00</totfact>
</mgrwt>
</event>
<event>
 4    5  0.8511149E-008  0.1110431E+04  0.7818608E-02  0.9249531E-01
         -2   -1    0    0    0  501 -0.00000000000E+00  0.00000000000E+00  0.84705399787E+03  0.84705399788E+03  0.25500000000E-02 0.  1.
          2   -1    0    0  501    0  0.00000000000E+00 -0.00000000000E+00 -0.28853124969E+04  0.28853124969E+04  0.25500000000E-02 0. -1.
    8880023    1    1    2    0    0  0.48707514860E+03 -0.74966903059E+03  0.36080521964E+03  0.11675771789E+04  0.65864270000E+03 0.  0.
    8880022    1    1    2    0    0 -0.48707514860E+03  0.74966903059E+03 -0.23990637187E+04  0.25647893159E+04  0.15294330000E+03 0.  0.
<mgrwt>
<rscale>  0 0.10556492E+04</rscale>
<asrwt>0</asrwt>
<pdfrwt beam="1">  1        2 0.44389423E+00 0.11104306E+04</pdfrwt>
<pdfrwt beam="2">  1       -2 0.13031600E+00 0.11104306E+04</pdfrwt>
<totfact> 0.88313186E-01</totfact>
</mgrwt>
</event>
<event>
 4    5  0.8511149E-008  0.6670829E+03  0.7818608E-02  0.1017846E+00
         -2   -1    0    0    0  501 -0.00000000000E+00  0.00000000000E+00  0.15109616601E+03  0.15109616603E+03  0.25500000000E-02 0.  1.
          2   -1    0    0  501    0  0.00000000000E+00 -0.00000000000E+00 -0.17711968426E+04  0.17711968426E+04  0.25500000000E-02 0. -1.
    8880023    1    1    2    0    0  0.86576853700E+02 -0.60777134630E+02 -0.63910083661E+03  0.92382330416E+03  0.65864270000E+03 0.  1.
    8880022    1    1    2    0    0 -0.86576853700E+02  0.60777134630E+02 -0.98099984000E+03  0.99846970449E+03  0.15294330000E+03 0.  0.
<mgrwt>
<rscale>  0 0.48471857E+03</rscale>
<asrwt>0</asrwt>
<pdfrwt beam="1">  1        2 0.27249181E+00 0.66708292E+03</pdfrwt>
<pdfrwt beam="2">  1       -2 0.23245565E-01 0.66708292E+03</pdfrwt>
<totfact> 0.15045354E+02</totfact>
</mgrwt>
</event>
<event>
 4    5  0.8511149E-008  0.6804255E+03  0.7818608E-02  0.1009084E+00
          2   -1    0    0  501    0  0.00000000000E+00  0.00000000000E+00  0.10319100346E+04  0.10319100346E+04  0.25500000000E-02 0. -1.
         -2   -1    0    0    0  501 -0.00000000000E+00 -0.00000000000E+00 -0.57761223701E+03  0.57761223701E+03  0.25500000000E-02 0.  1.
    8880023    1    1    2    0    0  0.58255727557E+02 -0.16054560694E+03 -0.35564028375E+03  0.76776222842E+03  0.65864270000E+03 0.  1.
    8880022    1    1    2    0    0 -0.58255727557E+02  0.16054560694E+03  0.80993808136E+03  0.84176004322E+03  0.15294330000E+03 0.  0.
<mgrwt>
<rscale>  0 0.51840314E+03</rscale>
<asrwt>0</asrwt>
<pdfrwt beam="1">  1        2 0.15875539E+00 0.68042548E+03</pdfrwt>
<pdfrwt beam="2">  1       -2 0.88863420E-01 0.68042548E+03</pdfrwt>
<totfact> 0.26784197E+01</totfact>
</mgrwt>
</event>
<event>
 4    5  0.8511149E-008  0.1740781E+04  0.7818608E-02  0.8756021E-01
         -2   -1    0    0    0  501 -0.00000000000E+00  0.00000000000E+00  0.11650517925E+04  0.11650517925E+04  0.25500000000E-02 0.  1.
          2   -1    0    0  501    0  0.00000000000E+00 -0.00000000000E+00 -0.24824020045E+04  0.24824020045E+04  0.25500000000E-02 0. -1.
    8880023    1    1    2    0    0 -0.16063570227E+04  0.12698982645E+03 -0.39698842675E+03  0.17854745357E+04  0.65864270000E+03 0.  0.
    8880022    1    1    2    0    0  0.16063570227E+04 -0.12698982645E+03 -0.92036178530E+03  0.18619792613E+04  0.15294330000E+03 0.  0.
<mgrwt>
<rscale>  0 0.17094003E+04</rscale>
<asrwt>0</asrwt>
<pdfrwt beam="1">  1        2 0.38190800E+00 0.17407813E+04</pdfrwt>
<pdfrwt beam="2">  1       -2 0.17923874E+00 0.17407813E+04</pdfrwt>
<totfact> 0.60130167E-01</totfact>
</mgrwt>
</event>
<event>
 4    5  0.8511149E-008  0.8884641E+03  0.7818608E-02  0.9544810E-01
         -2   -1    0    0    0  501 -0.00000000000E+00  0.00000000000E+00  0.91981895565E+03  0.91981895566E+03  0.25500000000E-02 0.  1.
          2   -1    0    0  501    0  0.00000000000E+00 -0.00000000000E+00 -0.13054553116E+04  0.13054553116E+04  0.25500000000E-02 0. -1.
    8880023    1    1    2    0    0  0.81663175949E+02 -0.59066864007E+03  0.59367170154E+03  0.10685572573E+04  0.65864270000E+03 0.  1.
    8880022    1    1    2    0    0 -0.81663175949E+02  0.59066864007E+03 -0.97930805750E+03  0.11567170100E+04  0.15294330000E+03 0.  0.
<mgrwt>
<rscale>  0 0.81059265E+03</rscale>
<asrwt>0</asrwt>
<pdfrwt beam="1">  1        2 0.20083928E+00 0.88846414E+03</pdfrwt>
<pdfrwt beam="2">  1       -2 0.14151061E+00 0.88846414E+03</pdfrwt>
<totfact> 0.57563126E+00</totfact>
</mgrwt>
</event>
<event>
 4    5  0.8511149E-008  0.1069889E+04  0.7818608E-02  0.9295346E-01
         -2   -1    0    0    0  501 -0.00000000000E+00  0.00000000000E+00  0.79567023159E+03  0.79567023159E+03  0.25500000000E-02 0.  1.
          2   -1    0    0  501    0  0.00000000000E+00 -0.00000000000E+00 -0.24800162563E+04  0.24800162563E+04  0.25500000000E-02 0. -1.
    8880023    1    1    2    0    0 -0.12840549045E+03 -0.83328487613E+03  0.30259128757E+03  0.11118558127E+04  0.65864270000E+03 0.  0.
    8880022    1    1    2    0    0  0.12840549045E+03  0.83328487613E+03 -0.19869373123E+04  0.21638306751E+04  0.15294330000E+03 0.  0.
<mgrwt>
<rscale>  0 0.10121245E+04</rscale>
<asrwt>0</asrwt>
<pdfrwt beam="1">  1        2 0.38154096E+00 0.10698887E+04</pdfrwt>
<pdfrwt beam="2">  1       -2 0.12241081E+00 0.10698887E+04</pdfrwt>
<totfact> 0.18005524E+00</totfact>
</mgrwt>
</event>
<event>
 4    5  0.8511149E-008  0.1243544E+04  0.7818608E-02  0.9115915E-01
          2   -1    0    0  501    0  0.00000000000E+00  0.00000000000E+00  0.25723102585E+04  0.25723102585E+04  0.25500000000E-02 0. -1.
         -2   -1    0    0    0  501 -0.00000000000E+00 -0.00000000000E+00 -0.63127336260E+03  0.63127336261E+03  0.25500000000E-02 0.  1.
    8880023    1    1    2    0    0  0.99813077482E+03 -0.34106489958E+03  0.35595092301E+03  0.12934842771E+04  0.65864270000E+03 0.  0.
    8880022    1    1    2    0    0 -0.99813077482E+03  0.34106489958E+03  0.15850859729E+04  0.19100993440E+04  0.15294330000E+03 0.  0.
<mgrwt>
<rscale>  0 0.11965123E+04</rscale>
<asrwt>0</asrwt>
<pdfrwt beam="1">  1        2 0.39574004E+00 0.12435435E+04</pdfrwt>
<pdfrwt beam="2">  1       -2 0.97118979E-01 0.12435435E+04</pdfrwt>
<totfact> 0.27392193E+00</totfact>
</mgrwt>
</event>
<event>
 4    5  0.9190652E-008  0.1161232E+04  0.7818608E-02  0.9195761E-01
         -2   -1    0    0    0  501 -0.00000000000E+00  0.00000000000E+00  0.15243221608E+04  0.15243221608E+04  0.25500000000E-02 0.  1.
          2   -1    0    0  501    0  0.00000000000E+00 -0.00000000000E+00 -0.21394852329E+04  0.21394852329E+04  0.25500000000E-02 0. -1.
    8880023    1    1    2    0    0  0.93024824091E+03  0.22200902136E+03  0.11601640374E+04  0.16414751278E+04  0.65864270000E+03 0.  0.
    8880022    1    1    2    0    0 -0.93024824091E+03 -0.22200902136E+03 -0.17753271094E+04  0.20223322659E+04  0.15294330000E+03 0.  0.
<mgrwt>
<rscale>  0 0.11097292E+04</rscale>
<asrwt>0</asrwt>
<pdfrwt beam="1">  1        2 0.32915157E+00 0.11612321E+04</pdfrwt>
<pdfrwt beam="2">  1       -2 0.23451110E+00 0.11612321E+04</pdfrwt>
<totfact> 0.43782928E-01</totfact>
</mgrwt>
</event>
<event>
 4    5  0.8511149E-008  0.8978846E+03  0.7818608E-02  0.9529436E-01
          2   -1    0    0  501    0  0.00000000000E+00  0.00000000000E+00  0.19495319172E+04  0.19495319172E+04  0.25500000000E-02 0. -1.
         -2   -1    0    0    0  501 -0.00000000000E+00 -0.00000000000E+00 -0.75720951401E+03  0.75720951402E+03  0.25500000000E-02 0.  1.
    8880023    1    1    2    0    0  0.35259325608E+03  0.49806087053E+03 -0.40871985573E+03  0.98653371038E+03  0.65864270000E+03 0.  1.
    8880022    1    1    2    0    0 -0.35259325608E+03 -0.49806087053E+03  0.16010422589E+04  0.17202077208E+04  0.15294330000E+03 0.  0.
<mgrwt>
<rscale>  0 0.82147983E+03</rscale>
<asrwt>0</asrwt>
<pdfrwt beam="1">  1        2 0.29992798E+00 0.89788465E+03</pdfrwt>
<pdfrwt beam="2">  1       -2 0.11649377E+00 0.89788465E+03</pdfrwt>
<totfact> 0.41209789E+00</totfact>
</mgrwt>
</event>
<event>
 4    5  0.8511149E-008  0.1543267E+04  0.7818608E-02  0.8879673E-01
         -2   -1    0    0    0  501 -0.00000000000E+00  0.00000000000E+00  0.99653135324E+03  0.99653135324E+03  0.25500000000E-02 0.  1.
          2   -1    0    0  501    0  0.00000000000E+00 -0.00000000000E+00 -0.40241822186E+04  0.40241822186E+04  0.25500000000E-02 0. -1.
    8880023    1    1    2    0    0 -0.38835524185E+03  0.13405386161E+04  0.14620581159E+03  0.15501773836E+04  0.65864270000E+03 0.  0.
    8880022    1    1    2    0    0  0.38835524185E+03 -0.13405386161E+04 -0.31738566769E+04  0.34705361882E+04  0.15294330000E+03 0.  0.
<mgrwt>
<rscale>  0 0.15072098E+04</rscale>
<asrwt>0</asrwt>
<pdfrwt beam="1">  1        2 0.61910495E+00 0.15432672E+04</pdfrwt>
<pdfrwt beam="2">  1       -2 0.15331252E+00 0.15432672E+04</pdfrwt>
<totfact> 0.88294879E-02</totfact>
</mgrwt>
</event>
<event>
 4    5  0.8511149E-008  0.1293618E+04  0.7818608E-02  0.9071091E-01
         -2   -1    0    0    0  501 -0.00000000000E+00  0.00000000000E+00  0.89826140560E+03  0.89826140561E+03  0.25500000000E-02 0.  1.
          2   -1    0    0  501    0  0.00000000000E+00 -0.00000000000E+00 -0.26900231144E+04  0.26900231144E+04  0.25500000000E-02 0. -1.
    8880023    1    1    2    0    0  0.11117755445E+04  0.59942066808E+02  0.19250008784E+03  0.13078625320E+04  0.65864270000E+03 0.  0.
    8880022    1    1    2    0    0 -0.11117755445E+04 -0.59942066808E+02 -0.19842617967E+04  0.22804219880E+04  0.15294330000E+03 0.  0.
<mgrwt>
<rscale>  0 0.12489104E+04</rscale>
<asrwt>0</asrwt>
<pdfrwt beam="1">  1        2 0.41384971E+00 0.12936182E+04</pdfrwt>
<pdfrwt beam="2">  1       -2 0.13819406E+00 0.12936182E+04</pdfrwt>
<totfact> 0.96966025E-01</totfact>
</mgrwt>
</event>
<event>
 4    5  0.8511149E-008  0.7625965E+03  0.7818608E-02  0.9798431E-01
         -2   -1    0    0    0  501 -0.00000000000E+00  0.00000000000E+00  0.21631600848E+03  0.21631600850E+03  0.25500000000E-02 0.  1.
          2   -1    0    0  501    0  0.00000000000E+00 -0.00000000000E+00 -0.28220065283E+04  0.28220065283E+04  0.25500000000E-02 0. -1.
    8880023    1    1    2    0    0  0.34764345427E+03  0.16397315221E+03 -0.54702534455E+03  0.93850418208E+03  0.65864270000E+03 0.  1.
    8880022    1    1    2    0    0 -0.34764345427E+03 -0.16397315221E+03 -0.20586651753E+04  0.20998183548E+04  0.15294330000E+03 0.  0.
<mgrwt>
<rscale>  0 0.65446796E+03</rscale>
<asrwt>0</asrwt>
<pdfrwt beam="1">  1        2 0.43415482E+00 0.76259647E+03</pdfrwt>
<pdfrwt beam="2">  1       -2 0.33279388E-01 0.76259647E+03</pdfrwt>
<totfact> 0.19895081E+01</totfact>
</mgrwt>
</event>
<event>
 4    5  0.8511149E-008  0.8405486E+03  0.7818608E-02  0.9629147E-01
         -2   -1    0    0    0  501 -0.00000000000E+00  0.00000000000E+00  0.38955862830E+03  0.38955862830E+03  0.25500000000E-02 0.  1.
          2   -1    0    0  501    0  0.00000000000E+00 -0.00000000000E+00 -0.22906412523E+04  0.22906412523E+04  0.25500000000E-02 0. -1.
    8880023    1    1    2    0    0  0.23370233473E+03  0.46700632473E+03 -0.19602270663E+04  0.21328413083E+04  0.65864270000E+03 0.  1.
    8880022    1    1    2    0    0 -0.23370233473E+03 -0.46700632473E+03  0.59144442320E+02  0.54735857230E+03  0.15294330000E+03 0.  0.
<mgrwt>
<rscale>  0 0.75396732E+03</rscale>
<asrwt>0</asrwt>
<pdfrwt beam="1">  1        2 0.35240634E+00 0.84054857E+03</pdfrwt>
<pdfrwt beam="2">  1       -2 0.59932098E-01 0.84054857E+03</pdfrwt>
<totfact> 0.12254428E+01</totfact>
</mgrwt>
</event>
<event>
 4    5  0.8511149E-008  0.8351200E+03  0.7818608E-02  0.9639451E-01
         -2   -1    0    0    0  501 -0.00000000000E+00  0.00000000000E+00  0.12714547091E+04  0.12714547091E+04  0.25500000000E-02 0.  1.
          2   -1    0    0  501    0  0.00000000000E+00 -0.00000000000E+00 -0.11755445713E+04  0.11755445713E+04  0.25500000000E-02 0. -1.
    8880023    1    1    2    0    0  0.14931428920E+03 -0.49124377688E+03  0.10567481166E+04  0.13469008848E+04  0.65864270000E+03 0.  1.
    8880022    1    1    2    0    0 -0.14931428920E+03  0.49124377688E+03 -0.96083797882E+03  0.11000983955E+04  0.15294330000E+03 0. -1.
<mgrwt>
<rscale>  0 0.74739157E+03</rscale>
<asrwt>0</asrwt>
<pdfrwt beam="1">  1        2 0.18085301E+00 0.83512000E+03</pdfrwt>
<pdfrwt beam="2">  1       -2 0.19560842E+00 0.83512000E+03</pdfrwt>
<totfact> 0.28223067E+00</totfact>
</mgrwt>
</event>
<event>
 4    5  0.8511149E-008  0.7880510E+03  0.7818608E-02  0.9737254E-01
          2   -1    0    0  501    0  0.00000000000E+00  0.00000000000E+00  0.63184653951E+03  0.63184653952E+03  0.25500000000E-02 0. -1.
         -2   -1    0    0    0  501 -0.00000000000E+00 -0.00000000000E+00 -0.18144754004E+04  0.18144754004E+04  0.25500000000E-02 0.  1.
    8880023    1    1    2    0    0 -0.42130456721E+03  0.98572933824E+02 -0.16268205698E+04  0.18076419817E+04  0.65864270000E+03 0.  0.
    8880022    1    1    2    0    0  0.42130456721E+03 -0.98572933824E+02  0.44419170893E+03  0.63867995814E+03  0.15294330000E+03 0.  0.
<mgrwt>
<rscale>  0 0.68841375E+03</rscale>
<asrwt>0</asrwt>
<pdfrwt beam="1">  1        2 0.97207160E-01 0.78805099E+03</pdfrwt>
<pdfrwt beam="2">  1       -2 0.27915006E+00 0.78805099E+03</pdfrwt>
<totfact> 0.20462872E+00</totfact>
</mgrwt>
</event>
<event>
 4    5  0.8511149E-008  0.7603852E+03  0.7818608E-02  0.9804111E-01
         -2   -1    0    0    0  501 -0.00000000000E+00  0.00000000000E+00  0.14428849989E+04  0.14428849989E+04  0.25500000000E-02 0.  1.
          2   -1    0    0  501    0  0.00000000000E+00 -0.00000000000E+00 -0.10286420624E+04  0.10286420624E+04  0.25500000000E-02 0. -1.
    8880023    1    1    2    0    0 -0.37996407086E+03  0.16489229629E+01  0.12941248210E+04  0.15009812366E+04  0.65864270000E+03 0.  1.
    8880022    1    1    2    0    0  0.37996407086E+03 -0.16489229629E+01 -0.87988188451E+03  0.97054582467E+03  0.15294330000E+03 0.  0.
<mgrwt>
<rscale>  0 0.65142372E+03</rscale>
<asrwt>0</asrwt>
<pdfrwt beam="1">  1        2 0.15825263E+00 0.76038518E+03</pdfrwt>
<pdfrwt beam="2">  1       -2 0.22198231E+00 0.76038518E+03</pdfrwt>
<totfact> 0.23807735E+00</totfact>
</mgrwt>
</event>
<event>
 4    5  0.8511149E-008  0.1130137E+04  0.7818608E-02  0.9228222E-01
         -2   -1    0    0    0  501 -0.00000000000E+00  0.00000000000E+00  0.19596384305E+04  0.19596384305E+04  0.25500000000E-02 0.  1.
          2   -1    0    0  501    0  0.00000000000E+00 -0.00000000000E+00 -0.11258945882E+04  0.11258945882E+04  0.25500000000E-02 0. -1.
    8880023    1    1    2    0    0  0.65820971640E+03 -0.64043672203E+03  0.15447888120E+04  0.19140485641E+04  0.65864270000E+03 0.  0.
    8880022    1    1    2    0    0 -0.65820971640E+03  0.64043672203E+03 -0.71104496962E+03  0.11714844547E+04  0.15294330000E+03 0.  0.
<mgrwt>
<rscale>  0 0.10766823E+04</rscale>
<asrwt>0</asrwt>
<pdfrwt beam="1">  1        2 0.17321455E+00 0.11301369E+04</pdfrwt>
<pdfrwt beam="2">  1       -2 0.30148283E+00 0.11301369E+04</pdfrwt>
<totfact> 0.64452576E-01</totfact>
</mgrwt>
</event>
<event>
 4    5  0.8511149E-008  0.7179144E+03  0.7818608E-02  0.9929707E-01
          2   -1    0    0  501    0  0.00000000000E+00  0.00000000000E+00  0.13288365278E+04  0.13288365278E+04  0.25500000000E-02 0. -1.
         -2   -1    0    0    0  501 -0.00000000000E+00 -0.00000000000E+00 -0.46651350132E+03  0.46651350133E+03  0.25500000000E-02 0.  1.
    8880023    1    1    2    0    0 -0.28455309689E+03  0.24907305672E+02 -0.14915368064E+03  0.73324475145E+03  0.65864270000E+03 0.  0.
    8880022    1    1    2    0    0  0.28455309689E+03 -0.24907305672E+02  0.10114767071E+04  0.10621052777E+04  0.15294330000E+03 0.  0.
<mgrwt>
<rscale>  0 0.58842904E+03</rscale>
<asrwt>0</asrwt>
<pdfrwt beam="1">  1        2 0.20443639E+00 0.71791437E+03</pdfrwt>
<pdfrwt beam="2">  1       -2 0.71771309E-01 0.71791437E+03</pdfrwt>
<totfact> 0.28668559E+01</totfact>
</mgrwt>
</event>
<event>
 4    5  0.8511149E-008  0.1108377E+04  0.7818608E-02  0.9251786E-01
          2   -1    0    0  501    0  0.00000000000E+00  0.00000000000E+00  0.21039217401E+04  0.21039217401E+04  0.25500000000E-02 0. -1.
         -2   -1    0    0    0  501 -0.00000000000E+00 -0.00000000000E+00 -0.57560214913E+03  0.57560214914E+03  0.25500000000E-02 0.  1.
    8880023    1    1    2    0    0  0.17183106773E+03  0.87473605455E+03  0.28933082241E+03  0.11455180540E+04  0.65864270000E+03 0.  1.
    8880022    1    1    2    0    0 -0.17183106773E+03 -0.87473605455E+03  0.12389887686E+04  0.15340058353E+04  0.15294330000E+03 0.  0.
<mgrwt>
<rscale>  0 0.10534529E+04</rscale>
<asrwt>0</asrwt>
<pdfrwt beam="1">  1        2 0.32368027E+00 0.11083769E+04</pdfrwt>
<pdfrwt beam="2">  1       -2 0.88554177E-01 0.11083769E+04</pdfrwt>
<totfact> 0.63530865E+00</totfact>
</mgrwt>
</event>
<event>
 4    5  0.8511149E-008  0.8039234E+03  0.7818608E-02  0.9702376E-01
          2   -1    0    0  501    0  0.00000000000E+00  0.00000000000E+00  0.16390109985E+04  0.16390109985E+04  0.25500000000E-02 0. -1.
         -2   -1    0    0    0  501 -0.00000000000E+00 -0.00000000000E+00 -0.46372566531E+03  0.46372566532E+03  0.25500000000E-02 0.  1.
    8880023    1    1    2    0    0 -0.83731564022E+02  0.45328979329E+03 -0.28752348299E+02  0.80443739055E+03  0.65864270000E+03 0.  0.
    8880022    1    1    2    0    0  0.83731564022E+02 -0.45328979329E+03  0.12040376815E+04  0.12982992733E+04  0.15294330000E+03 0.  0.
<mgrwt>
<rscale>  0 0.70875489E+03</rscale>
<asrwt>0</asrwt>
<pdfrwt beam="1">  1        2 0.25215554E+00 0.80392339E+03</pdfrwt>
<pdfrwt beam="2">  1       -2 0.71342408E-01 0.80392339E+03</pdfrwt>
<totfact> 0.19286239E+01</totfact>
</mgrwt>
</event>
<event>
 4    5  0.8511149E-008  0.8684417E+03  0.7818608E-02  0.9578720E-01
          2   -1    0    0  501    0  0.00000000000E+00  0.00000000000E+00  0.65173115725E+03  0.65173115725E+03  0.25500000000E-02 0. -1.
         -2   -1    0    0    0  501 -0.00000000000E+00 -0.00000000000E+00 -0.10048169311E+04  0.10048169311E+04  0.25500000000E-02 0.  1.
    8880023    1    1    2    0    0  0.55738292758E+03  0.98514659221E+02 -0.56165198456E+03  0.10342359615E+04  0.65864270000E+03 0.  0.
    8880022    1    1    2    0    0 -0.55738292758E+03 -0.98514659221E+02  0.20856621067E+03  0.62231212690E+03  0.15294330000E+03 0.  0.
<mgrwt>
<rscale>  0 0.78720785E+03</rscale>
<asrwt>0</asrwt>
<pdfrwt beam="1">  1        2 0.10026633E+00 0.86844175E+03</pdfrwt>
<pdfrwt beam="2">  1       -2 0.15458722E+00 0.86844175E+03</pdfrwt>
<totfact> 0.12437280E+01</totfact>
</mgrwt>
</event>
<event>
 4    5  0.8511149E-008  0.1591629E+04  0.7818608E-02  0.8847504E-01
          2   -1    0    0  501    0  0.00000000000E+00  0.00000000000E+00  0.52758861025E+04  0.52758861025E+04  0.25500000000E-02 0. -1.
         -2   -1    0    0    0  501 -0.00000000000E+00 -0.00000000000E+00 -0.47506931215E+03  0.47506931216E+03  0.25500000000E-02 0.  1.
    8880023    1    1    2    0    0 -0.52506609343E+03  0.13504735765E+04  0.32746706542E+04  0.36409822003E+04  0.65864270000E+03 0.  0.
    8880022    1    1    2    0    0  0.52506609343E+03 -0.13504735765E+04  0.15261461362E+04  0.21099732143E+04  0.15294330000E+03 0.  0.
<mgrwt>
<rscale>  0 0.15568498E+04</rscale>
<asrwt>0</asrwt>
<pdfrwt beam="1">  1        2 0.81167482E+00 0.15916292E+04</pdfrwt>
<pdfrwt beam="2">  1       -2 0.73087584E-01 0.15916292E+04</pdfrwt>
<totfact> 0.23967007E-02</totfact>
</mgrwt>
</event>
<event>
 4    5  0.8511149E-008  0.1248135E+04  0.7818608E-02  0.9111695E-01
         -2   -1    0    0    0  501 -0.00000000000E+00  0.00000000000E+00  0.83414701142E+03  0.83414701143E+03  0.25500000000E-02 0.  1.
          2   -1    0    0  501    0  0.00000000000E+00 -0.00000000000E+00 -0.29846147220E+04  0.29846147220E+04  0.25500000000E-02 0. -1.
    8880023    1    1    2    0    0  0.72209084648E+03  0.77628261618E+03  0.17318588151E+03  0.12600926341E+04  0.65864270000E+03 0.  1.
    8880022    1    1    2    0    0 -0.72209084648E+03 -0.77628261618E+03 -0.23236535921E+04  0.25586690993E+04  0.15294330000E+03 0.  0.
<mgrwt>
<rscale>  0 0.12013276E+04</rscale>
<asrwt>0</asrwt>
<pdfrwt beam="1">  1        2 0.45917149E+00 0.12481346E+04</pdfrwt>
<pdfrwt beam="2">  1       -2 0.12833031E+00 0.12481346E+04</pdfrwt>
<totfact> 0.78306979E-01</totfact>
</mgrwt>
</event>
<event>
 4    5  0.8511149E-008  0.1108081E+04  0.7818608E-02  0.9252112E-01
          2   -1    0    0  501    0  0.00000000000E+00  0.00000000000E+00  0.19515652222E+04  0.19515652222E+04  0.25500000000E-02 0. -1.
         -2   -1    0    0    0  501 -0.00000000000E+00 -0.00000000000E+00 -0.12928397181E+04  0.12928397181E+04  0.25500000000E-02 0.  1.
    8880023    1    1    2    0    0 -0.65629424531E+03 -0.60275266755E+03 -0.90995641163E+03  0.14338283691E+04  0.65864270000E+03 0.  0.
    8880022    1    1    2    0    0  0.65629424531E+03  0.60275266755E+03  0.15686819157E+04  0.18105765713E+04  0.15294330000E+03 0.  0.
<mgrwt>
<rscale>  0 0.10531362E+04</rscale>
<asrwt>0</asrwt>
<pdfrwt beam="1">  1        2 0.30024080E+00 0.11080808E+04</pdfrwt>
<pdfrwt beam="2">  1       -2 0.19889842E+00 0.11080808E+04</pdfrwt>
<totfact> 0.94476758E-01</totfact>
</mgrwt>
</event>
<event>
 4    5  0.8511149E-008  0.8232215E+03  0.7818608E-02  0.9662668E-01
          2   -1    0    0  501    0  0.00000000000E+00  0.00000000000E+00  0.40167651465E+04  0.40167651465E+04  0.25500000000E-02 0. -1.
         -2   -1    0    0    0  501 -0.00000000000E+00 -0.00000000000E+00 -0.58253220711E+03  0.58253220712E+03  0.25500000000E-02 0.  1.
    8880023    1    1    2    0    0 -0.35863816332E+03 -0.33950283575E+03 -0.26445269715E+03  0.86465538971E+03  0.65864270000E+03 0.  1.
    8880022    1    1    2    0    0  0.35863816332E+03  0.33950283575E+03  0.36986856366E+04  0.37346419640E+04  0.15294330000E+03 0.  0.
<mgrwt>
<rscale>  0 0.73283697E+03</rscale>
<asrwt>0</asrwt>
<pdfrwt beam="1">  1        2 0.61796384E+00 0.82322155E+03</pdfrwt>
<pdfrwt beam="2">  1       -2 0.89620344E-01 0.82322155E+03</pdfrwt>
<totfact> 0.38719719E-01</totfact>
</mgrwt>
</event>
<event>
 4    5  0.8511149E-008  0.7554216E+03  0.7818608E-02  0.9817108E-01
          2   -1    0    0  501    0  0.00000000000E+00  0.00000000000E+00  0.17222125506E+04  0.17222125506E+04  0.25500000000E-02 0. -1.
         -2   -1    0    0    0  501 -0.00000000000E+00 -0.00000000000E+00 -0.47934353876E+03  0.47934353877E+03  0.25500000000E-02 0.  1.
    8880023    1    1    2    0    0 -0.13293332484E+03 -0.34522510818E+03 -0.13440685061E+03  0.76728550874E+03  0.65864270000E+03 0.  1.
    8880022    1    1    2    0    0  0.13293332484E+03  0.34522510818E+03  0.13772758624E+04  0.14342705806E+04  0.15294330000E+03 0.  0.
<mgrwt>
<rscale>  0 0.64452468E+03</rscale>
<asrwt>0</asrwt>
<pdfrwt beam="1">  1        2 0.26495577E+00 0.75542164E+03</pdfrwt>
<pdfrwt beam="2">  1       -2 0.73745161E-01 0.75542164E+03</pdfrwt>
<totfact> 0.16239174E+01</totfact>
</mgrwt>
</event>
<event>
 4    5  0.8511149E-008  0.1073578E+04  0.7818608E-02  0.9291060E-01
          2   -1    0    0  501    0  0.00000000000E+00  0.00000000000E+00  0.76577646351E+03  0.76577646352E+03  0.25500000000E-02 0. -1.
         -2   -1    0    0    0  501 -0.00000000000E+00 -0.00000000000E+00 -0.13141549673E+04  0.13141549673E+04  0.25500000000E-02 0.  1.
    8880023    1    1    2    0    0  0.59402520448E+03 -0.60489180474E+03 -0.57534351062E+03  0.12180272577E+04  0.65864270000E+03 0.  0.
    8880022    1    1    2    0    0 -0.59402520448E+03  0.60489180474E+03  0.26965006866E+02  0.86190417310E+03  0.15294330000E+03 0.  0.
<mgrwt>
<rscale>  0 0.10161010E+04</rscale>
<asrwt>0</asrwt>
<pdfrwt beam="1">  1        2 0.11781176E+00 0.10735782E+04</pdfrwt>
<pdfrwt beam="2">  1       -2 0.20217769E+00 0.10735782E+04</pdfrwt>
<totfact> 0.46323288E+00</totfact>
</mgrwt>
</event>
<event>
 4    5  0.8511149E-008  0.7723583E+03  0.7818608E-02  0.9774104E-01
          2   -1    0    0  501    0  0.00000000000E+00  0.00000000000E+00  0.28456374833E+04  0.28456374833E+04  0.25500000000E-02 0. -1.
         -2   -1    0    0    0  501 -0.00000000000E+00 -0.00000000000E+00 -0.44727163616E+03  0.44727163617E+03  0.25500000000E-02 0.  1.
    8880023    1    1    2    0    0 -0.36372214151E+03  0.17445152643E+03 -0.80720505359E+02  0.77656496029E+03  0.65864270000E+03 0.  1.
    8880022    1    1    2    0    0  0.36372214151E+03 -0.17445152643E+03  0.24790863525E+04  0.25163441592E+04  0.15294330000E+03 0.  0.
<mgrwt>
<rscale>  0 0.66771001E+03</rscale>
<asrwt>0</asrwt>
<pdfrwt beam="1">  1        2 0.43779037E+00 0.77235830E+03</pdfrwt>
<pdfrwt beam="2">  1       -2 0.68811022E-01 0.77235830E+03</pdfrwt>
<totfact> 0.44232252E+00</totfact>
</mgrwt>
</event>
<event>
 4    5  0.8511149E-008  0.6984266E+03  0.7818608E-02  0.1000379E+00
          2   -1    0    0  501    0  0.00000000000E+00  0.00000000000E+00  0.63558916123E+03  0.63558916123E+03  0.25500000000E-02 0. -1.
         -2   -1    0    0    0  501 -0.00000000000E+00 -0.00000000000E+00 -0.20976462599E+04  0.20976462599E+04  0.25500000000E-02 0.  1.
    8880023    1    1    2    0    0 -0.98430299151E+02  0.21047812246E+03 -0.20050085342E+04  0.21231719177E+04  0.65864270000E+03 0.  1.
    8880022    1    1    2    0    0  0.98430299151E+02 -0.21047812246E+03  0.54295143552E+03  0.61006350339E+03  0.15294330000E+03 0.  0.
<mgrwt>
<rscale>  0 0.55484291E+03</rscale>
<asrwt>0</asrwt>
<pdfrwt beam="1">  1        2 0.97782949E-01 0.69842664E+03</pdfrwt>
<pdfrwt beam="2">  1       -2 0.32271481E+00 0.69842664E+03</pdfrwt>
<totfact> 0.11270823E+00</totfact>
</mgrwt>
</event>
<event>
 4    5  0.8511149E-008  0.7582196E+03  0.7818608E-02  0.9809739E-01
         -2   -1    0    0    0  501 -0.00000000000E+00  0.00000000000E+00  0.13358586405E+04  0.13358586405E+04  0.25500000000E-02 0.  1.
          2   -1    0    0  501    0  0.00000000000E+00 -0.00000000000E+00 -0.12147816713E+04  0.12147816713E+04  0.25500000000E-02 0. -1.
    8880023    1    1    2    0    0 -0.38792752844E+02  0.37360661110E+03  0.11879413006E+04  0.14092911400E+04  0.65864270000E+03 0.  1.
    8880022    1    1    2    0    0  0.38792752844E+02 -0.37360661110E+03 -0.10668643313E+04  0.11413491718E+04  0.15294330000E+03 0.  0.
<mgrwt>
<rscale>  0 0.64842519E+03</rscale>
<asrwt>0</asrwt>
<pdfrwt beam="1">  1        2 0.18688949E+00 0.75821961E+03</pdfrwt>
<pdfrwt beam="2">  1       -2 0.20551671E+00 0.75821961E+03</pdfrwt>
<totfact> 0.23328309E+00</totfact>
</mgrwt>
</event>
<event>
 4    5  0.8511149E-008  0.1006812E+04  0.7818608E-02  0.9372699E-01
          2   -1    0    0  501    0  0.00000000000E+00  0.00000000000E+00  0.25491166730E+04  0.25491166730E+04  0.25500000000E-02 0. -1.
         -2   -1    0    0    0  501 -0.00000000000E+00 -0.00000000000E+00 -0.45197761872E+03  0.45197761873E+03  0.25500000000E-02 0.  1.
    8880023    1    1    2    0    0 -0.50746066160E+03 -0.56775348265E+03  0.31157799798E+03  0.10539219113E+04  0.65864270000E+03 0.  0.
    8880022    1    1    2    0    0  0.50746066160E+03  0.56775348265E+03  0.17855610563E+04  0.19471723804E+04  0.15294330000E+03 0.  0.
<mgrwt>
<rscale>  0 0.94356898E+03</rscale>
<asrwt>0</asrwt>
<pdfrwt beam="1">  1        2 0.39217180E+00 0.10068121E+04</pdfrwt>
<pdfrwt beam="2">  1       -2 0.69535018E-01 0.10068121E+04</pdfrwt>
<totfact> 0.62165282E+00</totfact>
</mgrwt>
</event>
<event>
 4    5  0.8511149E-008  0.1144727E+04  0.7818608E-02  0.9212820E-01
         -2   -1    0    0    0  501 -0.00000000000E+00  0.00000000000E+00  0.10015414248E+04  0.10015414248E+04  0.25500000000E-02 0.  1.
          2   -1    0    0  501    0  0.00000000000E+00 -0.00000000000E+00 -0.35059690404E+04  0.35059690404E+04  0.25500000000E-02 0. -1.
    8880023    1    1    2    0    0  0.40727106163E+03 -0.84304161794E+03  0.57801814653E+03  0.12823821861E+04  0.65864270000E+03 0.  1.
    8880022    1    1    2    0    0 -0.40727106163E+03  0.84304161794E+03 -0.30824457622E+04  0.32251282792E+04  0.15294330000E+03 0.  0.
<mgrwt>
<rscale>  0 0.10922083E+04</rscale>
<asrwt>0</asrwt>
<pdfrwt beam="1">  1        2 0.53937984E+00 0.11447266E+04</pdfrwt>
<pdfrwt beam="2">  1       -2 0.15408330E+00 0.11447266E+04</pdfrwt>
<totfact> 0.22544063E-01</totfact>
</mgrwt>
</event>
<event>
 4    5  0.8511149E-008  0.6976683E+03  0.7818608E-02  0.1000701E+00
          2   -1    0    0  501    0  0.00000000000E+00  0.00000000000E+00  0.54219039101E+03  0.54219039102E+03  0.25500000000E-02 0. -1.
         -2   -1    0    0    0  501 -0.00000000000E+00 -0.00000000000E+00 -0.58278032266E+03  0.58278032267E+03  0.25500000000E-02 0.  1.
    8880023    1    1    2    0    0 -0.23006227446E+03 -0.14648880544E+01 -0.28737004559E+03  0.75453465486E+03  0.65864270000E+03 0.  0.
    8880022    1    1    2    0    0  0.23006227446E+03  0.14648880544E+01  0.24678011394E+03  0.37043605883E+03  0.15294330000E+03 0.  0.
<mgrwt>
<rscale>  0 0.55343709E+03</rscale>
<asrwt>0</asrwt>
<pdfrwt beam="1">  1        2 0.83413906E-01 0.69766826E+03</pdfrwt>
<pdfrwt beam="2">  1       -2 0.89658511E-01 0.69766826E+03</pdfrwt>
<totfact> 0.60610741E+01</totfact>
</mgrwt>
</event>
<event>
 4    5  0.8511149E-008  0.1523858E+04  0.7818608E-02  0.8892970E-01
          2   -1    0    0  501    0  0.00000000000E+00  0.00000000000E+00  0.87668416629E+03  0.87668416629E+03  0.25500000000E-02 0. -1.
         -2   -1    0    0    0  501 -0.00000000000E+00 -0.00000000000E+00 -0.35373789188E+04  0.35373789188E+04  0.25500000000E-02 0.  1.
    8880023    1    1    2    0    0 -0.87796044417E+03 -0.10571277737E+04 -0.26198581905E+04  0.30308086077E+04  0.65864270000E+03 0.  0.
    8880022    1    1    2    0    0  0.87796044417E+03  0.10571277737E+04 -0.40836561942E+02  0.13832544774E+04  0.15294330000E+03 0.  0.
<mgrwt>
<rscale>  0 0.14872590E+04</rscale>
<asrwt>0</asrwt>
<pdfrwt beam="1">  1        2 0.13487449E+00 0.15238582E+04</pdfrwt>
<pdfrwt beam="2">  1       -2 0.54421213E+00 0.15238582E+04</pdfrwt>
<totfact> 0.25874476E-02</totfact>
</mgrwt>
</event>
<event>
 4    5  0.8511149E-008  0.7795715E+03  0.7818608E-02  0.9756844E-01
         -2   -1    0    0    0  501 -0.00000000000E+00  0.00000000000E+00  0.12856447891E+04  0.12856447891E+04  0.25500000000E-02 0.  1.
          2   -1    0    0  501    0  0.00000000000E+00 -0.00000000000E+00 -0.31404308509E+03  0.31404308510E+03  0.25500000000E-02 0. -1.
    8880023    1    1    2    0    0  0.33030082034E+03  0.25460345018E+03  0.81724370568E+03  0.11294330567E+04  0.65864270000E+03 0.  0.
    8880022    1    1    2    0    0 -0.33030082034E+03 -0.25460345018E+03  0.15435799834E+03  0.47025481755E+03  0.15294330000E+03 0.  0.
<mgrwt>
<rscale>  0 0.67730845E+03</rscale>
<asrwt>0</asrwt>
<pdfrwt beam="1">  1        2 0.48314320E-01 0.77957152E+03</pdfrwt>
<pdfrwt beam="2">  1       -2 0.19779151E+00 0.77957152E+03</pdfrwt>
<totfact> 0.14557938E+01</totfact>
</mgrwt>
</event>
<event>
 4    5  0.8511149E-008  0.1593197E+04  0.7818608E-02  0.8846484E-01
         -2   -1    0    0    0  501 -0.00000000000E+00  0.00000000000E+00  0.16823309118E+04  0.16823309118E+04  0.25500000000E-02 0.  1.
          2   -1    0    0  501    0  0.00000000000E+00 -0.00000000000E+00 -0.16397326278E+04  0.16397326278E+04  0.25500000000E-02 0. -1.
    8880023    1    1    2    0    0  0.91406101546E+03 -0.11264806451E+04  0.67737201575E+03  0.17312161153E+04  0.65864270000E+03 0.  0.
    8880022    1    1    2    0    0 -0.91406101546E+03  0.11264806451E+04 -0.63477373177E+03  0.15908474243E+04  0.15294330000E+03 0.  0.
<mgrwt>
<rscale>  0 0.15584573E+04</rscale>
<asrwt>0</asrwt>
<pdfrwt beam="1">  1        2 0.25226656E+00 0.15931969E+04</pdfrwt>
<pdfrwt beam="2">  1       -2 0.25882014E+00 0.15931969E+04</pdfrwt>
<totfact> 0.55938473E-01</totfact>
</mgrwt>
</event>
<event>
 4    5  0.8511149E-008  0.8993797E+03  0.7818608E-02  0.9527028E-01
          2   -1    0    0  501    0  0.00000000000E+00  0.00000000000E+00  0.32046876842E+04  0.32046876842E+04  0.25500000000E-02 0. -1.
         -2   -1    0    0    0  501 -0.00000000000E+00 -0.00000000000E+00 -0.70830176240E+03  0.70830176240E+03  0.25500000000E-02 0.  1.
    8880023    1    1    2    0    0  0.55515047521E+03  0.25861472060E+03 -0.37397816913E+03  0.97403465087E+03  0.65864270000E+03 0.  1.
    8880022    1    1    2    0    0 -0.55515047521E+03 -0.25861472060E+03  0.28703640909E+04  0.29389547957E+04  0.15294330000E+03 0.  0.
<mgrwt>
<rscale>  0 0.82320143E+03</rscale>
<asrwt>0</asrwt>
<pdfrwt beam="1">  1        2 0.49302888E+00 0.89937969E+03</pdfrwt>
<pdfrwt beam="2">  1       -2 0.10896950E+00 0.89937969E+03</pdfrwt>
<totfact> 0.90264910E-01</totfact>
</mgrwt>
</event>
<event>
 4    5  0.8511149E-008  0.9689386E+03  0.7818608E-02  0.9423374E-01
          2   -1    0    0  501    0  0.00000000000E+00  0.00000000000E+00  0.11348316501E+04  0.11348316501E+04  0.25500000000E-02 0. -1.
         -2   -1    0    0    0  501 -0.00000000000E+00 -0.00000000000E+00 -0.88829319991E+03  0.88829319991E+03  0.25500000000E-02 0.  1.
    8880023    1    1    2    0    0  0.70546004530E+03  0.85777916460E+02 -0.40192757557E+03  0.10489936648E+04  0.65864270000E+03 0.  0.
    8880022    1    1    2    0    0 -0.70546004530E+03 -0.85777916460E+02  0.64846602574E+03  0.97413118522E+03  0.15294330000E+03 0.  0.
<mgrwt>
<rscale>  0 0.90176823E+03</rscale>
<asrwt>0</asrwt>
<pdfrwt beam="1">  1        2 0.17458948E+00 0.96893856E+03</pdfrwt>
<pdfrwt beam="2">  1       -2 0.13666049E+00 0.96893856E+03</pdfrwt>
<totfact> 0.78874787E+00</totfact>
</mgrwt>
</event>
<event>
 4    5  0.8511149E-008  0.7134942E+03  0.7818608E-02  0.9945247E-01
         -2   -1    0    0    0  501 -0.00000000000E+00  0.00000000000E+00  0.16251789591E+04  0.16251789591E+04  0.25500000000E-02 0.  1.
          2   -1    0    0  501    0  0.00000000000E+00 -0.00000000000E+00 -0.21806821192E+03  0.21806821194E+03  0.25500000000E-02 0. -1.
    8880023    1    1    2    0    0 -0.11591308500E+03 -0.24865233358E+03  0.13457816468E+04  0.15232210193E+04  0.65864270000E+03 0.  0.
    8880022    1    1    2    0    0  0.11591308500E+03  0.24865233358E+03  0.61329100342E+02  0.32002615179E+03  0.15294330000E+03 0.  0.
<mgrwt>
<rscale>  0 0.58117645E+03</rscale>
<asrwt>0</asrwt>
<pdfrwt beam="1">  1        2 0.33548954E-01 0.71349424E+03</pdfrwt>
<pdfrwt beam="2">  1       -2 0.25002755E+00 0.71349424E+03</pdfrwt>
<totfact> 0.10381784E+01</totfact>
</mgrwt>
</event>
<event>
 4    5  0.8511149E-008  0.9784804E+03  0.7818608E-02  0.9410270E-01
          2   -1    0    0  501    0  0.00000000000E+00  0.00000000000E+00  0.18812536132E+04  0.18812536132E+04  0.25500000000E-02 0. -1.
         -2   -1    0    0    0  501 -0.00000000000E+00 -0.00000000000E+00 -0.71888023189E+03  0.71888023189E+03  0.25500000000E-02 0.  1.
    8880023    1    1    2    0    0 -0.37914292327E+03  0.61633142234E+03 -0.24639188288E+03  0.10090257403E+04  0.65864270000E+03 0.  1.
    8880022    1    1    2    0    0  0.37914292327E+03 -0.61633142234E+03  0.14087652642E+04  0.15911081047E+04  0.15294330000E+03 0.  0.
<mgrwt>
<rscale>  0 0.91235334E+03</rscale>
<asrwt>0</asrwt>
<pdfrwt beam="1">  1        2 0.28942363E+00 0.97848045E+03</pdfrwt>
<pdfrwt beam="2">  1       -2 0.11059696E+00 0.97848045E+03</pdfrwt>
<totfact> 0.50475721E+00</totfact>
</mgrwt>
</event>
<event>
 4    5  0.8511149E-008  0.8109946E+03  0.7818608E-02  0.9687509E-01
          2   -1    0    0  501    0  0.00000000000E+00  0.00000000000E+00  0.52133282674E+03  0.52133282675E+03  0.25500000000E-02 0. -1.
         -2   -1    0    0    0  501 -0.00000000000E+00 -0.00000000000E+00 -0.15247221960E+04  0.15247221960E+04  0.25500000000E-02 0.  1.
    8880023    1    1    2    0    0  0.10588721524E+03  0.46118326458E+03 -0.12507324079E+04  0.14906521621E+04  0.65864270000E+03 0.  1.
    8880022    1    1    2    0    0 -0.10588721524E+03 -0.46118326458E+03  0.24734303863E+03  0.55540286069E+03  0.15294330000E+03 0. -1.
<mgrwt>
<rscale>  0 0.71765404E+03</rscale>
<asrwt>0</asrwt>
<pdfrwt beam="1">  1        2 0.80205051E-01 0.81099464E+03</pdfrwt>
<pdfrwt beam="2">  1       -2 0.23457264E+00 0.81099464E+03</pdfrwt>
<totfact> 0.47805056E+00</totfact>
</mgrwt>
</event>
<event>
 4    5  0.8511149E-008  0.8894884E+03  0.7818608E-02  0.9543121E-01
          2   -1    0    0  501    0  0.00000000000E+00  0.00000000000E+00  0.70420250914E+03  0.70420250914E+03  0.25500000000E-02 0. -1.
         -2   -1    0    0    0  501 -0.00000000000E+00 -0.00000000000E+00 -0.12120950722E+04  0.12120950722E+04  0.25500000000E-02 0.  1.
    8880023    1    1    2    0    0 -0.43840819047E+03 -0.40642053081E+03 -0.83316394745E+03  0.12187500806E+04  0.65864270000E+03 0.  1.
    8880022    1    1    2    0    0  0.43840819047E+03  0.40642053081E+03  0.32527138437E+03  0.69754750078E+03  0.15294330000E+03 0.  0.
<mgrwt>
<rscale>  0 0.81177973E+03</rscale>
<asrwt>0</asrwt>
<pdfrwt beam="1">  1        2 0.10833885E+00 0.88948839E+03</pdfrwt>
<pdfrwt beam="2">  1       -2 0.18647616E+00 0.88948839E+03</pdfrwt>
<totfact> 0.66800898E+00</totfact>
</mgrwt>
</event>
<event>
 4    5  0.8511149E-008  0.1192461E+04  0.7818608E-02  0.9164486E-01
         -2   -1    0    0    0  501 -0.00000000000E+00  0.00000000000E+00  0.91138462209E+03  0.91138462209E+03  0.25500000000E-02 0.  1.
          2   -1    0    0  501    0  0.00000000000E+00 -0.00000000000E+00 -0.22765583502E+04  0.22765583502E+04  0.25500000000E-02 0. -1.
    8880023    1    1    2    0    0 -0.85393724667E+03 -0.50886529091E+03  0.31174755628E+03  0.12325378090E+04  0.65864270000E+03 0.  1.
    8880022    1    1    2    0    0  0.85393724667E+03  0.50886529091E+03 -0.16769212844E+04  0.19554051633E+04  0.15294330000E+03 0.  0.
<mgrwt>
<rscale>  0 0.11427631E+04</rscale>
<asrwt>0</asrwt>
<pdfrwt beam="1">  1        2 0.35023975E+00 0.11924609E+04</pdfrwt>
<pdfrwt beam="2">  1       -2 0.14021302E+00 0.11924609E+04</pdfrwt>
<totfact> 0.16340558E+00</totfact>
</mgrwt>
</event>
<event>
 4    5  0.8511149E-008  0.7843935E+03  0.7818608E-02  0.9745616E-01
         -2   -1    0    0    0  501 -0.00000000000E+00  0.00000000000E+00  0.90807965768E+03  0.90807965768E+03  0.25500000000E-02 0.  1.
          2   -1    0    0  501    0  0.00000000000E+00 -0.00000000000E+00 -0.13164981218E+04  0.13164981218E+04  0.25500000000E-02 0. -1.
    8880023    1    1    2    0    0 -0.70836216677E+02  0.42005376971E+03  0.68486885491E+03  0.10413061479E+04  0.65864270000E+03 0.  1.
    8880022    1    1    2    0    0  0.70836216677E+02 -0.42005376971E+03 -0.10932873191E+04  0.11832716316E+04  0.15294330000E+03 0.  0.
<mgrwt>
<rscale>  0 0.68364588E+03</rscale>
<asrwt>0</asrwt>
<pdfrwt beam="1">  1        2 0.20253817E+00 0.78439349E+03</pdfrwt>
<pdfrwt beam="2">  1       -2 0.13970456E+00 0.78439349E+03</pdfrwt>
<totfact> 0.59428966E+00</totfact>
</mgrwt>
</event>
<event>
 4    5  0.8511149E-008  0.1409544E+04  0.7818608E-02  0.8976302E-01
          2   -1    0    0  501    0  0.00000000000E+00  0.00000000000E+00  0.22301420072E+04  0.22301420072E+04  0.25500000000E-02 0. -1.
         -2   -1    0    0    0  501 -0.00000000000E+00 -0.00000000000E+00 -0.10329583227E+04  0.10329583227E+04  0.25500000000E-02 0.  1.
    8880023    1    1    2    0    0 -0.12428105665E+04 -0.91785506301E+02 -0.15482363731E+03  0.14180208913E+04  0.65864270000E+03 0. -1.
    8880022    1    1    2    0    0  0.12428105665E+04  0.91785506301E+02  0.13520073219E+04  0.18450794386E+04  0.15294330000E+03 0.  0.
<mgrwt>
<rscale>  0 0.13693579E+04</rscale>
<asrwt>0</asrwt>
<pdfrwt beam="1">  1        2 0.34309877E+00 0.14095435E+04</pdfrwt>
<pdfrwt beam="2">  1       -2 0.15891666E+00 0.14095435E+04</pdfrwt>
<totfact> 0.12127190E+00</totfact>
</mgrwt>
</event>
<event>
 4    5  0.8511149E-008  0.8333064E+03  0.7818608E-02  0.9642933E-01
          2   -1    0    0  501    0  0.00000000000E+00  0.00000000000E+00  0.12664159323E+04  0.12664159323E+04  0.25500000000E-02 0. -1.
         -2   -1    0    0    0  501 -0.00000000000E+00 -0.00000000000E+00 -0.10423463253E+04  0.10423463253E+04  0.25500000000E-02 0.  1.
    8880023    1    1    2    0    0  0.58576801767E+02  0.50710751956E+03 -0.79947710595E+03  0.11548000378E+04  0.65864270000E+03 0.  0.
    8880022    1    1    2    0    0 -0.58576801767E+02 -0.50710751956E+03  0.10235467130E+04  0.11539622198E+04  0.15294330000E+03 0.  0.
<mgrwt>
<rscale>  0 0.74518597E+03</rscale>
<asrwt>0</asrwt>
<pdfrwt beam="1">  1        2 0.19483322E+00 0.83330636E+03</pdfrwt>
<pdfrwt beam="2">  1       -2 0.16036097E+00 0.83330636E+03</pdfrwt>
<totfact> 0.43799259E+00</totfact>
</mgrwt>
</event>
<event>
 4    5  0.8511149E-008  0.7886669E+03  0.7818608E-02  0.9735858E-01
          2   -1    0    0  501    0  0.00000000000E+00  0.00000000000E+00  0.11676721961E+04  0.11676721961E+04  0.25500000000E-02 0. -1.
         -2   -1    0    0    0  501 -0.00000000000E+00 -0.00000000000E+00 -0.86139934668E+03  0.86139934669E+03  0.25500000000E-02 0.  1.
    8880023    1    1    2    0    0  0.36319525416E+03  0.23722250129E+03 -0.61449820233E+03  0.99980175770E+03  0.65864270000E+03 0.  1.
    8880022    1    1    2    0    0 -0.36319525416E+03 -0.23722250129E+03  0.92077105176E+03  0.10292697851E+04  0.15294330000E+03 0.  0.
<mgrwt>
<rscale>  0 0.68921349E+03</rscale>
<asrwt>0</asrwt>
<pdfrwt beam="1">  1        2 0.17964188E+00 0.78866692E+03</pdfrwt>
<pdfrwt beam="2">  1       -2 0.13252298E+00 0.78866692E+03</pdfrwt>
<totfact> 0.83143363E+00</totfact>
</mgrwt>
</event>
<event>
 4    5  0.8511149E-008  0.1018291E+04  0.7818608E-02  0.9358009E-01
          2   -1    0    0  501    0  0.00000000000E+00  0.00000000000E+00  0.16546146450E+04  0.16546146450E+04  0.25500000000E-02 0. -1.
         -2   -1    0    0    0  501 -0.00000000000E+00 -0.00000000000E+00 -0.92653892318E+03  0.92653892319E+03  0.25500000000E-02 0.  1.
    8880023    1    1    2    0    0 -0.44006281329E+03  0.63988413110E+03 -0.48877829524E+03  0.11295226465E+04  0.65864270000E+03 0.  0.
    8880022    1    1    2    0    0  0.44006281329E+03 -0.63988413110E+03  0.12168540171E+04  0.14516309217E+04  0.15294330000E+03 0.  0.
<mgrwt>
<rscale>  0 0.95613462E+03</rscale>
<asrwt>0</asrwt>
<pdfrwt beam="1">  1        2 0.25455610E+00 0.10182913E+04</pdfrwt>
<pdfrwt beam="2">  1       -2 0.14254445E+00 0.10182913E+04</pdfrwt>
<totfact> 0.35334746E+00</totfact>
</mgrwt>
</event>
<event>
 4    5  0.8511149E-008  0.1026888E+04  0.7818608E-02  0.9347195E-01
          2   -1    0    0  501    0  0.00000000000E+00  0.00000000000E+00  0.19794343119E+04  0.19794343119E+04  0.25500000000E-02 0. -1.
         -2   -1    0    0    0  501 -0.00000000000E+00 -0.00000000000E+00 -0.62528474909E+03  0.62528474909E+03  0.25500000000E-02 0.  1.
    8880023    1    1    2    0    0 -0.47204443874E+03 -0.63076422443E+03 -0.43201613295E+01  0.10268974287E+04  0.65864270000E+03 0.  0.
    8880022    1    1    2    0    0  0.47204443874E+03  0.63076422443E+03  0.13584697242E+04  0.15778216323E+04  0.15294330000E+03 0.  0.
<mgrwt>
<rscale>  0 0.96551714E+03</rscale>
<asrwt>0</asrwt>
<pdfrwt beam="1">  1        2 0.30452835E+00 0.10268883E+04</pdfrwt>
<pdfrwt beam="2">  1       -2 0.96197654E-01 0.10268883E+04</pdfrwt>
<totfact> 0.61921172E+00</totfact>
</mgrwt>
</event>
<event>
 4    5  0.8511149E-008  0.7994725E+03  0.7818608E-02  0.9711938E-01
         -2   -1    0    0    0  501 -0.00000000000E+00  0.00000000000E+00  0.17125518637E+04  0.17125518637E+04  0.25500000000E-02 0.  1.
          2   -1    0    0  501    0  0.00000000000E+00 -0.00000000000E+00 -0.39316228835E+03  0.39316228836E+03  0.25500000000E-02 0. -1.
    8880023    1    1    2    0    0  0.43045750323E+03 -0.14160672720E+03  0.14081592714E+04  0.16192803547E+04  0.65864270000E+03 0.  1.
    8880022    1    1    2    0    0 -0.43045750323E+03  0.14160672720E+03 -0.88769696019E+02  0.48643379737E+03  0.15294330000E+03 0. -1.
<mgrwt>
<rscale>  0 0.70310453E+03</rscale>
<asrwt>0</asrwt>
<pdfrwt beam="1">  1        2 0.60486505E-01 0.79947253E+03</pdfrwt>
<pdfrwt beam="2">  1       -2 0.26346952E+00 0.79947253E+03</pdfrwt>
<totfact> 0.44161141E+00</totfact>
</mgrwt>
</event>
<event>
 4    5  0.8511149E-008  0.9807960E+03  0.7818608E-02  0.9407125E-01
          2   -1    0    0  501    0  0.00000000000E+00  0.00000000000E+00  0.27536412321E+04  0.27536412321E+04  0.25500000000E-02 0. -1.
         -2   -1    0    0    0  501 -0.00000000000E+00 -0.00000000000E+00 -0.54284902523E+03  0.54284902523E+03  0.25500000000E-02 0.  1.
    8880023    1    1    2    0    0 -0.38954879655E+03  0.61351631364E+03  0.17582685078E+02  0.98095356112E+03  0.65864270000E+03 0.  0.
    8880022    1    1    2    0    0  0.38954879655E+03 -0.61351631364E+03  0.21932095218E+04  0.23155366963E+04  0.15294330000E+03 0. -1.
<mgrwt>
<rscale>  0 0.91491626E+03</rscale>
<asrwt>0</asrwt>
<pdfrwt beam="1">  1        2 0.42363712E+00 0.98079597E+03</pdfrwt>
<pdfrwt beam="2">  1       -2 0.83515233E-01 0.98079597E+03</pdfrwt>
<totfact> 0.31489288E+00</totfact>
</mgrwt>
</event>
<event>
 4    5  0.8511149E-008  0.1070718E+04  0.7818608E-02  0.9294380E-01
         -2   -1    0    0    0  501 -0.00000000000E+00  0.00000000000E+00  0.11929825986E+04  0.11929825986E+04  0.25500000000E-02 0.  1.
          2   -1    0    0  501    0  0.00000000000E+00 -0.00000000000E+00 -0.14933590939E+04  0.14933590939E+04  0.25500000000E-02 0. -1.
    8880023    1    1    2    0    0 -0.84291990683E+03 -0.45968774586E+02  0.76687628341E+03  0.13170180477E+04  0.65864270000E+03 0.  0.
    8880022    1    1    2    0    0  0.84291990683E+03  0.45968774586E+02 -0.10672527787E+04  0.13693236448E+04  0.15294330000E+03 0.  0.
<mgrwt>
<rscale>  0 0.10130187E+04</rscale>
<asrwt>0</asrwt>
<pdfrwt beam="1">  1        2 0.22974755E+00 0.10707181E+04</pdfrwt>
<pdfrwt beam="2">  1       -2 0.18353578E+00 0.10707181E+04</pdfrwt>
<totfact> 0.21607899E+00</totfact>
</mgrwt>
</event>
<event>
 4    5  0.8511149E-008  0.7157965E+03  0.7818608E-02  0.9937074E-01
         -2   -1    0    0    0  501 -0.00000000000E+00  0.00000000000E+00  0.25128801632E+03  0.25128801633E+03  0.25500000000E-02 0.  1.
          2   -1    0    0  501    0  0.00000000000E+00 -0.00000000000E+00 -0.13317699778E+04  0.13317699778E+04  0.25500000000E-02 0. -1.
    8880023    1    1    2    0    0  0.59462492971E+02  0.27389536099E+03 -0.37364010827E+03  0.80744757948E+03  0.65864270000E+03 0.  0.
    8880022    1    1    2    0    0 -0.59462492971E+02 -0.27389536099E+03 -0.70684185319E+03  0.77561041462E+03  0.15294330000E+03 0.  1.
<mgrwt>
<rscale>  0 0.58497664E+03</rscale>
<asrwt>0</asrwt>
<pdfrwt beam="1">  1        2 0.20488768E+00 0.71579652E+03</pdfrwt>
<pdfrwt beam="2">  1       -2 0.38659696E-01 0.71579652E+03</pdfrwt>
<totfact> 0.10208100E+02</totfact>
</mgrwt>
</event>
<event>
 4    5  0.8511149E-008  0.8159938E+03  0.7818608E-02  0.9677225E-01
          2   -1    0    0  501    0  0.00000000000E+00  0.00000000000E+00  0.11130110806E+04  0.11130110806E+04  0.25500000000E-02 0. -1.
         -2   -1    0    0    0  501 -0.00000000000E+00 -0.00000000000E+00 -0.97604312188E+03  0.97604312188E+03  0.25500000000E-02 0.  1.
    8880023    1    1    2    0    0 -0.13785503981E+03 -0.46155356556E+03 -0.72388710901E+03  0.10908063342E+04  0.65864270000E+03 0.  1.
    8880022    1    1    2    0    0  0.13785503981E+03  0.46155356556E+03  0.86085506771E+03  0.99824786827E+03  0.15294330000E+03 0.  0.
<mgrwt>
<rscale>  0 0.72389167E+03</rscale>
<asrwt>0</asrwt>
<pdfrwt beam="1">  1        2 0.17123247E+00 0.81599382E+03</pdfrwt>
<pdfrwt beam="2">  1       -2 0.15016048E+00 0.81599382E+03</pdfrwt>
<totfact> 0.64631956E+00</totfact>
</mgrwt>
</event>
<event>
 4    5  0.8511149E-008  0.9825305E+03  0.7818608E-02  0.9404779E-01
         -2   -1    0    0    0  501 -0.00000000000E+00  0.00000000000E+00  0.70087544615E+03  0.70087544616E+03  0.25500000000E-02 0.  1.
          2   -1    0    0  501    0  0.00000000000E+00 -0.00000000000E+00 -0.33719633777E+04  0.33719633777E+04  0.25500000000E-02 0. -1.
    8880023    1    1    2    0    0  0.18308831862E+03  0.70571563822E+03  0.28604110900E+03  0.10233208767E+04  0.65864270000E+03 0.  1.
    8880022    1    1    2    0    0 -0.18308831862E+03 -0.70571563822E+03 -0.29571290406E+04  0.30495179471E+04  0.15294330000E+03 0.  0.
<mgrwt>
<rscale>  0 0.91683463E+03</rscale>
<asrwt>0</asrwt>
<pdfrwt beam="1">  1        2 0.51876359E+00 0.98253046E+03</pdfrwt>
<pdfrwt beam="2">  1       -2 0.10782699E+00 0.98253046E+03</pdfrwt>
<totfact> 0.70909258E-01</totfact>
</mgrwt>
</event>
<event>
 4    5  0.8511149E-008  0.1429096E+04  0.7818608E-02  0.8961398E-01
         -2   -1    0    0    0  501 -0.00000000000E+00  0.00000000000E+00  0.10577120142E+04  0.10577120143E+04  0.25500000000E-02 0.  1.
          2   -1    0    0  501    0  0.00000000000E+00 -0.00000000000E+00 -0.22054297324E+04  0.22054297324E+04  0.25500000000E-02 0. -1.
    8880023    1    1    2    0    0  0.74579835188E+03 -0.10258111728E+04  0.15636047111E+03  0.14376239241E+04  0.65864270000E+03 0.  0.
    8880022    1    1    2    0    0 -0.74579835188E+03  0.10258111728E+04 -0.13040781892E+04  0.18255178226E+04  0.15294330000E+03 0.  0.
<mgrwt>
<rscale>  0 0.13895766E+04</rscale>
<asrwt>0</asrwt>
<pdfrwt beam="1">  1        2 0.33929688E+00 0.14290955E+04</pdfrwt>
<pdfrwt beam="2">  1       -2 0.16272493E+00 0.14290955E+04</pdfrwt>
<totfact> 0.11709017E+00</totfact>
</mgrwt>
</event>
<event>
 4    5  0.8511149E-008  0.7690293E+03  0.7818608E-02  0.9782269E-01
         -2   -1    0    0    0  501 -0.00000000000E+00  0.00000000000E+00  0.34977457623E+03  0.34977457624E+03  0.25500000000E-02 0.  1.
          2   -1    0    0  501    0  0.00000000000E+00 -0.00000000000E+00 -0.15578928840E+04  0.15578928840E+04  0.25500000000E-02 0. -1.
    8880023    1    1    2    0    0 -0.38587113711E+03 -0.93269931622E+02 -0.17259337351E+03  0.78815892651E+03  0.65864270000E+03 0.  0.
    8880022    1    1    2    0    0  0.38587113711E+03  0.93269931622E+02 -0.10355249342E+04  0.11195085337E+04  0.15294330000E+03 0.  0.
<mgrwt>
<rscale>  0 0.66322855E+03</rscale>
<asrwt>0</asrwt>
<pdfrwt beam="1">  1        2 0.23967582E+00 0.76902927E+03</pdfrwt>
<pdfrwt beam="2">  1       -2 0.53811474E-01 0.76902927E+03</pdfrwt>
<totfact> 0.39126076E+01</totfact>
</mgrwt>
</event>
<event>
 4    5  0.8511149E-008  0.7154733E+03  0.7818608E-02  0.9938211E-01
         -2   -1    0    0    0  501 -0.00000000000E+00  0.00000000000E+00  0.20776475207E+04  0.20776475207E+04  0.25500000000E-02 0.  1.
          2   -1    0    0  501    0  0.00000000000E+00 -0.00000000000E+00 -0.10728402285E+04  0.10728402285E+04  0.25500000000E-02 0. -1.
    8880023    1    1    2    0    0  0.26718173192E+03 -0.81888456964E+02  0.19901902265E+04  0.21148898651E+04  0.65864270000E+03 0.  1.
    8880022    1    1    2    0    0 -0.26718173192E+03  0.81888456964E+02 -0.98538293435E+03  0.10355978841E+04  0.15294330000E+03 0.  0.
<mgrwt>
<rscale>  0 0.58444610E+03</rscale>
<asrwt>0</asrwt>
<pdfrwt beam="1">  1        2 0.16505235E+00 0.71547327E+03</pdfrwt>
<pdfrwt beam="2">  1       -2 0.31963807E+00 0.71547327E+03</pdfrwt>
<totfact> 0.57792575E-01</totfact>
</mgrwt>
</event>
<event>
 4    5  0.8511149E-008  0.1322665E+04  0.7818608E-02  0.9046230E-01
         -2   -1    0    0    0  501 -0.00000000000E+00  0.00000000000E+00  0.12761012801E+04  0.12761012801E+04  0.25500000000E-02 0.  1.
          2   -1    0    0  501    0  0.00000000000E+00 -0.00000000000E+00 -0.20233409868E+04  0.20233409868E+04  0.25500000000E-02 0. -1.
    8880023    1    1    2    0    0  0.21476302840E+03  0.11267251306E+04  0.65946289769E+03  0.14779493219E+04  0.65864270000E+03 0.  0.
    8880022    1    1    2    0    0 -0.21476302840E+03 -0.11267251306E+04 -0.14067026044E+04  0.18214929450E+04  0.15294330000E+03 0.  0.
<mgrwt>
<rscale>  0 0.12791927E+04</rscale>
<asrwt>0</asrwt>
<pdfrwt beam="1">  1        2 0.31128323E+00 0.13226651E+04</pdfrwt>
<pdfrwt beam="2">  1       -2 0.19632327E+00 0.13226651E+04</pdfrwt>
<totfact> 0.87314971E-01</totfact>
</mgrwt>
</event>
<event>
 4    5  0.8511149E-008  0.7877447E+03  0.7818608E-02  0.9737949E-01
         -2   -1    0    0    0  501 -0.00000000000E+00  0.00000000000E+00  0.41980230054E+03  0.41980230055E+03  0.25500000000E-02 0.  1.
          2   -1    0    0  501    0  0.00000000000E+00 -0.00000000000E+00 -0.15473916022E+04  0.15473916022E+04  0.25500000000E-02 0. -1.
    8880023    1    1    2    0    0 -0.36086952596E+03 -0.23770718126E+03 -0.42080625559E+02  0.78886786226E+03  0.65864270000E+03 0.  1.
    8880022    1    1    2    0    0  0.36086952596E+03  0.23770718126E+03 -0.10855086761E+04  0.11783260405E+04  0.15294330000E+03 0.  0.
<mgrwt>
<rscale>  0 0.68801572E+03</rscale>
<asrwt>0</asrwt>
<pdfrwt beam="1">  1        2 0.23806024E+00 0.78774471E+03</pdfrwt>
<pdfrwt beam="2">  1       -2 0.64584970E-01 0.78774471E+03</pdfrwt>
<totfact> 0.26945396E+01</totfact>
</mgrwt>
</event>
<event>
 4    5  0.8511149E-008  0.7342257E+03  0.7818608E-02  0.9877098E-01
          2   -1    0    0  501    0  0.00000000000E+00  0.00000000000E+00  0.36265830799E+04  0.36265830799E+04  0.25500000000E-02 0. -1.
         -2   -1    0    0    0  501 -0.00000000000E+00 -0.00000000000E+00 -0.38253596178E+03  0.38253596179E+03  0.25500000000E-02 0.  1.
    8880023    1    1    2    0    0  0.78553442328E+02 -0.31481198144E+03 -0.11058389840E+02  0.73430900935E+03  0.65864270000E+03 0.  1.
    8880022    1    1    2    0    0 -0.78553442328E+02  0.31481198144E+03  0.32551055080E+04  0.32748100324E+04  0.15294330000E+03 0.  0.
<mgrwt>
<rscale>  0 0.61384171E+03</rscale>
<asrwt>0</asrwt>
<pdfrwt beam="1">  1        2 0.55793587E+00 0.73422574E+03</pdfrwt>
<pdfrwt beam="2">  1       -2 0.58851685E-01 0.73422574E+03</pdfrwt>
<totfact> 0.19547192E+00</totfact>
</mgrwt>
</event>
<event>
 4    5  0.8511149E-008  0.9100496E+03  0.7818608E-02  0.9510088E-01
          2   -1    0    0  501    0  0.00000000000E+00  0.00000000000E+00  0.55065326810E+03  0.55065326811E+03  0.25500000000E-02 0. -1.
         -2   -1    0    0    0  501 -0.00000000000E+00 -0.00000000000E+00 -0.14977071888E+04  0.14977071888E+04  0.25500000000E-02 0.  1.
    8880023    1    1    2    0    0  0.32091139701E+03  0.53981097646E+03 -0.10547623261E+04  0.13930950384E+04  0.65864270000E+03 0.  1.
    8880022    1    1    2    0    0 -0.32091139701E+03 -0.53981097646E+03  0.10770840550E+03  0.65526541848E+03  0.15294330000E+03 0.  0.
<mgrwt>
<rscale>  0 0.83544172E+03</rscale>
<asrwt>0</asrwt>
<pdfrwt beam="1">  1        2 0.84715888E-01 0.91004957E+03</pdfrwt>
<pdfrwt beam="2">  1       -2 0.23041649E+00 0.91004957E+03</pdfrwt>
<totfact> 0.47017601E+00</totfact>
</mgrwt>
</event>
<event>
 4    5  0.8511149E-008  0.7963838E+03  0.7818608E-02  0.9718670E-01
         -2   -1    0    0    0  501 -0.00000000000E+00  0.00000000000E+00  0.26233285028E+03  0.26233285029E+03  0.25500000000E-02 0.  1.
          2   -1    0    0  501    0  0.00000000000E+00 -0.00000000000E+00 -0.22982664437E+04  0.22982664437E+04  0.25500000000E-02 0. -1.
    8880023    1    1    2    0    0  0.40922118097E+03  0.18153523637E+03 -0.46992598492E+03  0.92469327594E+03  0.65864270000E+03 0.  0.
    8880022    1    1    2    0    0 -0.40922118097E+03 -0.18153523637E+03 -0.15660076085E+04  0.16359060181E+04  0.15294330000E+03 0.  0.
<mgrwt>
<rscale>  0 0.69915979E+03</rscale>
<asrwt>0</asrwt>
<pdfrwt beam="1">  1        2 0.35357944E+00 0.79638384E+03</pdfrwt>
<pdfrwt beam="2">  1       -2 0.40358901E-01 0.79638384E+03</pdfrwt>
<totfact> 0.27272432E+01</totfact>
</mgrwt>
</event>
<event>
 4    5  0.8511149E-008  0.7459002E+03  0.7818608E-02  0.9843082E-01
          2   -1    0    0  501    0  0.00000000000E+00  0.00000000000E+00  0.27413253526E+04  0.27413253526E+04  0.25500000000E-02 0. -1.
         -2   -1    0    0    0  501 -0.00000000000E+00 -0.00000000000E+00 -0.36114199138E+03  0.36114199138E+03  0.25500000000E-02 0.  1.
    8880023    1    1    2    0    0  0.46744397493E+02  0.34694648753E+03  0.56992041474E+02  0.74807432983E+03  0.65864270000E+03 0.  0.
    8880022    1    1    2    0    0 -0.46744397493E+02 -0.34694648753E+03  0.23231913198E+04  0.23543930142E+04  0.15294330000E+03 0. -1.
<mgrwt>
<rscale>  0 0.63100895E+03</rscale>
<asrwt>0</asrwt>
<pdfrwt beam="1">  1        2 0.42174235E+00 0.74590020E+03</pdfrwt>
<pdfrwt beam="2">  1       -2 0.55560308E-01 0.74590020E+03</pdfrwt>
<totfact> 0.80714656E+00</totfact>
</mgrwt>
</event>
<event>
 4    5  0.8511149E-008  0.7350033E+03  0.7818608E-02  0.9874749E-01
         -2   -1    0    0    0  501 -0.00000000000E+00  0.00000000000E+00  0.52427276481E+03  0.52427276482E+03  0.25500000000E-02 0.  1.
          2   -1    0    0  501    0  0.00000000000E+00 -0.00000000000E+00 -0.21039692204E+04  0.21039692204E+04  0.25500000000E-02 0. -1.
    8880023    1    1    2    0    0 -0.23204431713E+03  0.22929240791E+03  0.24001975505E+03  0.77320066122E+03  0.65864270000E+03 0.  1.
    8880022    1    1    2    0    0  0.23204431713E+03 -0.22929240791E+03 -0.18197162106E+04  0.18550413240E+04  0.15294330000E+03 0.  0.
<mgrwt>
<rscale>  0 0.61500830E+03</rscale>
<asrwt>0</asrwt>
<pdfrwt beam="1">  1        2 0.32368757E+00 0.73500325E+03</pdfrwt>
<pdfrwt beam="2">  1       -2 0.80657349E-01 0.73500325E+03</pdfrwt>
<totfact> 0.82559227E+00</totfact>
</mgrwt>
</event>
<event>
 4    5  0.8511149E-008  0.7744393E+03  0.7818608E-02  0.9769065E-01
         -2   -1    0    0    0  501 -0.00000000000E+00  0.00000000000E+00  0.44971474887E+03  0.44971474888E+03  0.25500000000E-02 0.  1.
          2   -1    0    0  501    0  0.00000000000E+00 -0.00000000000E+00 -0.14721389911E+04  0.14721389911E+04  0.25500000000E-02 0. -1.
    8880023    1    1    2    0    0  0.33740720657E+03  0.22825963412E+03  0.38261971977E+02  0.77538394901E+03  0.65864270000E+03 0.  1.
    8880022    1    1    2    0    0 -0.33740720657E+03 -0.22825963412E+03 -0.10606862142E+04  0.11464697910E+04  0.15294330000E+03 0.  0.
<mgrwt>
<rscale>  0 0.67049447E+03</rscale>
<asrwt>0</asrwt>
<pdfrwt beam="1">  1        2 0.22648292E+00 0.77443934E+03</pdfrwt>
<pdfrwt beam="2">  1       -2 0.69186885E-01 0.77443934E+03</pdfrwt>
<totfact> 0.25610443E+01</totfact>
</mgrwt>
</event>
<event>
 4    5  0.8511149E-008  0.8415098E+03  0.7818608E-02  0.9627340E-01
         -2   -1    0    0    0  501 -0.00000000000E+00  0.00000000000E+00  0.39178370238E+03  0.39178370239E+03  0.25500000000E-02 0.  1.
          2   -1    0    0  501    0  0.00000000000E+00 -0.00000000000E+00 -0.13729857432E+04  0.13729857432E+04  0.25500000000E-02 0. -1.
    8880023    1    1    2    0    0 -0.94862157326E+02 -0.51510157246E+03 -0.30317165374E+03  0.89445610107E+03  0.65864270000E+03 0.  0.
    8880022    1    1    2    0    0  0.94862157326E+02  0.51510157246E+03 -0.67803038709E+03  0.87031334454E+03  0.15294330000E+03 0.  0.
<mgrwt>
<rscale>  0 0.75512767E+03</rscale>
<asrwt>0</asrwt>
<pdfrwt beam="1">  1        2 0.21122857E+00 0.84150975E+03</pdfrwt>
<pdfrwt beam="2">  1       -2 0.60274417E-01 0.84150975E+03</pdfrwt>
<totfact> 0.38907441E+01</totfact>
</mgrwt>
</event>
<event>
 4    5  0.8511149E-008  0.1307513E+04  0.7818608E-02  0.9059099E-01
         -2   -1    0    0    0  501 -0.00000000000E+00  0.00000000000E+00  0.12597479991E+04  0.12597479991E+04  0.25500000000E-02 0.  1.
          2   -1    0    0  501    0  0.00000000000E+00 -0.00000000000E+00 -0.18051346578E+04  0.18051346578E+04  0.25500000000E-02 0. -1.
    8880023    1    1    2    0    0  0.57807538684E+03 -0.97036576475E+03  0.60919576994E+03  0.14424668324E+04  0.65864270000E+03 0.  0.
    8880022    1    1    2    0    0 -0.57807538684E+03  0.97036576475E+03 -0.11545824286E+04  0.16224158245E+04  0.15294330000E+03 0.  0.
<mgrwt>
<rscale>  0 0.12634060E+04</rscale>
<asrwt>0</asrwt>
<pdfrwt beam="1">  1        2 0.27771303E+00 0.13075133E+04</pdfrwt>
<pdfrwt beam="2">  1       -2 0.19380738E+00 0.13075133E+04</pdfrwt>
<totfact> 0.12014223E+00</totfact>
</mgrwt>
</event>
<event>
 4    5  0.8511149E-008  0.1783811E+04  0.7818608E-02  0.8731545E-01
          2   -1    0    0  501    0  0.00000000000E+00  0.00000000000E+00  0.13874020771E+04  0.13874020771E+04  0.25500000000E-02 0. -1.
         -2   -1    0    0    0  501 -0.00000000000E+00 -0.00000000000E+00 -0.27167077545E+04  0.27167077545E+04  0.25500000000E-02 0.  1.
    8880023    1    1    2    0    0  0.12047400112E+03 -0.16533775827E+04  0.25979635248E+03  0.18026302357E+04  0.65864270000E+03 0.  0.
    8880022    1    1    2    0    0 -0.12047400112E+03  0.16533775827E+04 -0.15891020298E+04  0.23014795958E+04  0.15294330000E+03 0.  0.
<mgrwt>
<rscale>  0 0.17532838E+04</rscale>
<asrwt>0</asrwt>
<pdfrwt beam="1">  1        2 0.21344647E+00 0.17838110E+04</pdfrwt>
<pdfrwt beam="2">  1       -2 0.41795504E+00 0.17838110E+04</pdfrwt>
<totfact> 0.76057044E-02</totfact>
</mgrwt>
</event>
<event>
 4    5  0.8511149E-008  0.7214577E+03  0.7818608E-02  0.9917684E-01
          2   -1    0    0  501    0  0.00000000000E+00  0.00000000000E+00  0.29725190103E+04  0.29725190103E+04  0.25500000000E-02 0. -1.
         -2   -1    0    0    0  501 -0.00000000000E+00 -0.00000000000E+00 -0.80423438860E+03  0.80423438861E+03  0.25500000000E-02 0.  1.
    8880023    1    1    2    0    0  0.84263425829E+02 -0.28211823867E+03 -0.63064029031E+03  0.95823191742E+03  0.65864270000E+03 0.  1.
    8880022    1    1    2    0    0 -0.84263425829E+02  0.28211823867E+03  0.27989249120E+04  0.28185214815E+04  0.15294330000E+03 0.  0.
<mgrwt>
<rscale>  0 0.59411844E+03</rscale>
<asrwt>0</asrwt>
<pdfrwt beam="1">  1        2 0.45731061E+00 0.72145771E+03</pdfrwt>
<pdfrwt beam="2">  1       -2 0.12372837E+00 0.72145771E+03</pdfrwt>
<totfact> 0.95738936E-01</totfact>
</mgrwt>
</event>
<event>
 4    5  0.8511149E-008  0.8985174E+03  0.7818608E-02  0.9528416E-01
         -2   -1    0    0    0  501 -0.00000000000E+00  0.00000000000E+00  0.39699139609E+03  0.39699139610E+03  0.25500000000E-02 0.  1.
          2   -1    0    0  501    0  0.00000000000E+00 -0.00000000000E+00 -0.19278619130E+04  0.19278619130E+04  0.25500000000E-02 0. -1.
    8880023    1    1    2    0    0 -0.48185837410E+03  0.37594651146E+03 -0.30907480936E+03  0.95018983167E+03  0.65864270000E+03 0.  0.
    8880022    1    1    2    0    0  0.48185837410E+03 -0.37594651146E+03 -0.12217957075E+04  0.13746634774E+04  0.15294330000E+03 0.  0.
<mgrwt>
<rscale>  0 0.82220865E+03</rscale>
<asrwt>0</asrwt>
<pdfrwt beam="1">  1        2 0.29659413E+00 0.89851738E+03</pdfrwt>
<pdfrwt beam="2">  1       -2 0.61075601E-01 0.89851738E+03</pdfrwt>
<totfact> 0.18525585E+01</totfact>
</mgrwt>
</event>
<event>
 4    5  0.8511149E-008  0.1102332E+04  0.7818608E-02  0.9258465E-01
         -2   -1    0    0    0  501 -0.00000000000E+00  0.00000000000E+00  0.12808426452E+04  0.12808426452E+04  0.25500000000E-02 0.  1.
          2   -1    0    0  501    0  0.00000000000E+00 -0.00000000000E+00 -0.12713284765E+04  0.12713284765E+04  0.25500000000E-02 0. -1.
    8880023    1    1    2    0    0  0.85587844361E+03  0.22090047669E+03  0.79557547716E+03  0.13594393980E+04  0.65864270000E+03 0.  0.
    8880022    1    1    2    0    0 -0.85587844361E+03 -0.22090047669E+03 -0.78606130845E+03  0.11927317236E+04  0.15294330000E+03 0.  0.
<mgrwt>
<rscale>  0 0.10469829E+04</rscale>
<asrwt>0</asrwt>
<pdfrwt beam="1">  1        2 0.19558900E+00 0.11023317E+04</pdfrwt>
<pdfrwt beam="2">  1       -2 0.19705272E+00 0.11023317E+04</pdfrwt>
<totfact> 0.23438159E+00</totfact>
</mgrwt>
</event>
<event>
 4    5  0.8511149E-008  0.8538204E+03  0.7818608E-02  0.9604652E-01
         -2   -1    0    0    0  501 -0.00000000000E+00  0.00000000000E+00  0.21291181134E+03  0.21291181136E+03  0.25500000000E-02 0.  1.
          2   -1    0    0  501    0  0.00000000000E+00 -0.00000000000E+00 -0.24301269731E+04  0.24301269731E+04  0.25500000000E-02 0. -1.
    8880023    1    1    2    0    0  0.35611201260E+03  0.41034528839E+03 -0.11114589553E+04  0.14015527948E+04  0.65864270000E+03 0.  0.
    8880022    1    1    2    0    0 -0.35611201260E+03 -0.41034528839E+03 -0.11057562065E+04  0.12414859897E+04  0.15294330000E+03 0.  1.
<mgrwt>
<rscale>  0 0.76989060E+03</rscale>
<asrwt>0</asrwt>
<pdfrwt beam="1">  1        2 0.37386567E+00 0.85382037E+03</pdfrwt>
<pdfrwt beam="2">  1       -2 0.32755665E-01 0.85382037E+03</pdfrwt>
<totfact> 0.34096985E+01</totfact>
</mgrwt>
</event>
<event>
 4    5  0.8511149E-008  0.7141500E+03  0.7818608E-02  0.9942902E-01
          2   -1    0    0  501    0  0.00000000000E+00  0.00000000000E+00  0.88099352778E+03  0.88099352778E+03  0.25500000000E-02 0. -1.
         -2   -1    0    0    0  501 -0.00000000000E+00 -0.00000000000E+00 -0.41786525059E+03  0.41786525060E+03  0.25500000000E-02 0.  1.
    8880023    1    1    2    0    0 -0.20812008377E+03 -0.18134490834E+03 -0.28432032438E+02  0.71471569997E+03  0.65864270000E+03 0.  1.
    8880022    1    1    2    0    0  0.20812008377E+03  0.18134490834E+03  0.49156030962E+03  0.58414307841E+03  0.15294330000E+03 0.  0.
<mgrwt>
<rscale>  0 0.58226394E+03</rscale>
<asrwt>0</asrwt>
<pdfrwt beam="1">  1        2 0.13553746E+00 0.71414995E+03</pdfrwt>
<pdfrwt beam="2">  1       -2 0.64286962E-01 0.71414995E+03</pdfrwt>
<totfact> 0.68657570E+01</totfact>
</mgrwt>
</event>
<event>
 4    5  0.8511149E-008  0.1409852E+04  0.7818608E-02  0.8976065E-01
         -2   -1    0    0    0  501 -0.00000000000E+00  0.00000000000E+00  0.19902734686E+04  0.19902734686E+04  0.25500000000E-02 0.  1.
          2   -1    0    0  501    0  0.00000000000E+00 -0.00000000000E+00 -0.17964004428E+04  0.17964004428E+04  0.25500000000E-02 0. -1.
    8880023    1    1    2    0    0 -0.12423582971E+04 -0.10206874462E+03 -0.12421159157E+04  0.18789716127E+04  0.65864270000E+03 0.  0.
    8880022    1    1    2    0    0  0.12423582971E+04  0.10206874462E+03  0.14359889416E+04  0.19077022987E+04  0.15294330000E+03 0.  0.
<mgrwt>
<rscale>  0 0.13696770E+04</rscale>
<asrwt>0</asrwt>
<pdfrwt beam="1">  1        2 0.27636930E+00 0.14098519E+04</pdfrwt>
<pdfrwt beam="2">  1       -2 0.30619592E+00 0.14098519E+04</pdfrwt>
<totfact> 0.23962015E-01</totfact>
</mgrwt>
</event>
<event>
 4    5  0.8511149E-008  0.1479195E+04  0.7818608E-02  0.8924469E-01
          2   -1    0    0  501    0  0.00000000000E+00  0.00000000000E+00  0.57762222996E+03  0.57762222996E+03  0.25500000000E-02 0. -1.
         -2   -1    0    0    0  501 -0.00000000000E+00 -0.00000000000E+00 -0.38667574902E+04  0.38667574902E+04  0.25500000000E-02 0.  1.
    8880023    1    1    2    0    0 -0.64102656604E+03 -0.11590046624E+04 -0.24716050290E+04  0.28804250540E+04  0.65864270000E+03 0.  0.
    8880022    1    1    2    0    0  0.64102656604E+03  0.11590046624E+04 -0.81753023123E+03  0.15639546662E+04  0.15294330000E+03 0.  0.
<mgrwt>
<rscale>  0 0.14412796E+04</rscale>
<asrwt>0</asrwt>
<pdfrwt beam="1">  1        2 0.88864961E-01 0.14791947E+04</pdfrwt>
<pdfrwt beam="2">  1       -2 0.59488575E+00 0.14791947E+04</pdfrwt>
<totfact> 0.25696035E-02</totfact>
</mgrwt>
</event>
<event>
 4    5  0.8511149E-008  0.9244386E+03  0.7818608E-02  0.9487887E-01
          2   -1    0    0  501    0  0.00000000000E+00  0.00000000000E+00  0.65621043027E+03  0.65621043027E+03  0.25500000000E-02 0. -1.
         -2   -1    0    0    0  501 -0.00000000000E+00 -0.00000000000E+00 -0.11868576499E+04  0.11868576499E+04  0.25500000000E-02 0.  1.
    8880023    1    1    2    0    0 -0.53049921807E+03 -0.37329223318E+03 -0.69510816177E+03  0.11566166498E+04  0.65864270000E+03 0.  1.
    8880022    1    1    2    0    0  0.53049921807E+03  0.37329223318E+03  0.16446094218E+03  0.68645143036E+03  0.15294330000E+03 0.  0.
<mgrwt>
<rscale>  0 0.85182814E+03</rscale>
<asrwt>0</asrwt>
<pdfrwt beam="1">  1        2 0.10095545E+00 0.92443860E+03</pdfrwt>
<pdfrwt beam="2">  1       -2 0.18259348E+00 0.92443860E+03</pdfrwt>
<totfact> 0.77314256E+00</totfact>
</mgrwt>
</event>
<event>
 4    5  0.8511149E-008  0.2315580E+04  0.7818608E-02  0.8480827E-01
          2   -1    0    0  501    0  0.00000000000E+00  0.00000000000E+00  0.35166577179E+04  0.35166577179E+04  0.25500000000E-02 0. -1.
         -2   -1    0    0    0  501 -0.00000000000E+00 -0.00000000000E+00 -0.20995894429E+04  0.20995894429E+04  0.25500000000E-02 0.  1.
    8880023    1    1    2    0    0  0.20990194571E+03  0.22099868033E+04 -0.82426865799E+03  0.24579116185E+04  0.65864270000E+03 0.  0.
    8880022    1    1    2    0    0 -0.20990194571E+03 -0.22099868033E+04  0.22413369329E+04  0.31583355423E+04  0.15294330000E+03 0.  0.
<mgrwt>
<rscale>  0 0.22926452E+04</rscale>
<asrwt>0</asrwt>
<pdfrwt beam="1">  1        2 0.54102427E+00 0.23155800E+04</pdfrwt>
<pdfrwt beam="2">  1       -2 0.32301376E+00 0.23155800E+04</pdfrwt>
<totfact> 0.15490313E-02</totfact>
</mgrwt>
</event>
<event>
 4    5  0.8511149E-008  0.1198819E+04  0.7818608E-02  0.9158271E-01
         -2   -1    0    0    0  501 -0.00000000000E+00  0.00000000000E+00  0.51863773646E+03  0.51863773647E+03  0.25500000000E-02 0.  1.
          2   -1    0    0  501    0  0.00000000000E+00 -0.00000000000E+00 -0.29821356634E+04  0.29821356634E+04  0.25500000000E-02 0. -1.
    8880023    1    1    2    0    0 -0.34869468052E+03  0.93902602694E+03 -0.51542054720E+03  0.13049239082E+04  0.65864270000E+03 0.  0.
    8880022    1    1    2    0    0  0.34869468052E+03 -0.93902602694E+03 -0.19480773797E+04  0.21958494916E+04  0.15294330000E+03 0.  0.
<mgrwt>
<rscale>  0 0.11494720E+04</rscale>
<asrwt>0</asrwt>
<pdfrwt beam="1">  1        2 0.45879009E+00 0.11988194E+04</pdfrwt>
<pdfrwt beam="2">  1       -2 0.79790423E-01 0.11988194E+04</pdfrwt>
<totfact> 0.24677824E+00</totfact>
</mgrwt>
</event>
<event>
 4    5  0.8511149E-008  0.9665353E+03  0.7818608E-02  0.9426712E-01
         -2   -1    0    0    0  501 -0.00000000000E+00  0.00000000000E+00  0.52066734717E+03  0.52066734718E+03  0.25500000000E-02 0.  1.
          2   -1    0    0  501    0  0.00000000000E+00 -0.00000000000E+00 -0.16011074676E+04  0.16011074676E+04  0.25500000000E-02 0. -1.
    8880023    1    1    2    0    0  0.78384329009E+02 -0.70301935823E+03 -0.20877484718E+03  0.98882630637E+03  0.65864270000E+03 0.  0.
    8880022    1    1    2    0    0 -0.78384329009E+02  0.70301935823E+03 -0.87166527321E+03  0.11329485084E+04  0.15294330000E+03 0.  0.
<mgrwt>
<rscale>  0 0.89909603E+03</rscale>
<asrwt>0</asrwt>
<pdfrwt beam="1">  1        2 0.24632422E+00 0.96653532E+03</pdfrwt>
<pdfrwt beam="2">  1       -2 0.80102670E-01 0.96653532E+03</pdfrwt>
<totfact> 0.15366697E+01</totfact>
</mgrwt>
</event>
<event>
 4    5  0.8511149E-008  0.1322950E+04  0.7818608E-02  0.9045990E-01
         -2   -1    0    0    0  501 -0.00000000000E+00  0.00000000000E+00  0.71132887976E+03  0.71132887976E+03  0.25500000000E-02 0.  1.
          2   -1    0    0  501    0  0.00000000000E+00 -0.00000000000E+00 -0.37147887632E+04  0.37147887632E+04  0.25500000000E-02 0. -1.
    8880023    1    1    2    0    0 -0.71597785360E+03  0.89652775782E+03 -0.13124687251E+03  0.13294443408E+04  0.65864270000E+03 0.  1.
    8880022    1    1    2    0    0  0.71597785360E+03 -0.89652775782E+03 -0.28722130109E+04  0.30966733022E+04  0.15294330000E+03 0.  0.
<mgrwt>
<rscale>  0 0.12794893E+04</rscale>
<asrwt>0</asrwt>
<pdfrwt beam="1">  1        2 0.57150595E+00 0.13229499E+04</pdfrwt>
<pdfrwt beam="2">  1       -2 0.10943522E+00 0.13229499E+04</pdfrwt>
<totfact> 0.37337781E-01</totfact>
</mgrwt>
</event>
<event>
 4    5  0.8511149E-008  0.1010338E+04  0.7818608E-02  0.9368156E-01
         -2   -1    0    0    0  501 -0.00000000000E+00  0.00000000000E+00  0.28429275331E+03  0.28429275332E+03  0.25500000000E-02 0.  1.
          2   -1    0    0  501    0  0.00000000000E+00 -0.00000000000E+00 -0.41281412177E+04  0.41281412177E+04  0.25500000000E-02 0. -1.
    8880023    1    1    2    0    0 -0.61643379086E+03  0.45495266640E+03 -0.85622402887E+03  0.13243497805E+04  0.65864270000E+03 0.  0.
    8880022    1    1    2    0    0  0.61643379086E+03 -0.45495266640E+03 -0.29876244356E+04  0.30880841906E+04  0.15294330000E+03 0.  0.
<mgrwt>
<rscale>  0 0.94743326E+03</rscale>
<asrwt>0</asrwt>
<pdfrwt beam="1">  1        2 0.63509860E+00 0.10103379E+04</pdfrwt>
<pdfrwt beam="2">  1       -2 0.43737350E-01 0.10103379E+04</pdfrwt>
<totfact> 0.14053578E+00</totfact>
</mgrwt>
</event>
<event>
 4    5  0.8511149E-008  0.9152383E+03  0.7818608E-02  0.9501999E-01
          2   -1    0    0  501    0  0.00000000000E+00  0.00000000000E+00  0.75779157744E+03  0.75779157745E+03  0.25500000000E-02 0. -1.
         -2   -1    0    0    0  501 -0.00000000000E+00 -0.00000000000E+00 -0.13479357304E+04  0.13479357304E+04  0.25500000000E-02 0.  1.
    8880023    1    1    2    0    0  0.61813643446E+03  0.14750719611E+03 -0.98300183716E+03  0.13431134884E+04  0.65864270000E+03 0.  1.
    8880022    1    1    2    0    0 -0.61813643446E+03 -0.14750719611E+03  0.39285768424E+03  0.76261381944E+03  0.15294330000E+03 0.  0.
<mgrwt>
<rscale>  0 0.84136605E+03</rscale>
<asrwt>0</asrwt>
<pdfrwt beam="1">  1        2 0.11658332E+00 0.91523835E+03</pdfrwt>
<pdfrwt beam="2">  1       -2 0.20737473E+00 0.91523835E+03</pdfrwt>
<totfact> 0.44158706E+00</totfact>
</mgrwt>
</event>
<event>
 4    5  0.8511149E-008  0.1355529E+04  0.7818608E-02  0.9019032E-01
          2   -1    0    0  501    0  0.00000000000E+00  0.00000000000E+00  0.45304963267E+04  0.45304963267E+04  0.25500000000E-02 0. -1.
         -2   -1    0    0    0  501 -0.00000000000E+00 -0.00000000000E+00 -0.41891642343E+03  0.41891642344E+03  0.25500000000E-02 0.  1.
    8880023    1    1    2    0    0  0.67628721723E+03  0.97277087939E+03  0.12314597766E+04  0.18313795269E+04  0.65864270000E+03 0.  0.
    8880022    1    1    2    0    0 -0.67628721723E+03 -0.97277087939E+03  0.28801201267E+04  0.31180332232E+04  0.15294330000E+03 0.  0.
<mgrwt>
<rscale>  0 0.13133667E+04</rscale>
<asrwt>0</asrwt>
<pdfrwt beam="1">  1        2 0.69699942E+00 0.13555286E+04</pdfrwt>
<pdfrwt beam="2">  1       -2 0.64448682E-01 0.13555286E+04</pdfrwt>
<totfact> 0.25804519E-01</totfact>
</mgrwt>
</event>
<event>
 4    5  0.8511149E-008  0.7787433E+03  0.7818608E-02  0.9758797E-01
         -2   -1    0    0    0  501 -0.00000000000E+00  0.00000000000E+00  0.59808372487E+03  0.59808372487E+03  0.25500000000E-02 0.  1.
          2   -1    0    0  501    0  0.00000000000E+00 -0.00000000000E+00 -0.10779275068E+04  0.10779275068E+04  0.25500000000E-02 0. -1.
    8880023    1    1    2    0    0  0.40155155636E+03  0.10671106114E+03  0.25385682616E+03  0.81907533075E+03  0.65864270000E+03 0.  1.
    8880022    1    1    2    0    0 -0.40155155636E+03 -0.10671106114E+03 -0.73370060813E+03  0.85693590097E+03  0.15294330000E+03 0.  0.
<mgrwt>
<rscale>  0 0.67621374E+03</rscale>
<asrwt>0</asrwt>
<pdfrwt beam="1">  1        2 0.16583500E+00 0.77874329E+03</pdfrwt>
<pdfrwt beam="2">  1       -2 0.92012881E-01 0.77874329E+03</pdfrwt>
<totfact> 0.22898773E+01</totfact>
</mgrwt>
</event>
<event>
 4    5  0.8511149E-008  0.9266593E+03  0.7818608E-02  0.9484523E-01
         -2   -1    0    0    0  501 -0.00000000000E+00  0.00000000000E+00  0.42458231473E+03  0.42458231474E+03  0.25500000000E-02 0.  1.
          2   -1    0    0  501    0  0.00000000000E+00 -0.00000000000E+00 -0.18325864214E+04  0.18325864214E+04  0.25500000000E-02 0. -1.
    8880023    1    1    2    0    0  0.27686065924E+03 -0.59011474641E+03 -0.12723463295E+04  0.15740275179E+04  0.65864270000E+03 0.  0.
    8880022    1    1    2    0    0 -0.27686065924E+03  0.59011474641E+03 -0.13565777717E+03  0.68314121826E+03  0.15294330000E+03 0.  0.
<mgrwt>
<rscale>  0 0.85434563E+03</rscale>
<asrwt>0</asrwt>
<pdfrwt beam="1">  1        2 0.28193637E+00 0.92665929E+03</pdfrwt>
<pdfrwt beam="2">  1       -2 0.65320357E-01 0.92665929E+03</pdfrwt>
<totfact> 0.18038567E+01</totfact>
</mgrwt>
</event>
<event>
 4    5  0.8511149E-008  0.7250013E+03  0.7818608E-02  0.9906013E-01
          2   -1    0    0  501    0  0.00000000000E+00  0.00000000000E+00  0.13705204087E+04  0.13705204087E+04  0.25500000000E-02 0. -1.
         -2   -1    0    0    0  501 -0.00000000000E+00 -0.00000000000E+00 -0.57355874889E+03  0.57355874890E+03  0.25500000000E-02 0.  1.
    8880023    1    1    2    0    0  0.26869141244E+03 -0.14007692143E+03 -0.30833244495E+03  0.78784244739E+03  0.65864270000E+03 0.  1.
    8880022    1    1    2    0    0 -0.26869141244E+03  0.14007692143E+03  0.11052941047E+04  0.11562367102E+04  0.15294330000E+03 0.  0.
<mgrwt>
<rscale>  0 0.59970757E+03</rscale>
<asrwt>0</asrwt>
<pdfrwt beam="1">  1        2 0.21084929E+00 0.72500126E+03</pdfrwt>
<pdfrwt beam="2">  1       -2 0.88239808E-01 0.72500126E+03</pdfrwt>
<totfact> 0.17057937E+01</totfact>
</mgrwt>
</event>
<event>
 4    5  0.8511149E-008  0.8494266E+03  0.7818608E-02  0.9612655E-01
          2   -1    0    0  501    0  0.00000000000E+00  0.00000000000E+00  0.31426099002E+04  0.31426099002E+04  0.25500000000E-02 0. -1.
         -2   -1    0    0    0  501 -0.00000000000E+00 -0.00000000000E+00 -0.61996237736E+03  0.61996237736E+03  0.25500000000E-02 0.  1.
    8880023    1    1    2    0    0  0.11526374765E+03  0.52386026703E+03 -0.28814789766E+03  0.89696974759E+03  0.65864270000E+03 0.  0.
    8880022    1    1    2    0    0 -0.11526374765E+03 -0.52386026703E+03  0.28107954205E+04  0.28656025300E+04  0.15294330000E+03 0.  0.
<mgrwt>
<rscale>  0 0.76464192E+03</rscale>
<asrwt>0</asrwt>
<pdfrwt beam="1">  1        2 0.48347843E+00 0.84942658E+03</pdfrwt>
<pdfrwt beam="2">  1       -2 0.95378830E-01 0.84942658E+03</pdfrwt>
<totfact> 0.13716116E+00</totfact>
</mgrwt>
</event>
<event>
 4    5  0.8511149E-008  0.1036030E+04  0.7818608E-02  0.9335867E-01
          2   -1    0    0  501    0  0.00000000000E+00  0.00000000000E+00  0.17863926353E+04  0.17863926353E+04  0.25500000000E-02 0. -1.
         -2   -1    0    0    0  501 -0.00000000000E+00 -0.00000000000E+00 -0.93996188260E+03  0.93996188260E+03  0.25500000000E-02 0.  1.
    8880023    1    1    2    0    0  0.76941070110E+03 -0.21807167020E+03 -0.50194313741E+03  0.11512190060E+04  0.65864270000E+03 0.  1.
    8880022    1    1    2    0    0 -0.76941070110E+03  0.21807167020E+03  0.13483738901E+04  0.15751355119E+04  0.15294330000E+03 0.  0.
<mgrwt>
<rscale>  0 0.97546912E+03</rscale>
<asrwt>0</asrwt>
<pdfrwt beam="1">  1        2 0.27482963E+00 0.10360301E+04</pdfrwt>
<pdfrwt beam="2">  1       -2 0.14460952E+00 0.10360301E+04</pdfrwt>
<totfact> 0.28710742E+00</totfact>
</mgrwt>
</event>
<event>
 4    5  0.8511149E-008  0.1399748E+04  0.7818608E-02  0.8983879E-01
          2   -1    0    0  501    0  0.00000000000E+00  0.00000000000E+00  0.18713454780E+04  0.18713454780E+04  0.25500000000E-02 0. -1.
         -2   -1    0    0    0  501 -0.00000000000E+00 -0.00000000000E+00 -0.10901381459E+04  0.10901381459E+04  0.25500000000E-02 0.  1.
    8880023    1    1    2    0    0  0.79981619119E+03 -0.94115745685E+03  0.96959953501E+03  0.17027673837E+04  0.65864270000E+03 0.  0.
    8880022    1    1    2    0    0 -0.79981619119E+03  0.94115745685E+03 -0.18839220292E+03  0.12587162402E+04  0.15294330000E+03 0.  0.
<mgrwt>
<rscale>  0 0.13592187E+04</rscale>
<asrwt>0</asrwt>
<pdfrwt beam="1">  1        2 0.28789930E+00 0.13997477E+04</pdfrwt>
<pdfrwt beam="2">  1       -2 0.16771356E+00 0.13997477E+04</pdfrwt>
<totfact> 0.16588279E+00</totfact>
</mgrwt>
</event>
<event>
 4    5  0.8511149E-008  0.7970397E+03  0.7818608E-02  0.9717234E-01
         -2   -1    0    0    0  501 -0.00000000000E+00  0.00000000000E+00  0.10335387899E+04  0.10335387899E+04  0.25500000000E-02 0.  1.
          2   -1    0    0  501    0  0.00000000000E+00 -0.00000000000E+00 -0.15063935102E+04  0.15063935102E+04  0.25500000000E-02 0. -1.
    8880023    1    1    2    0    0  0.41683507384E+02  0.44690562204E+03  0.83164968230E+03  0.11519173365E+04  0.65864270000E+03 0.  1.
    8880022    1    1    2    0    0 -0.41683507384E+02 -0.44690562204E+03 -0.13045044026E+04  0.13880149636E+04  0.15294330000E+03 0.  0.
<mgrwt>
<rscale>  0 0.69999915E+03</rscale>
<asrwt>0</asrwt>
<pdfrwt beam="1">  1        2 0.23175285E+00 0.79703975E+03</pdfrwt>
<pdfrwt beam="2">  1       -2 0.15900597E+00 0.79703975E+03</pdfrwt>
<totfact> 0.32896284E+00</totfact>
</mgrwt>
</event>
<event>
 4    5  0.8511149E-008  0.6764805E+03  0.7818608E-02  0.1011389E+00
          2   -1    0    0  501    0  0.00000000000E+00  0.00000000000E+00  0.47143554152E+03  0.47143554153E+03  0.25500000000E-02 0. -1.
         -2   -1    0    0    0  501 -0.00000000000E+00 -0.00000000000E+00 -0.44149837124E+03  0.44149837125E+03  0.25500000000E-02 0.  1.
    8880023    1    1    2    0    0  0.13653452798E+03 -0.71930300354E+02  0.10177468670E+03  0.68409351594E+03  0.65864270000E+03 0.  0.
    8880022    1    1    2    0    0 -0.13653452798E+03  0.71930300354E+02 -0.71837516426E+02  0.22884039683E+03  0.15294330000E+03 0.  0.
<mgrwt>
<rscale>  0 0.50926356E+03</rscale>
<asrwt>0</asrwt>
<pdfrwt beam="1">  1        2 0.72528545E-01 0.67648049E+03</pdfrwt>
<pdfrwt beam="2">  1       -2 0.67922827E-01 0.67648049E+03</pdfrwt>
<totfact> 0.13271113E+02</totfact>
</mgrwt>
</event>
<event>
 4    5  0.8511149E-008  0.7240995E+03  0.7818608E-02  0.9908951E-01
         -2   -1    0    0    0  501 -0.00000000000E+00  0.00000000000E+00  0.14132162704E+03  0.14132162706E+03  0.25500000000E-02 0.  1.
          2   -1    0    0  501    0  0.00000000000E+00 -0.00000000000E+00 -0.24357104184E+04  0.24357104184E+04  0.25500000000E-02 0. -1.
    8880023    1    1    2    0    0 -0.16219712356E+03 -0.25338108712E+03 -0.97086386408E+03  0.12111551226E+04  0.65864270000E+03 0.  0.
    8880022    1    1    2    0    0  0.16219712356E+03  0.25338108712E+03 -0.13235249273E+04  0.13658769228E+04  0.15294330000E+03 0.  0.
<mgrwt>
<rscale>  0 0.59829433E+03</rscale>
<asrwt>0</asrwt>
<pdfrwt beam="1">  1        2 0.37472465E+00 0.72409950E+03</pdfrwt>
<pdfrwt beam="2">  1       -2 0.21741791E-01 0.72409950E+03</pdfrwt>
<totfact> 0.72682196E+01</totfact>
</mgrwt>
</event>
<event>
 4    5  0.8511149E-008  0.7076821E+03  0.7818608E-02  0.9966711E-01
         -2   -1    0    0    0  501 -0.00000000000E+00  0.00000000000E+00  0.47250949383E+03  0.47250949384E+03  0.25500000000E-02 0.  1.
          2   -1    0    0  501    0  0.00000000000E+00 -0.00000000000E+00 -0.39718785661E+04  0.39718785661E+04  0.25500000000E-02 0. -1.
    8880023    1    1    2    0    0  0.76051000356E+02  0.24742665941E+03  0.19796504068E+03  0.73484969214E+03  0.65864270000E+03 0.  1.
    8880022    1    1    2    0    0 -0.76051000356E+02 -0.24742665941E+03 -0.36973341129E+04  0.37095383678E+04  0.15294330000E+03 0.  0.
<mgrwt>
<rscale>  0 0.57134300E+03</rscale>
<asrwt>0</asrwt>
<pdfrwt beam="1">  1        2 0.61105822E+00 0.70768207E+03</pdfrwt>
<pdfrwt beam="2">  1       -2 0.72693771E-01 0.70768207E+03</pdfrwt>
<totfact> 0.69348575E-01</totfact>
</mgrwt>
</event>
<event>
 4    5  0.8511149E-008  0.9893499E+03  0.7818608E-02  0.9395626E-01
          2   -1    0    0  501    0  0.00000000000E+00  0.00000000000E+00  0.43650673828E+03  0.43650673828E+03  0.25500000000E-02 0. -1.
         -2   -1    0    0    0  501 -0.00000000000E+00 -0.00000000000E+00 -0.24370099621E+04  0.24370099621E+04  0.25500000000E-02 0.  1.
    8880023    1    1    2    0    0  0.54843515039E+03  0.49418804376E+03 -0.33365573949E+03  0.10440973592E+04  0.65864270000E+03 0.  0.
    8880022    1    1    2    0    0 -0.54843515039E+03 -0.49418804376E+03 -0.16668474843E+04  0.18294193412E+04  0.15294330000E+03 0.  0.
<mgrwt>
<rscale>  0 0.92436536E+03</rscale>
<asrwt>0</asrwt>
<pdfrwt beam="1">  1        2 0.67154884E-01 0.98934986E+03</pdfrwt>
<pdfrwt beam="2">  1       -2 0.37492460E+00 0.98934986E+03</pdfrwt>
<totfact> 0.79298278E-01</totfact>
</mgrwt>
</event>
<event>
 4    5  0.8511149E-008  0.6791553E+03  0.7818608E-02  0.1009806E+00
         -2   -1    0    0    0  501 -0.00000000000E+00  0.00000000000E+00  0.43355886817E+03  0.43355886818E+03  0.25500000000E-02 0.  1.
          2   -1    0    0  501    0  0.00000000000E+00 -0.00000000000E+00 -0.19534467128E+04  0.19534467128E+04  0.25500000000E-02 0. -1.
    8880023    1    1    2    0    0 -0.16565521972E+03 -0.27354062185E+00  0.15532336485E+03  0.69669023287E+03  0.65864270000E+03 0.  1.
    8880022    1    1    2    0    0  0.16565521972E+03  0.27354062185E+00 -0.16752112094E+04  0.16903153481E+04  0.15294330000E+03 0.  0.
<mgrwt>
<rscale>  0 0.51551992E+03</rscale>
<asrwt>0</asrwt>
<pdfrwt beam="1">  1        2 0.30053026E+00 0.67915531E+03</pdfrwt>
<pdfrwt beam="2">  1       -2 0.66701365E-01 0.67915531E+03</pdfrwt>
<totfact> 0.15296933E+01</totfact>
</mgrwt>
</event>
<event>
 4    5  0.8511149E-008  0.1276707E+04  0.7818608E-02  0.9085940E-01
          2   -1    0    0  501    0  0.00000000000E+00  0.00000000000E+00  0.18238448654E+04  0.18238448654E+04  0.25500000000E-02 0. -1.
         -2   -1    0    0    0  501 -0.00000000000E+00 -0.00000000000E+00 -0.10991390928E+04  0.10991390928E+04  0.25500000000E-02 0.  1.
    8880023    1    1    2    0    0 -0.25788757504E+03  0.10628567380E+04  0.11704968719E+04  0.17320633881E+04  0.65864270000E+03 0. -1.
    8880022    1    1    2    0    0  0.25788757504E+03 -0.10628567380E+04 -0.44579109931E+03  0.11909205700E+04  0.15294330000E+03 0.  0.
<mgrwt>
<rscale>  0 0.12312434E+04</rscale>
<asrwt>0</asrwt>
<pdfrwt beam="1">  1        2 0.28059151E+00 0.12767070E+04</pdfrwt>
<pdfrwt beam="2">  1       -2 0.16909832E+00 0.12767070E+04</pdfrwt>
<totfact> 0.17439349E+00</totfact>
</mgrwt>
</event>
<event>
 4    5  0.8511149E-008  0.1083957E+04  0.7818608E-02  0.9279131E-01
         -2   -1    0    0    0  501 -0.00000000000E+00  0.00000000000E+00  0.33448412077E+03  0.33448412078E+03  0.25500000000E-02 0.  1.
          2   -1    0    0  501    0  0.00000000000E+00 -0.00000000000E+00 -0.29914070525E+04  0.29914070525E+04  0.25500000000E-02 0. -1.
    8880023    1    1    2    0    0 -0.81667494015E+03 -0.27238867902E+03 -0.18027271020E+04  0.21035181865E+04  0.65864270000E+03 0.  0.
    8880022    1    1    2    0    0  0.81667494015E+03  0.27238867902E+03 -0.85419582978E+03  0.12223729868E+04  0.15294330000E+03 0.  0.
<mgrwt>
<rscale>  0 0.10272699E+04</rscale>
<asrwt>0</asrwt>
<pdfrwt beam="1">  1        2 0.46021645E+00 0.10839575E+04</pdfrwt>
<pdfrwt beam="2">  1       -2 0.51459098E-01 0.10839575E+04</pdfrwt>
<totfact> 0.63621299E+00</totfact>
</mgrwt>
</event>
<event>
 4    5  0.8511149E-008  0.7530108E+03  0.7818608E-02  0.9823550E-01
          2   -1    0    0  501    0  0.00000000000E+00  0.00000000000E+00  0.49659653855E+03  0.49659653856E+03  0.25500000000E-02 0. -1.
         -2   -1    0    0    0  501 -0.00000000000E+00 -0.00000000000E+00 -0.70317530339E+03  0.70317530339E+03  0.25500000000E-02 0.  1.
    8880023    1    1    2    0    0  0.16550131990E+03 -0.32530669558E+03  0.75733443336E+00  0.75301123026E+03  0.65864270000E+03 0. -1.
    8880022    1    1    2    0    0 -0.16550131990E+03  0.32530669558E+03 -0.20733609927E+03  0.44676061169E+03  0.15294330000E+03 0.  1.
<mgrwt>
<rscale>  0 0.64113908E+03</rscale>
<asrwt>0</asrwt>
<pdfrwt beam="1">  1        2 0.76399467E-01 0.75301085E+03</pdfrwt>
<pdfrwt beam="2">  1       -2 0.10818082E+00 0.75301085E+03</pdfrwt>
<totfact> 0.42956583E+01</totfact>
</mgrwt>
</event>
<event>
 4    5  0.8511149E-008  0.1051575E+04  0.7818608E-02  0.9316990E-01
          2   -1    0    0  501    0  0.00000000000E+00  0.00000000000E+00  0.92350517243E+03  0.92350517243E+03  0.25500000000E-02 0. -1.
         -2   -1    0    0    0  501 -0.00000000000E+00 -0.00000000000E+00 -0.14063259519E+04  0.14063259519E+04  0.25500000000E-02 0.  1.
    8880023    1    1    2    0    0 -0.55661998906E+03  0.60180963528E+03 -0.91200653872E+03  0.13919650794E+04  0.65864270000E+03 0.  0.
    8880022    1    1    2    0    0  0.55661998906E+03 -0.60180963528E+03  0.42918575923E+03  0.93786604495E+03  0.15294330000E+03 0.  0.
<mgrwt>
<rscale>  0 0.99233670E+03</rscale>
<asrwt>0</asrwt>
<pdfrwt beam="1">  1        2 0.14207772E+00 0.10515754E+04</pdfrwt>
<pdfrwt beam="2">  1       -2 0.21635784E+00 0.10515754E+04</pdfrwt>
<totfact> 0.29117780E+00</totfact>
</mgrwt>
</event>
<event>
 4    5  0.8511149E-008  0.1490612E+04  0.7818608E-02  0.8916294E-01
          2   -1    0    0  501    0  0.00000000000E+00  0.00000000000E+00  0.14996969735E+04  0.14996969735E+04  0.25500000000E-02 0. -1.
         -2   -1    0    0    0  501 -0.00000000000E+00 -0.00000000000E+00 -0.17706361839E+04  0.17706361839E+04  0.25500000000E-02 0.  1.
    8880023    1    1    2    0    0  0.50868370517E+03  0.12366710636E+04 -0.94513469286E+03  0.17649941148E+04  0.65864270000E+03 0.  0.
    8880022    1    1    2    0    0 -0.50868370517E+03 -0.12366710636E+04  0.67419548251E+03  0.15053390426E+04  0.15294330000E+03 0.  0.
<mgrwt>
<rscale>  0 0.14530430E+04</rscale>
<asrwt>0</asrwt>
<pdfrwt beam="1">  1        2 0.23072261E+00 0.14906122E+04</pdfrwt>
<pdfrwt beam="2">  1       -2 0.27240556E+00 0.14906122E+04</pdfrwt>
<totfact> 0.56011683E-01</totfact>
</mgrwt>
</event>
<event>
 4    5  0.8511149E-008  0.7578006E+03  0.7818608E-02  0.9810835E-01
         -2   -1    0    0    0  501 -0.00000000000E+00  0.00000000000E+00  0.28892059619E+03  0.28892059620E+03  0.25500000000E-02 0.  1.
          2   -1    0    0  501    0  0.00000000000E+00 -0.00000000000E+00 -0.21081732924E+04  0.21081732924E+04  0.25500000000E-02 0. -1.
    8880023    1    1    2    0    0 -0.37315656449E+03 -0.34723922536E+02 -0.28382574277E+03  0.80920876845E+03  0.65864270000E+03 0.  1.
    8880022    1    1    2    0    0  0.37315656449E+03  0.34723922536E+02 -0.15354269534E+04  0.15878851201E+04  0.15294330000E+03 0.  0.
<mgrwt>
<rscale>  0 0.64784301E+03</rscale>
<asrwt>0</asrwt>
<pdfrwt beam="1">  1        2 0.32433434E+00 0.75780062E+03</pdfrwt>
<pdfrwt beam="2">  1       -2 0.44449324E-01 0.75780062E+03</pdfrwt>
<totfact> 0.28853689E+01</totfact>
</mgrwt>
</event>
<event>
 4    5  0.8511149E-008  0.8516476E+03  0.7818608E-02  0.9608597E-01
         -2   -1    0    0    0  501 -0.00000000000E+00  0.00000000000E+00  0.58465331115E+03  0.58465331115E+03  0.25500000000E-02 0.  1.
          2   -1    0    0  501    0  0.00000000000E+00 -0.00000000000E+00 -0.20972845529E+04  0.20972845529E+04  0.25500000000E-02 0. -1.
    8880023    1    1    2    0    0  0.45185724270E+03 -0.29549699949E+03  0.20415078999E+03  0.87577462614E+03  0.65864270000E+03 0.  1.
    8880022    1    1    2    0    0 -0.45185724270E+03  0.29549699949E+03 -0.17167820318E+04  0.18061632379E+04  0.15294330000E+03 0.  0.
<mgrwt>
<rscale>  0 0.76729782E+03</rscale>
<asrwt>0</asrwt>
<pdfrwt beam="1">  1        2 0.32265916E+00 0.85164761E+03</pdfrwt>
<pdfrwt beam="2">  1       -2 0.89946664E-01 0.85164761E+03</pdfrwt>
<totfact> 0.63791796E+00</totfact>
</mgrwt>
</event>
<event>
 4    5  0.8511149E-008  0.7660463E+03  0.7818608E-02  0.9789698E-01
          2   -1    0    0  501    0  0.00000000000E+00  0.00000000000E+00  0.67956657084E+03  0.67956657084E+03  0.25500000000E-02 0. -1.
         -2   -1    0    0    0  501 -0.00000000000E+00 -0.00000000000E+00 -0.84842163635E+03  0.84842163635E+03  0.25500000000E-02 0.  1.
    8880023    1    1    2    0    0 -0.54748167251E+02 -0.38732328917E+03 -0.56403459749E+03  0.95129486784E+03  0.65864270000E+03 0.  1.
    8880022    1    1    2    0    0  0.54748167251E+02  0.38732328917E+03  0.39517953198E+03  0.57669333936E+03  0.15294330000E+03 0.  0.
<mgrwt>
<rscale>  0 0.65918322E+03</rscale>
<asrwt>0</asrwt>
<pdfrwt beam="1">  1        2 0.10454870E+00 0.76604628E+03</pdfrwt>
<pdfrwt beam="2">  1       -2 0.13052641E+00 0.76604628E+03</pdfrwt>
<totfact> 0.18512186E+01</totfact>
</mgrwt>
</event>
<event>
 4    5  0.8511149E-008  0.1092796E+04  0.7818608E-02  0.9269120E-01
         -2   -1    0    0    0  501 -0.00000000000E+00  0.00000000000E+00  0.38989829924E+03  0.38989829925E+03  0.25500000000E-02 0.  1.
          2   -1    0    0  501    0  0.00000000000E+00 -0.00000000000E+00 -0.27711154298E+04  0.27711154298E+04  0.25500000000E-02 0. -1.
    8880023    1    1    2    0    0 -0.76395945929E+03 -0.42042581832E+03 -0.81995573425E+03  0.13662099167E+04  0.65864270000E+03 0.  0.
    8880022    1    1    2    0    0  0.76395945929E+03  0.42042581832E+03 -0.15612613963E+04  0.17948038123E+04  0.15294330000E+03 0.  0.
<mgrwt>
<rscale>  0 0.10367611E+04</rscale>
<asrwt>0</asrwt>
<pdfrwt beam="1">  1        2 0.42632544E+00 0.10927956E+04</pdfrwt>
<pdfrwt beam="2">  1       -2 0.59984356E-01 0.10927956E+04</pdfrwt>
<totfact> 0.62713771E+00</totfact>
</mgrwt>
</event>
<event>
 4    5  0.8511149E-008  0.6860613E+03  0.7818608E-02  0.1006084E+00
         -2   -1    0    0    0  501 -0.00000000000E+00  0.00000000000E+00  0.53271192994E+03  0.53271192995E+03  0.25500000000E-02 0.  1.
          2   -1    0    0  501    0  0.00000000000E+00 -0.00000000000E+00 -0.63635417667E+03  0.63635417667E+03  0.25500000000E-02 0. -1.
    8880023    1    1    2    0    0  0.18544306968E+03 -0.49807094212E+02  0.25715823166E+03  0.73267348874E+03  0.65864270000E+03 0.  1.
    8880022    1    1    2    0    0 -0.18544306968E+03  0.49807094212E+02 -0.36080047838E+03  0.43639261789E+03  0.15294330000E+03 0.  0.
<mgrwt>
<rscale>  0 0.53061217E+03</rscale>
<asrwt>0</asrwt>
<pdfrwt beam="1">  1        2 0.97900643E-01 0.68606128E+03</pdfrwt>
<pdfrwt beam="2">  1       -2 0.81955681E-01 0.68606128E+03</pdfrwt>
<totfact> 0.61441077E+01</totfact>
</mgrwt>
</event>
<event>
 4    5  0.8511149E-008  0.7356752E+03  0.7818608E-02  0.9872729E-01
          2   -1    0    0  501    0  0.00000000000E+00  0.00000000000E+00  0.26393495440E+04  0.26393495440E+04  0.25500000000E-02 0. -1.
         -2   -1    0    0    0  501 -0.00000000000E+00 -0.00000000000E+00 -0.22287881813E+03  0.22287881815E+03  0.25500000000E-02 0.  1.
    8880023    1    1    2    0    0  0.29161070584E+03 -0.14956928775E+03  0.44916471954E+03  0.86195529301E+03  0.65864270000E+03 0.  1.
    8880022    1    1    2    0    0 -0.29161070584E+03  0.14956928775E+03  0.19673060063E+04  0.20002730691E+04  0.15294330000E+03 0.  0.
<mgrwt>
<rscale>  0 0.61601362E+03</rscale>
<asrwt>0</asrwt>
<pdfrwt beam="1">  1        2 0.40605379E+00 0.73567519E+03</pdfrwt>
<pdfrwt beam="2">  1       -2 0.34289048E-01 0.73567519E+03</pdfrwt>
<totfact> 0.24144913E+01</totfact>
</mgrwt>
</event>
<event>
 4    5  0.8511149E-008  0.1168382E+04  0.7818608E-02  0.9188487E-01
          2   -1    0    0  501    0  0.00000000000E+00  0.00000000000E+00  0.17474456307E+04  0.17474456307E+04  0.25500000000E-02 0. -1.
         -2   -1    0    0    0  501 -0.00000000000E+00 -0.00000000000E+00 -0.13644548741E+04  0.13644548741E+04  0.25500000000E-02 0.  1.
    8880023    1    1    2    0    0 -0.37357156682E+02 -0.96431864139E+03 -0.91727707612E+03  0.14854337548E+04  0.65864270000E+03 0.  0.
    8880022    1    1    2    0    0  0.37357156682E+02  0.96431864139E+03  0.13002678327E+04  0.16264667500E+04  0.15294330000E+03 0.  0.
<mgrwt>
<rscale>  0 0.11173053E+04</rscale>
<asrwt>0</asrwt>
<pdfrwt beam="1">  1        2 0.26883779E+00 0.11683819E+04</pdfrwt>
<pdfrwt beam="2">  1       -2 0.20991613E+00 0.11683819E+04</pdfrwt>
<totfact> 0.10307105E+00</totfact>
</mgrwt>
</event>
<event>
 4    5  0.8511149E-008  0.1529024E+04  0.7818608E-02  0.8889408E-01
          2   -1    0    0  501    0  0.00000000000E+00  0.00000000000E+00  0.14046891177E+04  0.14046891178E+04  0.25500000000E-02 0. -1.
         -2   -1    0    0    0  501 -0.00000000000E+00 -0.00000000000E+00 -0.18916640633E+04  0.18916640633E+04  0.25500000000E-02 0.  1.
    8880023    1    1    2    0    0  0.10951550202E+03  0.13755404440E+04 -0.98790403986E+03  0.18204037345E+04  0.65864270000E+03 0.  0.
    8880022    1    1    2    0    0 -0.10951550202E+03 -0.13755404440E+04  0.50092909436E+03  0.14759494465E+04  0.15294330000E+03 0.  0.
<mgrwt>
<rscale>  0 0.14925710E+04</rscale>
<asrwt>0</asrwt>
<pdfrwt beam="1">  1        2 0.21610602E+00 0.15290243E+04</pdfrwt>
<pdfrwt beam="2">  1       -2 0.29102524E+00 0.15290243E+04</pdfrwt>
<totfact> 0.48698297E-01</totfact>
</mgrwt>
</event>
<event>
 4    5  0.8511149E-008  0.1523591E+04  0.7818608E-02  0.8893155E-01
          2   -1    0    0  501    0  0.00000000000E+00  0.00000000000E+00  0.36507481155E+04  0.36507481155E+04  0.25500000000E-02 0. -1.
         -2   -1    0    0    0  501 -0.00000000000E+00 -0.00000000000E+00 -0.11351654218E+04  0.11351654218E+04  0.25500000000E-02 0.  1.
    8880023    1    1    2    0    0 -0.13669531388E+04 -0.13768862215E+03 -0.38612236500E+03  0.15717568919E+04  0.65864270000E+03 0.  0.
    8880022    1    1    2    0    0  0.13669531388E+04  0.13768862215E+03  0.29017050587E+04  0.32141566454E+04  0.15294330000E+03 0.  0.
<mgrwt>
<rscale>  0 0.14869841E+04</rscale>
<asrwt>0</asrwt>
<pdfrwt beam="1">  1        2 0.56165356E+00 0.15235909E+04</pdfrwt>
<pdfrwt beam="2">  1       -2 0.17464083E+00 0.15235909E+04</pdfrwt>
<totfact> 0.11898838E-01</totfact>
</mgrwt>
</event>
<event>
 4    5  0.1108107E-007  0.1417251E+04  0.7818608E-02  0.8970393E-01
         -2   -1    0    0    0  501 -0.00000000000E+00  0.00000000000E+00  0.18016073175E+04  0.18016073175E+04  0.25500000000E-02 0.  1.
          2   -1    0    0  501    0  0.00000000000E+00 -0.00000000000E+00 -0.35767023811E+04  0.35767023811E+04  0.25500000000E-02 0. -1.
    8880023    1    1    2    0    0  0.10058958359E+04  0.75030861710E+03  0.13807610481E+04  0.19786613485E+04  0.65864270000E+03 0.  0.
    8880022    1    1    2    0    0 -0.10058958359E+04 -0.75030861710E+03 -0.31558561117E+04  0.33996483502E+04  0.15294330000E+03 0.  0.
<mgrwt>
<rscale>  0 0.13773308E+04</rscale>
<asrwt>0</asrwt>
<pdfrwt beam="1">  1        2 0.55026191E+00 0.14172507E+04</pdfrwt>
<pdfrwt beam="2">  1       -2 0.27717036E+00 0.14172507E+04</pdfrwt>
<totfact> 0.30176983E-02</totfact>
</mgrwt>
</event>
<event>
 4    5  0.8511149E-008  0.6981092E+03  0.7818608E-02  0.1000514E+00
         -2   -1    0    0    0  501 -0.00000000000E+00  0.00000000000E+00  0.18450515562E+03  0.18450515564E+03  0.25500000000E-02 0.  1.
          2   -1    0    0  501    0  0.00000000000E+00 -0.00000000000E+00 -0.31344119006E+04  0.31344119006E+04  0.25500000000E-02 0. -1.
    8880023    1    1    2    0    0 -0.15042452525E+03 -0.17583720529E+03 -0.51313352630E+03  0.86640780389E+03  0.65864270000E+03 0.  1.
    8880022    1    1    2    0    0  0.15042452525E+03  0.17583720529E+03 -0.24367732187E+04  0.24525092524E+04  0.15294330000E+03 0.  0.
<mgrwt>
<rscale>  0 0.55425558E+03</rscale>
<asrwt>0</asrwt>
<pdfrwt beam="1">  1        2 0.48221717E+00 0.69810921E+03</pdfrwt>
<pdfrwt beam="2">  1       -2 0.28385411E-01 0.69810921E+03</pdfrwt>
<totfact> 0.17452854E+01</totfact>
</mgrwt>
</event>
<event>
 4    5  0.8511149E-008  0.8952609E+03  0.7818608E-02  0.9533683E-01
          2   -1    0    0  501    0  0.00000000000E+00  0.00000000000E+00  0.20818356444E+04  0.20818356444E+04  0.25500000000E-02 0. -1.
         -2   -1    0    0    0  501 -0.00000000000E+00 -0.00000000000E+00 -0.44041215631E+03  0.44041215632E+03  0.25500000000E-02 0.  1.
    8880023    1    1    2    0    0  0.60517459701E+03  0.38021373012E+02  0.15360007499E+03  0.90834195487E+03  0.65864270000E+03 0.  0.
    8880022    1    1    2    0    0 -0.60517459701E+03 -0.38021373012E+02  0.14878234131E+04  0.16139058458E+04  0.15294330000E+03 0.  0.
<mgrwt>
<rscale>  0 0.81845448E+03</rscale>
<asrwt>0</asrwt>
<pdfrwt beam="1">  1        2 0.32028241E+00 0.89526093E+03</pdfrwt>
<pdfrwt beam="2">  1       -2 0.67755717E-01 0.89526093E+03</pdfrwt>
<totfact> 0.12204119E+01</totfact>
</mgrwt>
</event>
<event>
 4    5  0.8511149E-008  0.8907510E+03  0.7818608E-02  0.9541045E-01
          2   -1    0    0  501    0  0.00000000000E+00  0.00000000000E+00  0.53166341744E+03  0.53166341745E+03  0.25500000000E-02 0. -1.
         -2   -1    0    0    0  501 -0.00000000000E+00 -0.00000000000E+00 -0.12909208085E+04  0.12909208085E+04  0.25500000000E-02 0.  1.
    8880023    1    1    2    0    0 -0.17927688726E+03  0.57226469052E+03 -0.80687884406E+03  0.12018696908E+04  0.65864270000E+03 0.  0.
    8880022    1    1    2    0    0  0.17927688726E+03 -0.57226469052E+03  0.47621453046E+02  0.62071453514E+03  0.15294330000E+03 0.  0.
<mgrwt>
<rscale>  0 0.81324187E+03</rscale>
<asrwt>0</asrwt>
<pdfrwt beam="1">  1        2 0.81794372E-01 0.89075097E+03</pdfrwt>
<pdfrwt beam="2">  1       -2 0.19860320E+00 0.89075097E+03</pdfrwt>
<totfact> 0.78211289E+00</totfact>
</mgrwt>
</event>
<event>
 4    5  0.8511149E-008  0.1047677E+04  0.7818608E-02  0.9321679E-01
          2   -1    0    0  501    0  0.00000000000E+00  0.00000000000E+00  0.30348998264E+04  0.30348998264E+04  0.25500000000E-02 0. -1.
         -2   -1    0    0    0  501 -0.00000000000E+00 -0.00000000000E+00 -0.39423490317E+03  0.39423490318E+03  0.25500000000E-02 0.  1.
    8880023    1    1    2    0    0  0.80916400687E+03 -0.95236362172E+02  0.55682220988E+03  0.11864558712E+04  0.65864270000E+03 0.  1.
    8880022    1    1    2    0    0 -0.80916400687E+03  0.95236362172E+02  0.20838427133E+04  0.22426788583E+04  0.15294330000E+03 0.  0.
<mgrwt>
<rscale>  0 0.98811275E+03</rscale>
<asrwt>0</asrwt>
<pdfrwt beam="1">  1        2 0.46690767E+00 0.10476767E+04</pdfrwt>
<pdfrwt beam="2">  1       -2 0.60651523E-01 0.10476767E+04</pdfrwt>
<totfact> 0.42596799E+00</totfact>
</mgrwt>
</event>
<event>
 4    5  0.8511149E-008  0.7538448E+03  0.7818608E-02  0.9821311E-01
         -2   -1    0    0    0  501 -0.00000000000E+00  0.00000000000E+00  0.78492470081E+03  0.78492470081E+03  0.25500000000E-02 0.  1.
          2   -1    0    0  501    0  0.00000000000E+00 -0.00000000000E+00 -0.11533394556E+04  0.11533394556E+04  0.25500000000E-02 0. -1.
    8880023    1    1    2    0    0 -0.25457994340E+02  0.36581908738E+03  0.55293871592E+03  0.93489204938E+03  0.65864270000E+03 0.  1.
    8880022    1    1    2    0    0  0.25457994340E+02 -0.36581908738E+03 -0.92135347070E+03  0.10033721070E+04  0.15294330000E+03 0.  0.
<mgrwt>
<rscale>  0 0.64231285E+03</rscale>
<asrwt>0</asrwt>
<pdfrwt beam="1">  1        2 0.17743684E+00 0.75384476E+03</pdfrwt>
<pdfrwt beam="2">  1       -2 0.12075765E+00 0.75384476E+03</pdfrwt>
<totfact> 0.10760279E+01</totfact>
</mgrwt>
</event>
<event>
 4    5  0.8511149E-008  0.8586456E+03  0.7818608E-02  0.9595977E-01
          2   -1    0    0  501    0  0.00000000000E+00  0.00000000000E+00  0.82644612352E+03  0.82644612352E+03  0.25500000000E-02 0. -1.
         -2   -1    0    0    0  501 -0.00000000000E+00 -0.00000000000E+00 -0.10927101098E+04  0.10927101098E+04  0.25500000000E-02 0.  1.
    8880023    1    1    2    0    0  0.14601153715E+03 -0.53117102479E+03 -0.77289501614E+03  0.11552657438E+04  0.65864270000E+03 0.  1.
    8880022    1    1    2    0    0 -0.14601153715E+03  0.53117102479E+03  0.50663102986E+03  0.76389048953E+03  0.15294330000E+03 0.  0.
<mgrwt>
<rscale>  0 0.77563005E+03</rscale>
<asrwt>0</asrwt>
<pdfrwt beam="1">  1        2 0.12714556E+00 0.85864558E+03</pdfrwt>
<pdfrwt beam="2">  1       -2 0.16810925E+00 0.85864558E+03</pdfrwt>
<totfact> 0.72901073E+00</totfact>
</mgrwt>
</event>
<event>
 4    5  0.8511149E-008  0.1171845E+04  0.7818608E-02  0.9184989E-01
          2   -1    0    0  501    0  0.00000000000E+00  0.00000000000E+00  0.23543300108E+04  0.23543300108E+04  0.25500000000E-02 0. -1.
         -2   -1    0    0    0  501 -0.00000000000E+00 -0.00000000000E+00 -0.50706821569E+03  0.50706821570E+03  0.25500000000E-02 0.  1.
    8880023    1    1    2    0    0  0.96883036238E+03 -0.27905185176E+02  0.75940262917E+03  0.13963930428E+04  0.65864270000E+03 0. -1.
    8880022    1    1    2    0    0 -0.96883036238E+03  0.27905185176E+02  0.10878591659E+04  0.14650051837E+04  0.15294330000E+03 0.  0.
<mgrwt>
<rscale>  0 0.11209722E+04</rscale>
<asrwt>0</asrwt>
<pdfrwt beam="1">  1        2 0.36220462E+00 0.11718452E+04</pdfrwt>
<pdfrwt beam="2">  1       -2 0.78010493E-01 0.11718452E+04</pdfrwt>
<totfact> 0.61010192E+00</totfact>
</mgrwt>
</event>
<event>
 4    5  0.8511149E-008  0.9925526E+03  0.7818608E-02  0.9391367E-01
          2   -1    0    0  501    0  0.00000000000E+00  0.00000000000E+00  0.23204128562E+04  0.23204128562E+04  0.25500000000E-02 0. -1.
         -2   -1    0    0    0  501 -0.00000000000E+00 -0.00000000000E+00 -0.77043311943E+03  0.77043311944E+03  0.25500000000E-02 0.  1.
    8880023    1    1    2    0    0  0.19037492380E+03  0.71771009417E+03 -0.34423700389E+03  0.10505520987E+04  0.65864270000E+03 0.  1.
    8880022    1    1    2    0    0 -0.19037492380E+03 -0.71771009417E+03  0.18942167407E+04  0.20402938770E+04  0.15294330000E+03 0.  0.
<mgrwt>
<rscale>  0 0.92789591E+03</rscale>
<asrwt>0</asrwt>
<pdfrwt beam="1">  1        2 0.35698659E+00 0.99255257E+03</pdfrwt>
<pdfrwt beam="2">  1       -2 0.11852817E+00 0.99255257E+03</pdfrwt>
<totfact> 0.24290113E+00</totfact>
</mgrwt>
</event>
<event>
 4    5  0.8511149E-008  0.7221369E+03  0.7818608E-02  0.9915421E-01
         -2   -1    0    0    0  501 -0.00000000000E+00  0.00000000000E+00  0.39740700526E+03  0.39740700527E+03  0.25500000000E-02 0.  1.
          2   -1    0    0  501    0  0.00000000000E+00 -0.00000000000E+00 -0.14184687577E+04  0.14184687577E+04  0.25500000000E-02 0. -1.
    8880023    1    1    2    0    0  0.20480313456E+03 -0.21383925548E+03  0.20366767368E+02  0.72242408777E+03  0.65864270000E+03 0.  0.
    8880022    1    1    2    0    0 -0.20480313456E+03  0.21383925548E+03 -0.10414285198E+04  0.10934516752E+04  0.15294330000E+03 0. -1.
<mgrwt>
<rscale>  0 0.59519729E+03</rscale>
<asrwt>0</asrwt>
<pdfrwt beam="1">  1        2 0.21822596E+00 0.72213694E+03</pdfrwt>
<pdfrwt beam="2">  1       -2 0.61139540E-01 0.72213694E+03</pdfrwt>
<totfact> 0.36013126E+01</totfact>
</mgrwt>
</event>
<event>
 4    5  0.8511149E-008  0.1009957E+04  0.7818608E-02  0.9368645E-01
          2   -1    0    0  501    0  0.00000000000E+00  0.00000000000E+00  0.69488748727E+03  0.69488748728E+03  0.25500000000E-02 0. -1.
         -2   -1    0    0    0  501 -0.00000000000E+00 -0.00000000000E+00 -0.22995152551E+04  0.22995152551E+04  0.25500000000E-02 0.  1.
    8880023    1    1    2    0    0 -0.74185723285E+03 -0.18934421794E+03 -0.19063578213E+04  0.21573626807E+04  0.65864270000E+03 0.  1.
    8880022    1    1    2    0    0  0.74185723285E+03  0.18934421794E+03  0.30173005345E+03  0.83704006174E+03  0.15294330000E+03 0.  0.
<mgrwt>
<rscale>  0 0.94701621E+03</rscale>
<asrwt>0</asrwt>
<pdfrwt beam="1">  1        2 0.10690577E+00 0.10099572E+04</pdfrwt>
<pdfrwt beam="2">  1       -2 0.35377157E+00 0.10099572E+04</pdfrwt>
<totfact> 0.61627768E-01</totfact>
</mgrwt>
</event>
<event>
 4    5  0.8511149E-008  0.6778863E+03  0.7818608E-02  0.1010545E+00
          2   -1    0    0  501    0  0.00000000000E+00  0.00000000000E+00  0.10672054809E+04  0.10672054810E+04  0.25500000000E-02 0. -1.
         -2   -1    0    0    0  501 -0.00000000000E+00 -0.00000000000E+00 -0.21608090954E+03  0.21608090956E+03  0.25500000000E-02 0.  1.
    8880023    1    1    2    0    0 -0.70880108198E+02  0.14385981063E+03  0.41701870296E+03  0.79588594643E+03  0.65864270000E+03 0.  1.
    8880022    1    1    2    0    0  0.70880108198E+02 -0.14385981063E+03  0.43410586845E+03  0.48740044408E+03  0.15294330000E+03 0.  0.
<mgrwt>
<rscale>  0 0.51258431E+03</rscale>
<asrwt>0</asrwt>
<pdfrwt beam="1">  1        2 0.16418546E+00 0.67788630E+03</pdfrwt>
<pdfrwt beam="2">  1       -2 0.33243217E-01 0.67788630E+03</pdfrwt>
<totfact> 0.19591416E+02</totfact>
</mgrwt>
</event>
<event>
 4    5  0.8511149E-008  0.8550838E+03  0.7818608E-02  0.9602369E-01
          2   -1    0    0  501    0  0.00000000000E+00  0.00000000000E+00  0.46265378983E+04  0.46265378983E+04  0.25500000000E-02 0. -1.
         -2   -1    0    0    0  501 -0.00000000000E+00 -0.00000000000E+00 -0.28277620976E+03  0.28277620977E+03  0.25500000000E-02 0.  1.
    8880023    1    1    2    0    0  0.19492942011E+03 -0.50927457884E+03  0.43432035105E+03  0.95906331860E+03  0.65864270000E+03 0.  1.
    8880022    1    1    2    0    0 -0.19492942011E+03  0.50927457884E+03  0.39094413375E+04  0.39502507895E+04  0.15294330000E+03 0.  0.
<mgrwt>
<rscale>  0 0.77139584E+03</rscale>
<asrwt>0</asrwt>
<pdfrwt beam="1">  1        2 0.71177500E+00 0.85508379E+03</pdfrwt>
<pdfrwt beam="2">  1       -2 0.43504036E-01 0.85508379E+03</pdfrwt>
<totfact> 0.51420672E-01</totfact>
</mgrwt>
</event>
<event>
 4    5  0.8511149E-008  0.7652299E+03  0.7818608E-02  0.9791751E-01
         -2   -1    0    0    0  501 -0.00000000000E+00  0.00000000000E+00  0.12751488628E+04  0.12751488628E+04  0.25500000000E-02 0.  1.
          2   -1    0    0  501    0  0.00000000000E+00 -0.00000000000E+00 -0.81381945785E+03  0.81381945786E+03  0.25500000000E-02 0. -1.
    8880023    1    1    2    0    0 -0.23968126514E+03  0.30711471315E+03  0.10911721074E+04  0.13327540397E+04  0.65864270000E+03 0.  0.
    8880022    1    1    2    0    0  0.23968126514E+03 -0.30711471315E+03 -0.62984270250E+03  0.75621428100E+03  0.15294330000E+03 0. -1.
<mgrwt>
<rscale>  0 0.65807100E+03</rscale>
<asrwt>0</asrwt>
<pdfrwt beam="1">  1        2 0.12520299E+00 0.76522988E+03</pdfrwt>
<pdfrwt beam="2">  1       -2 0.19617675E+00 0.76522988E+03</pdfrwt>
<totfact> 0.48375702E+00</totfact>
</mgrwt>
</event>
<event>
 4    5  0.8511149E-008  0.2135990E+04  0.7818608E-02  0.8556426E-01
         -2   -1    0    0    0  501 -0.00000000000E+00  0.00000000000E+00  0.21430007806E+04  0.21430007806E+04  0.25500000000E-02 0.  1.
          2   -1    0    0  501    0  0.00000000000E+00 -0.00000000000E+00 -0.25976445016E+04  0.25976445016E+04  0.25500000000E-02 0. -1.
    8880023    1    1    2    0    0  0.18363911273E+03  0.20235910357E+04  0.87422130305E+03  0.23079681749E+04  0.65864270000E+03 0.  0.
    8880022    1    1    2    0    0 -0.18363911273E+03 -0.20235910357E+04 -0.13288650240E+04  0.24326771073E+04  0.15294330000E+03 0.  0.
<mgrwt>
<rscale>  0 0.21109701E+04</rscale>
<asrwt>0</asrwt>
<pdfrwt beam="1">  1        2 0.39963762E+00 0.21359902E+04</pdfrwt>
<pdfrwt beam="2">  1       -2 0.32969243E+00 0.21359902E+04</pdfrwt>
<totfact> 0.55541708E-02</totfact>
</mgrwt>
</event>
<event>
 4    5  0.8511149E-008  0.7490750E+03  0.7818608E-02  0.9834259E-01
         -2   -1    0    0    0  501 -0.00000000000E+00  0.00000000000E+00  0.83919654169E+03  0.83919654170E+03  0.25500000000E-02 0.  1.
          2   -1    0    0  501    0  0.00000000000E+00 -0.00000000000E+00 -0.46739427245E+03  0.46739427246E+03  0.25500000000E-02 0. -1.
    8880023    1    1    2    0    0  0.14997750959E+03 -0.32374362405E+03  0.49670977609E+03  0.89879585859E+03  0.65864270000E+03 0.  1.
    8880022    1    1    2    0    0 -0.14997750959E+03  0.32374362405E+03 -0.12490750685E+03  0.40779495556E+03  0.15294330000E+03 0.  0.
<mgrwt>
<rscale>  0 0.63555960E+03</rscale>
<asrwt>0</asrwt>
<pdfrwt beam="1">  1        2 0.71906812E-01 0.74907503E+03</pdfrwt>
<pdfrwt beam="2">  1       -2 0.12910716E+00 0.74907503E+03</pdfrwt>
<totfact> 0.29789143E+01</totfact>
</mgrwt>
</event>
<event>
 4    5  0.8511149E-008  0.1065414E+04  0.7818608E-02  0.9300577E-01
          2   -1    0    0  501    0  0.00000000000E+00  0.00000000000E+00  0.43271035094E+04  0.43271035094E+04  0.25500000000E-02 0. -1.
         -2   -1    0    0    0  501 -0.00000000000E+00 -0.00000000000E+00 -0.32655274673E+03  0.32655274674E+03  0.25500000000E-02 0.  1.
    8880023    1    1    2    0    0 -0.14259053082E+03  0.82520635800E+03  0.77450238657E+03  0.13171794661E+04  0.65864270000E+03 0.  0.
    8880022    1    1    2    0    0  0.14259053082E+03 -0.82520635800E+03  0.32260483761E+04  0.33364767901E+04  0.15294330000E+03 0.  0.
<mgrwt>
<rscale>  0 0.10072978E+04</rscale>
<asrwt>0</asrwt>
<pdfrwt beam="1">  1        2 0.66570823E+00 0.10654144E+04</pdfrwt>
<pdfrwt beam="2">  1       -2 0.50238884E-01 0.10654144E+04</pdfrwt>
<totfact> 0.70883167E-01</totfact>
</mgrwt>
</event>
<event>
 4    5  0.8511149E-008  0.8899426E+03  0.7818608E-02  0.9542374E-01
          2   -1    0    0  501    0  0.00000000000E+00  0.00000000000E+00  0.34420248145E+04  0.34420248145E+04  0.25500000000E-02 0. -1.
         -2   -1    0    0    0  501 -0.00000000000E+00 -0.00000000000E+00 -0.45918093609E+03  0.45918093609E+03  0.25500000000E-02 0.  1.
    8880023    1    1    2    0    0  0.49606879591E+03  0.33481829178E+03  0.36379715250E+02  0.89068581932E+03  0.65864270000E+03 0.  1.
    8880022    1    1    2    0    0 -0.49606879591E+03 -0.33481829178E+03  0.29464641632E+04  0.30105199313E+04  0.15294330000E+03 0.  0.
<mgrwt>
<rscale>  0 0.81230582E+03</rscale>
<asrwt>0</asrwt>
<pdfrwt beam="1">  1        2 0.52954227E+00 0.88994255E+03</pdfrwt>
<pdfrwt beam="2">  1       -2 0.70643222E-01 0.88994255E+03</pdfrwt>
<totfact> 0.17138871E+00</totfact>
</mgrwt>
</event>
<event>
 4    5  0.8511149E-008  0.7073265E+03  0.7818608E-02  0.9968066E-01
          2   -1    0    0  501    0  0.00000000000E+00  0.00000000000E+00  0.13134992511E+04  0.13134992511E+04  0.25500000000E-02 0. -1.
         -2   -1    0    0    0  501 -0.00000000000E+00 -0.00000000000E+00 -0.35537423325E+03  0.35537423326E+03  0.25500000000E-02 0.  1.
    8880023    1    1    2    0    0  0.25768665866E+03  0.99057174390E+01  0.46095817508E+02  0.70882689561E+03  0.65864270000E+03 0.  1.
    8880022    1    1    2    0    0 -0.25768665866E+03 -0.99057174390E+01  0.91202920034E+03  0.96004658875E+03  0.15294330000E+03 0.  0.
<mgrwt>
<rscale>  0 0.57072932E+03</rscale>
<asrwt>0</asrwt>
<pdfrwt beam="1">  1        2 0.20207681E+00 0.70732648E+03</pdfrwt>
<pdfrwt beam="2">  1       -2 0.54672959E-01 0.70732648E+03</pdfrwt>
<totfact> 0.52297403E+01</totfact>
</mgrwt>
</event>
<event>
 4    5  0.8511149E-008  0.1025304E+04  0.7818608E-02  0.9349176E-01
          2   -1    0    0  501    0  0.00000000000E+00  0.00000000000E+00  0.10219299790E+04  0.10219299790E+04  0.25500000000E-02 0. -1.
         -2   -1    0    0    0  501 -0.00000000000E+00 -0.00000000000E+00 -0.91723501090E+03  0.91723501091E+03  0.25500000000E-02 0.  1.
    8880023    1    1    2    0    0  0.51331455785E+03  0.59493433900E+03 -0.26261145672E+03  0.10584014770E+04  0.65864270000E+03 0.  0.
    8880022    1    1    2    0    0 -0.51331455785E+03 -0.59493433900E+03  0.36730642485E+03  0.88076351297E+03  0.15294330000E+03 0.  0.
<mgrwt>
<rscale>  0 0.96379012E+03</rscale>
<asrwt>0</asrwt>
<pdfrwt beam="1">  1        2 0.15722000E+00 0.10253043E+04</pdfrwt>
<pdfrwt beam="2">  1       -2 0.14111308E+00 0.10253043E+04</pdfrwt>
<totfact> 0.84877365E+00</totfact>
</mgrwt>
</event>
<event>
 4    5  0.8511149E-008  0.1033161E+04  0.7818608E-02  0.9339403E-01
          2   -1    0    0  501    0  0.00000000000E+00  0.00000000000E+00  0.16378966104E+04  0.16378966104E+04  0.25500000000E-02 0. -1.
         -2   -1    0    0    0  501 -0.00000000000E+00 -0.00000000000E+00 -0.85907770897E+03  0.85907770897E+03  0.25500000000E-02 0.  1.
    8880023    1    1    2    0    0  0.29932100284E+03 -0.73757667005E+03 -0.36441925337E+03  0.10955473543E+04  0.65864270000E+03 0.  1.
    8880022    1    1    2    0    0 -0.29932100284E+03  0.73757667005E+03  0.11432381548E+04  0.14014269651E+04  0.15294330000E+03 0.  0.
<mgrwt>
<rscale>  0 0.97234897E+03</rscale>
<asrwt>0</asrwt>
<pdfrwt beam="1">  1        2 0.25198409E+00 0.10331615E+04</pdfrwt>
<pdfrwt beam="2">  1       -2 0.13216580E+00 0.10331615E+04</pdfrwt>
<totfact> 0.43816002E+00</totfact>
</mgrwt>
</event>
<event>
 4    5  0.8511149E-008  0.1503175E+04  0.7818608E-02  0.8907397E-01
          2   -1    0    0  501    0  0.00000000000E+00  0.00000000000E+00  0.20650070144E+04  0.20650070144E+04  0.25500000000E-02 0. -1.
         -2   -1    0    0    0  501 -0.00000000000E+00 -0.00000000000E+00 -0.12125495951E+04  0.12125495951E+04  0.25500000000E-02 0.  1.
    8880023    1    1    2    0    0  0.11293026374E+04 -0.74188942454E+03 -0.25396444933E+03  0.15244777837E+04  0.65864270000E+03 0.  1.
    8880022    1    1    2    0    0 -0.11293026374E+04  0.74188942454E+03  0.11064218686E+04  0.17530788258E+04  0.15294330000E+03 0.  0.
<mgrwt>
<rscale>  0 0.14659786E+04</rscale>
<asrwt>0</asrwt>
<pdfrwt beam="1">  1        2 0.31769338E+00 0.15031748E+04</pdfrwt>
<pdfrwt beam="2">  1       -2 0.18654609E+00 0.15031748E+04</pdfrwt>
<totfact> 0.94493353E-01</totfact>
</mgrwt>
</event>
<event>
 4    5  0.8511149E-008  0.8453648E+03  0.7818608E-02  0.9620146E-01
          2   -1    0    0  501    0  0.00000000000E+00  0.00000000000E+00  0.17194990270E+04  0.17194990270E+04  0.25500000000E-02 0. -1.
         -2   -1    0    0    0  501 -0.00000000000E+00 -0.00000000000E+00 -0.55622495734E+03  0.55622495735E+03  0.25500000000E-02 0.  1.
    8880023    1    1    2    0    0  0.34517179246E+03  0.40210422308E+03 -0.14336967206E+03  0.85743596942E+03  0.65864270000E+03 0.  1.
    8880022    1    1    2    0    0 -0.34517179246E+03 -0.40210422308E+03  0.13066437417E+04  0.14182880150E+04  0.15294330000E+03 0.  0.
<mgrwt>
<rscale>  0 0.75976995E+03</rscale>
<asrwt>0</asrwt>
<pdfrwt beam="1">  1        2 0.26453831E+00 0.84536476E+03</pdfrwt>
<pdfrwt beam="2">  1       -2 0.85573072E-01 0.84536476E+03</pdfrwt>
<totfact> 0.11531702E+01</totfact>
</mgrwt>
</event>
<event>
 4    5  0.8511149E-008  0.1032604E+04  0.7818608E-02  0.9340092E-01
          2   -1    0    0  501    0  0.00000000000E+00  0.00000000000E+00  0.18390640023E+04  0.18390640023E+04  0.25500000000E-02 0. -1.
         -2   -1    0    0    0  501 -0.00000000000E+00 -0.00000000000E+00 -0.96741092684E+03  0.96741092684E+03  0.25500000000E-02 0.  1.
    8880023    1    1    2    0    0 -0.13354623449E+03 -0.78398120328E+03 -0.55029205134E+03  0.11700823355E+04  0.65864270000E+03 0.  0.
    8880022    1    1    2    0    0  0.13354623449E+03  0.78398120328E+03  0.14219451268E+04  0.16363925937E+04  0.15294330000E+03 0.  0.
<mgrwt>
<rscale>  0 0.97174249E+03</rscale>
<asrwt>0</asrwt>
<pdfrwt beam="1">  1        2 0.28293292E+00 0.10326041E+04</pdfrwt>
<pdfrwt beam="2">  1       -2 0.14883245E+00 0.10326041E+04</pdfrwt>
<totfact> 0.24898815E+00</totfact>
</mgrwt>
</event>
<event>
 4    5  0.8511149E-008  0.6691393E+03  0.7818608E-02  0.1016288E+00
         -2   -1    0    0    0  501 -0.00000000000E+00  0.00000000000E+00  0.31602469271E+03  0.31602469273E+03  0.25500000000E-02 0.  1.
          2   -1    0    0  501    0  0.00000000000E+00 -0.00000000000E+00 -0.11498990244E+04  0.11498990244E+04  0.25500000000E-02 0. -1.
    8880023    1    1    2    0    0 -0.10902902972E+03  0.45275778998E+02 -0.64019384588E+02  0.67219484776E+03  0.65864270000E+03 0.  1.
    8880022    1    1    2    0    0  0.10902902972E+03 -0.45275778998E+02 -0.76985494705E+03  0.79372886932E+03  0.15294330000E+03 0.  0.
<mgrwt>
<rscale>  0 0.49050454E+03</rscale>
<asrwt>0</asrwt>
<pdfrwt beam="1">  1        2 0.17690754E+00 0.66913932E+03</pdfrwt>
<pdfrwt beam="2">  1       -2 0.48619184E-01 0.66913932E+03</pdfrwt>
<totfact> 0.83201297E+01</totfact>
</mgrwt>
</event>
<event>
 4    5  0.8511149E-008  0.8921255E+03  0.7818608E-02  0.9538793E-01
          2   -1    0    0  501    0  0.00000000000E+00  0.00000000000E+00  0.13575111240E+04  0.13575111240E+04  0.25500000000E-02 0. -1.
         -2   -1    0    0    0  501 -0.00000000000E+00 -0.00000000000E+00 -0.66397787557E+03  0.66397787557E+03  0.25500000000E-02 0.  1.
    8880023    1    1    2    0    0 -0.42386135508E+03  0.42710560152E+03 -0.21821271483E+03  0.91842508587E+03  0.65864270000E+03 0.  1.
    8880022    1    1    2    0    0  0.42386135508E+03 -0.42710560152E+03  0.91174596331E+03  0.11030639137E+04  0.15294330000E+03 0.  0.
<mgrwt>
<rscale>  0 0.81483219E+03</rscale>
<asrwt>0</asrwt>
<pdfrwt beam="1">  1        2 0.20884786E+00 0.89212547E+03</pdfrwt>
<pdfrwt beam="2">  1       -2 0.10215044E+00 0.89212547E+03</pdfrwt>
<totfact> 0.12083124E+01</totfact>
</mgrwt>
</event>
<event>
 4    5  0.8511149E-008  0.7239585E+03  0.7818608E-02  0.9909412E-01
          2   -1    0    0  501    0  0.00000000000E+00  0.00000000000E+00  0.26558218510E+04  0.26558218510E+04  0.25500000000E-02 0. -1.
         -2   -1    0    0    0  501 -0.00000000000E+00 -0.00000000000E+00 -0.40014437136E+03  0.40014437137E+03  0.25500000000E-02 0.  1.
    8880023    1    1    2    0    0  0.21086178563E+03  0.21410986360E+03 -0.50075718673E+02  0.72568830099E+03  0.65864270000E+03 0.  1.
    8880022    1    1    2    0    0 -0.21086178563E+03 -0.21410986360E+03  0.23057531983E+04  0.23302779214E+04  0.15294330000E+03 0.  0.
<mgrwt>
<rscale>  0 0.59807282E+03</rscale>
<asrwt>0</asrwt>
<pdfrwt beam="1">  1        2 0.40858799E+00 0.72395852E+03</pdfrwt>
<pdfrwt beam="2">  1       -2 0.61560670E-01 0.72395852E+03</pdfrwt>
<totfact> 0.73256057E+00</totfact>
</mgrwt>
</event>
<event>
 4    5  0.8511149E-008  0.6956499E+03  0.7818608E-02  0.1001575E+00
          2   -1    0    0  501    0  0.00000000000E+00  0.00000000000E+00  0.23730276952E+04  0.23730276952E+04  0.25500000000E-02 0. -1.
         -2   -1    0    0    0  501 -0.00000000000E+00 -0.00000000000E+00 -0.28480531252E+03  0.28480531253E+03  0.25500000000E-02 0.  1.
    8880023    1    1    2    0    0  0.13716861273E+02  0.22345123993E+03  0.16415366207E+03  0.71475537070E+03  0.65864270000E+03 0.  1.
    8880022    1    1    2    0    0 -0.13716861273E+02 -0.22345123993E+03  0.19240687206E+04  0.19430776370E+04  0.15294330000E+03 0.  0.
<mgrwt>
<rscale>  0 0.54965040E+03</rscale>
<asrwt>0</asrwt>
<pdfrwt beam="1">  1        2 0.36508119E+00 0.69564992E+03</pdfrwt>
<pdfrwt beam="2">  1       -2 0.43816202E-01 0.69564992E+03</pdfrwt>
<totfact> 0.21387272E+01</totfact>
</mgrwt>
</event>
<event>
 4    5  0.8511149E-008  0.8308795E+03  0.7818608E-02  0.9647624E-01
         -2   -1    0    0    0  501 -0.00000000000E+00  0.00000000000E+00  0.44528396159E+03  0.44528396160E+03  0.25500000000E-02 0.  1.
          2   -1    0    0  501    0  0.00000000000E+00 -0.00000000000E+00 -0.18602908827E+04  0.18602908827E+04  0.25500000000E-02 0. -1.
    8880023    1    1    2    0    0 -0.42359187781E+03 -0.27770570555E+03 -0.39500730100E+02  0.83181791985E+03  0.65864270000E+03 0.  1.
    8880022    1    1    2    0    0  0.42359187781E+03  0.27770570555E+03 -0.13755061910E+04  0.14737569244E+04  0.15294330000E+03 0.  0.
<mgrwt>
<rscale>  0 0.74222756E+03</rscale>
<asrwt>0</asrwt>
<pdfrwt beam="1">  1        2 0.28619859E+00 0.83087950E+03</pdfrwt>
<pdfrwt beam="2">  1       -2 0.68505226E-01 0.83087950E+03</pdfrwt>
<totfact> 0.15887370E+01</totfact>
</mgrwt>
</event>
<event>
 4    5  0.8511149E-008  0.7932578E+03  0.7818608E-02  0.9725568E-01
         -2   -1    0    0    0  501 -0.00000000000E+00  0.00000000000E+00  0.42942794173E+03  0.42942794174E+03  0.25500000000E-02 0.  1.
          2   -1    0    0  501    0  0.00000000000E+00 -0.00000000000E+00 -0.12183939839E+04  0.12183939839E+04  0.25500000000E-02 0. -1.
    8880023    1    1    2    0    0  0.37655940489E+03 -0.23162642674E+03 -0.78443326860E+02  0.79712693391E+03  0.65864270000E+03 0.  1.
    8880022    1    1    2    0    0 -0.37655940489E+03  0.23162642674E+03 -0.71052271533E+03  0.85069499176E+03  0.15294330000E+03 0.  0.
<mgrwt>
<rscale>  0 0.69514672E+03</rscale>
<asrwt>0</asrwt>
<pdfrwt beam="1">  1        2 0.18744523E+00 0.79325784E+03</pdfrwt>
<pdfrwt beam="2">  1       -2 0.66065838E-01 0.79325784E+03</pdfrwt>
<totfact> 0.39482642E+01</totfact>
</mgrwt>
</event>
<event>
 4    5  0.8511149E-008  0.6682005E+03  0.7818608E-02  0.1016987E+00
          2   -1    0    0  501    0  0.00000000000E+00  0.00000000000E+00  0.42381692433E+03  0.42381692434E+03  0.25500000000E-02 0. -1.
         -2   -1    0    0    0  501 -0.00000000000E+00 -0.00000000000E+00 -0.16524926536E+04  0.16524926537E+04  0.25500000000E-02 0.  1.
    8880023    1    1    2    0    0  0.30804011141E+01 -0.11257065322E+03 -0.15585020632E+04  0.16957064982E+04  0.65864270000E+03 0.  1.
    8880022    1    1    2    0    0 -0.30804011141E+01  0.11257065322E+03  0.32982633385E+03  0.38060307980E+03  0.15294330000E+03 0.  0.
<mgrwt>
<rscale>  0 0.48789717E+03</rscale>
<asrwt>0</asrwt>
<pdfrwt beam="1">  1        2 0.65202604E-01 0.66820045E+03</pdfrwt>
<pdfrwt beam="2">  1       -2 0.25422964E+00 0.66820045E+03</pdfrwt>
<totfact> 0.46929955E+00</totfact>
</mgrwt>
</event>
<event>
 4    5  0.8511149E-008  0.1080968E+04  0.7818608E-02  0.9282548E-01
         -2   -1    0    0    0  501 -0.00000000000E+00  0.00000000000E+00  0.77059901900E+03  0.77059901901E+03  0.25500000000E-02 0.  1.
          2   -1    0    0  501    0  0.00000000000E+00 -0.00000000000E+00 -0.27017268624E+04  0.27017268624E+04  0.25500000000E-02 0. -1.
    8880023    1    1    2    0    0  0.76640395576E+03  0.38380481802E+03  0.26236381808E+03  0.11123516265E+04  0.65864270000E+03 0.  0.
    8880022    1    1    2    0    0 -0.76640395576E+03 -0.38380481802E+03 -0.21934916615E+04  0.23599742549E+04  0.15294330000E+03 0.  0.
<mgrwt>
<rscale>  0 0.10240554E+04</rscale>
<asrwt>0</asrwt>
<pdfrwt beam="1">  1        2 0.41565028E+00 0.10809678E+04</pdfrwt>
<pdfrwt beam="2">  1       -2 0.11855370E+00 0.10809678E+04</pdfrwt>
<totfact> 0.14486906E+00</totfact>
</mgrwt>
</event>
<event>
 4    5  0.8511149E-008  0.1890188E+04  0.7818608E-02  0.8674223E-01
         -2   -1    0    0    0  501 -0.00000000000E+00  0.00000000000E+00  0.13742704878E+04  0.13742704878E+04  0.25500000000E-02 0.  1.
          2   -1    0    0  501    0  0.00000000000E+00 -0.00000000000E+00 -0.29532733108E+04  0.29532733108E+04  0.25500000000E-02 0. -1.
    8880023    1    1    2    0    0  0.14560439621E+04  0.10094229652E+04 -0.17039499509E+04  0.25448485974E+04  0.65864270000E+03 0.  1.
    8880022    1    1    2    0    0 -0.14560439621E+04 -0.10094229652E+04  0.12494712791E+03  0.17826952011E+04  0.15294330000E+03 0.  0.
<mgrwt>
<rscale>  0 0.18615753E+04</rscale>
<asrwt>0</asrwt>
<pdfrwt beam="1">  1        2 0.45434974E+00 0.18901875E+04</pdfrwt>
<pdfrwt beam="2">  1       -2 0.21142623E+00 0.18901875E+04</pdfrwt>
<totfact> 0.18826076E-01</totfact>
</mgrwt>
</event>
<event>
 4    5  0.8511149E-008  0.8307708E+03  0.7818608E-02  0.9647835E-01
          2   -1    0    0  501    0  0.00000000000E+00  0.00000000000E+00  0.24294526435E+04  0.24294526435E+04  0.25500000000E-02 0. -1.
         -2   -1    0    0    0  501 -0.00000000000E+00 -0.00000000000E+00 -0.40442501791E+03  0.40442501791E+03  0.25500000000E-02 0.  1.
    8880023    1    1    2    0    0  0.50549541527E+03  0.29056682609E+02  0.99124476495E+02  0.83666347701E+03  0.65864270000E+03 0.  0.
    8880022    1    1    2    0    0 -0.50549541527E+03 -0.29056682609E+02  0.19259031491E+04  0.19972141844E+04  0.15294330000E+03 0. -1.
<mgrwt>
<rscale>  0 0.74209485E+03</rscale>
<asrwt>0</asrwt>
<pdfrwt beam="1">  1        2 0.37376195E+00 0.83077079E+03</pdfrwt>
<pdfrwt beam="2">  1       -2 0.62219233E-01 0.83077079E+03</pdfrwt>
<totfact> 0.94747983E+00</totfact>
</mgrwt>
</event>
<event>
 4    5  0.8511149E-008  0.1081352E+04  0.7818608E-02  0.9282107E-01
          2   -1    0    0  501    0  0.00000000000E+00  0.00000000000E+00  0.16083958941E+04  0.16083958941E+04  0.25500000000E-02 0. -1.
         -2   -1    0    0    0  501 -0.00000000000E+00 -0.00000000000E+00 -0.91595453715E+03  0.91595453715E+03  0.25500000000E-02 0.  1.
    8880023    1    1    2    0    0  0.33076724563E+03 -0.79126857019E+03 -0.37683054907E+03  0.11451307305E+04  0.65864270000E+03 0.  1.
    8880022    1    1    2    0    0 -0.33076724563E+03  0.79126857019E+03  0.10692719061E+04  0.13792197008E+04  0.15294330000E+03 0.  0.
<mgrwt>
<rscale>  0 0.10244691E+04</rscale>
<asrwt>0</asrwt>
<pdfrwt beam="1">  1        2 0.24744552E+00 0.10813525E+04</pdfrwt>
<pdfrwt beam="2">  1       -2 0.14091608E+00 0.10813525E+04</pdfrwt>
<totfact> 0.38358457E+00</totfact>
</mgrwt>
</event>
<event>
 4    5  0.1163340E-007  0.7107350E+03  0.7818608E-02  0.9955282E-01
         -2   -1    0    0    0  501 -0.00000000000E+00  0.00000000000E+00  0.11300855626E+04  0.11300855626E+04  0.25500000000E-02 0.  1.
          2   -1    0    0  501    0  0.00000000000E+00 -0.00000000000E+00 -0.25774901766E+04  0.25774901766E+04  0.25500000000E-02 0. -1.
    8880023    1    1    2    0    0  0.59595840344E+02 -0.26035036345E+03  0.10077703237E+04  0.12331849851E+04  0.65864270000E+03 0.  1.
    8880022    1    1    2    0    0 -0.59595840344E+02  0.26035036345E+03 -0.24551749377E+04  0.24743907541E+04  0.15294330000E+03 0.  0.
<mgrwt>
<rscale>  0 0.57655295E+03</rscale>
<asrwt>0</asrwt>
<pdfrwt beam="1">  1        2 0.39653695E+00 0.71073496E+03</pdfrwt>
<pdfrwt beam="2">  1       -2 0.17385932E+00 0.71073496E+03</pdfrwt>
<totfact> 0.66986114E-01</totfact>
</mgrwt>
</event>
<event>
 4    5  0.8511149E-008  0.1749088E+04  0.7818608E-02  0.8751234E-01
         -2   -1    0    0    0  501 -0.00000000000E+00  0.00000000000E+00  0.16845396264E+04  0.16845396264E+04  0.25500000000E-02 0.  1.
          2   -1    0    0  501    0  0.00000000000E+00 -0.00000000000E+00 -0.19520068975E+04  0.19520068975E+04  0.25500000000E-02 0. -1.
    8880023    1    1    2    0    0 -0.50505386372E+02  0.16195520768E+04  0.52520168775E+03  0.18262384134E+04  0.65864270000E+03 0. -1.
    8880022    1    1    2    0    0  0.50505386372E+02 -0.16195520768E+04 -0.79266895884E+03  0.18103081104E+04  0.15294330000E+03 0.  0.
<mgrwt>
<rscale>  0 0.17178760E+04</rscale>
<asrwt>0</asrwt>
<pdfrwt beam="1">  1        2 0.30030875E+00 0.17490883E+04</pdfrwt>
<pdfrwt beam="2">  1       -2 0.25915994E+00 0.17490883E+04</pdfrwt>
<totfact> 0.36670170E-01</totfact>
</mgrwt>
</event>
<event>
 4    5  0.8511149E-008  0.1033200E+04  0.7818608E-02  0.9339355E-01
          2   -1    0    0  501    0  0.00000000000E+00  0.00000000000E+00  0.25375589174E+04  0.25375589174E+04  0.25500000000E-02 0. -1.
         -2   -1    0    0    0  501 -0.00000000000E+00 -0.00000000000E+00 -0.12870399828E+04  0.12870399828E+04  0.25500000000E-02 0.  1.
    8880023    1    1    2    0    0  0.57113998983E+03  0.55451925976E+03 -0.99673774383E+03  0.14356144446E+04  0.65864270000E+03 0.  0.
    8880022    1    1    2    0    0 -0.57113998983E+03 -0.55451925976E+03  0.22472566784E+04  0.23889844556E+04  0.15294330000E+03 0.  0.
<mgrwt>
<rscale>  0 0.97239114E+03</rscale>
<asrwt>0</asrwt>
<pdfrwt beam="1">  1        2 0.39039368E+00 0.10332002E+04</pdfrwt>
<pdfrwt beam="2">  1       -2 0.19800615E+00 0.10332002E+04</pdfrwt>
<totfact> 0.45452583E-01</totfact>
</mgrwt>
</event>
<event>
 4    5  0.8511149E-008  0.7120754E+03  0.7818608E-02  0.9950374E-01
          2   -1    0    0  501    0  0.00000000000E+00  0.00000000000E+00  0.15181258725E+04  0.15181258725E+04  0.25500000000E-02 0. -1.
         -2   -1    0    0    0  501 -0.00000000000E+00 -0.00000000000E+00 -0.91866013012E+03  0.91866013012E+03  0.25500000000E-02 0.  1.
    8880023    1    1    2    0    0  0.22145799049E+03 -0.15555545864E+03 -0.76044957481E+03  0.10417940796E+04  0.65864270000E+03 0.  1.
    8880022    1    1    2    0    0 -0.22145799049E+03  0.15555545864E+03  0.13599153172E+04  0.13949919230E+04  0.15294330000E+03 0.  0.
<mgrwt>
<rscale>  0 0.57880869E+03</rscale>
<asrwt>0</asrwt>
<pdfrwt beam="1">  1        2 0.23355783E+00 0.71207538E+03</pdfrwt>
<pdfrwt beam="2">  1       -2 0.14133233E+00 0.71207538E+03</pdfrwt>
<totfact> 0.44857595E+00</totfact>
</mgrwt>
</event>
<event>
 4    5  0.8511149E-008  0.7031478E+03  0.7818608E-02  0.9984385E-01
          2   -1    0    0  501    0  0.00000000000E+00  0.00000000000E+00  0.60262722608E+03  0.60262722609E+03  0.25500000000E-02 0. -1.
         -2   -1    0    0    0  501 -0.00000000000E+00 -0.00000000000E+00 -0.80903216423E+03  0.80903216423E+03  0.25500000000E-02 0.  1.
    8880023    1    1    2    0    0  0.23164673138E+03  0.83345343888E+02 -0.59898392104E+03  0.92368750042E+03  0.65864270000E+03 0.  1.
    8880022    1    1    2    0    0 -0.23164673138E+03 -0.83345343888E+02  0.39257898289E+03  0.48797188990E+03  0.15294330000E+03 0.  0.
<mgrwt>
<rscale>  0 0.56340253E+03</rscale>
<asrwt>0</asrwt>
<pdfrwt beam="1">  1        2 0.92711881E-01 0.70314782E+03</pdfrwt>
<pdfrwt beam="2">  1       -2 0.12446649E+00 0.70314782E+03</pdfrwt>
<totfact> 0.24324523E+01</totfact>
</mgrwt>
</event>
<event>
 4    5  0.8511149E-008  0.1441677E+04  0.7818608E-02  0.8951957E-01
          2   -1    0    0  501    0  0.00000000000E+00  0.00000000000E+00  0.28406381510E+04  0.28406381510E+04  0.25500000000E-02 0. -1.
         -2   -1    0    0    0  501 -0.00000000000E+00 -0.00000000000E+00 -0.78613643297E+03  0.78613643298E+03  0.25500000000E-02 0.  1.
    8880023    1    1    2    0    0 -0.42997208896E+03 -0.12081992645E+04  0.34170169364E+03  0.14816179378E+04  0.65864270000E+03 0.  0.
    8880022    1    1    2    0    0  0.42997208896E+03  0.12081992645E+04  0.17128000244E+04  0.21451566461E+04  0.15294330000E+03 0.  0.
<mgrwt>
<rscale>  0 0.14025742E+04</rscale>
<asrwt>0</asrwt>
<pdfrwt beam="1">  1        2 0.43702125E+00 0.14416767E+04</pdfrwt>
<pdfrwt beam="2">  1       -2 0.12094407E+00 0.14416767E+04</pdfrwt>
<totfact> 0.10889571E+00</totfact>
</mgrwt>
</event>
<event>
 4    5  0.8511149E-008  0.9385036E+03  0.7818608E-02  0.9466852E-01
         -2   -1    0    0    0  501 -0.00000000000E+00  0.00000000000E+00  0.55316283681E+03  0.55316283682E+03  0.25500000000E-02 0.  1.
          2   -1    0    0  501    0  0.00000000000E+00 -0.00000000000E+00 -0.22787961360E+04  0.22787961360E+04  0.25500000000E-02 0. -1.
    8880023    1    1    2    0    0  0.30110740449E+03 -0.59691965664E+03 -0.19044991609E+04  0.21231829892E+04  0.65864270000E+03 0. -1.
    8880022    1    1    2    0    0 -0.30110740449E+03  0.59691965664E+03  0.17886586167E+03  0.70877598365E+03  0.15294330000E+03 0.  0.
<mgrwt>
<rscale>  0 0.86772467E+03</rscale>
<asrwt>0</asrwt>
<pdfrwt beam="1">  1        2 0.35058402E+00 0.93850357E+03</pdfrwt>
<pdfrwt beam="2">  1       -2 0.85101976E-01 0.93850357E+03</pdfrwt>
<totfact> 0.56789392E+00</totfact>
</mgrwt>
</event>
<event>
 4    5  0.8511149E-008  0.7813322E+03  0.7818608E-02  0.9752717E-01
          2   -1    0    0  501    0  0.00000000000E+00  0.00000000000E+00  0.40072563483E+03  0.40072563483E+03  0.25500000000E-02 0. -1.
         -2   -1    0    0    0  501 -0.00000000000E+00 -0.00000000000E+00 -0.11749372987E+04  0.11749372987E+04  0.25500000000E-02 0.  1.
    8880023    1    1    2    0    0 -0.27386453689E+03 -0.31885420279E+03 -0.81190375145E+03  0.11267953208E+04  0.65864270000E+03 0.  1.
    8880022    1    1    2    0    0  0.27386453689E+03  0.31885420279E+03  0.37692087620E+02  0.44886761265E+03  0.15294330000E+03 0.  0.
<mgrwt>
<rscale>  0 0.67962949E+03</rscale>
<asrwt>0</asrwt>
<pdfrwt beam="1">  1        2 0.61650098E-01 0.78133219E+03</pdfrwt>
<pdfrwt beam="2">  1       -2 0.18075958E+00 0.78133219E+03</pdfrwt>
<totfact> 0.14401387E+01</totfact>
</mgrwt>
</event>
<event>
 4    5  0.8511149E-008  0.8784221E+03  0.7818608E-02  0.9561599E-01
         -2   -1    0    0    0  501 -0.00000000000E+00  0.00000000000E+00  0.78390373301E+03  0.78390373302E+03  0.25500000000E-02 0.  1.
          2   -1    0    0  501    0  0.00000000000E+00 -0.00000000000E+00 -0.10184338561E+04  0.10184338561E+04  0.25500000000E-02 0. -1.
    8880023    1    1    2    0    0  0.44377256228E+03  0.37534133419E+03  0.36701042168E+03  0.95200948528E+03  0.65864270000E+03 0.  0.
    8880022    1    1    2    0    0 -0.44377256228E+03 -0.37534133419E+03 -0.60154054478E+03  0.85032810386E+03  0.15294330000E+03 0.  0.
<mgrwt>
<rscale>  0 0.79890832E+03</rscale>
<asrwt>0</asrwt>
<pdfrwt beam="1">  1        2 0.15668213E+00 0.87842211E+03</pdfrwt>
<pdfrwt beam="2">  1       -2 0.12060057E+00 0.87842211E+03</pdfrwt>
<totfact> 0.12900904E+01</totfact>
</mgrwt>
</event>
<event>
 4    5  0.8511149E-008  0.7912170E+03  0.7818608E-02  0.9730119E-01
          2   -1    0    0  501    0  0.00000000000E+00  0.00000000000E+00  0.90505100845E+03  0.90505100845E+03  0.25500000000E-02 0. -1.
         -2   -1    0    0    0  501 -0.00000000000E+00 -0.00000000000E+00 -0.76735899897E+03  0.76735899897E+03  0.25500000000E-02 0.  1.
    8880023    1    1    2    0    0  0.10771885940E+03 -0.42498327971E+03 -0.46025443919E+03  0.91534610708E+03  0.65864270000E+03 0.  0.
    8880022    1    1    2    0    0 -0.10771885940E+03  0.42498327971E+03  0.59794644867E+03  0.75706390034E+03  0.15294330000E+03 0.  0.
<mgrwt>
<rscale>  0 0.69251512E+03</rscale>
<asrwt>0</asrwt>
<pdfrwt beam="1">  1        2 0.13923862E+00 0.79121700E+03</pdfrwt>
<pdfrwt beam="2">  1       -2 0.11805523E+00 0.79121700E+03</pdfrwt>
<totfact> 0.16270561E+01</totfact>
</mgrwt>
</event>
<event>
 4    5  0.8511149E-008  0.7237796E+03  0.7818608E-02  0.9909999E-01
          2   -1    0    0  501    0  0.00000000000E+00  0.00000000000E+00  0.18920593664E+04  0.18920593664E+04  0.25500000000E-02 0. -1.
         -2   -1    0    0    0  501 -0.00000000000E+00 -0.00000000000E+00 -0.25169511216E+03  0.25169511217E+03  0.25500000000E-02 0.  1.
    8880023    1    1    2    0    0 -0.22870426036E+02 -0.29920505726E+03  0.33849218775E+03  0.79902058178E+03  0.65864270000E+03 0.  0.
    8880022    1    1    2    0    0  0.22870426036E+02  0.29920505726E+03  0.13018720665E+04  0.13447338968E+04  0.15294330000E+03 0.  0.
<mgrwt>
<rscale>  0 0.59779153E+03</rscale>
<asrwt>0</asrwt>
<pdfrwt beam="1">  1        2 0.29108606E+00 0.72377961E+03</pdfrwt>
<pdfrwt beam="2">  1       -2 0.38722325E-01 0.72377961E+03</pdfrwt>
<totfact> 0.49847545E+01</totfact>
</mgrwt>
</event>
<event>
 4    5  0.8511149E-008  0.1735457E+04  0.7818608E-02  0.8759105E-01
         -2   -1    0    0    0  501 -0.00000000000E+00  0.00000000000E+00  0.10390278579E+04  0.10390278579E+04  0.25500000000E-02 0.  1.
          2   -1    0    0  501    0  0.00000000000E+00 -0.00000000000E+00 -0.29208541759E+04  0.29208541759E+04  0.25500000000E-02 0. -1.
    8880023    1    1    2    0    0  0.88270960524E+02  0.16031866685E+04 -0.42562869125E+03  0.17868881458E+04  0.65864270000E+03 0.  0.
    8880022    1    1    2    0    0 -0.88270960524E+02 -0.16031866685E+04 -0.14561976268E+04  0.21729938881E+04  0.15294330000E+03 0.  0.
<mgrwt>
<rscale>  0 0.17039663E+04</rscale>
<asrwt>0</asrwt>
<pdfrwt beam="1">  1        2 0.44936218E+00 0.17354566E+04</pdfrwt>
<pdfrwt beam="2">  1       -2 0.15985044E+00 0.17354566E+04</pdfrwt>
<totfact> 0.45448715E-01</totfact>
</mgrwt>
</event>
<event>
 4    5  0.8511149E-008  0.7212561E+03  0.7818608E-02  0.9918358E-01
         -2   -1    0    0    0  501 -0.00000000000E+00  0.00000000000E+00  0.66414890481E+03  0.66414890481E+03  0.25500000000E-02 0.  1.
          2   -1    0    0  501    0  0.00000000000E+00 -0.00000000000E+00 -0.10608849237E+04  0.10608849237E+04  0.25500000000E-02 0. -1.
    8880023    1    1    2    0    0 -0.27945018348E+03  0.91147034909E+02  0.42628765518E+03  0.83781355816E+03  0.65864270000E+03 0.  1.
    8880022    1    1    2    0    0  0.27945018348E+03 -0.91147034909E+02 -0.82302367404E+03  0.88722027032E+03  0.15294330000E+03 0.  0.
<mgrwt>
<rscale>  0 0.59379754E+03</rscale>
<asrwt>0</asrwt>
<pdfrwt beam="1">  1        2 0.16321307E+00 0.72125612E+03</pdfrwt>
<pdfrwt beam="2">  1       -2 0.10217675E+00 0.72125612E+03</pdfrwt>
<totfact> 0.18452901E+01</totfact>
</mgrwt>
</event>
<event>
 4    5  0.8511149E-008  0.1082741E+04  0.7818608E-02  0.9280519E-01
         -2   -1    0    0    0  501 -0.00000000000E+00  0.00000000000E+00  0.52268947262E+03  0.52268947263E+03  0.25500000000E-02 0.  1.
          2   -1    0    0  501    0  0.00000000000E+00 -0.00000000000E+00 -0.37079572834E+04  0.37079572834E+04  0.25500000000E-02 0. -1.
    8880023    1    1    2    0    0 -0.55951617319E+03  0.65227309564E+03 -0.17551406577E+03  0.10968746204E+04  0.65864270000E+03 0.  0.
    8880022    1    1    2    0    0  0.55951617319E+03 -0.65227309564E+03 -0.30097537450E+04  0.31337721356E+04  0.15294330000E+03 0.  0.
<mgrwt>
<rscale>  0 0.10259625E+04</rscale>
<asrwt>0</asrwt>
<pdfrwt beam="1">  1        2 0.57045495E+00 0.10827413E+04</pdfrwt>
<pdfrwt beam="2">  1       -2 0.80413767E-01 0.10827413E+04</pdfrwt>
<totfact> 0.80815737E-01</totfact>
</mgrwt>
</event>
<event>
 4    5  0.8511149E-008  0.1335651E+04  0.7818608E-02  0.9035368E-01
          2   -1    0    0  501    0  0.00000000000E+00  0.00000000000E+00  0.23306522553E+04  0.23306522553E+04  0.25500000000E-02 0. -1.
         -2   -1    0    0    0  501 -0.00000000000E+00 -0.00000000000E+00 -0.13887376433E+04  0.13887376433E+04  0.25500000000E-02 0.  1.
    8880023    1    1    2    0    0  0.10526938560E+04  0.49192475069E+03 -0.84640325688E+03  0.15812536148E+04  0.65864270000E+03 0.  0.
    8880022    1    1    2    0    0 -0.10526938560E+04 -0.49192475069E+03  0.17883178689E+04  0.21381362838E+04  0.15294330000E+03 0.  0.
<mgrwt>
<rscale>  0 0.12927074E+04</rscale>
<asrwt>0</asrwt>
<pdfrwt beam="1">  1        2 0.35856188E+00 0.13356513E+04</pdfrwt>
<pdfrwt beam="2">  1       -2 0.21365195E+00 0.13356513E+04</pdfrwt>
<totfact> 0.45206098E-01</totfact>
</mgrwt>
</event>
<event>
 4    5  0.8511149E-008  0.1041873E+04  0.7818608E-02  0.9328716E-01
          2   -1    0    0  501    0  0.00000000000E+00  0.00000000000E+00  0.80935729577E+03  0.80935729578E+03  0.25500000000E-02 0. -1.
         -2   -1    0    0    0  501 -0.00000000000E+00 -0.00000000000E+00 -0.15260297462E+04  0.15260297462E+04  0.25500000000E-02 0.  1.
    8880023    1    1    2    0    0 -0.74987562904E+03 -0.29895700246E+03 -0.10214377717E+04  0.14590524583E+04  0.65864270000E+03 0.  0.
    8880022    1    1    2    0    0  0.74987562904E+03  0.29895700246E+03  0.30476532134E+03  0.87633458362E+03  0.15294330000E+03 0.  0.
<mgrwt>
<rscale>  0 0.98181682E+03</rscale>
<asrwt>0</asrwt>
<pdfrwt beam="1">  1        2 0.12451651E+00 0.10418728E+04</pdfrwt>
<pdfrwt beam="2">  1       -2 0.23477381E+00 0.10418728E+04</pdfrwt>
<totfact> 0.26832579E+00</totfact>
</mgrwt>
</event>
<event>
 4    5  0.8511149E-008  0.1541431E+04  0.7818608E-02  0.8880921E-01
          2   -1    0    0  501    0  0.00000000000E+00  0.00000000000E+00  0.15105027243E+04  0.15105027243E+04  0.25500000000E-02 0. -1.
         -2   -1    0    0    0  501 -0.00000000000E+00 -0.00000000000E+00 -0.17587417752E+04  0.17587417752E+04  0.25500000000E-02 0.  1.
    8880023    1    1    2    0    0  0.64447345015E+03  0.12356585783E+04 -0.83075958047E+03  0.17510482109E+04  0.65864270000E+03 0.  0.
    8880022    1    1    2    0    0 -0.64447345015E+03 -0.12356585783E+04  0.58252052959E+03  0.15181962886E+04  0.15294330000E+03 0.  0.
<mgrwt>
<rscale>  0 0.15053227E+04</rscale>
<asrwt>0</asrwt>
<pdfrwt beam="1">  1        2 0.23238503E+00 0.15414306E+04</pdfrwt>
<pdfrwt beam="2">  1       -2 0.27057566E+00 0.15414306E+04</pdfrwt>
<totfact> 0.56372864E-01</totfact>
</mgrwt>
</event>
<event>
 4    5  0.8511149E-008  0.6643033E+03  0.7818608E-02  0.1020125E+00
         -2   -1    0    0    0  501 -0.00000000000E+00  0.00000000000E+00  0.48631122690E+03  0.48631122691E+03  0.25500000000E-02 0.  1.
          2   -1    0    0  501    0  0.00000000000E+00 -0.00000000000E+00 -0.42379881594E+03  0.42379881594E+03  0.25500000000E-02 0. -1.
    8880023    1    1    2    0    0 -0.86189187224E+02 -0.77484956305E+01  0.19238343269E+03  0.69159974452E+03  0.65864270000E+03 0.  1.
    8880022    1    1    2    0    0  0.86189187224E+02  0.77484956305E+01 -0.12987102173E+03  0.21851029833E+03  0.15294330000E+03 0. -1.
<mgrwt>
<rscale>  0 0.47641444E+03</rscale>
<asrwt>0</asrwt>
<pdfrwt beam="1">  1        2 0.65199818E-01 0.66430326E+03</pdfrwt>
<pdfrwt beam="2">  1       -2 0.74817112E-01 0.66430326E+03</pdfrwt>
<totfact> 0.12132241E+02</totfact>
</mgrwt>
</event>
<event>
 4    5  0.8511149E-008  0.1248791E+04  0.7818608E-02  0.9111094E-01
          2   -1    0    0  501    0  0.00000000000E+00  0.00000000000E+00  0.99823018127E+03  0.99823018127E+03  0.25500000000E-02 0. -1.
         -2   -1    0    0    0  501 -0.00000000000E+00 -0.00000000000E+00 -0.22816946187E+04  0.22816946187E+04  0.25500000000E-02 0.  1.
    8880023    1    1    2    0    0 -0.79200222534E+03 -0.70597566901E+03 -0.17174461231E+04  0.21234642832E+04  0.65864270000E+03 0.  0.
    8880022    1    1    2    0    0  0.79200222534E+03  0.70597566901E+03  0.43398168569E+03  0.11564605167E+04  0.15294330000E+03 0.  0.
<mgrwt>
<rscale>  0 0.12020160E+04</rscale>
<asrwt>0</asrwt>
<pdfrwt beam="1">  1        2 0.15357387E+00 0.12487912E+04</pdfrwt>
<pdfrwt beam="2">  1       -2 0.35102994E+00 0.12487912E+04</pdfrwt>
<totfact> 0.37806424E-01</totfact>
</mgrwt>
</event>
<event>
 4    5  0.8511149E-008  0.6784333E+03  0.7818608E-02  0.1010224E+00
         -2   -1    0    0    0  501 -0.00000000000E+00  0.00000000000E+00  0.22712991648E+03  0.22712991649E+03  0.25500000000E-02 0.  1.
          2   -1    0    0  501    0  0.00000000000E+00 -0.00000000000E+00 -0.10842669628E+04  0.10842669628E+04  0.25500000000E-02 0. -1.
    8880023    1    1    2    0    0 -0.12173321219E+03 -0.10790073020E+03 -0.36364982624E+03  0.76974862450E+03  0.65864270000E+03 0.  0.
    8880022    1    1    2    0    0  0.12173321219E+03  0.10790073020E+03 -0.49348722006E+03  0.54164825478E+03  0.15294330000E+03 0.  0.
<mgrwt>
<rscale>  0 0.51385667E+03</rscale>
<asrwt>0</asrwt>
<pdfrwt beam="1">  1        2 0.16681030E+00 0.67843330E+03</pdfrwt>
<pdfrwt beam="2">  1       -2 0.34943065E-01 0.67843330E+03</pdfrwt>
<totfact> 0.17400240E+02</totfact>
</mgrwt>
</event>
<event>
 4    5  0.8511149E-008  0.8201926E+03  0.7818608E-02  0.9668725E-01
         -2   -1    0    0    0  501 -0.00000000000E+00  0.00000000000E+00  0.97183290338E+03  0.97183290338E+03  0.25500000000E-02 0.  1.
          2   -1    0    0  501    0  0.00000000000E+00 -0.00000000000E+00 -0.14224852636E+04  0.14224852636E+04  0.25500000000E-02 0. -1.
    8880023    1    1    2    0    0  0.46842382791E+03  0.13958795156E+03  0.73591116813E+03  0.11019442510E+04  0.65864270000E+03 0.  1.
    8880022    1    1    2    0    0 -0.46842382791E+03 -0.13958795156E+03 -0.11865635283E+04  0.12923739159E+04  0.15294330000E+03 0.  0.
<mgrwt>
<rscale>  0 0.72909835E+03</rscale>
<asrwt>0</asrwt>
<pdfrwt beam="1">  1        2 0.21884389E+00 0.82019259E+03</pdfrwt>
<pdfrwt beam="2">  1       -2 0.14951275E+00 0.82019259E+03</pdfrwt>
<totfact> 0.43081286E+00</totfact>
</mgrwt>
</event>
<event>
 4    5  0.8511149E-008  0.1159581E+04  0.7818608E-02  0.9197450E-01
         -2   -1    0    0    0  501 -0.00000000000E+00  0.00000000000E+00  0.63103130911E+03  0.63103130912E+03  0.25500000000E-02 0.  1.
          2   -1    0    0  501    0  0.00000000000E+00 -0.00000000000E+00 -0.18939788038E+04  0.18939788038E+04  0.25500000000E-02 0. -1.
    8880023    1    1    2    0    0  0.25444251510E+03  0.91982404289E+03 -0.97909214623E+03  0.15176458416E+04  0.65864270000E+03 0.  1.
    8880022    1    1    2    0    0 -0.25444251510E+03 -0.91982404289E+03 -0.28385534849E+03  0.10073642714E+04  0.15294330000E+03 0.  0.
<mgrwt>
<rscale>  0 0.11079783E+04</rscale>
<asrwt>0</asrwt>
<pdfrwt beam="1">  1        2 0.29138135E+00 0.11595807E+04</pdfrwt>
<pdfrwt beam="2">  1       -2 0.97081741E-01 0.11595807E+04</pdfrwt>
<totfact> 0.66605559E+00</totfact>
</mgrwt>
</event>
<event>
 4    5  0.8511149E-008  0.1346204E+04  0.7818608E-02  0.9026652E-01
          2   -1    0    0  501    0  0.00000000000E+00  0.00000000000E+00  0.17680741602E+04  0.17680741602E+04  0.25500000000E-02 0. -1.
         -2   -1    0    0    0  501 -0.00000000000E+00 -0.00000000000E+00 -0.12313020065E+04  0.12313020065E+04  0.25500000000E-02 0.  1.
    8880023    1    1    2    0    0  0.11337270242E+04  0.30515335483E+03 -0.48956927139E+03  0.14324607544E+04  0.65864270000E+03 0.  1.
    8880022    1    1    2    0    0 -0.11337270242E+04 -0.30515335483E+03  0.10263414251E+04  0.15669154122E+04  0.15294330000E+03 0.  0.
<mgrwt>
<rscale>  0 0.13036794E+04</rscale>
<asrwt>0</asrwt>
<pdfrwt beam="1">  1        2 0.27201141E+00 0.13462042E+04</pdfrwt>
<pdfrwt beam="2">  1       -2 0.18943108E+00 0.13462042E+04</pdfrwt>
<totfact> 0.13425627E+00</totfact>
</mgrwt>
</event>
<event>
 4    5  0.8511149E-008  0.1221767E+04  0.7818608E-02  0.9136249E-01
          2   -1    0    0  501    0  0.00000000000E+00  0.00000000000E+00  0.11174729603E+04  0.11174729603E+04  0.25500000000E-02 0. -1.
         -2   -1    0    0    0  501 -0.00000000000E+00 -0.00000000000E+00 -0.21033057965E+04  0.21033057965E+04  0.25500000000E-02 0.  1.
    8880023    1    1    2    0    0  0.74739164094E+03 -0.70732550481E+03 -0.15996524703E+04  0.20128591274E+04  0.65864270000E+03 0.  0.
    8880022    1    1    2    0    0 -0.74739164094E+03  0.70732550481E+03  0.61381963422E+03  0.12079196294E+04  0.15294330000E+03 0.  0.
<mgrwt>
<rscale>  0 0.11736387E+04</rscale>
<asrwt>0</asrwt>
<pdfrwt beam="1">  1        2 0.17191892E+00 0.12217667E+04</pdfrwt>
<pdfrwt beam="2">  1       -2 0.32358551E+00 0.12217667E+04</pdfrwt>
<totfact> 0.47224073E-01</totfact>
</mgrwt>
</event>
<event>
 4    5  0.8511149E-008  0.1042111E+04  0.7818608E-02  0.9328425E-01
         -2   -1    0    0    0  501 -0.00000000000E+00  0.00000000000E+00  0.42830377074E+03  0.42830377075E+03  0.25500000000E-02 0.  1.
          2   -1    0    0  501    0  0.00000000000E+00 -0.00000000000E+00 -0.24547813890E+04  0.24547813890E+04  0.25500000000E-02 0. -1.
    8880023    1    1    2    0    0 -0.75754837954E+02 -0.80401922501E+03 -0.51463598966E+03  0.11622590579E+04  0.65864270000E+03 0.  0.
    8880022    1    1    2    0    0  0.75754837954E+02  0.80401922501E+03 -0.15118416286E+04  0.17208261018E+04  0.15294330000E+03 0.  0.
<mgrwt>
<rscale>  0 0.98207568E+03</rscale>
<asrwt>0</asrwt>
<pdfrwt beam="1">  1        2 0.37765867E+00 0.10421113E+04</pdfrwt>
<pdfrwt beam="2">  1       -2 0.65892889E-01 0.10421113E+04</pdfrwt>
<totfact> 0.78792839E+00</totfact>
</mgrwt>
</event>
<event>
 4    5  0.8511149E-008  0.1745010E+04  0.7818608E-02  0.8753581E-01
         -2   -1    0    0    0  501 -0.00000000000E+00  0.00000000000E+00  0.10008048505E+04  0.10008048505E+04  0.25500000000E-02 0.  1.
          2   -1    0    0  501    0  0.00000000000E+00 -0.00000000000E+00 -0.28731949460E+04  0.28731949460E+04  0.25500000000E-02 0. -1.
    8880023    1    1    2    0    0 -0.14935705089E+04  0.61684375665E+03 -0.11961022380E+04  0.21155897180E+04  0.65864270000E+03 0.  0.
    8880022    1    1    2    0    0  0.14935705089E+04 -0.61684375665E+03 -0.67628785751E+03  0.17584100785E+04  0.15294330000E+03 0.  0.
<mgrwt>
<rscale>  0 0.17137149E+04</rscale>
<asrwt>0</asrwt>
<pdfrwt beam="1">  1        2 0.44202999E+00 0.17450098E+04</pdfrwt>
<pdfrwt beam="2">  1       -2 0.15396998E+00 0.17450098E+04</pdfrwt>
<totfact> 0.53814921E-01</totfact>
</mgrwt>
</event>
<event>
 4    5  0.8511149E-008  0.7905661E+03  0.7818608E-02  0.9731578E-01
         -2   -1    0    0    0  501 -0.00000000000E+00  0.00000000000E+00  0.64211175306E+03  0.64211175307E+03  0.25500000000E-02 0.  1.
          2   -1    0    0  501    0  0.00000000000E+00 -0.00000000000E+00 -0.14184513628E+04  0.14184513628E+04  0.25500000000E-02 0. -1.
    8880023    1    1    2    0    0  0.70895395243E+02  0.43146079921E+03  0.33342503209E+03  0.85800176958E+03  0.65864270000E+03 0.  1.
    8880022    1    1    2    0    0 -0.70895395243E+02 -0.43146079921E+03 -0.11097646418E+04  0.12025613463E+04  0.15294330000E+03 0.  0.
<mgrwt>
<rscale>  0 0.69167384E+03</rscale>
<asrwt>0</asrwt>
<pdfrwt beam="1">  1        2 0.21822329E+00 0.79056612E+03</pdfrwt>
<pdfrwt beam="2">  1       -2 0.98786424E-01 0.79056612E+03</pdfrwt>
<totfact> 0.12221809E+01</totfact>
</mgrwt>
</event>
<event>
 4    5  0.8511149E-008  0.8767340E+03  0.7818608E-02  0.9564463E-01
          2   -1    0    0  501    0  0.00000000000E+00  0.00000000000E+00  0.13221061413E+04  0.13221061413E+04  0.25500000000E-02 0. -1.
         -2   -1    0    0    0  501 -0.00000000000E+00 -0.00000000000E+00 -0.94010396827E+03  0.94010396828E+03  0.25500000000E-02 0.  1.
    8880023    1    1    2    0    0  0.53581433371E+03 -0.21852998103E+03 -0.63473370428E+03  0.10823813720E+04  0.65864270000E+03 0.  0.
    8880022    1    1    2    0    0 -0.53581433371E+03  0.21852998103E+03  0.10167358773E+04  0.11798287376E+04  0.15294330000E+03 0.  0.
<mgrwt>
<rscale>  0 0.79693567E+03</rscale>
<asrwt>0</asrwt>
<pdfrwt beam="1">  1        2 0.20340095E+00 0.87673403E+03</pdfrwt>
<pdfrwt beam="2">  1       -2 0.14463138E+00 0.87673403E+03</pdfrwt>
<totfact> 0.53252725E+00</totfact>
</mgrwt>
</event>
<event>
 4    5  0.8511149E-008  0.7514722E+03  0.7818608E-02  0.9827707E-01
         -2   -1    0    0    0  501 -0.00000000000E+00  0.00000000000E+00  0.22947303361E+03  0.22947303363E+03  0.25500000000E-02 0.  1.
          2   -1    0    0  501    0  0.00000000000E+00 -0.00000000000E+00 -0.21352173487E+04  0.21352173487E+04  0.25500000000E-02 0. -1.
    8880023    1    1    2    0    0 -0.36150589111E+03  0.14621443409E+02 -0.49396274366E+03  0.89928287780E+03  0.65864270000E+03 0.  1.
    8880022    1    1    2    0    0  0.36150589111E+03 -0.14621443409E+02 -0.14117815714E+04  0.14654075045E+04  0.15294330000E+03 0.  0.
<mgrwt>
<rscale>  0 0.63896579E+03</rscale>
<asrwt>0</asrwt>
<pdfrwt beam="1">  1        2 0.32849496E+00 0.75147222E+03</pdfrwt>
<pdfrwt beam="2">  1       -2 0.35303545E-01 0.75147222E+03</pdfrwt>
<totfact> 0.43707303E+01</totfact>
</mgrwt>
</event>
<event>
 4    5  0.8511149E-008  0.6914265E+03  0.7818608E-02  0.1003482E+00
          2   -1    0    0  501    0  0.00000000000E+00  0.00000000000E+00  0.15657131695E+04  0.15657131695E+04  0.25500000000E-02 0. -1.
         -2   -1    0    0    0  501 -0.00000000000E+00 -0.00000000000E+00 -0.96544925729E+03  0.96544925730E+03  0.25500000000E-02 0.  1.
    8880023    1    1    2    0    0  0.21111971413E+02  0.20931970662E+03 -0.82838829426E+03  0.10790263330E+04  0.65864270000E+03 0.  1.
    8880022    1    1    2    0    0 -0.21111971413E+02 -0.20931970662E+03  0.14286522065E+04  0.14521360938E+04  0.15294330000E+03 0.  0.
<mgrwt>
<rscale>  0 0.54149531E+03</rscale>
<asrwt>0</asrwt>
<pdfrwt beam="1">  1        2 0.24087895E+00 0.69142654E+03</pdfrwt>
<pdfrwt beam="2">  1       -2 0.14853066E+00 0.69142654E+03</pdfrwt>
<totfact> 0.37207419E+00</totfact>
</mgrwt>
</event>
<event>
 4    5  0.8511149E-008  0.8687180E+03  0.7818608E-02  0.9578240E-01
         -2   -1    0    0    0  501 -0.00000000000E+00  0.00000000000E+00  0.22743430264E+03  0.22743430266E+03  0.25500000000E-02 0.  1.
          2   -1    0    0  501    0  0.00000000000E+00 -0.00000000000E+00 -0.23299162909E+04  0.23299162909E+04  0.25500000000E-02 0. -1.
    8880023    1    1    2    0    0  0.31897579867E+03  0.46809746749E+03 -0.12856396089E+04  0.15516250222E+04  0.65864270000E+03 0.  1.
    8880022    1    1    2    0    0 -0.31897579867E+03 -0.46809746749E+03 -0.81684237936E+03  0.10057255714E+04  0.15294330000E+03 0. -1.
<mgrwt>
<rscale>  0 0.78753299E+03</rscale>
<asrwt>0</asrwt>
<pdfrwt beam="1">  1        2 0.35844864E+00 0.86871802E+03</pdfrwt>
<pdfrwt beam="2">  1       -2 0.34989894E-01 0.86871802E+03</pdfrwt>
<totfact> 0.34188386E+01</totfact>
</mgrwt>
</event>
<event>
 4    5  0.8511149E-008  0.8424454E+03  0.7818608E-02  0.9625586E-01
         -2   -1    0    0    0  501 -0.00000000000E+00  0.00000000000E+00  0.19253430243E+03  0.19253430245E+03  0.25500000000E-02 0.  1.
          2   -1    0    0  501    0  0.00000000000E+00 -0.00000000000E+00 -0.29233230143E+04  0.29233230143E+04  0.25500000000E-02 0. -1.
    8880023    1    1    2    0    0  0.15176074629E+03 -0.50286445266E+03 -0.10379185743E+04  0.13367831369E+04  0.65864270000E+03 0.  0.
    8880022    1    1    2    0    0 -0.15176074629E+03  0.50286445266E+03 -0.16928701375E+04  0.17790741798E+04  0.15294330000E+03 0.  0.
<mgrwt>
<rscale>  0 0.75625604E+03</rscale>
<asrwt>0</asrwt>
<pdfrwt beam="1">  1        2 0.44974197E+00 0.84244536E+03</pdfrwt>
<pdfrwt beam="2">  1       -2 0.29620664E-01 0.84244536E+03</pdfrwt>
<totfact> 0.21256165E+01</totfact>
</mgrwt>
</event>
<event>
 4    5  0.8511149E-008  0.1619986E+04  0.7818608E-02  0.8829250E-01
          2   -1    0    0  501    0  0.00000000000E+00  0.00000000000E+00  0.11950262650E+04  0.11950262650E+04  0.25500000000E-02 0. -1.
         -2   -1    0    0    0  501 -0.00000000000E+00 -0.00000000000E+00 -0.25213286770E+04  0.25213286770E+04  0.25500000000E-02 0.  1.
    8880023    1    1    2    0    0 -0.60210182729E+03 -0.13520425466E+04  0.14166883029E+03  0.16261690939E+04  0.65864270000E+03 0.  0.
    8880022    1    1    2    0    0  0.60210182729E+03  0.13520425466E+04 -0.14679712422E+04  0.20901858480E+04  0.15294330000E+03 0.  1.
<mgrwt>
<rscale>  0 0.15859124E+04</rscale>
<asrwt>0</asrwt>
<pdfrwt beam="1">  1        2 0.18385019E+00 0.16199864E+04</pdfrwt>
<pdfrwt beam="2">  1       -2 0.38789672E+00 0.16199864E+04</pdfrwt>
<totfact> 0.15856448E-01</totfact>
</mgrwt>
</event>
<event>
 4    5  0.8511149E-008  0.6678786E+03  0.7818608E-02  0.1017232E+00
         -2   -1    0    0    0  501 -0.00000000000E+00  0.00000000000E+00  0.42910131855E+03  0.42910131855E+03  0.25500000000E-02 0.  1.
          2   -1    0    0  501    0  0.00000000000E+00 -0.00000000000E+00 -0.32651857052E+04  0.32651857052E+04  0.25500000000E-02 0. -1.
    8880023    1    1    2    0    0 -0.76196669577E+02  0.80284825618E+02  0.16444377896E+03  0.68782523099E+03  0.65864270000E+03 0.  1.
    8880022    1    1    2    0    0  0.76196669577E+02 -0.80284825618E+02 -0.30005281656E+04  0.30064617927E+04  0.15294330000E+03 0.  0.
<mgrwt>
<rscale>  0 0.48699026E+03</rscale>
<asrwt>0</asrwt>
<pdfrwt beam="1">  1        2 0.50233625E+00 0.66787858E+03</pdfrwt>
<pdfrwt beam="2">  1       -2 0.66015589E-01 0.66787858E+03</pdfrwt>
<totfact> 0.27223117E+00</totfact>
</mgrwt>
</event>
<event>
 4    5  0.8511149E-008  0.9205955E+03  0.7818608E-02  0.9493747E-01
         -2   -1    0    0    0  501 -0.00000000000E+00  0.00000000000E+00  0.84652381594E+03  0.84652381595E+03  0.25500000000E-02 0.  1.
          2   -1    0    0  501    0  0.00000000000E+00 -0.00000000000E+00 -0.16018889197E+04  0.16018889197E+04  0.25500000000E-02 0. -1.
    8880023    1    1    2    0    0 -0.64181706945E+03 -0.41912173659E+02  0.48671903090E+03  0.10413411556E+04  0.65864270000E+03 0.  1.
    8880022    1    1    2    0    0  0.64181706945E+03  0.41912173659E+02 -0.12420841347E+04  0.14070715801E+04  0.15294330000E+03 0.  0.
<mgrwt>
<rscale>  0 0.84746431E+03</rscale>
<asrwt>0</asrwt>
<pdfrwt beam="1">  1        2 0.24644445E+00 0.92059545E+03</pdfrwt>
<pdfrwt beam="2">  1       -2 0.13023443E+00 0.92059545E+03</pdfrwt>
<totfact> 0.48269690E+00</totfact>
</mgrwt>
</event>
<event>
 4    5  0.8511149E-008  0.2450126E+04  0.7818608E-02  0.8428898E-01
         -2   -1    0    0    0  501 -0.00000000000E+00  0.00000000000E+00  0.35720584296E+04  0.35720584296E+04  0.25500000000E-02 0.  1.
          2   -1    0    0  501    0  0.00000000000E+00 -0.00000000000E+00 -0.18854382170E+04  0.18854382170E+04  0.25500000000E-02 0. -1.
    8880023    1    1    2    0    0  0.16911479693E+04  0.16460024390E+04 -0.16249760737E+03  0.24555083307E+04  0.65864270000E+03 0. -1.
    8880022    1    1    2    0    0 -0.16911479693E+04 -0.16460024390E+04  0.18491178201E+04  0.30019883159E+04  0.15294330000E+03 0.  1.
<mgrwt>
<rscale>  0 0.24285326E+04</rscale>
<asrwt>0</asrwt>
<pdfrwt beam="1">  1        2 0.29006742E+00 0.24501256E+04</pdfrwt>
<pdfrwt beam="2">  1       -2 0.54954744E+00 0.24501256E+04</pdfrwt>
<totfact> 0.55395472E-03</totfact>
</mgrwt>
</event>
<event>
 4    5  0.8511149E-008  0.1067062E+04  0.7818608E-02  0.9298647E-01
         -2   -1    0    0    0  501 -0.00000000000E+00  0.00000000000E+00  0.42736386435E+03  0.42736386436E+03  0.25500000000E-02 0.  1.
          2   -1    0    0  501    0  0.00000000000E+00 -0.00000000000E+00 -0.28468759972E+04  0.28468759972E+04  0.25500000000E-02 0. -1.
    8880023    1    1    2    0    0  0.81340230435E+03  0.20781570197E+03 -0.21136592150E+04  0.23677365052E+04  0.65864270000E+03 0.  1.
    8880022    1    1    2    0    0 -0.81340230435E+03 -0.20781570197E+03 -0.30585291786E+03  0.90650335635E+03  0.15294330000E+03 0.  0.
<mgrwt>
<rscale>  0 0.10090756E+04</rscale>
<asrwt>0</asrwt>
<pdfrwt beam="1">  1        2 0.43798091E+00 0.10670618E+04</pdfrwt>
<pdfrwt beam="2">  1       -2 0.65748289E-01 0.10670618E+04</pdfrwt>
<totfact> 0.46562075E+00</totfact>
</mgrwt>
</event>
<event>
 4    5  0.8511149E-008  0.6831762E+03  0.7818608E-02  0.1007581E+00
          2   -1    0    0  501    0  0.00000000000E+00  0.00000000000E+00  0.96405416997E+03  0.96405416997E+03  0.25500000000E-02 0. -1.
         -2   -1    0    0    0  501 -0.00000000000E+00 -0.00000000000E+00 -0.76045905162E+03  0.76045905163E+03  0.25500000000E-02 0.  1.
    8880023    1    1    2    0    0 -0.26766938204E+02 -0.17945210840E+03 -0.58597558750E+03  0.90005395594E+03  0.65864270000E+03 0.  1.
    8880022    1    1    2    0    0  0.26766938204E+02  0.17945210840E+03  0.78957070584E+03  0.82445926566E+03  0.15294330000E+03 0.  0.
<mgrwt>
<rscale>  0 0.52447390E+03</rscale>
<asrwt>0</asrwt>
<pdfrwt beam="1">  1        2 0.14831603E+00 0.68317621E+03</pdfrwt>
<pdfrwt beam="2">  1       -2 0.11699370E+00 0.68317621E+03</pdfrwt>
<totfact> 0.15389851E+01</totfact>
</mgrwt>
</event>
<event>
 4    5  0.8511149E-008  0.1002342E+04  0.7818608E-02  0.9378500E-01
          2   -1    0    0  501    0  0.00000000000E+00  0.00000000000E+00  0.19431322025E+04  0.19431322025E+04  0.25500000000E-02 0. -1.
         -2   -1    0    0    0  501 -0.00000000000E+00 -0.00000000000E+00 -0.13115829170E+04  0.13115829170E+04  0.25500000000E-02 0.  1.
    8880023    1    1    2    0    0 -0.13285355155E+03 -0.74379331858E+03 -0.10212626797E+04  0.14309668879E+04  0.65864270000E+03 0.  1.
    8880022    1    1    2    0    0  0.13285355155E+03  0.74379331858E+03  0.16528119652E+04  0.18237482316E+04  0.15294330000E+03 0.  0.
<mgrwt>
<rscale>  0 0.93866328E+03</rscale>
<asrwt>0</asrwt>
<pdfrwt beam="1">  1        2 0.29894341E+00 0.10023416E+04</pdfrwt>
<pdfrwt beam="2">  1       -2 0.20178199E+00 0.10023416E+04</pdfrwt>
<totfact> 0.92815867E-01</totfact>
</mgrwt>
</event>
<event>
 4    5  0.8511149E-008  0.2445177E+04  0.7818608E-02  0.8430744E-01
          2   -1    0    0  501    0  0.00000000000E+00  0.00000000000E+00  0.31424017682E+04  0.31424017682E+04  0.25500000000E-02 0. -1.
         -2   -1    0    0    0  501 -0.00000000000E+00 -0.00000000000E+00 -0.20995029599E+04  0.20995029599E+04  0.25500000000E-02 0.  1.
    8880023    1    1    2    0    0  0.21993533065E+04  0.84138171249E+03 -0.39748817615E+03  0.24772737453E+04  0.65864270000E+03 0.  0.
    8880022    1    1    2    0    0 -0.21993533065E+04 -0.84138171249E+03  0.14403869845E+04  0.27646309828E+04  0.15294330000E+03 0.  0.
<mgrwt>
<rscale>  0 0.24235370E+04</rscale>
<asrwt>0</asrwt>
<pdfrwt beam="1">  1        2 0.48344642E+00 0.24451765E+04</pdfrwt>
<pdfrwt beam="2">  1       -2 0.32300046E+00 0.24451765E+04</pdfrwt>
<totfact> 0.27383849E-02</totfact>
</mgrwt>
</event>
<event>
 4    5  0.8511149E-008  0.8077836E+03  0.7818608E-02  0.9694212E-01
         -2   -1    0    0    0  501 -0.00000000000E+00  0.00000000000E+00  0.14615225752E+03  0.14615225754E+03  0.25500000000E-02 0.  1.
          2   -1    0    0  501    0  0.00000000000E+00 -0.00000000000E+00 -0.35760829833E+04  0.35760829834E+04  0.25500000000E-02 0. -1.
    8880023    1    1    2    0    0 -0.46762483765E+03  0.55778874519E+01 -0.12561263161E+04  0.14934415389E+04  0.65864270000E+03 0.  0.
    8880022    1    1    2    0    0  0.46762483765E+03 -0.55778874519E+01 -0.21738044097E+04  0.22287937020E+04  0.15294330000E+03 0.  0.
<mgrwt>
<rscale>  0 0.71362435E+03</rscale>
<asrwt>0</asrwt>
<pdfrwt beam="1">  1        2 0.55016655E+00 0.80778358E+03</pdfrwt>
<pdfrwt beam="2">  1       -2 0.22484965E-01 0.80778358E+03</pdfrwt>
<totfact> 0.13331828E+01</totfact>
</mgrwt>
</event>
<event>
 4    5  0.8511149E-008  0.6889911E+03  0.7818608E-02  0.1004636E+00
         -2   -1    0    0    0  501 -0.00000000000E+00  0.00000000000E+00  0.75239135072E+03  0.75239135072E+03  0.25500000000E-02 0.  1.
          2   -1    0    0  501    0  0.00000000000E+00 -0.00000000000E+00 -0.97724924648E+03  0.97724924649E+03  0.25500000000E-02 0. -1.
    8880023    1    1    2    0    0  0.87597954138E+02 -0.18227778733E+03  0.57069947165E+03  0.89465450679E+03  0.65864270000E+03 0.  1.
    8880022    1    1    2    0    0 -0.87597954138E+02  0.18227778733E+03 -0.79555736742E+03  0.83498609042E+03  0.15294330000E+03 0.  0.
<mgrwt>
<rscale>  0 0.53663422E+03</rscale>
<asrwt>0</asrwt>
<pdfrwt beam="1">  1        2 0.15034604E+00 0.68899115E+03</pdfrwt>
<pdfrwt beam="2">  1       -2 0.11575252E+00 0.68899115E+03</pdfrwt>
<totfact> 0.15478747E+01</totfact>
</mgrwt>
</event>
<event>
 4    5  0.8511149E-008  0.7682428E+03  0.7818608E-02  0.9784217E-01
          2   -1    0    0  501    0  0.00000000000E+00  0.00000000000E+00  0.79611623377E+03  0.79611623378E+03  0.25500000000E-02 0. -1.
         -2   -1    0    0    0  501 -0.00000000000E+00 -0.00000000000E+00 -0.24872430143E+04  0.24872430143E+04  0.25500000000E-02 0.  1.
    8880023    1    1    2    0    0 -0.55081479651E+02 -0.39160284434E+03 -0.23653017914E+04  0.24869357707E+04  0.65864270000E+03 0.  1.
    8880022    1    1    2    0    0  0.55081479651E+02  0.39160284434E+03  0.67417501083E+03  0.79642347739E+03  0.15294330000E+03 0.  0.
<mgrwt>
<rscale>  0 0.66216475E+03</rscale>
<asrwt>0</asrwt>
<pdfrwt beam="1">  1        2 0.12247942E+00 0.76824278E+03</pdfrwt>
<pdfrwt beam="2">  1       -2 0.38265277E+00 0.76824278E+03</pdfrwt>
<totfact> 0.35354327E-01</totfact>
</mgrwt>
</event>
<event>
 4    5  0.8511149E-008  0.1775776E+04  0.7818608E-02  0.8736056E-01
         -2   -1    0    0    0  501 -0.00000000000E+00  0.00000000000E+00  0.13973942036E+04  0.13973942036E+04  0.25500000000E-02 0.  1.
          2   -1    0    0  501    0  0.00000000000E+00 -0.00000000000E+00 -0.25430994247E+04  0.25430994247E+04  0.25500000000E-02 0. -1.
    8880023    1    1    2    0    0  0.16378737689E+04  0.19219855093E+03  0.22589543152E+03  0.17900865113E+04  0.65864270000E+03 0.  0.
    8880022    1    1    2    0    0 -0.16378737689E+04 -0.19219855093E+03 -0.13716006526E+04  0.21504071170E+04  0.15294330000E+03 0.  0.
<mgrwt>
<rscale>  0 0.17450933E+04</rscale>
<asrwt>0</asrwt>
<pdfrwt beam="1">  1        2 0.39124606E+00 0.17757762E+04</pdfrwt>
<pdfrwt beam="2">  1       -2 0.21498372E+00 0.17757762E+04</pdfrwt>
<totfact> 0.31876393E-01</totfact>
</mgrwt>
</event>
<event>
 4    5  0.8511149E-008  0.1278960E+04  0.7818608E-02  0.9083946E-01
         -2   -1    0    0    0  501 -0.00000000000E+00  0.00000000000E+00  0.56385449719E+03  0.56385449720E+03  0.25500000000E-02 0.  1.
          2   -1    0    0  501    0  0.00000000000E+00 -0.00000000000E+00 -0.31527205928E+04  0.31527205928E+04  0.25500000000E-02 0. -1.
    8880023    1    1    2    0    0 -0.54399176780E+03 -0.95184074742E+03 -0.54098140499E+03  0.13886680448E+04  0.65864270000E+03 0.  0.
    8880022    1    1    2    0    0  0.54399176780E+03  0.95184074742E+03 -0.20478846906E+04  0.23279070451E+04  0.15294330000E+03 0.  0.
<mgrwt>
<rscale>  0 0.12335985E+04</rscale>
<asrwt>0</asrwt>
<pdfrwt beam="1">  1        2 0.48503393E+00 0.12789598E+04</pdfrwt>
<pdfrwt beam="2">  1       -2 0.86746848E-01 0.12789598E+04</pdfrwt>
<totfact> 0.15771140E+00</totfact>
</mgrwt>
</event>
<event>
 4    5  0.8511149E-008  0.1011113E+04  0.7818608E-02  0.9367160E-01
         -2   -1    0    0    0  501 -0.00000000000E+00  0.00000000000E+00  0.41919645719E+03  0.41919645719E+03  0.25500000000E-02 0.  1.
          2   -1    0    0  501    0  0.00000000000E+00 -0.00000000000E+00 -0.23898534210E+04  0.23898534210E+04  0.25500000000E-02 0. -1.
    8880023    1    1    2    0    0  0.60711245966E+03  0.46899333112E+03 -0.46629126769E+03  0.11134532033E+04  0.65864270000E+03 0.  0.
    8880022    1    1    2    0    0 -0.60711245966E+03 -0.46899333112E+03 -0.15043656961E+04  0.16955966749E+04  0.15294330000E+03 0.  0.
<mgrwt>
<rscale>  0 0.94828268E+03</rscale>
<asrwt>0</asrwt>
<pdfrwt beam="1">  1        2 0.36766975E+00 0.10111135E+04</pdfrwt>
<pdfrwt beam="2">  1       -2 0.64491764E-01 0.10111135E+04</pdfrwt>
<totfact> 0.90181067E+00</totfact>
</mgrwt>
</event>
<event>
 4    5  0.8511149E-008  0.2103535E+04  0.7818608E-02  0.8570954E-01
         -2   -1    0    0    0  501 -0.00000000000E+00  0.00000000000E+00  0.20805410297E+04  0.20805410297E+04  0.25500000000E-02 0.  1.
          2   -1    0    0  501    0  0.00000000000E+00 -0.00000000000E+00 -0.21332811745E+04  0.21332811745E+04  0.25500000000E-02 0. -1.
    8880023    1    1    2    0    0  0.61483593140E+03 -0.19007964078E+04  0.44326970463E+03  0.21497321795E+04  0.65864270000E+03 0.  0.
    8880022    1    1    2    0    0 -0.61483593140E+03  0.19007964078E+04 -0.49600984942E+03  0.20640900247E+04  0.15294330000E+03 0.  0.
<mgrwt>
<rscale>  0 0.20780954E+04</rscale>
<asrwt>0</asrwt>
<pdfrwt beam="1">  1        2 0.32819710E+00 0.21035352E+04</pdfrwt>
<pdfrwt beam="2">  1       -2 0.32008323E+00 0.21035352E+04</pdfrwt>
<totfact> 0.11849116E-01</totfact>
</mgrwt>
</event>
<event>
 4    5  0.8511149E-008  0.7489307E+03  0.7818608E-02  0.9834657E-01
         -2   -1    0    0    0  501 -0.00000000000E+00  0.00000000000E+00  0.22962808854E+04  0.22962808854E+04  0.25500000000E-02 0.  1.
          2   -1    0    0  501    0  0.00000000000E+00 -0.00000000000E+00 -0.31571411319E+03  0.31571411320E+03  0.25500000000E-02 0. -1.
    8880023    1    1    2    0    0  0.31893697254E+03  0.15926749883E+03  0.20806849719E+04  0.22113676960E+04  0.65864270000E+03 0.  1.
    8880022    1    1    2    0    0 -0.31893697254E+03 -0.15926749883E+03 -0.10011819968E+03  0.40062730256E+03  0.15294330000E+03 0.  0.
<mgrwt>
<rscale>  0 0.63535367E+03</rscale>
<asrwt>0</asrwt>
<pdfrwt beam="1">  1        2 0.48571403E-01 0.74893066E+03</pdfrwt>
<pdfrwt beam="2">  1       -2 0.35327398E+00 0.74893066E+03</pdfrwt>
<totfact> 0.16204003E+00</totfact>
</mgrwt>
</event>
<event>
 4    5  0.8511149E-008  0.7151224E+03  0.7818608E-02  0.9939449E-01
          2   -1    0    0  501    0  0.00000000000E+00  0.00000000000E+00  0.59247132578E+03  0.59247132579E+03  0.25500000000E-02 0. -1.
         -2   -1    0    0    0  501 -0.00000000000E+00 -0.00000000000E+00 -0.74231482734E+03  0.74231482734E+03  0.25500000000E-02 0.  1.
    8880023    1    1    2    0    0  0.10821012863E+03  0.25667184391E+03 -0.49184766374E+03  0.86793674769E+03  0.65864270000E+03 0.  1.
    8880022    1    1    2    0    0 -0.10821012863E+03 -0.25667184391E+03  0.34200416219E+03  0.46684940544E+03  0.15294330000E+03 0.  0.
<mgrwt>
<rscale>  0 0.58386916E+03</rscale>
<asrwt>0</asrwt>
<pdfrwt beam="1">  1        2 0.91149435E-01 0.71512242E+03</pdfrwt>
<pdfrwt beam="2">  1       -2 0.11420228E+00 0.71512242E+03</pdfrwt>
<totfact> 0.30676287E+01</totfact>
</mgrwt>
</event>
<event>
 4    5  0.8511149E-008  0.8665206E+03  0.7818608E-02  0.9582068E-01
         -2   -1    0    0    0  501 -0.00000000000E+00  0.00000000000E+00  0.33258105082E+03  0.33258105083E+03  0.25500000000E-02 0.  1.
          2   -1    0    0  501    0  0.00000000000E+00 -0.00000000000E+00 -0.18609771482E+04  0.18609771482E+04  0.25500000000E-02 0. -1.
    8880023    1    1    2    0    0  0.44279927969E+03  0.34781680465E+03 -0.47198429035E+03  0.98672544727E+03  0.65864270000E+03 0.  0.
    8880022    1    1    2    0    0 -0.44279927969E+03 -0.34781680465E+03 -0.10564118070E+04  0.12068327518E+04  0.15294330000E+03 0.  0.
<mgrwt>
<rscale>  0 0.78494484E+03</rscale>
<asrwt>0</asrwt>
<pdfrwt beam="1">  1        2 0.28630417E+00 0.86652059E+03</pdfrwt>
<pdfrwt beam="2">  1       -2 0.51166317E-01 0.86652059E+03</pdfrwt>
<totfact> 0.29268543E+01</totfact>
</mgrwt>
</event>
<event>
 4    5  0.8511149E-008  0.8110614E+03  0.7818608E-02  0.9687370E-01
         -2   -1    0    0    0  501 -0.00000000000E+00  0.00000000000E+00  0.93636185651E+03  0.93636185651E+03  0.25500000000E-02 0.  1.
          2   -1    0    0  501    0  0.00000000000E+00 -0.00000000000E+00 -0.11289191287E+04  0.11289191287E+04  0.25500000000E-02 0. -1.
    8880023    1    1    2    0    0 -0.46441176723E+03 -0.91279936482E+02  0.68165800997E+03  0.10594707005E+04  0.65864270000E+03 0.  1.
    8880022    1    1    2    0    0  0.46441176723E+03  0.91279936482E+02 -0.87421528219E+03  0.10058102848E+04  0.15294330000E+03 0.  0.
<mgrwt>
<rscale>  0 0.71773756E+03</rscale>
<asrwt>0</asrwt>
<pdfrwt beam="1">  1        2 0.17367987E+00 0.81106136E+03</pdfrwt>
<pdfrwt beam="2">  1       -2 0.14405567E+00 0.81106136E+03</pdfrwt>
<totfact> 0.70546583E+00</totfact>
</mgrwt>
</event>
<event>
 4    5  0.8511149E-008  0.1389925E+04  0.7818608E-02  0.8991551E-01
          2   -1    0    0  501    0  0.00000000000E+00  0.00000000000E+00  0.19239602744E+04  0.19239602744E+04  0.25500000000E-02 0. -1.
         -2   -1    0    0    0  501 -0.00000000000E+00 -0.00000000000E+00 -0.14305300470E+04  0.14305300470E+04  0.25500000000E-02 0.  1.
    8880023    1    1    2    0    0 -0.81084391571E+03 -0.91684901738E+03  0.12816774683E+04  0.18906579054E+04  0.65864270000E+03 0.  0.
    8880022    1    1    2    0    0  0.81084391571E+03  0.91684901738E+03 -0.78824724094E+03  0.14638324160E+04  0.15294330000E+03 0.  0.
<mgrwt>
<rscale>  0 0.13490449E+04</rscale>
<asrwt>0</asrwt>
<pdfrwt beam="1">  1        2 0.29599389E+00 0.13899245E+04</pdfrwt>
<pdfrwt beam="2">  1       -2 0.22008155E+00 0.13899245E+04</pdfrwt>
<totfact> 0.69032420E-01</totfact>
</mgrwt>
</event>
<event>
 4    5  0.8511149E-008  0.6857596E+03  0.7818608E-02  0.1006237E+00
         -2   -1    0    0    0  501 -0.00000000000E+00  0.00000000000E+00  0.12854938178E+03  0.12854938180E+03  0.25500000000E-02 0.  1.
          2   -1    0    0  501    0  0.00000000000E+00 -0.00000000000E+00 -0.23603855618E+04  0.23603855618E+04  0.25500000000E-02 0. -1.
    8880023    1    1    2    0    0 -0.18277433275E+03  0.55223034235E+02 -0.88259143677E+03  0.11176913218E+04  0.65864270000E+03 0.  0.
    8880022    1    1    2    0    0  0.18277433275E+03 -0.55223034235E+02 -0.13492447432E+04  0.13712436218E+04  0.15294330000E+03 0.  0.
<mgrwt>
<rscale>  0 0.52998046E+03</rscale>
<asrwt>0</asrwt>
<pdfrwt beam="1">  1        2 0.36313621E+00 0.68575961E+03</pdfrwt>
<pdfrwt beam="2">  1       -2 0.19776830E-01 0.68575961E+03</pdfrwt>
<totfact> 0.95056778E+01</totfact>
</mgrwt>
</event>
<event>
 4    5  0.8511149E-008  0.7957904E+03  0.7818608E-02  0.9719973E-01
          2   -1    0    0  501    0  0.00000000000E+00  0.00000000000E+00  0.17364064785E+04  0.17364064785E+04  0.25500000000E-02 0. -1.
         -2   -1    0    0    0  501 -0.00000000000E+00 -0.00000000000E+00 -0.14448558064E+04  0.14448558064E+04  0.25500000000E-02 0.  1.
    8880023    1    1    2    0    0 -0.16815276002E+03 -0.41375942611E+03 -0.12983112378E+04  0.15227916764E+04  0.65864270000E+03 0.  1.
    8880022    1    1    2    0    0  0.16815276002E+03  0.41375942611E+03  0.15898619099E+04  0.16584706084E+04  0.15294330000E+03 0.  0.
<mgrwt>
<rscale>  0 0.69839962E+03</rscale>
<asrwt>0</asrwt>
<pdfrwt beam="1">  1        2 0.26713946E+00 0.79579044E+03</pdfrwt>
<pdfrwt beam="2">  1       -2 0.22228551E+00 0.79579044E+03</pdfrwt>
<totfact> 0.92353825E-01</totfact>
</mgrwt>
</event>
<event>
 4    5  0.8511149E-008  0.9490584E+03  0.7818608E-02  0.9451470E-01
          2   -1    0    0  501    0  0.00000000000E+00  0.00000000000E+00  0.27357796159E+04  0.27357796159E+04  0.25500000000E-02 0. -1.
         -2   -1    0    0    0  501 -0.00000000000E+00 -0.00000000000E+00 -0.65520715855E+03  0.65520715855E+03  0.25500000000E-02 0.  1.
    8880023    1    1    2    0    0 -0.67477872685E+03  0.10758819514E+03 -0.23009741062E+03  0.97655341615E+03  0.65864270000E+03 0.  1.
    8880022    1    1    2    0    0  0.67477872685E+03 -0.10758819514E+03  0.23106698680E+04  0.24144333583E+04  0.15294330000E+03 0.  0.
<mgrwt>
<rscale>  0 0.87958268E+03</rscale>
<asrwt>0</asrwt>
<pdfrwt beam="1">  1        2 0.42088917E+00 0.94905835E+03</pdfrwt>
<pdfrwt beam="2">  1       -2 0.10080110E+00 0.94905835E+03</pdfrwt>
<totfact> 0.20925083E+00</totfact>
</mgrwt>
</event>
<event>
 4    5  0.8511149E-008  0.6973268E+03  0.7818608E-02  0.1000848E+00
          2   -1    0    0  501    0  0.00000000000E+00  0.00000000000E+00  0.13223584190E+04  0.13223584190E+04  0.25500000000E-02 0. -1.
         -2   -1    0    0    0  501 -0.00000000000E+00 -0.00000000000E+00 -0.75469808462E+03  0.75469808463E+03  0.25500000000E-02 0.  1.
    8880023    1    1    2    0    0  0.21821319925E+03  0.69551713198E+02 -0.57366705017E+03  0.90297205485E+03  0.65864270000E+03 0.  1.
    8880022    1    1    2    0    0 -0.21821319925E+03 -0.69551713198E+02  0.11413273846E+04  0.11740844488E+04  0.15294330000E+03 0.  0.
<mgrwt>
<rscale>  0 0.55280112E+03</rscale>
<asrwt>0</asrwt>
<pdfrwt beam="1">  1        2 0.20343976E+00 0.69732679E+03</pdfrwt>
<pdfrwt beam="2">  1       -2 0.11610740E+00 0.69732679E+03</pdfrwt>
<totfact> 0.95090231E+00</totfact>
</mgrwt>
</event>
<event>
 4    5  0.8511149E-008  0.1073051E+04  0.7818608E-02  0.9291671E-01
         -2   -1    0    0    0  501 -0.00000000000E+00  0.00000000000E+00  0.13376017153E+04  0.13376017153E+04  0.25500000000E-02 0.  1.
          2   -1    0    0  501    0  0.00000000000E+00 -0.00000000000E+00 -0.86103811082E+03  0.86103811082E+03  0.25500000000E-02 0. -1.
    8880023    1    1    2    0    0 -0.11486823128E+02  0.84705157856E+03  0.73408211365E+03  0.13001211789E+04  0.65864270000E+03 0. -1.
    8880022    1    1    2    0    0  0.11486823128E+02 -0.84705157856E+03 -0.25751850920E+03  0.89851864724E+03  0.15294330000E+03 0.  0.
<mgrwt>
<rscale>  0 0.10155330E+04</rscale>
<asrwt>0</asrwt>
<pdfrwt beam="1">  1        2 0.13246740E+00 0.10730510E+04</pdfrwt>
<pdfrwt beam="2">  1       -2 0.20578488E+00 0.10730510E+04</pdfrwt>
<totfact> 0.37470581E+00</totfact>
</mgrwt>
</event>
<event>
 4    5  0.8511149E-008  0.6661334E+03  0.7818608E-02  0.1018601E+00
         -2   -1    0    0    0  501 -0.00000000000E+00  0.00000000000E+00  0.10463100741E+03  0.10463100744E+03  0.25500000000E-02 0.  1.
          2   -1    0    0  501    0  0.00000000000E+00 -0.00000000000E+00 -0.27229677925E+04  0.27229677925E+04  0.25500000000E-02 0. -1.
    8880023    1    1    2    0    0  0.14555933739E+02  0.98547273847E+02 -0.10160216509E+04  0.12149212492E+04  0.65864270000E+03 0.  1.
    8880022    1    1    2    0    0 -0.14555933739E+02 -0.98547273847E+02 -0.16023151342E+04  0.16126775507E+04  0.15294330000E+03 0.  0.
<mgrwt>
<rscale>  0 0.48194892E+03</rscale>
<asrwt>0</asrwt>
<pdfrwt beam="1">  1        2 0.41891807E+00 0.66613336E+03</pdfrwt>
<pdfrwt beam="2">  1       -2 0.16097080E-01 0.66613336E+03</pdfrwt>
<totfact> 0.84527431E+01</totfact>
</mgrwt>
</event>
<event>
 4    5  0.8511149E-008  0.7102380E+03  0.7818608E-02  0.9957118E-01
          2   -1    0    0  501    0  0.00000000000E+00  0.00000000000E+00  0.77604572100E+03  0.77604572101E+03  0.25500000000E-02 0. -1.
         -2   -1    0    0    0  501 -0.00000000000E+00 -0.00000000000E+00 -0.43288146886E+03  0.43288146887E+03  0.25500000000E-02 0.  1.
    8880023    1    1    2    0    0  0.11895460391E+03  0.23765020439E+03 -0.48057317877E+02  0.71186201578E+03  0.65864270000E+03 0.  1.
    8880022    1    1    2    0    0 -0.11895460391E+03 -0.23765020439E+03  0.39122157002E+03  0.49706517410E+03  0.15294330000E+03 0.  0.
<mgrwt>
<rscale>  0 0.57571183E+03</rscale>
<asrwt>0</asrwt>
<pdfrwt beam="1">  1        2 0.11939165E+00 0.71023800E+03</pdfrwt>
<pdfrwt beam="2">  1       -2 0.66597150E-01 0.71023800E+03</pdfrwt>
<totfact> 0.75468922E+01</totfact>
</mgrwt>
</event>
<event>
 4    5  0.8511149E-008  0.1913773E+04  0.7818608E-02  0.8662082E-01
          2   -1    0    0  501    0  0.00000000000E+00  0.00000000000E+00  0.47164502487E+04  0.47164502487E+04  0.25500000000E-02 0. -1.
         -2   -1    0    0    0  501 -0.00000000000E+00 -0.00000000000E+00 -0.92576600464E+03  0.92576600465E+03  0.25500000000E-02 0.  1.
    8880023    1    1    2    0    0  0.16299699313E+04  0.75624969141E+03  0.65097353805E+03  0.20214579704E+04  0.65864270000E+03 0.  0.
    8880022    1    1    2    0    0 -0.16299699313E+04 -0.75624969141E+03  0.31397107060E+04  0.36207582829E+04  0.15294330000E+03 0.  0.
<mgrwt>
<rscale>  0 0.18855514E+04</rscale>
<asrwt>0</asrwt>
<pdfrwt beam="1">  1        2 0.72560774E+00 0.19137727E+04</pdfrwt>
<pdfrwt beam="2">  1       -2 0.14242554E+00 0.19137727E+04</pdfrwt>
<totfact> 0.23339318E-02</totfact>
</mgrwt>
</event>
<event>
 4    5  0.8511149E-008  0.9686281E+03  0.7818608E-02  0.9423804E-01
         -2   -1    0    0    0  501 -0.00000000000E+00  0.00000000000E+00  0.24853007517E+03  0.24853007518E+03  0.25500000000E-02 0.  1.
          2   -1    0    0  501    0  0.00000000000E+00 -0.00000000000E+00 -0.36556346902E+04  0.36556346902E+04  0.25500000000E-02 0. -1.
    8880023    1    1    2    0    0 -0.63607184220E+03 -0.31597918213E+03 -0.10101033727E+04  0.13994817833E+04  0.65864270000E+03 0.  1.
    8880022    1    1    2    0    0  0.63607184220E+03  0.31597918213E+03 -0.23970012423E+04  0.25046829821E+04  0.15294330000E+03 0.  0.
<mgrwt>
<rscale>  0 0.90142320E+03</rscale>
<asrwt>0</asrwt>
<pdfrwt beam="1">  1        2 0.56240530E+00 0.96862812E+03</pdfrwt>
<pdfrwt beam="2">  1       -2 0.38235399E-01 0.96862812E+03</pdfrwt>
<totfact> 0.42560566E+00</totfact>
</mgrwt>
</event>
<event>
 4    5  0.8511149E-008  0.1521117E+04  0.7818608E-02  0.8894867E-01
         -2   -1    0    0    0  501 -0.00000000000E+00  0.00000000000E+00  0.14528761350E+04  0.14528761350E+04  0.25500000000E-02 0.  1.
          2   -1    0    0  501    0  0.00000000000E+00 -0.00000000000E+00 -0.18866308457E+04  0.18866308457E+04  0.25500000000E-02 0. -1.
    8880023    1    1    2    0    0 -0.47562357910E+03  0.12859897240E+04 -0.10294906001E+04  0.18367494280E+04  0.65864270000E+03 0.  0.
    8880022    1    1    2    0    0  0.47562357910E+03 -0.12859897240E+04  0.59573588930E+03  0.15027575527E+04  0.15294330000E+03 0.  0.
<mgrwt>
<rscale>  0 0.14844401E+04</rscale>
<asrwt>0</asrwt>
<pdfrwt beam="1">  1        2 0.29025090E+00 0.15211172E+04</pdfrwt>
<pdfrwt beam="2">  1       -2 0.22351940E+00 0.15211172E+04</pdfrwt>
<totfact> 0.67925595E-01</totfact>
</mgrwt>
</event>
<event>
 4    5  0.8511149E-008  0.1105058E+04  0.7818608E-02  0.9255445E-01
          2   -1    0    0  501    0  0.00000000000E+00  0.00000000000E+00  0.35002668937E+04  0.35002668937E+04  0.25500000000E-02 0. -1.
         -2   -1    0    0    0  501 -0.00000000000E+00 -0.00000000000E+00 -0.50908724925E+03  0.50908724925E+03  0.25500000000E-02 0.  1.
    8880023    1    1    2    0    0 -0.51268007940E+03  0.72422521813E+03  0.29011161783E+04  0.31044529819E+04  0.65864270000E+03 0.  0.
    8880022    1    1    2    0    0  0.51268007940E+03 -0.72422521813E+03  0.90063466169E+02  0.90490116110E+03  0.15294330000E+03 0.  0.
<mgrwt>
<rscale>  0 0.10499017E+04</rscale>
<asrwt>0</asrwt>
<pdfrwt beam="1">  1        2 0.53850258E+00 0.11050580E+04</pdfrwt>
<pdfrwt beam="2">  1       -2 0.78321117E-01 0.11050580E+04</pdfrwt>
<totfact> 0.11991482E+00</totfact>
</mgrwt>
</event>
<event>
 4    5  0.8511149E-008  0.8047791E+03  0.7818608E-02  0.9700556E-01
         -2   -1    0    0    0  501 -0.00000000000E+00  0.00000000000E+00  0.55545245649E+03  0.55545245649E+03  0.25500000000E-02 0.  1.
          2   -1    0    0  501    0  0.00000000000E+00 -0.00000000000E+00 -0.18896342191E+04  0.18896342191E+04  0.25500000000E-02 0. -1.
    8880023    1    1    2    0    0 -0.36357534123E+03 -0.28578333796E+03  0.20516218797E+03  0.83051843727E+03  0.65864270000E+03 0.  1.
    8880022    1    1    2    0    0  0.36357534123E+03  0.28578333796E+03 -0.15393439506E+04  0.16145682384E+04  0.15294330000E+03 0.  0.
<mgrwt>
<rscale>  0 0.70983673E+03</rscale>
<asrwt>0</asrwt>
<pdfrwt beam="1">  1        2 0.29071295E+00 0.80477907E+03</pdfrwt>
<pdfrwt beam="2">  1       -2 0.85454225E-01 0.80477907E+03</pdfrwt>
<totfact> 0.93861560E+00</totfact>
</mgrwt>
</event>
<event>
 4    5  0.8511149E-008  0.6607779E+03  0.7818608E-02  0.1023373E+00
          2   -1    0    0  501    0  0.00000000000E+00  0.00000000000E+00  0.26839953668E+04  0.26839953668E+04  0.25500000000E-02 0. -1.
         -2   -1    0    0    0  501 -0.00000000000E+00 -0.00000000000E+00 -0.63124184227E+02  0.63124184278E+02  0.25500000000E-02 0.  1.
    8880023    1    1    2    0    0 -0.48817765481E+02  0.20833524166E+02  0.21441917955E+04  0.22436991492E+04  0.65864270000E+03 0.  0.
    8880022    1    1    2    0    0  0.48817765481E+02 -0.20833524166E+02  0.47667938708E+03  0.50342040189E+03  0.15294330000E+03 0.  1.
<mgrwt>
<rscale>  0 0.46488726E+03</rscale>
<asrwt>0</asrwt>
<pdfrwt beam="1">  1        2 0.41292227E+00 0.66077789E+03</pdfrwt>
<pdfrwt beam="2">  1       -2 0.97114151E-02 0.66077789E+03</pdfrwt>
<totfact> 0.20601172E+02</totfact>
</mgrwt>
</event>
<event>
 4    5  0.8511149E-008  0.7081404E+03  0.7818608E-02  0.9964972E-01
          2   -1    0    0  501    0  0.00000000000E+00  0.00000000000E+00  0.24089600174E+04  0.24089600174E+04  0.25500000000E-02 0. -1.
         -2   -1    0    0    0  501 -0.00000000000E+00 -0.00000000000E+00 -0.85309360837E+03  0.85309360837E+03  0.25500000000E-02 0.  1.
    8880023    1    1    2    0    0 -0.10089884655E+03 -0.23973340160E+03 -0.69431379815E+03  0.99173309799E+03  0.65864270000E+03 0.  1.
    8880022    1    1    2    0    0  0.10089884655E+03  0.23973340160E+03  0.22501802072E+04  0.22703205278E+04  0.15294330000E+03 0.  0.
<mgrwt>
<rscale>  0 0.57213190E+03</rscale>
<asrwt>0</asrwt>
<pdfrwt beam="1">  1        2 0.37060923E+00 0.70814044E+03</pdfrwt>
<pdfrwt beam="2">  1       -2 0.13124517E+00 0.70814044E+03</pdfrwt>
<totfact> 0.17611150E+00</totfact>
</mgrwt>
</event>
<event>
 4    5  0.1246649E-007  0.1361587E+04  0.7818608E-02  0.9014120E-01
         -2   -1    0    0    0  501 -0.00000000000E+00  0.00000000000E+00  0.32258700123E+04  0.32258700123E+04  0.25500000000E-02 0.  1.
          2   -1    0    0  501    0  0.00000000000E+00 -0.00000000000E+00 -0.20721431639E+04  0.20721431639E+04  0.25500000000E-02 0. -1.
    8880023    1    1    2    0    0  0.74442009165E+02  0.11893558297E+04  0.28853054743E+04  0.31904399052E+04  0.65864270000E+03 0.  0.
    8880022    1    1    2    0    0 -0.74442009165E+02 -0.11893558297E+04 -0.17315786259E+04  0.21075732711E+04  0.15294330000E+03 0.  0.
<mgrwt>
<rscale>  0 0.13196573E+04</rscale>
<asrwt>0</asrwt>
<pdfrwt beam="1">  1        2 0.31879126E+00 0.13615870E+04</pdfrwt>
<pdfrwt beam="2">  1       -2 0.49628769E+00 0.13615870E+04</pdfrwt>
<totfact> 0.10077632E-02</totfact>
</mgrwt>
</event>
<event>
 4    5  0.8511149E-008  0.7267613E+03  0.7818608E-02  0.9900339E-01
          2   -1    0    0  501    0  0.00000000000E+00  0.00000000000E+00  0.30018211632E+04  0.30018211632E+04  0.25500000000E-02 0. -1.
         -2   -1    0    0    0  501 -0.00000000000E+00 -0.00000000000E+00 -0.19687005592E+03  0.19687005594E+03  0.25500000000E-02 0.  1.
    8880023    1    1    2    0    0 -0.23993772802E+03 -0.19183754298E+03  0.53373351230E+03  0.90169475137E+03  0.65864270000E+03 0.  1.
    8880022    1    1    2    0    0  0.23993772802E+03  0.19183754298E+03  0.22712175950E+04  0.22969964678E+04  0.15294330000E+03 0.  0.
<mgrwt>
<rscale>  0 0.60244879E+03</rscale>
<asrwt>0</asrwt>
<pdfrwt beam="1">  1        2 0.46181863E+00 0.72676128E+03</pdfrwt>
<pdfrwt beam="2">  1       -2 0.30287702E-01 0.72676128E+03</pdfrwt>
<totfact> 0.18605202E+01</totfact>
</mgrwt>
</event>
<event>
 4    5  0.8511149E-008  0.7713721E+03  0.7818608E-02  0.9776509E-01
          2   -1    0    0  501    0  0.00000000000E+00  0.00000000000E+00  0.69131510936E+03  0.69131510936E+03  0.25500000000E-02 0. -1.
         -2   -1    0    0    0  501 -0.00000000000E+00 -0.00000000000E+00 -0.77146220846E+03  0.77146220847E+03  0.25500000000E-02 0.  1.
    8880023    1    1    2    0    0 -0.22206971318E+03  0.33449930406E+03 -0.45244257536E+03  0.89427022325E+03  0.65864270000E+03 0.  0.
    8880022    1    1    2    0    0  0.22206971318E+03 -0.33449930406E+03  0.37229547626E+03  0.56850709458E+03  0.15294330000E+03 0.  0.
<mgrwt>
<rscale>  0 0.66638599E+03</rscale>
<asrwt>0</asrwt>
<pdfrwt beam="1">  1        2 0.10635617E+00 0.77137212E+03</pdfrwt>
<pdfrwt beam="2">  1       -2 0.11868649E+00 0.77137212E+03</pdfrwt>
<totfact> 0.22981944E+01</totfact>
</mgrwt>
</event>
<event>
 4    5  0.8511149E-008  0.1202170E+04  0.7818608E-02  0.9155016E-01
         -2   -1    0    0    0  501 -0.00000000000E+00  0.00000000000E+00  0.54465330750E+03  0.54465330750E+03  0.25500000000E-02 0.  1.
          2   -1    0    0  501    0  0.00000000000E+00 -0.00000000000E+00 -0.25452698366E+04  0.25452698366E+04  0.25500000000E-02 0. -1.
    8880023    1    1    2    0    0 -0.64451519973E+03  0.77201182714E+03 -0.15890789432E+04  0.19925822939E+04  0.65864270000E+03 0. -1.
    8880022    1    1    2    0    0  0.64451519973E+03 -0.77201182714E+03 -0.41153758592E+03  0.10973408502E+04  0.15294330000E+03 0.  1.
<mgrwt>
<rscale>  0 0.11530047E+04</rscale>
<asrwt>0</asrwt>
<pdfrwt beam="1">  1        2 0.39157997E+00 0.12021698E+04</pdfrwt>
<pdfrwt beam="2">  1       -2 0.83792818E-01 0.12021698E+04</pdfrwt>
<totfact> 0.40212767E+00</totfact>
</mgrwt>
</event>
<event>
 4    5  0.8511149E-008  0.1529221E+04  0.7818608E-02  0.8889273E-01
         -2   -1    0    0    0  501 -0.00000000000E+00  0.00000000000E+00  0.15728658160E+04  0.15728658160E+04  0.25500000000E-02 0.  1.
          2   -1    0    0  501    0  0.00000000000E+00 -0.00000000000E+00 -0.18470217307E+04  0.18470217307E+04  0.25500000000E-02 0. -1.
    8880023    1    1    2    0    0  0.12073322851E+04 -0.66862280363E+03  0.74151036763E+03  0.16995162640E+04  0.65864270000E+03 0. -1.
    8880022    1    1    2    0    0 -0.12073322851E+04  0.66862280363E+03 -0.10156662823E+04  0.17203712826E+04  0.15294330000E+03 0.  0.
<mgrwt>
<rscale>  0 0.14927736E+04</rscale>
<asrwt>0</asrwt>
<pdfrwt beam="1">  1        2 0.28415719E+00 0.15292213E+04</pdfrwt>
<pdfrwt beam="2">  1       -2 0.24197936E+00 0.15292213E+04</pdfrwt>
<totfact> 0.54731276E-01</totfact>
</mgrwt>
</event>
<event>
 4    5  0.8511149E-008  0.9474272E+03  0.7818608E-02  0.9453825E-01
          2   -1    0    0  501    0  0.00000000000E+00  0.00000000000E+00  0.11340972458E+04  0.11340972458E+04  0.25500000000E-02 0. -1.
         -2   -1    0    0    0  501 -0.00000000000E+00 -0.00000000000E+00 -0.92536770027E+03  0.92536770028E+03  0.25500000000E-02 0.  1.
    8880023    1    1    2    0    0 -0.26422126510E+03 -0.62769040977E+03 -0.49443836909E+03  0.10686850025E+04  0.65864270000E+03 0.  0.
    8880022    1    1    2    0    0  0.26422126510E+03  0.62769040977E+03  0.70316791459E+03  0.99077994356E+03  0.15294330000E+03 0.  0.
<mgrwt>
<rscale>  0 0.87775392E+03</rscale>
<asrwt>0</asrwt>
<pdfrwt beam="1">  1        2 0.17447650E+00 0.94742722E+03</pdfrwt>
<pdfrwt beam="2">  1       -2 0.14236426E+00 0.94742722E+03</pdfrwt>
<totfact> 0.71143772E+00</totfact>
</mgrwt>
</event>
<event>
 4    5  0.8511149E-008  0.9485924E+03  0.7818608E-02  0.9452142E-01
          2   -1    0    0  501    0  0.00000000000E+00  0.00000000000E+00  0.59037194322E+03  0.59037194322E+03  0.25500000000E-02 0. -1.
         -2   -1    0    0    0  501 -0.00000000000E+00 -0.00000000000E+00 -0.17776238589E+04  0.17776238589E+04  0.25500000000E-02 0.  1.
    8880023    1    1    2    0    0 -0.14320860412E+02 -0.68250433410E+03 -0.13497981983E+04  0.16497826025E+04  0.65864270000E+03 0.  1.
    8880022    1    1    2    0    0  0.14320860412E+02  0.68250433410E+03  0.16254628262E+03  0.71821319963E+03  0.15294330000E+03 0.  0.
<mgrwt>
<rscale>  0 0.87906037E+03</rscale>
<asrwt>0</asrwt>
<pdfrwt beam="1">  1        2 0.90826454E-01 0.94859236E+03</pdfrwt>
<pdfrwt beam="2">  1       -2 0.27348059E+00 0.94859236E+03</pdfrwt>
<totfact> 0.23534065E+00</totfact>
</mgrwt>
</event>
<event>
 4    5  0.8511149E-008  0.9457136E+03  0.7818608E-02  0.9456308E-01
          2   -1    0    0  501    0  0.00000000000E+00  0.00000000000E+00  0.16887340510E+04  0.16887340510E+04  0.25500000000E-02 0. -1.
         -2   -1    0    0    0  501 -0.00000000000E+00 -0.00000000000E+00 -0.41303281877E+03  0.41303281878E+03  0.25500000000E-02 0.  1.
    8880023    1    1    2    0    0  0.34578441787E+03  0.58394964891E+03  0.53907091626E+03  0.10885640611E+04  0.65864270000E+03 0.  1.
    8880022    1    1    2    0    0 -0.34578441787E+03 -0.58394964891E+03  0.73663031600E+03  0.10132028087E+04  0.15294330000E+03 0.  0.
<mgrwt>
<rscale>  0 0.87583125E+03</rscale>
<asrwt>0</asrwt>
<pdfrwt beam="1">  1        2 0.25980524E+00 0.94571363E+03</pdfrwt>
<pdfrwt beam="2">  1       -2 0.63543510E-01 0.94571363E+03</pdfrwt>
<totfact> 0.22921546E+01</totfact>
</mgrwt>
</event>
<event>
 4    5  0.8511149E-008  0.7646423E+03  0.7818608E-02  0.9793234E-01
         -2   -1    0    0    0  501 -0.00000000000E+00  0.00000000000E+00  0.56908036405E+03  0.56908036405E+03  0.25500000000E-02 0.  1.
          2   -1    0    0  501    0  0.00000000000E+00 -0.00000000000E+00 -0.11294795753E+04  0.11294795753E+04  0.25500000000E-02 0. -1.
    8880023    1    1    2    0    0 -0.38069118366E+03  0.77083335098E+02  0.23528308239E+03  0.80002247030E+03  0.65864270000E+03 0.  1.
    8880022    1    1    2    0    0  0.38069118366E+03 -0.77083335098E+02 -0.79568229368E+03  0.89853746909E+03  0.15294330000E+03 0.  0.
<mgrwt>
<rscale>  0 0.65726911E+03</rscale>
<asrwt>0</asrwt>
<pdfrwt beam="1">  1        2 0.17376609E+00 0.76464229E+03</pdfrwt>
<pdfrwt beam="2">  1       -2 0.87550825E-01 0.76464229E+03</pdfrwt>
<totfact> 0.23917003E+01</totfact>
</mgrwt>
</event>
<event>
 4    5  0.8511149E-008  0.1372083E+04  0.7818608E-02  0.9005684E-01
         -2   -1    0    0    0  501 -0.00000000000E+00  0.00000000000E+00  0.90021398998E+03  0.90021398999E+03  0.25500000000E-02 0.  1.
          2   -1    0    0  501    0  0.00000000000E+00 -0.00000000000E+00 -0.26308742804E+04  0.26308742804E+04  0.25500000000E-02 0. -1.
    8880023    1    1    2    0    0  0.11989672566E+04  0.10619990988E+03 -0.18595082480E+04  0.23109266613E+04  0.65864270000E+03 0.  0.
    8880022    1    1    2    0    0 -0.11989672566E+04 -0.10619990988E+03  0.12884795755E+03  0.12201616091E+04  0.15294330000E+03 0.  0.
<mgrwt>
<rscale>  0 0.13305488E+04</rscale>
<asrwt>0</asrwt>
<pdfrwt beam="1">  1        2 0.40474989E+00 0.13720828E+04</pdfrwt>
<pdfrwt beam="2">  1       -2 0.13849446E+00 0.13720828E+04</pdfrwt>
<totfact> 0.10351805E+00</totfact>
</mgrwt>
</event>
<event>
 4    5  0.8511149E-008  0.8568933E+03  0.7818608E-02  0.9599114E-01
         -2   -1    0    0    0  501 -0.00000000000E+00  0.00000000000E+00  0.40688179646E+03  0.40688179647E+03  0.25500000000E-02 0.  1.
          2   -1    0    0  501    0  0.00000000000E+00 -0.00000000000E+00 -0.16427580936E+04  0.16427580936E+04  0.25500000000E-02 0. -1.
    8880023    1    1    2    0    0  0.49766628426E+03  0.22974793547E+03 -0.12064637266E+04  0.14798043027E+04  0.65864270000E+03 0.  0.
    8880022    1    1    2    0    0 -0.49766628426E+03 -0.22974793547E+03 -0.29412570538E+02  0.56983558740E+03  0.15294330000E+03 0.  0.
<mgrwt>
<rscale>  0 0.77354861E+03</rscale>
<asrwt>0</asrwt>
<pdfrwt beam="1">  1        2 0.25273201E+00 0.85689326E+03</pdfrwt>
<pdfrwt beam="2">  1       -2 0.62597200E-01 0.85689326E+03</pdfrwt>
<totfact> 0.25322194E+01</totfact>
</mgrwt>
</event>
<event>
 4    5  0.8511149E-008  0.7928283E+03  0.7818608E-02  0.9726523E-01
          2   -1    0    0  501    0  0.00000000000E+00  0.00000000000E+00  0.96572894674E+03  0.96572894674E+03  0.25500000000E-02 0. -1.
         -2   -1    0    0    0  501 -0.00000000000E+00 -0.00000000000E+00 -0.41870475540E+03  0.41870475541E+03  0.25500000000E-02 0.  1.
    8880023    1    1    2    0    0 -0.33962493832E+03  0.28181812524E+03  0.25168476151E+03  0.83181847772E+03  0.65864270000E+03 0.  0.
    8880022    1    1    2    0    0  0.33962493832E+03 -0.28181812524E+03  0.29533942983E+03  0.55261522443E+03  0.15294330000E+03 0.  0.
<mgrwt>
<rscale>  0 0.69459366E+03</rscale>
<asrwt>0</asrwt>
<pdfrwt beam="1">  1        2 0.14857368E+00 0.79282833E+03</pdfrwt>
<pdfrwt beam="2">  1       -2 0.64416116E-01 0.79282833E+03</pdfrwt>
<totfact> 0.59681523E+01</totfact>
</mgrwt>
</event>
<event>
 4    5  0.8511149E-008  0.1445813E+04  0.7818608E-02  0.8948879E-01
         -2   -1    0    0    0  501 -0.00000000000E+00  0.00000000000E+00  0.51439041860E+03  0.51439041860E+03  0.25500000000E-02 0.  1.
          2   -1    0    0  501    0  0.00000000000E+00 -0.00000000000E+00 -0.42842299889E+04  0.42842299889E+04  0.25500000000E-02 0. -1.
    8880023    1    1    2    0    0 -0.12233275027E+04  0.40004245614E+03 -0.28917722507E+04  0.32330668260E+04  0.65864270000E+03 0.  0.
    8880022    1    1    2    0    0  0.12233275027E+04 -0.40004245614E+03 -0.87806731963E+03  0.15655535815E+04  0.15294330000E+03 0.  0.
<mgrwt>
<rscale>  0 0.14068450E+04</rscale>
<asrwt>0</asrwt>
<pdfrwt beam="1">  1        2 0.65911228E+00 0.14458127E+04</pdfrwt>
<pdfrwt beam="2">  1       -2 0.79136990E-01 0.14458127E+04</pdfrwt>
<totfact> 0.27414197E-01</totfact>
</mgrwt>
</event>
<event>
 4    5  0.8511149E-008  0.1048880E+04  0.7818608E-02  0.9320230E-01
         -2   -1    0    0    0  501 -0.00000000000E+00  0.00000000000E+00  0.12058963925E+04  0.12058963925E+04  0.25500000000E-02 0.  1.
          2   -1    0    0  501    0  0.00000000000E+00 -0.00000000000E+00 -0.16044821358E+04  0.16044821358E+04  0.25500000000E-02 0. -1.
    8880023    1    1    2    0    0 -0.34497650209E+03 -0.73981706838E+03  0.82299858199E+03  0.13332197695E+04  0.65864270000E+03 0.  1.
    8880022    1    1    2    0    0  0.34497650209E+03  0.73981706838E+03 -0.12215843253E+04  0.14771587588E+04  0.15294330000E+03 0.  0.
<mgrwt>
<rscale>  0 0.98941634E+03</rscale>
<asrwt>0</asrwt>
<pdfrwt beam="1">  1        2 0.24684341E+00 0.10488795E+04</pdfrwt>
<pdfrwt beam="2">  1       -2 0.18552252E+00 0.10488795E+04</pdfrwt>
<totfact> 0.18194700E+00</totfact>
</mgrwt>
</event>
<event>
 4    5  0.8511149E-008  0.1062463E+04  0.7818608E-02  0.9304047E-01
         -2   -1    0    0    0  501 -0.00000000000E+00  0.00000000000E+00  0.15807653069E+04  0.15807653069E+04  0.25500000000E-02 0.  1.
          2   -1    0    0  501    0  0.00000000000E+00 -0.00000000000E+00 -0.98323228146E+03  0.98323228146E+03  0.25500000000E-02 0. -1.
    8880023    1    1    2    0    0  0.73185384738E+02  0.83045828446E+03  0.11394779360E+04  0.15579593177E+04  0.65864270000E+03 0.  0.
    8880022    1    1    2    0    0 -0.73185384738E+02 -0.83045828446E+03 -0.54194491060E+03  0.10060382706E+04  0.15294330000E+03 0.  1.
<mgrwt>
<rscale>  0 0.10041111E+04</rscale>
<asrwt>0</asrwt>
<pdfrwt beam="1">  1        2 0.15126651E+00 0.10624628E+04</pdfrwt>
<pdfrwt beam="2">  1       -2 0.24319466E+00 0.10624628E+04</pdfrwt>
<totfact> 0.18070634E+00</totfact>
</mgrwt>
</event>
<event>
 4    5  0.8511149E-008  0.1212787E+04  0.7818608E-02  0.9144791E-01
         -2   -1    0    0    0  501 -0.00000000000E+00  0.00000000000E+00  0.66328237293E+03  0.66328237294E+03  0.25500000000E-02 0.  1.
          2   -1    0    0  501    0  0.00000000000E+00 -0.00000000000E+00 -0.26811990539E+04  0.26811990539E+04  0.25500000000E-02 0. -1.
    8880023    1    1    2    0    0 -0.25258552204E+03 -0.98653086365E+03 -0.16408270909E+03  0.12238365628E+04  0.65864270000E+03 0.  0.
    8880022    1    1    2    0    0  0.25258552204E+03  0.98653086365E+03 -0.18538339719E+04  0.21206448640E+04  0.15294330000E+03 0.  1.
<mgrwt>
<rscale>  0 0.11641902E+04</rscale>
<asrwt>0</asrwt>
<pdfrwt beam="1">  1        2 0.41249216E+00 0.12127872E+04</pdfrwt>
<pdfrwt beam="2">  1       -2 0.10204344E+00 0.12127872E+04</pdfrwt>
<totfact> 0.21102111E+00</totfact>
</mgrwt>
</event>
<event>
 4    5  0.8511149E-008  0.9117564E+03  0.7818608E-02  0.9507416E-01
         -2   -1    0    0    0  501 -0.00000000000E+00  0.00000000000E+00  0.89033363775E+03  0.89033363775E+03  0.25500000000E-02 0.  1.
          2   -1    0    0  501    0  0.00000000000E+00 -0.00000000000E+00 -0.92263675270E+03  0.92263675270E+03  0.25500000000E-02 0. -1.
    8880023    1    1    2    0    0  0.38328548485E+03 -0.50058149900E+03  0.43817086564E+03  0.10115797120E+04  0.65864270000E+03 0.  0.
    8880022    1    1    2    0    0 -0.38328548485E+03  0.50058149900E+03 -0.47047398059E+03  0.80139067842E+03  0.15294330000E+03 0.  0.
<mgrwt>
<rscale>  0 0.83739252E+03</rscale>
<asrwt>0</asrwt>
<pdfrwt beam="1">  1        2 0.14194412E+00 0.91175644E+03</pdfrwt>
<pdfrwt beam="2">  1       -2 0.13697441E+00 0.91175644E+03</pdfrwt>
<totfact> 0.10757848E+01</totfact>
</mgrwt>
</event>
<event>
 4    5  0.8511149E-008  0.7967730E+03  0.7818608E-02  0.9717817E-01
          2   -1    0    0  501    0  0.00000000000E+00  0.00000000000E+00  0.25814061390E+04  0.25814061390E+04  0.25500000000E-02 0. -1.
         -2   -1    0    0    0  501 -0.00000000000E+00 -0.00000000000E+00 -0.24783099498E+03  0.24783099500E+03  0.25500000000E-02 0.  1.
    8880023    1    1    2    0    0 -0.44371027509E+03  0.64483663454E+02  0.51206840969E+03  0.94713315513E+03  0.65864270000E+03 0.  0.
    8880022    1    1    2    0    0  0.44371027509E+03 -0.64483663454E+02  0.18215067343E+04  0.18821039788E+04  0.15294330000E+03 0.  0.
<mgrwt>
<rscale>  0 0.69965786E+03</rscale>
<asrwt>0</asrwt>
<pdfrwt beam="1">  1        2 0.39713941E+00 0.79677296E+03</pdfrwt>
<pdfrwt beam="2">  1       -2 0.38127845E-01 0.79677296E+03</pdfrwt>
<totfact> 0.21081979E+01</totfact>
</mgrwt>
</event>
<event>
 4    5  0.8511149E-008  0.7194543E+03  0.7818608E-02  0.9924437E-01
         -2   -1    0    0    0  501 -0.00000000000E+00  0.00000000000E+00  0.38209558574E+03  0.38209558575E+03  0.25500000000E-02 0.  1.
          2   -1    0    0  501    0  0.00000000000E+00 -0.00000000000E+00 -0.10343551253E+04  0.10343551253E+04  0.25500000000E-02 0. -1.
    8880023    1    1    2    0    0 -0.90057541728E+02  0.27512535523E+03 -0.38089826065E+02  0.72046190949E+03  0.65864270000E+03 0. -1.
    8880022    1    1    2    0    0  0.90057541728E+02 -0.27512535523E+03 -0.61416971351E+03  0.69598880158E+03  0.15294330000E+03 0.  0.
<mgrwt>
<rscale>  0 0.59091461E+03</rscale>
<asrwt>0</asrwt>
<pdfrwt beam="1">  1        2 0.15913156E+00 0.71945433E+03</pdfrwt>
<pdfrwt beam="2">  1       -2 0.58783936E-01 0.71945433E+03</pdfrwt>
<totfact> 0.65918587E+01</totfact>
</mgrwt>
</event>
<event>
 4    5  0.8511149E-008  0.2234752E+04  0.7818608E-02  0.8513895E-01
          2   -1    0    0  501    0  0.00000000000E+00  0.00000000000E+00  0.26558732988E+04  0.26558732988E+04  0.25500000000E-02 0. -1.
         -2   -1    0    0    0  501 -0.00000000000E+00 -0.00000000000E+00 -0.26342604318E+04  0.26342604318E+04  0.25500000000E-02 0.  1.
    8880023    1    1    2    0    0 -0.71364705444E+03 -0.20127129905E+04 -0.14752709140E+04  0.26777864322E+04  0.65864270000E+03 0.  0.
    8880022    1    1    2    0    0  0.71364705444E+03  0.20127129905E+04  0.14968837810E+04  0.26123472983E+04  0.15294330000E+03 0.  0.
<mgrwt>
<rscale>  0 0.22109248E+04</rscale>
<asrwt>0</asrwt>
<pdfrwt beam="1">  1        2 0.40859589E+00 0.22347519E+04</pdfrwt>
<pdfrwt beam="2">  1       -2 0.40527084E+00 0.22347519E+04</pdfrwt>
<totfact> 0.16604002E-02</totfact>
</mgrwt>
</event>
<event>
 4    5  0.8511149E-008  0.1467256E+04  0.7818608E-02  0.8933110E-01
         -2   -1    0    0    0  501 -0.00000000000E+00  0.00000000000E+00  0.11395486968E+04  0.11395486968E+04  0.25500000000E-02 0.  1.
          2   -1    0    0  501    0  0.00000000000E+00 -0.00000000000E+00 -0.19238621752E+04  0.19238621752E+04  0.25500000000E-02 0. -1.
    8880023    1    1    2    0    0  0.12810564783E+04  0.27915113475E+03 -0.92723733204E+03  0.17356872797E+04  0.65864270000E+03 0.  0.
    8880022    1    1    2    0    0 -0.12810564783E+04 -0.27915113475E+03  0.14292385358E+03  0.13277235923E+04  0.15294330000E+03 0.  0.
<mgrwt>
<rscale>  0 0.14289719E+04</rscale>
<asrwt>0</asrwt>
<pdfrwt beam="1">  1        2 0.29597879E+00 0.14672564E+04</pdfrwt>
<pdfrwt beam="2">  1       -2 0.17531518E+00 0.14672564E+04</pdfrwt>
<totfact> 0.13600568E+00</totfact>
</mgrwt>
</event>
<event>
 4    5  0.8511149E-008  0.1063905E+04  0.7818608E-02  0.9302350E-01
         -2   -1    0    0    0  501 -0.00000000000E+00  0.00000000000E+00  0.50414926437E+03  0.50414926438E+03  0.25500000000E-02 0.  1.
          2   -1    0    0  501    0  0.00000000000E+00 -0.00000000000E+00 -0.21705041081E+04  0.21705041081E+04  0.25500000000E-02 0. -1.
    8880023    1    1    2    0    0 -0.30357605704E+03 -0.77841191385E+03 -0.37315226520E+03  0.11274468277E+04  0.65864270000E+03 0. -1.
    8880022    1    1    2    0    0  0.30357605704E+03  0.77841191385E+03 -0.12932025785E+04  0.15472065447E+04  0.15294330000E+03 0.  0.
<mgrwt>
<rscale>  0 0.10056684E+04</rscale>
<asrwt>0</asrwt>
<pdfrwt beam="1">  1        2 0.33392370E+00 0.10639049E+04</pdfrwt>
<pdfrwt beam="2">  1       -2 0.77561426E-01 0.10639049E+04</pdfrwt>
<totfact> 0.79286249E+00</totfact>
</mgrwt>
</event>
<event>
 4    5  0.8511149E-008  0.8234820E+03  0.7818608E-02  0.9662150E-01
         -2   -1    0    0    0  501 -0.00000000000E+00  0.00000000000E+00  0.12846151500E+04  0.12846151500E+04  0.25500000000E-02 0.  1.
          2   -1    0    0  501    0  0.00000000000E+00 -0.00000000000E+00 -0.53657416627E+03  0.53657416627E+03  0.25500000000E-02 0. -1.
    8880023    1    1    2    0    0 -0.31770335734E+03  0.37865146250E+03  0.95758249042E+03  0.12629674523E+04  0.65864270000E+03 0.  0.
    8880022    1    1    2    0    0  0.31770335734E+03 -0.37865146250E+03 -0.20954150673E+03  0.55822186394E+03  0.15294330000E+03 0. -1.
<mgrwt>
<rscale>  0 0.73315775E+03</rscale>
<asrwt>0</asrwt>
<pdfrwt beam="1">  1        2 0.82549872E-01 0.82348197E+03</pdfrwt>
<pdfrwt beam="2">  1       -2 0.19763310E+00 0.82348197E+03</pdfrwt>
<totfact> 0.79030579E+00</totfact>
</mgrwt>
</event>
<event>
 4    5  0.8511149E-008  0.1191262E+04  0.7818608E-02  0.9165663E-01
         -2   -1    0    0    0  501 -0.00000000000E+00  0.00000000000E+00  0.11564412020E+04  0.11564412020E+04  0.25500000000E-02 0.  1.
          2   -1    0    0  501    0  0.00000000000E+00 -0.00000000000E+00 -0.19476191227E+04  0.19476191227E+04  0.25500000000E-02 0. -1.
    8880023    1    1    2    0    0  0.82468446270E+03 -0.55244084178E+03  0.64258992497E+03  0.13535240539E+04  0.65864270000E+03 0. -1.
    8880022    1    1    2    0    0 -0.82468446270E+03  0.55244084178E+03 -0.14337678457E+04  0.17505362707E+04  0.15294330000E+03 0.  0.
<mgrwt>
<rscale>  0 0.11414978E+04</rscale>
<asrwt>0</asrwt>
<pdfrwt beam="1">  1        2 0.29963371E+00 0.11912622E+04</pdfrwt>
<pdfrwt beam="2">  1       -2 0.17791403E+00 0.11912622E+04</pdfrwt>
<totfact> 0.13026141E+00</totfact>
</mgrwt>
</event>
<event>
 4    5  0.8511149E-008  0.1392517E+04  0.7818608E-02  0.8989519E-01
         -2   -1    0    0    0  501 -0.00000000000E+00  0.00000000000E+00  0.16312561691E+04  0.16312561691E+04  0.25500000000E-02 0.  1.
          2   -1    0    0  501    0  0.00000000000E+00 -0.00000000000E+00 -0.19640460455E+04  0.19640460455E+04  0.25500000000E-02 0. -1.
    8880023    1    1    2    0    0 -0.11368118718E+04 -0.46146798145E+03  0.10472860328E+04  0.17423869175E+04  0.65864270000E+03 0.  0.
    8880022    1    1    2    0    0  0.11368118718E+04  0.46146798145E+03 -0.13800759093E+04  0.18529152970E+04  0.15294330000E+03 0.  0.
<mgrwt>
<rscale>  0 0.13517308E+04</rscale>
<asrwt>0</asrwt>
<pdfrwt beam="1">  1        2 0.30216093E+00 0.13925172E+04</pdfrwt>
<pdfrwt beam="2">  1       -2 0.25096249E+00 0.13925172E+04</pdfrwt>
<totfact> 0.42097250E-01</totfact>
</mgrwt>
</event>
<event>
 4    5  0.8511149E-008  0.1046330E+04  0.7818608E-02  0.9323306E-01
          2   -1    0    0  501    0  0.00000000000E+00  0.00000000000E+00  0.12436399518E+04  0.12436399518E+04  0.25500000000E-02 0. -1.
         -2   -1    0    0    0  501 -0.00000000000E+00 -0.00000000000E+00 -0.88304032269E+03  0.88304032269E+03  0.25500000000E-02 0.  1.
    8880023    1    1    2    0    0  0.72533778649E+03  0.36726181688E+03 -0.27680805226E+03  0.10823257600E+04  0.65864270000E+03 0.  0.
    8880022    1    1    2    0    0 -0.72533778649E+03 -0.36726181688E+03  0.63740768133E+03  0.10443545145E+04  0.15294330000E+03 0.  0.
<mgrwt>
<rscale>  0 0.98665262E+03</rscale>
<asrwt>0</asrwt>
<pdfrwt beam="1">  1        2 0.19132922E+00 0.10463299E+04</pdfrwt>
<pdfrwt beam="2">  1       -2 0.13585236E+00 0.10463299E+04</pdfrwt>
<totfact> 0.68391212E+00</totfact>
</mgrwt>
</event>
<event>
 4    5  0.8511149E-008  0.8141765E+03  0.7818608E-02  0.9680942E-01
          2   -1    0    0  501    0  0.00000000000E+00  0.00000000000E+00  0.11433758845E+04  0.11433758845E+04  0.25500000000E-02 0. -1.
         -2   -1    0    0    0  501 -0.00000000000E+00 -0.00000000000E+00 -0.10409681534E+04  0.10409681534E+04  0.25500000000E-02 0.  1.
    8880023    1    1    2    0    0 -0.32553501019E+03 -0.35085621866E+03 -0.80636935974E+03  0.11459122478E+04  0.65864270000E+03 0.  1.
    8880022    1    1    2    0    0  0.32553501019E+03  0.35085621866E+03  0.90877709085E+03  0.10384317902E+04  0.15294330000E+03 0.  0.
<mgrwt>
<rscale>  0 0.72162906E+03</rscale>
<asrwt>0</asrwt>
<pdfrwt beam="1">  1        2 0.17590398E+00 0.81417648E+03</pdfrwt>
<pdfrwt beam="2">  1       -2 0.16014895E+00 0.81417648E+03</pdfrwt>
<totfact> 0.52131997E+00</totfact>
</mgrwt>
</event>
<event>
 4    5  0.8511149E-008  0.7475918E+03  0.7818608E-02  0.9838360E-01
         -2   -1    0    0    0  501 -0.00000000000E+00  0.00000000000E+00  0.43914645155E+03  0.43914645156E+03  0.25500000000E-02 0.  1.
          2   -1    0    0  501    0  0.00000000000E+00 -0.00000000000E+00 -0.21967208555E+04  0.21967208555E+04  0.25500000000E-02 0. -1.
    8880023    1    1    2    0    0  0.33101343999E+03  0.12455298441E+03  0.85938673217E+02  0.75251511958E+03  0.65864270000E+03 0.  1.
    8880022    1    1    2    0    0 -0.33101343999E+03 -0.12455298441E+03 -0.18435130771E+04  0.18833521874E+04  0.15294330000E+03 0.  0.
<mgrwt>
<rscale>  0 0.63343941E+03</rscale>
<asrwt>0</asrwt>
<pdfrwt beam="1">  1        2 0.33795705E+00 0.74759183E+03</pdfrwt>
<pdfrwt beam="2">  1       -2 0.67560994E-01 0.74759183E+03</pdfrwt>
<totfact> 0.10836821E+01</totfact>
</mgrwt>
</event>
<event>
 4    5  0.8511149E-008  0.9174970E+03  0.7818608E-02  0.9498508E-01
         -2   -1    0    0    0  501 -0.00000000000E+00  0.00000000000E+00  0.92161496016E+03  0.92161496016E+03  0.25500000000E-02 0.  1.
          2   -1    0    0  501    0  0.00000000000E+00 -0.00000000000E+00 -0.17393843258E+04  0.17393843258E+04  0.25500000000E-02 0. -1.
    8880023    1    1    2    0    0 -0.47891288961E+02  0.63694346607E+03  0.60152403516E+03  0.10971016023E+04  0.65864270000E+03 0.  0.
    8880022    1    1    2    0    0  0.47891288961E+02 -0.63694346607E+03 -0.14192934008E+04  0.15638976837E+04  0.15294330000E+03 0.  0.
<mgrwt>
<rscale>  0 0.84393942E+03</rscale>
<asrwt>0</asrwt>
<pdfrwt beam="1">  1        2 0.26759759E+00 0.91749701E+03</pdfrwt>
<pdfrwt beam="2">  1       -2 0.14178692E+00 0.91749701E+03</pdfrwt>
<totfact> 0.32581873E+00</totfact>
</mgrwt>
</event>
<event>
 4    5  0.8511149E-008  0.7534453E+03  0.7818608E-02  0.9822382E-01
          2   -1    0    0  501    0  0.00000000000E+00  0.00000000000E+00  0.22841644919E+04  0.22841644919E+04  0.25500000000E-02 0. -1.
         -2   -1    0    0    0  501 -0.00000000000E+00 -0.00000000000E+00 -0.40526031043E+03  0.40526031044E+03  0.25500000000E-02 0.  1.
    8880023    1    1    2    0    0  0.13714945739E+03 -0.33920437006E+03 -0.15854305789E+02  0.75361206440E+03  0.65864270000E+03 0.  1.
    8880022    1    1    2    0    0 -0.13714945739E+03  0.33920437006E+03  0.18947584872E+04  0.19358127379E+04  0.15294330000E+03 0.  0.
<mgrwt>
<rscale>  0 0.64175091E+03</rscale>
<asrwt>0</asrwt>
<pdfrwt beam="1">  1        2 0.35140992E+00 0.75344528E+03</pdfrwt>
<pdfrwt beam="2">  1       -2 0.62347740E-01 0.75344528E+03</pdfrwt>
<totfact> 0.11509486E+01</totfact>
</mgrwt>
</event>
<event>
 4    5  0.8511149E-008  0.1110071E+04  0.7818608E-02  0.9249925E-01
         -2   -1    0    0    0  501 -0.00000000000E+00  0.00000000000E+00  0.98093260900E+03  0.98093260900E+03  0.25500000000E-02 0.  1.
          2   -1    0    0  501    0  0.00000000000E+00 -0.00000000000E+00 -0.17330035234E+04  0.17330035234E+04  0.25500000000E-02 0. -1.
    8880023    1    1    2    0    0 -0.88918998384E+03 -0.88254566255E+02  0.45893463888E+03  0.12011989447E+04  0.65864270000E+03 0.  0.
    8880022    1    1    2    0    0  0.88918998384E+03  0.88254566255E+02 -0.12110055533E+04  0.15127371876E+04  0.15294330000E+03 0.  0.
<mgrwt>
<rscale>  0 0.10552648E+04</rscale>
<asrwt>0</asrwt>
<pdfrwt beam="1">  1        2 0.26661593E+00 0.11100711E+04</pdfrwt>
<pdfrwt beam="2">  1       -2 0.15091271E+00 0.11100711E+04</pdfrwt>
<totfact> 0.27208652E+00</totfact>
</mgrwt>
</event>
<event>
 4    5  0.8511149E-008  0.1248601E+04  0.7818608E-02  0.9111268E-01
          2   -1    0    0  501    0  0.00000000000E+00  0.00000000000E+00  0.13093366742E+04  0.13093366742E+04  0.25500000000E-02 0. -1.
         -2   -1    0    0    0  501 -0.00000000000E+00 -0.00000000000E+00 -0.21814537708E+04  0.21814537708E+04  0.25500000000E-02 0.  1.
    8880023    1    1    2    0    0 -0.44416714108E+03 -0.96328074326E+03 -0.17191674652E+04  0.21247449774E+04  0.65864270000E+03 0.  0.
    8880022    1    1    2    0    0  0.44416714108E+03  0.96328074326E+03  0.84705036857E+03  0.13660454676E+04  0.15294330000E+03 0.  0.
<mgrwt>
<rscale>  0 0.12018166E+04</rscale>
<asrwt>0</asrwt>
<pdfrwt beam="1">  1        2 0.20143641E+00 0.12486010E+04</pdfrwt>
<pdfrwt beam="2">  1       -2 0.33560827E+00 0.12486010E+04</pdfrwt>
<totfact> 0.30422481E-01</totfact>
</mgrwt>
</event>
<event>
 4    5  0.8511149E-008  0.7673897E+03  0.7818608E-02  0.9786339E-01
          2   -1    0    0  501    0  0.00000000000E+00  0.00000000000E+00  0.22420785420E+04  0.22420785420E+04  0.25500000000E-02 0. -1.
         -2   -1    0    0    0  501 -0.00000000000E+00 -0.00000000000E+00 -0.32926705214E+03  0.32926705215E+03  0.25500000000E-02 0.  1.
    8880023    1    1    2    0    0  0.38057713580E+03  0.10118232938E+03  0.18058835261E+03  0.78835219251E+03  0.65864270000E+03 0.  0.
    8880022    1    1    2    0    0 -0.38057713580E+03 -0.10118232938E+03  0.17322231372E+04  0.17829934016E+04  0.15294330000E+03 0. -1.
<mgrwt>
<rscale>  0 0.66100871E+03</rscale>
<asrwt>0</asrwt>
<pdfrwt beam="1">  1        2 0.34493517E+00 0.76738975E+03</pdfrwt>
<pdfrwt beam="2">  1       -2 0.50656468E-01 0.76738975E+03</pdfrwt>
<totfact> 0.18684648E+01</totfact>
</mgrwt>
</event>
<event>
 4    5  0.8511149E-008  0.9035205E+03  0.7818608E-02  0.9520404E-01
          2   -1    0    0  501    0  0.00000000000E+00  0.00000000000E+00  0.11844200927E+04  0.11844200927E+04  0.25500000000E-02 0. -1.
         -2   -1    0    0    0  501 -0.00000000000E+00 -0.00000000000E+00 -0.69064932254E+03  0.69064932254E+03  0.25500000000E-02 0.  1.
    8880023    1    1    2    0    0  0.24657625285E+02 -0.61800570596E+03 -0.20807218582E+03  0.92716950546E+03  0.65864270000E+03 0.  1.
    8880022    1    1    2    0    0 -0.24657625285E+02  0.61800570596E+03  0.70184295600E+03  0.94789990979E+03  0.15294330000E+03 0.  0.
<mgrwt>
<rscale>  0 0.82796121E+03</rscale>
<asrwt>0</asrwt>
<pdfrwt beam="1">  1        2 0.18221847E+00 0.90352048E+03</pdfrwt>
<pdfrwt beam="2">  1       -2 0.10625374E+00 0.90352048E+03</pdfrwt>
<totfact> 0.13861004E+01</totfact>
</mgrwt>
</event>
<event>
 4    5  0.8511149E-008  0.1918311E+04  0.7818608E-02  0.8659768E-01
         -2   -1    0    0    0  501 -0.00000000000E+00  0.00000000000E+00  0.28996215575E+04  0.28996215575E+04  0.25500000000E-02 0.  1.
          2   -1    0    0  501    0  0.00000000000E+00 -0.00000000000E+00 -0.13635191670E+04  0.13635191670E+04  0.25500000000E-02 0. -1.
    8880023    1    1    2    0    0 -0.11935378494E+04 -0.13496564675E+04  0.44001298972E+02  0.19188151289E+04  0.65864270000E+03 0.  0.
    8880022    1    1    2    0    0  0.11935378494E+04  0.13496564675E+04  0.14921010915E+04  0.23443255957E+04  0.15294330000E+03 0.  0.
<mgrwt>
<rscale>  0 0.18901632E+04</rscale>
<asrwt>0</asrwt>
<pdfrwt beam="1">  1        2 0.20977218E+00 0.19183106E+04</pdfrwt>
<pdfrwt beam="2">  1       -2 0.44609562E+00 0.19183106E+04</pdfrwt>
<totfact> 0.50361669E-02</totfact>
</mgrwt>
</event>
<event>
 4    5  0.8511149E-008  0.7622966E+03  0.7818608E-02  0.9799198E-01
          2   -1    0    0  501    0  0.00000000000E+00  0.00000000000E+00  0.10253459970E+04  0.10253459970E+04  0.25500000000E-02 0. -1.
         -2   -1    0    0    0  501 -0.00000000000E+00 -0.00000000000E+00 -0.10847086438E+04  0.10847086438E+04  0.25500000000E-02 0.  1.
    8880023    1    1    2    0    0  0.12189114061E+03 -0.36390716311E+03 -0.89634733659E+03  0.11766624952E+04  0.65864270000E+03 0.  1.
    8880022    1    1    2    0    0 -0.12189114061E+03  0.36390716311E+03  0.83698468980E+03  0.93339214562E+03  0.15294330000E+03 0.  0.
<mgrwt>
<rscale>  0 0.65405613E+03</rscale>
<asrwt>0</asrwt>
<pdfrwt beam="1">  1        2 0.15774554E+00 0.76229658E+03</pdfrwt>
<pdfrwt beam="2">  1       -2 0.16687825E+00 0.76229658E+03</pdfrwt>
<totfact> 0.55459747E+00</totfact>
</mgrwt>
</event>
<event>
 4    5  0.8511149E-008  0.1036844E+04  0.7818608E-02  0.9334867E-01
          2   -1    0    0  501    0  0.00000000000E+00  0.00000000000E+00  0.12268080948E+04  0.12268080948E+04  0.25500000000E-02 0. -1.
         -2   -1    0    0    0  501 -0.00000000000E+00 -0.00000000000E+00 -0.99494573537E+03  0.99494573537E+03  0.25500000000E-02 0.  1.
    8880023    1    1    2    0    0 -0.73422660131E+03 -0.31960289818E+03 -0.47711222342E+03  0.11413505135E+04  0.65864270000E+03 0.  0.
    8880022    1    1    2    0    0  0.73422660131E+03  0.31960289818E+03  0.70897458287E+03  0.10804033167E+04  0.15294330000E+03 0.  0.
<mgrwt>
<rscale>  0 0.97635370E+03</rscale>
<asrwt>0</asrwt>
<pdfrwt beam="1">  1        2 0.18873971E+00 0.10368437E+04</pdfrwt>
<pdfrwt beam="2">  1       -2 0.15306858E+00 0.10368437E+04</pdfrwt>
<totfact> 0.51185708E+00</totfact>
</mgrwt>
</event>
<event>
 4    5  0.8511149E-008  0.8308933E+03  0.7818608E-02  0.9647597E-01
          2   -1    0    0  501    0  0.00000000000E+00  0.00000000000E+00  0.21780093196E+04  0.21780093196E+04  0.25500000000E-02 0. -1.
         -2   -1    0    0    0  501 -0.00000000000E+00 -0.00000000000E+00 -0.40193357098E+03  0.40193357099E+03  0.25500000000E-02 0.  1.
    8880023    1    1    2    0    0 -0.71654103381E+02 -0.50143701164E+03  0.11768174706E+03  0.83918566899E+03  0.65864270000E+03 0.  0.
    8880022    1    1    2    0    0  0.71654103381E+02  0.50143701164E+03  0.16583940016E+04  0.17407572217E+04  0.15294330000E+03 0.  0.
<mgrwt>
<rscale>  0 0.74224435E+03</rscale>
<asrwt>0</asrwt>
<pdfrwt beam="1">  1        2 0.33507836E+00 0.83089325E+03</pdfrwt>
<pdfrwt beam="2">  1       -2 0.61835933E-01 0.83089325E+03</pdfrwt>
<totfact> 0.13259153E+01</totfact>
</mgrwt>
</event>
<event>
 4    5  0.8511149E-008  0.1163964E+04  0.7818608E-02  0.9192974E-01
         -2   -1    0    0    0  501 -0.00000000000E+00  0.00000000000E+00  0.91014625473E+03  0.91014625473E+03  0.25500000000E-02 0.  1.
          2   -1    0    0  501    0  0.00000000000E+00 -0.00000000000E+00 -0.18730382515E+04  0.18730382515E+04  0.25500000000E-02 0. -1.
    8880023    1    1    2    0    0 -0.95598426298E+03 -0.84235656014E+02  0.28809564328E+03  0.11990875125E+04  0.65864270000E+03 0.  0.
    8880022    1    1    2    0    0  0.95598426298E+03  0.84235656014E+02 -0.12509876400E+04  0.15840969937E+04  0.15294330000E+03 0.  0.
<mgrwt>
<rscale>  0 0.11126248E+04</rscale>
<asrwt>0</asrwt>
<pdfrwt beam="1">  1        2 0.28815973E+00 0.11639638E+04</pdfrwt>
<pdfrwt beam="2">  1       -2 0.14002250E+00 0.11639638E+04</pdfrwt>
<totfact> 0.27577670E+00</totfact>
</mgrwt>
</event>
<event>
 4    5  0.8511149E-008  0.8075135E+03  0.7818608E-02  0.9694780E-01
          2   -1    0    0  501    0  0.00000000000E+00  0.00000000000E+00  0.18473649724E+04  0.18473649724E+04  0.25500000000E-02 0. -1.
         -2   -1    0    0    0  501 -0.00000000000E+00 -0.00000000000E+00 -0.38944373507E+03  0.38944373508E+03  0.25500000000E-02 0.  1.
    8880023    1    1    2    0    0  0.37770441720E+03 -0.27496762530E+03  0.12628076325E+03  0.81732787739E+03  0.65864270000E+03 0.  1.
    8880022    1    1    2    0    0 -0.37770441720E+03  0.27496762530E+03  0.13316404741E+04  0.14194808301E+04  0.15294330000E+03 0.  0.
<mgrwt>
<rscale>  0 0.71328455E+03</rscale>
<asrwt>0</asrwt>
<pdfrwt beam="1">  1        2 0.28421000E+00 0.80751348E+03</pdfrwt>
<pdfrwt beam="2">  1       -2 0.59914420E-01 0.80751348E+03</pdfrwt>
<totfact> 0.21585214E+01</totfact>
</mgrwt>
</event>
<event>
 4    5  0.8511149E-008  0.8928926E+03  0.7818608E-02  0.9537539E-01
          2   -1    0    0  501    0  0.00000000000E+00  0.00000000000E+00  0.10345930063E+04  0.10345930063E+04  0.25500000000E-02 0. -1.
         -2   -1    0    0    0  501 -0.00000000000E+00 -0.00000000000E+00 -0.85028973313E+03  0.85028973314E+03  0.25500000000E-02 0.  1.
    8880023    1    1    2    0    0 -0.45065186068E+03 -0.40044961917E+03 -0.44711433786E+03  0.99858321357E+03  0.65864270000E+03 0.  0.
    8880022    1    1    2    0    0  0.45065186068E+03  0.40044961917E+03  0.63141761102E+03  0.88629952587E+03  0.15294330000E+03 0.  0.
<mgrwt>
<rscale>  0 0.81571914E+03</rscale>
<asrwt>0</asrwt>
<pdfrwt beam="1">  1        2 0.15916815E+00 0.89289260E+03</pdfrwt>
<pdfrwt beam="2">  1       -2 0.13081381E+00 0.89289260E+03</pdfrwt>
<totfact> 0.10254242E+01</totfact>
</mgrwt>
</event>
<event>
 4    5  0.8511149E-008  0.9499690E+03  0.7818608E-02  0.9450159E-01
          2   -1    0    0  501    0  0.00000000000E+00  0.00000000000E+00  0.35022257880E+04  0.35022257880E+04  0.25500000000E-02 0. -1.
         -2   -1    0    0    0  501 -0.00000000000E+00 -0.00000000000E+00 -0.58878366911E+03  0.58878366912E+03  0.25500000000E-02 0.  1.
    8880023    1    1    2    0    0 -0.59291110832E+03 -0.34218032623E+03 -0.13803900353E+03  0.95994579576E+03  0.65864270000E+03 0.  0.
    8880022    1    1    2    0    0  0.59291110832E+03  0.34218032623E+03  0.30514811225E+04  0.31310636614E+04  0.15294330000E+03 0.  0.
<mgrwt>
<rscale>  0 0.88060312E+03</rscale>
<asrwt>0</asrwt>
<pdfrwt beam="1">  1        2 0.53880397E+00 0.94996903E+03</pdfrwt>
<pdfrwt beam="2">  1       -2 0.90582102E-01 0.94996903E+03</pdfrwt>
<totfact> 0.88037981E-01</totfact>
</mgrwt>
</event>
<event>
 4    5  0.8511149E-008  0.9962378E+03  0.7818608E-02  0.9386496E-01
          2   -1    0    0  501    0  0.00000000000E+00  0.00000000000E+00  0.17162149124E+04  0.17162149124E+04  0.25500000000E-02 0. -1.
         -2   -1    0    0    0  501 -0.00000000000E+00 -0.00000000000E+00 -0.60821917782E+03  0.60821917783E+03  0.25500000000E-02 0.  1.
    8880023    1    1    2    0    0  0.57189927214E+03  0.48125957032E+03  0.21053535841E+02  0.99646023961E+03  0.65864270000E+03 0.  1.
    8880022    1    1    2    0    0 -0.57189927214E+03 -0.48125957032E+03  0.10869421987E+04  0.13279738506E+04  0.15294330000E+03 0.  0.
<mgrwt>
<rscale>  0 0.93195357E+03</rscale>
<asrwt>0</asrwt>
<pdfrwt beam="1">  1        2 0.26403306E+00 0.99623780E+03</pdfrwt>
<pdfrwt beam="2">  1       -2 0.93572183E-01 0.99623780E+03</pdfrwt>
<totfact> 0.92574333E+00</totfact>
</mgrwt>
</event>
<event>
 4    5  0.8511149E-008  0.7338725E+03  0.7818608E-02  0.9878169E-01
         -2   -1    0    0    0  501 -0.00000000000E+00  0.00000000000E+00  0.42181996133E+03  0.42181996133E+03  0.25500000000E-02 0.  1.
          2   -1    0    0  501    0  0.00000000000E+00 -0.00000000000E+00 -0.29707870593E+04  0.29707870593E+04  0.25500000000E-02 0. -1.
    8880023    1    1    2    0    0  0.21168593672E+03 -0.24484209647E+03  0.81053801447E+02  0.73833495989E+03  0.65864270000E+03 0.  1.
    8880022    1    1    2    0    0 -0.21168593672E+03  0.24484209647E+03 -0.26300208994E+04  0.26542720607E+04  0.15294330000E+03 0.  0.
<mgrwt>
<rscale>  0 0.61331046E+03</rscale>
<asrwt>0</asrwt>
<pdfrwt beam="1">  1        2 0.45704415E+00 0.73387246E+03</pdfrwt>
<pdfrwt beam="2">  1       -2 0.64895381E-01 0.73387246E+03</pdfrwt>
<totfact> 0.42519998E+00</totfact>
</mgrwt>
</event>
<event>
 4    5  0.8511149E-008  0.8237978E+03  0.7818608E-02  0.9661523E-01
          2   -1    0    0  501    0  0.00000000000E+00  0.00000000000E+00  0.53005787806E+03  0.53005787806E+03  0.25500000000E-02 0. -1.
         -2   -1    0    0    0  501 -0.00000000000E+00 -0.00000000000E+00 -0.17551426333E+04  0.17551426333E+04  0.25500000000E-02 0.  1.
    8880023    1    1    2    0    0 -0.48117746281E+03  0.11532967622E+03 -0.14906803847E+04  0.17031649658E+04  0.65864270000E+03 0.  1.
    8880022    1    1    2    0    0  0.48117746281E+03 -0.11532967622E+03  0.26559562948E+03  0.58203554561E+03  0.15294330000E+03 0.  0.
<mgrwt>
<rscale>  0 0.73354669E+03</rscale>
<asrwt>0</asrwt>
<pdfrwt beam="1">  1        2 0.81547366E-01 0.82379785E+03</pdfrwt>
<pdfrwt beam="2">  1       -2 0.27002194E+00 0.82379785E+03</pdfrwt>
<totfact> 0.28522937E+00</totfact>
</mgrwt>
</event>
<event>
 4    5  0.8511149E-008  0.8282739E+03  0.7818608E-02  0.9652700E-01
         -2   -1    0    0    0  501 -0.00000000000E+00  0.00000000000E+00  0.14001774384E+03  0.14001774387E+03  0.25500000000E-02 0.  1.
          2   -1    0    0  501    0  0.00000000000E+00 -0.00000000000E+00 -0.35735169279E+04  0.35735169279E+04  0.25500000000E-02 0. -1.
    8880023    1    1    2    0    0 -0.46672830435E+03 -0.18545107244E+03 -0.15400921242E+04  0.17486913300E+04  0.65864270000E+03 0.  0.
    8880022    1    1    2    0    0  0.46672830435E+03  0.18545107244E+03 -0.18934070599E+04  0.19648433418E+04  0.15294330000E+03 0.  0.
<mgrwt>
<rscale>  0 0.73904202E+03</rscale>
<asrwt>0</asrwt>
<pdfrwt beam="1">  1        2 0.54977177E+00 0.82827388E+03</pdfrwt>
<pdfrwt beam="2">  1       -2 0.21541194E-01 0.82827388E+03</pdfrwt>
<totfact> 0.14395087E+01</totfact>
</mgrwt>
</event>
<event>
 4    5  0.8511149E-008  0.9614519E+03  0.7818608E-02  0.9433825E-01
         -2   -1    0    0    0  501 -0.00000000000E+00  0.00000000000E+00  0.68472281628E+03  0.68472281628E+03  0.25500000000E-02 0.  1.
          2   -1    0    0  501    0  0.00000000000E+00 -0.00000000000E+00 -0.17766336894E+04  0.17766336894E+04  0.25500000000E-02 0. -1.
    8880023    1    1    2    0    0  0.26578403550E+03  0.64802653759E+03  0.20168996190E+03  0.98237904800E+03  0.65864270000E+03 0.  1.
    8880022    1    1    2    0    0 -0.26578403550E+03 -0.64802653759E+03 -0.12936008350E+04  0.14789774577E+04  0.15294330000E+03 0.  0.
<mgrwt>
<rscale>  0 0.89343512E+03</rscale>
<asrwt>0</asrwt>
<pdfrwt beam="1">  1        2 0.27332826E+00 0.96145190E+03</pdfrwt>
<pdfrwt beam="2">  1       -2 0.10534197E+00 0.96145190E+03</pdfrwt>
<totfact> 0.64967861E+00</totfact>
</mgrwt>
</event>
<event>
 4    5  0.8511149E-008  0.1222651E+04  0.7818608E-02  0.9135413E-01
          2   -1    0    0  501    0  0.00000000000E+00  0.00000000000E+00  0.77481540919E+03  0.77481540920E+03  0.25500000000E-02 0. -1.
         -2   -1    0    0    0  501 -0.00000000000E+00 -0.00000000000E+00 -0.18264180115E+04  0.18264180115E+04  0.25500000000E-02 0.  1.
    8880023    1    1    2    0    0  0.85906595287E+03 -0.56839272442E+03 -0.96251788535E+03  0.15560576745E+04  0.65864270000E+03 0.  0.
    8880022    1    1    2    0    0 -0.85906595287E+03  0.56839272442E+03 -0.89084716943E+02  0.10451757462E+04  0.15294330000E+03 0.  0.
<mgrwt>
<rscale>  0 0.11745684E+04</rscale>
<asrwt>0</asrwt>
<pdfrwt beam="1">  1        2 0.11920237E+00 0.12226507E+04</pdfrwt>
<pdfrwt beam="2">  1       -2 0.28098739E+00 0.12226507E+04</pdfrwt>
<totfact> 0.14582470E+00</totfact>
</mgrwt>
</event>
<event>
 4    5  0.8511149E-008  0.8750608E+03  0.7818608E-02  0.9567315E-01
         -2   -1    0    0    0  501 -0.00000000000E+00  0.00000000000E+00  0.35337926262E+04  0.35337926262E+04  0.25500000000E-02 0.  1.
          2   -1    0    0  501    0  0.00000000000E+00 -0.00000000000E+00 -0.35977825091E+03  0.35977825092E+03  0.25500000000E-02 0. -1.
    8880023    1    1    2    0    0  0.11612007081E+03  0.56430243638E+03  0.31792382861E+04  0.32974668151E+04  0.65864270000E+03 0.  1.
    8880022    1    1    2    0    0 -0.11612007081E+03 -0.56430243638E+03 -0.52239107685E+01  0.59610406206E+03  0.15294330000E+03 0.  0.
<mgrwt>
<rscale>  0 0.79497781E+03</rscale>
<asrwt>0</asrwt>
<pdfrwt beam="1">  1        2 0.55350503E-01 0.87506075E+03</pdfrwt>
<pdfrwt beam="2">  1       -2 0.54366037E+00 0.87506075E+03</pdfrwt>
<totfact> 0.84024133E-02</totfact>
</mgrwt>
</event>
<event>
 4    5  0.8511149E-008  0.7663619E+03  0.7818608E-02  0.9788907E-01
         -2   -1    0    0    0  501 -0.00000000000E+00  0.00000000000E+00  0.30349755980E+03  0.30349755981E+03  0.25500000000E-02 0.  1.
          2   -1    0    0  501    0  0.00000000000E+00 -0.00000000000E+00 -0.23192654225E+04  0.23192654225E+04  0.25500000000E-02 0. -1.
    8880023    1    1    2    0    0  0.37625559839E+03  0.10923380894E+03 -0.24775794685E+03  0.80541573540E+03  0.65864270000E+03 0.  0.
    8880022    1    1    2    0    0 -0.37625559839E+03 -0.10923380894E+03 -0.17680099159E+04  0.18173472470E+04  0.15294330000E+03 0.  0.
<mgrwt>
<rscale>  0 0.65961257E+03</rscale>
<asrwt>0</asrwt>
<pdfrwt beam="1">  1        2 0.35681005E+00 0.76636186E+03</pdfrwt>
<pdfrwt beam="2">  1       -2 0.46691934E-01 0.76636186E+03</pdfrwt>
<totfact> 0.19970211E+01</totfact>
</mgrwt>
</event>
<event>
 4    5  0.8511149E-008  0.1237359E+04  0.7818608E-02  0.9121635E-01
         -2   -1    0    0    0  501 -0.00000000000E+00  0.00000000000E+00  0.19278688711E+04  0.19278688711E+04  0.25500000000E-02 0.  1.
          2   -1    0    0  501    0  0.00000000000E+00 -0.00000000000E+00 -0.11737419940E+04  0.11737419940E+04  0.25500000000E-02 0. -1.
    8880023    1    1    2    0    0 -0.89513500475E+03  0.54404111460E+03  0.13945551374E+04  0.18643609223E+04  0.65864270000E+03 0.  1.
    8880022    1    1    2    0    0  0.89513500475E+03 -0.54404111460E+03 -0.64042826031E+03  0.12372499427E+04  0.15294330000E+03 0.  0.
<mgrwt>
<rscale>  0 0.11900222E+04</rscale>
<asrwt>0</asrwt>
<pdfrwt beam="1">  1        2 0.18057569E+00 0.12373591E+04</pdfrwt>
<pdfrwt beam="2">  1       -2 0.29659521E+00 0.12373591E+04</pdfrwt>
<totfact> 0.63663542E-01</totfact>
</mgrwt>
</event>
<event>
 4    5  0.8511149E-008  0.7507686E+03  0.7818608E-02  0.9829621E-01
         -2   -1    0    0    0  501 -0.00000000000E+00  0.00000000000E+00  0.13847207771E+04  0.13847207771E+04  0.25500000000E-02 0.  1.
          2   -1    0    0  501    0  0.00000000000E+00 -0.00000000000E+00 -0.39558598390E+03  0.39558598390E+03  0.25500000000E-02 0. -1.
    8880023    1    1    2    0    0 -0.30140816328E+03  0.19747520128E+03  0.11364544664E+04  0.13620507687E+04  0.65864270000E+03 0.  0.
    8880022    1    1    2    0    0  0.30140816328E+03 -0.19747520128E+03 -0.14731967317E+03  0.41825599234E+03  0.15294330000E+03 0.  0.
<mgrwt>
<rscale>  0 0.63796864E+03</rscale>
<asrwt>0</asrwt>
<pdfrwt beam="1">  1        2 0.60859382E-01 0.75076863E+03</pdfrwt>
<pdfrwt beam="2">  1       -2 0.21303396E+00 0.75076863E+03</pdfrwt>
<totfact> 0.89974309E+00</totfact>
</mgrwt>
</event>
<event>
 4    5  0.8511149E-008  0.8507303E+03  0.7818608E-02  0.9610270E-01
         -2   -1    0    0    0  501 -0.00000000000E+00  0.00000000000E+00  0.31721304642E+03  0.31721304643E+03  0.25500000000E-02 0.  1.
          2   -1    0    0  501    0  0.00000000000E+00 -0.00000000000E+00 -0.28837323881E+04  0.28837323881E+04  0.25500000000E-02 0. -1.
    8880023    1    1    2    0    0  0.49502676667E+03 -0.21184982759E+03 -0.35867567763E+03  0.92324985630E+03  0.65864270000E+03 0.  0.
    8880022    1    1    2    0    0 -0.49502676667E+03  0.21184982759E+03 -0.22078436640E+04  0.22776955782E+04  0.15294330000E+03 0.  0.
<mgrwt>
<rscale>  0 0.76620159E+03</rscale>
<asrwt>0</asrwt>
<pdfrwt beam="1">  1        2 0.44365112E+00 0.85073031E+03</pdfrwt>
<pdfrwt beam="2">  1       -2 0.48802009E-01 0.85073031E+03</pdfrwt>
<totfact> 0.85217666E+00</totfact>
</mgrwt>
</event>
<event>
 4    5  0.8511149E-008  0.1148875E+04  0.7818608E-02  0.9208497E-01
          2   -1    0    0  501    0  0.00000000000E+00  0.00000000000E+00  0.90867134331E+03  0.90867134331E+03  0.25500000000E-02 0. -1.
         -2   -1    0    0    0  501 -0.00000000000E+00 -0.00000000000E+00 -0.26296275577E+04  0.26296275577E+04  0.25500000000E-02 0.  1.
    8880023    1    1    2    0    0 -0.85275091876E+03  0.39864618980E+03 -0.21918556368E+04  0.24747008411E+04  0.65864270000E+03 0.  1.
    8880022    1    1    2    0    0  0.85275091876E+03 -0.39864618980E+03  0.47089942239E+03  0.10635980599E+04  0.15294330000E+03 0.  0.
<mgrwt>
<rscale>  0 0.10966158E+04</rscale>
<asrwt>0</asrwt>
<pdfrwt beam="1">  1        2 0.13979559E+00 0.11488747E+04</pdfrwt>
<pdfrwt beam="2">  1       -2 0.40455808E+00 0.11488747E+04</pdfrwt>
<totfact> 0.19929799E-01</totfact>
</mgrwt>
</event>
<event>
 4    5  0.8511149E-008  0.1228819E+04  0.7818608E-02  0.9129605E-01
         -2   -1    0    0    0  501 -0.00000000000E+00  0.00000000000E+00  0.11758074919E+04  0.11758074919E+04  0.25500000000E-02 0.  1.
          2   -1    0    0  501    0  0.00000000000E+00 -0.00000000000E+00 -0.20361630795E+04  0.20361630795E+04  0.25500000000E-02 0. -1.
    8880023    1    1    2    0    0  0.92941358964E+03  0.46084406606E+03  0.63687483367E+03  0.13840544187E+04  0.65864270000E+03 0.  1.
    8880022    1    1    2    0    0 -0.92941358964E+03 -0.46084406606E+03 -0.14972304213E+04  0.18279161527E+04  0.15294330000E+03 0.  0.
<mgrwt>
<rscale>  0 0.11810528E+04</rscale>
<asrwt>0</asrwt>
<pdfrwt beam="1">  1        2 0.31325586E+00 0.12288194E+04</pdfrwt>
<pdfrwt beam="2">  1       -2 0.18089346E+00 0.12288194E+04</pdfrwt>
<totfact> 0.11043697E+00</totfact>
</mgrwt>
</event>
<event>
 4    5  0.8511149E-008  0.6871373E+03  0.7818608E-02  0.1005544E+00
          2   -1    0    0  501    0  0.00000000000E+00  0.00000000000E+00  0.14673932571E+04  0.14673932571E+04  0.25500000000E-02 0. -1.
         -2   -1    0    0    0  501 -0.00000000000E+00 -0.00000000000E+00 -0.13442953466E+04  0.13442953466E+04  0.25500000000E-02 0.  1.
    8880023    1    1    2    0    0  0.19581531858E+03 -0.19459586643E+01 -0.12445564296E+04  0.14216463479E+04  0.65864270000E+03 0.  1.
    8880022    1    1    2    0    0 -0.19581531858E+03  0.19459586643E+01  0.13676543402E+04  0.13900422558E+04  0.15294330000E+03 0.  0.
<mgrwt>
<rscale>  0 0.53284715E+03</rscale>
<asrwt>0</asrwt>
<pdfrwt beam="1">  1        2 0.22575281E+00 0.68713727E+03</pdfrwt>
<pdfrwt beam="2">  1       -2 0.20681467E+00 0.68713727E+03</pdfrwt>
<totfact> 0.16620992E+00</totfact>
</mgrwt>
</event>
<event>
 4    5  0.8511149E-008  0.7256839E+03  0.7818608E-02  0.9903803E-01
          2   -1    0    0  501    0  0.00000000000E+00  0.00000000000E+00  0.33811828119E+04  0.33811828119E+04  0.25500000000E-02 0. -1.
         -2   -1    0    0    0  501 -0.00000000000E+00 -0.00000000000E+00 -0.50795946282E+03  0.50795946282E+03  0.25500000000E-02 0.  1.
    8880023    1    1    2    0    0 -0.29662983559E+03  0.69409025138E+02 -0.23461359780E+03  0.76266678089E+03  0.65864270000E+03 0.  1.
    8880022    1    1    2    0    0  0.29662983559E+03 -0.69409025138E+02  0.31078369469E+04  0.31264754938E+04  0.15294330000E+03 0.  0.
<mgrwt>
<rscale>  0 0.60077338E+03</rscale>
<asrwt>0</asrwt>
<pdfrwt beam="1">  1        2 0.52018198E+00 0.72568387E+03</pdfrwt>
<pdfrwt beam="2">  1       -2 0.78147609E-01 0.72568387E+03</pdfrwt>
<totfact> 0.15578032E+00</totfact>
</mgrwt>
</event>
<event>
 4    5  0.8511149E-008  0.9031837E+03  0.7818608E-02  0.9520940E-01
         -2   -1    0    0    0  501 -0.00000000000E+00  0.00000000000E+00  0.41391540858E+03  0.41391540859E+03  0.25500000000E-02 0.  1.
          2   -1    0    0  501    0  0.00000000000E+00 -0.00000000000E+00 -0.20642145522E+04  0.20642145522E+04  0.25500000000E-02 0. -1.
    8880023    1    1    2    0    0  0.34267607058E+03 -0.51429929414E+03 -0.24573912935E+03  0.93601740329E+03  0.65864270000E+03 0.  0.
    8880022    1    1    2    0    0 -0.34267607058E+03  0.51429929414E+03 -0.14045600143E+04  0.15421125575E+04  0.15294330000E+03 0.  0.
<mgrwt>
<rscale>  0 0.82757458E+03</rscale>
<asrwt>0</asrwt>
<pdfrwt beam="1">  1        2 0.31757146E+00 0.90318374E+03</pdfrwt>
<pdfrwt beam="2">  1       -2 0.63679295E-01 0.90318374E+03</pdfrwt>
<totfact> 0.14254684E+01</totfact>
</mgrwt>
</event>
<event>
 4    5  0.8511149E-008  0.7127048E+03  0.7818608E-02  0.9948091E-01
          2   -1    0    0  501    0  0.00000000000E+00  0.00000000000E+00  0.15768272472E+04  0.15768272472E+04  0.25500000000E-02 0. -1.
         -2   -1    0    0    0  501 -0.00000000000E+00 -0.00000000000E+00 -0.37201929256E+03  0.37201929257E+03  0.25500000000E-02 0.  1.
    8880023    1    1    2    0    0 -0.22893648696E+03  0.14739755556E+03  0.88222707470E+01  0.71275942166E+03  0.65864270000E+03 0.  0.
    8880022    1    1    2    0    0  0.22893648696E+03 -0.14739755556E+03  0.11959856839E+04  0.12360871181E+04  0.15294330000E+03 0.  0.
<mgrwt>
<rscale>  0 0.57986158E+03</rscale>
<asrwt>0</asrwt>
<pdfrwt beam="1">  1        2 0.24258881E+00 0.71270482E+03</pdfrwt>
<pdfrwt beam="2">  1       -2 0.57233738E-01 0.71270482E+03</pdfrwt>
<totfact> 0.33816863E+01</totfact>
</mgrwt>
</event>
<event>
 4    5  0.8511149E-008  0.8844267E+03  0.7818608E-02  0.9551509E-01
          2   -1    0    0  501    0  0.00000000000E+00  0.00000000000E+00  0.91117577684E+03  0.91117577684E+03  0.25500000000E-02 0. -1.
         -2   -1    0    0    0  501 -0.00000000000E+00 -0.00000000000E+00 -0.12609268273E+04  0.12609268273E+04  0.25500000000E-02 0.  1.
    8880023    1    1    2    0    0 -0.13419712066E+03 -0.57479699204E+03 -0.96286232196E+03  0.13074075518E+04  0.65864270000E+03 0.  0.
    8880022    1    1    2    0    0  0.13419712066E+03  0.57479699204E+03  0.61311127150E+03  0.86469505232E+03  0.15294330000E+03 0.  0.
<mgrwt>
<rscale>  0 0.80590513E+03</rscale>
<asrwt>0</asrwt>
<pdfrwt beam="1">  1        2 0.14018089E+00 0.88442674E+03</pdfrwt>
<pdfrwt beam="2">  1       -2 0.19398874E+00 0.88442674E+03</pdfrwt>
<totfact> 0.42202616E+00</totfact>
</mgrwt>
</event>
<event>
 4    5  0.8511149E-008  0.7929264E+03  0.7818608E-02  0.9726305E-01
          2   -1    0    0  501    0  0.00000000000E+00  0.00000000000E+00  0.22901265554E+04  0.22901265554E+04  0.25500000000E-02 0. -1.
         -2   -1    0    0    0  501 -0.00000000000E+00 -0.00000000000E+00 -0.26154867661E+03  0.26154867662E+03  0.25500000000E-02 0.  1.
    8880023    1    1    2    0    0  0.23311178923E+03 -0.37494130374E+03  0.46375856862E+03  0.91858821229E+03  0.65864270000E+03 0.  1.
    8880022    1    1    2    0    0 -0.23311178923E+03  0.37494130374E+03  0.15648193101E+04  0.16330870197E+04  0.15294330000E+03 0.  0.
<mgrwt>
<rscale>  0 0.69471999E+03</rscale>
<asrwt>0</asrwt>
<pdfrwt beam="1">  1        2 0.35232717E+00 0.79292641E+03</pdfrwt>
<pdfrwt beam="2">  1       -2 0.40238257E-01 0.79292641E+03</pdfrwt>
<totfact> 0.27732672E+01</totfact>
</mgrwt>
</event>
<event>
 4    5  0.8511149E-008  0.6786164E+03  0.7818608E-02  0.1010117E+00
          2   -1    0    0  501    0  0.00000000000E+00  0.00000000000E+00  0.13480155053E+04  0.13480155053E+04  0.25500000000E-02 0. -1.
         -2   -1    0    0    0  501 -0.00000000000E+00 -0.00000000000E+00 -0.46138544702E+03  0.46138544703E+03  0.25500000000E-02 0.  1.
    8880023    1    1    2    0    0 -0.15818225312E+03 -0.41089208855E+02 -0.19402464091E+03  0.70580855466E+03  0.65864270000E+03 0.  1.
    8880022    1    1    2    0    0  0.15818225312E+03  0.41089208855E+02  0.10806546992E+04  0.11035923977E+04  0.15294330000E+03 0.  0.
<mgrwt>
<rscale>  0 0.51428007E+03</rscale>
<asrwt>0</asrwt>
<pdfrwt beam="1">  1        2 0.20738700E+00 0.67861635E+03</pdfrwt>
<pdfrwt beam="2">  1       -2 0.70982377E-01 0.67861635E+03</pdfrwt>
<totfact> 0.28774317E+01</totfact>
</mgrwt>
</event>
<event>
 4    5  0.8511149E-008  0.8458591E+03  0.7818608E-02  0.9619230E-01
         -2   -1    0    0    0  501 -0.00000000000E+00  0.00000000000E+00  0.31480603078E+03  0.31480603079E+03  0.25500000000E-02 0.  1.
          2   -1    0    0  501    0  0.00000000000E+00 -0.00000000000E+00 -0.24095995236E+04  0.24095995236E+04  0.25500000000E-02 0. -1.
    8880023    1    1    2    0    0  0.41943297997E+03  0.32518203108E+03 -0.38824763357E+03  0.93070608103E+03  0.65864270000E+03 0.  1.
    8880022    1    1    2    0    0 -0.41943297997E+03 -0.32518203108E+03 -0.17065458593E+04  0.17936994734E+04  0.15294330000E+03 0.  0.
<mgrwt>
<rscale>  0 0.76036391E+03</rscale>
<asrwt>0</asrwt>
<pdfrwt beam="1">  1        2 0.37070761E+00 0.84585908E+03</pdfrwt>
<pdfrwt beam="2">  1       -2 0.48431699E-01 0.84585908E+03</pdfrwt>
<totfact> 0.16326474E+01</totfact>
</mgrwt>
</event>
<event>
 4    5  0.8511149E-008  0.7246549E+03  0.7818608E-02  0.9907139E-01
          2   -1    0    0  501    0  0.00000000000E+00  0.00000000000E+00  0.18241458249E+04  0.18241458249E+04  0.25500000000E-02 0. -1.
         -2   -1    0    0    0  501 -0.00000000000E+00 -0.00000000000E+00 -0.34092666684E+03  0.34092666685E+03  0.25500000000E-02 0.  1.
    8880023    1    1    2    0    0 -0.24710865471E+03  0.17393048912E+03  0.88756721710E+02  0.73007017758E+03  0.65864270000E+03 0.  1.
    8880022    1    1    2    0    0  0.24710865471E+03 -0.17393048912E+03  0.13944624363E+04  0.14350023142E+04  0.15294330000E+03 0.  0.
<mgrwt>
<rscale>  0 0.59916545E+03</rscale>
<asrwt>0</asrwt>
<pdfrwt beam="1">  1        2 0.28063781E+00 0.72465489E+03</pdfrwt>
<pdfrwt beam="2">  1       -2 0.52450257E-01 0.72465489E+03</pdfrwt>
<totfact> 0.29630812E+01</totfact>
</mgrwt>
</event>
<event>
 4    5  0.8511149E-008  0.6780017E+03  0.7818608E-02  0.1010477E+00
          2   -1    0    0  501    0  0.00000000000E+00  0.00000000000E+00  0.66081625326E+03  0.66081625326E+03  0.25500000000E-02 0. -1.
         -2   -1    0    0    0  501 -0.00000000000E+00 -0.00000000000E+00 -0.56966751193E+03  0.56966751194E+03  0.25500000000E-02 0.  1.
    8880023    1    1    2    0    0 -0.11168860242E+03 -0.11576592526E+03 -0.33028447384E+03  0.75417115649E+03  0.65864270000E+03 0.  1.
    8880022    1    1    2    0    0  0.11168860242E+03  0.11576592526E+03  0.42143321516E+03  0.47631260871E+03  0.15294330000E+03 0.  0.
<mgrwt>
<rscale>  0 0.51285362E+03</rscale>
<asrwt>0</asrwt>
<pdfrwt beam="1">  1        2 0.10166404E+00 0.67800170E+03</pdfrwt>
<pdfrwt beam="2">  1       -2 0.87641156E-01 0.67800170E+03</pdfrwt>
<totfact> 0.50393558E+01</totfact>
</mgrwt>
</event>
<event>
 4    5  0.8511149E-008  0.1285384E+04  0.7818608E-02  0.9078286E-01
          2   -1    0    0  501    0  0.00000000000E+00  0.00000000000E+00  0.85044416073E+03  0.85044416074E+03  0.25500000000E-02 0. -1.
         -2   -1    0    0    0  501 -0.00000000000E+00 -0.00000000000E+00 -0.29031455513E+04  0.29031455513E+04  0.25500000000E-02 0.  1.
    8880023    1    1    2    0    0 -0.11010597344E+04  0.77904889344E+02 -0.22789905446E+04  0.26164880698E+04  0.65864270000E+03 0.  0.
    8880022    1    1    2    0    0  0.11010597344E+04 -0.77904889344E+02  0.22628915407E+03  0.11371016422E+04  0.15294330000E+03 0.  0.
<mgrwt>
<rscale>  0 0.12403117E+04</rscale>
<asrwt>0</asrwt>
<pdfrwt beam="1">  1        2 0.13083756E+00 0.12853840E+04</pdfrwt>
<pdfrwt beam="2">  1       -2 0.44663777E+00 0.12853840E+04</pdfrwt>
<totfact> 0.11306598E-01</totfact>
</mgrwt>
</event>
<event>
 4    5  0.8511149E-008  0.7877960E+03  0.7818608E-02  0.9737833E-01
         -2   -1    0    0    0  501 -0.00000000000E+00  0.00000000000E+00  0.17554467019E+03  0.17554467021E+03  0.25500000000E-02 0.  1.
          2   -1    0    0  501    0  0.00000000000E+00 -0.00000000000E+00 -0.27917989543E+04  0.27917989543E+04  0.25500000000E-02 0. -1.
    8880023    1    1    2    0    0  0.36363844727E+03 -0.23362224281E+03 -0.92481697808E+03  0.12148699197E+04  0.65864270000E+03 0.  0.
    8880022    1    1    2    0    0 -0.36363844727E+03  0.23362224281E+03 -0.16914373061E+04  0.17524737048E+04  0.15294330000E+03 0.  0.
<mgrwt>
<rscale>  0 0.68808235E+03</rscale>
<asrwt>0</asrwt>
<pdfrwt beam="1">  1        2 0.42950750E+00 0.78779596E+03</pdfrwt>
<pdfrwt beam="2">  1       -2 0.27006874E-01 0.78779596E+03</pdfrwt>
<totfact> 0.30440789E+01</totfact>
</mgrwt>
</event>
<event>
 4    5  0.8511149E-008  0.1181243E+04  0.7818608E-02  0.9175575E-01
          2   -1    0    0  501    0  0.00000000000E+00  0.00000000000E+00  0.14350092028E+04  0.14350092028E+04  0.25500000000E-02 0. -1.
         -2   -1    0    0    0  501 -0.00000000000E+00 -0.00000000000E+00 -0.93886271388E+03  0.93886271389E+03  0.25500000000E-02 0.  1.
    8880023    1    1    2    0    0  0.95450282324E+03 -0.22460867692E+03 -0.14836575639E+03  0.11905239608E+04  0.65864270000E+03 0.  0.
    8880022    1    1    2    0    0 -0.95450282324E+03  0.22460867692E+03  0.64451224530E+03  0.11833479559E+04  0.15294330000E+03 0.  0.
<mgrwt>
<rscale>  0 0.11309134E+04</rscale>
<asrwt>0</asrwt>
<pdfrwt beam="1">  1        2 0.22077065E+00 0.11812429E+04</pdfrwt>
<pdfrwt beam="2">  1       -2 0.14444042E+00 0.11812429E+04</pdfrwt>
<totfact> 0.44567986E+00</totfact>
</mgrwt>
</event>
<event>
 4    5  0.8511149E-008  0.1216172E+04  0.7818608E-02  0.9141560E-01
         -2   -1    0    0    0  501 -0.00000000000E+00  0.00000000000E+00  0.12081976809E+04  0.12081976809E+04  0.25500000000E-02 0.  1.
          2   -1    0    0  501    0  0.00000000000E+00 -0.00000000000E+00 -0.20036967558E+04  0.20036967558E+04  0.25500000000E-02 0. -1.
    8880023    1    1    2    0    0  0.68360090430E+03 -0.76023245422E+03  0.69290637706E+03  0.13997117683E+04  0.65864270000E+03 0.  0.
    8880022    1    1    2    0    0 -0.68360090430E+03  0.76023245422E+03 -0.14884054520E+04  0.18121826683E+04  0.15294330000E+03 0.  0.
<mgrwt>
<rscale>  0 0.11677527E+04</rscale>
<asrwt>0</asrwt>
<pdfrwt beam="1">  1        2 0.30826104E+00 0.12161718E+04</pdfrwt>
<pdfrwt beam="2">  1       -2 0.18587657E+00 0.12161718E+04</pdfrwt>
<totfact> 0.10656263E+00</totfact>
</mgrwt>
</event>
<event>
 4    5  0.8511149E-008  0.6588640E+03  0.7818608E-02  0.1025352E+00
         -2   -1    0    0    0  501 -0.00000000000E+00  0.00000000000E+00  0.18933228637E+03  0.18933228638E+03  0.25500000000E-02 0.  1.
          2   -1    0    0  501    0  0.00000000000E+00 -0.00000000000E+00 -0.22969324114E+04  0.22969324114E+04  0.25500000000E-02 0. -1.
    8880023    1    1    2    0    0  0.63087920780E+01 -0.15865683355E+02 -0.39798311347E+03  0.76973520488E+03  0.65864270000E+03 0.  1.
    8880022    1    1    2    0    0 -0.63087920780E+01  0.15865683355E+02 -0.17096170116E+04  0.17165294929E+04  0.15294330000E+03 0.  0.
<mgrwt>
<rscale>  0 0.45803831E+03</rscale>
<asrwt>0</asrwt>
<pdfrwt beam="1">  1        2 0.35337420E+00 0.65886397E+03</pdfrwt>
<pdfrwt beam="2">  1       -2 0.29128046E-01 0.65886397E+03</pdfrwt>
<totfact> 0.51700735E+01</totfact>
</mgrwt>
</event>
<event>
 4    5  0.8511149E-008  0.1090391E+04  0.7818608E-02  0.9271830E-01
          2   -1    0    0  501    0  0.00000000000E+00  0.00000000000E+00  0.15026747616E+04  0.15026747616E+04  0.25500000000E-02 0. -1.
         -2   -1    0    0    0  501 -0.00000000000E+00 -0.00000000000E+00 -0.67396036126E+03  0.67396036126E+03  0.25500000000E-02 0.  1.
    8880023    1    1    2    0    0 -0.81872297449E+03  0.29126509921E+03  0.24168972341E+03  0.11168557631E+04  0.65864270000E+03 0.  0.
    8880022    1    1    2    0    0  0.81872297449E+03 -0.29126509921E+03  0.58702467693E+03  0.10597793597E+04  0.15294330000E+03 0.  0.
<mgrwt>
<rscale>  0 0.10341808E+04</rscale>
<asrwt>0</asrwt>
<pdfrwt beam="1">  1        2 0.23118073E+00 0.10903912E+04</pdfrwt>
<pdfrwt beam="2">  1       -2 0.10368621E+00 0.10903912E+04</pdfrwt>
<totfact> 0.94550283E+00</totfact>
</mgrwt>
</event>
<event>
 4    5  0.8511149E-008  0.1227657E+04  0.7818608E-02  0.9130696E-01
          2   -1    0    0  501    0  0.00000000000E+00  0.00000000000E+00  0.30308963569E+04  0.30308963569E+04  0.25500000000E-02 0. -1.
         -2   -1    0    0    0  501 -0.00000000000E+00 -0.00000000000E+00 -0.90351769733E+03  0.90351769734E+03  0.25500000000E-02 0.  1.
    8880023    1    1    2    0    0  0.81051692894E+03 -0.64528555257E+03 -0.32316368431E+03  0.12694786763E+04  0.65864270000E+03 0.  1.
    8880022    1    1    2    0    0 -0.81051692894E+03  0.64528555257E+03  0.24505423438E+04  0.26649353779E+04  0.15294330000E+03 0.  0.
<mgrwt>
<rscale>  0 0.11798311E+04</rscale>
<asrwt>0</asrwt>
<pdfrwt beam="1">  1        2 0.46629175E+00 0.12276569E+04</pdfrwt>
<pdfrwt beam="2">  1       -2 0.13900272E+00 0.12276569E+04</pdfrwt>
<totfact> 0.59854119E-01</totfact>
</mgrwt>
</event>
<event>
 4    5  0.8511149E-008  0.8330745E+03  0.7818608E-02  0.9643380E-01
         -2   -1    0    0    0  501 -0.00000000000E+00  0.00000000000E+00  0.37779506922E+04  0.37779506922E+04  0.25500000000E-02 0.  1.
          2   -1    0    0  501    0  0.00000000000E+00 -0.00000000000E+00 -0.52648794935E+03  0.52648794936E+03  0.25500000000E-02 0. -1.
    8880023    1    1    2    0    0  0.49135892621E+03  0.13700137915E+03  0.35820414203E+04  0.36776397207E+04  0.65864270000E+03 0.  0.
    8880022    1    1    2    0    0 -0.49135892621E+03 -0.13700137915E+03 -0.33057867742E+03  0.62679892089E+03  0.15294330000E+03 0.  0.
<mgrwt>
<rscale>  0 0.74490372E+03</rscale>
<asrwt>0</asrwt>
<pdfrwt beam="1">  1        2 0.80998141E-01 0.83307453E+03</pdfrwt>
<pdfrwt beam="2">  1       -2 0.58122322E+00 0.83307453E+03</pdfrwt>
<totfact> 0.35581806E-02</totfact>
</mgrwt>
</event>
<event>
 4    5  0.8511149E-008  0.1563978E+04  0.7818608E-02  0.8865732E-01
         -2   -1    0    0    0  501 -0.00000000000E+00  0.00000000000E+00  0.20866403569E+04  0.20866403569E+04  0.25500000000E-02 0.  1.
          2   -1    0    0  501    0  0.00000000000E+00 -0.00000000000E+00 -0.19257832358E+04  0.19257832358E+04  0.25500000000E-02 0. -1.
    8880023    1    1    2    0    0 -0.14017121375E+04 -0.21776458177E+03  0.14178036418E+04  0.21109703225E+04  0.65864270000E+03 0.  0.
    8880022    1    1    2    0    0  0.14017121375E+04  0.21776458177E+03 -0.12569465208E+04  0.19014532702E+04  0.15294330000E+03 0.  0.
<mgrwt>
<rscale>  0 0.15284805E+04</rscale>
<asrwt>0</asrwt>
<pdfrwt beam="1">  1        2 0.29627434E+00 0.15639784E+04</pdfrwt>
<pdfrwt beam="2">  1       -2 0.32102159E+00 0.15639784E+04</pdfrwt>
<totfact> 0.16151760E-01</totfact>
</mgrwt>
</event>
<event>
 4    5  0.8511149E-008  0.8291996E+03  0.7818608E-02  0.9650892E-01
          2   -1    0    0  501    0  0.00000000000E+00  0.00000000000E+00  0.22843783271E+04  0.22843783271E+04  0.25500000000E-02 0. -1.
         -2   -1    0    0    0  501 -0.00000000000E+00 -0.00000000000E+00 -0.22760370414E+03  0.22760370415E+03  0.25500000000E-02 0.  1.
    8880023    1    1    2    0    0 -0.48370847429E+03 -0.14066952474E+03  0.81249338821E+03  0.11609123634E+04  0.65864270000E+03 0.  0.
    8880022    1    1    2    0    0  0.48370847429E+03  0.14066952474E+03  0.12442812347E+04  0.13510696679E+04  0.15294330000E+03 0.  0.
<mgrwt>
<rscale>  0 0.74017491E+03</rscale>
<asrwt>0</asrwt>
<pdfrwt beam="1">  1        2 0.35144281E+00 0.82919962E+03</pdfrwt>
<pdfrwt beam="2">  1       -2 0.35015956E-01 0.82919962E+03</pdfrwt>
<totfact> 0.36369420E+01</totfact>
</mgrwt>
</event>
<event>
 4    5  0.8511149E-008  0.1071260E+04  0.7818608E-02  0.9293751E-01
          2   -1    0    0  501    0  0.00000000000E+00  0.00000000000E+00  0.14571423704E+04  0.14571423704E+04  0.25500000000E-02 0. -1.
         -2   -1    0    0    0  501 -0.00000000000E+00 -0.00000000000E+00 -0.11473301505E+04  0.11473301505E+04  0.25500000000E-02 0.  1.
    8880023    1    1    2    0    0 -0.80297123711E+03 -0.26272415627E+03 -0.69946929363E+03  0.12793960641E+04  0.65864270000E+03 0.  1.
    8880022    1    1    2    0    0  0.80297123711E+03  0.26272415627E+03  0.10092815135E+04  0.13250764568E+04  0.15294330000E+03 0.  0.
<mgrwt>
<rscale>  0 0.10136023E+04</rscale>
<asrwt>0</asrwt>
<pdfrwt beam="1">  1        2 0.22417575E+00 0.10712595E+04</pdfrwt>
<pdfrwt beam="2">  1       -2 0.17651233E+00 0.10712595E+04</pdfrwt>
<totfact> 0.25329308E+00</totfact>
</mgrwt>
</event>
<event>
 4    5  0.8511149E-008  0.6588601E+03  0.7818608E-02  0.1025356E+00
          2   -1    0    0  501    0  0.00000000000E+00  0.00000000000E+00  0.12534273015E+04  0.12534273015E+04  0.25500000000E-02 0. -1.
         -2   -1    0    0    0  501 -0.00000000000E+00 -0.00000000000E+00 -0.22181753477E+03  0.22181753479E+03  0.25500000000E-02 0.  1.
    8880023    1    1    2    0    0 -0.38058832166E+01  0.16492090437E+02  0.29351739435E+03  0.72128298250E+03  0.65864270000E+03 0.  1.
    8880022    1    1    2    0    0  0.38058832166E+01 -0.16492090437E+02  0.73809237241E+03  0.75396185382E+03  0.15294330000E+03 0.  0.
<mgrwt>
<rscale>  0 0.45802411E+03</rscale>
<asrwt>0</asrwt>
<pdfrwt beam="1">  1        2 0.19283497E+00 0.65886014E+03</pdfrwt>
<pdfrwt beam="2">  1       -2 0.34125775E-01 0.65886014E+03</pdfrwt>
<totfact> 0.14451961E+02</totfact>
</mgrwt>
</event>
<event>
 4    5  0.8511149E-008  0.6628941E+03  0.7818608E-02  0.1021370E+00
          2   -1    0    0  501    0  0.00000000000E+00  0.00000000000E+00  0.10296433410E+04  0.10296433410E+04  0.25500000000E-02 0. -1.
         -2   -1    0    0    0  501 -0.00000000000E+00 -0.00000000000E+00 -0.40205840296E+03  0.40205840297E+03  0.25500000000E-02 0.  1.
    8880023    1    1    2    0    0  0.18593932107E+02  0.72612895939E+02 -0.11241068196E+03  0.67235759433E+03  0.65864270000E+03 0.  1.
    8880022    1    1    2    0    0 -0.18593932107E+02 -0.72612895939E+02  0.73999562003E+03  0.75934414968E+03  0.15294330000E+03 0.  0.
<mgrwt>
<rscale>  0 0.47195611E+03</rscale>
<asrwt>0</asrwt>
<pdfrwt beam="1">  1        2 0.15840666E+00 0.66289409E+03</pdfrwt>
<pdfrwt beam="2">  1       -2 0.61855140E-01 0.66289409E+03</pdfrwt>
<totfact> 0.59909970E+01</totfact>
</mgrwt>
</event>
<event>
 4    5  0.8511149E-008  0.1705367E+04  0.7818608E-02  0.8776773E-01
         -2   -1    0    0    0  501 -0.00000000000E+00  0.00000000000E+00  0.15853786454E+04  0.15853786454E+04  0.25500000000E-02 0.  1.
          2   -1    0    0  501    0  0.00000000000E+00 -0.00000000000E+00 -0.31021010173E+04  0.31021010173E+04  0.25500000000E-02 0. -1.
    8880023    1    1    2    0    0  0.10828885231E+04 -0.11409726571E+04  0.79945728392E+03  0.18834564801E+04  0.65864270000E+03 0.  0.
    8880022    1    1    2    0    0 -0.10828885231E+04  0.11409726571E+04 -0.23161796558E+04  0.28040231826E+04  0.15294330000E+03 0.  0.
<mgrwt>
<rscale>  0 0.16732443E+04</rscale>
<asrwt>0</asrwt>
<pdfrwt beam="1">  1        2 0.47724631E+00 0.17053669E+04</pdfrwt>
<pdfrwt beam="2">  1       -2 0.24390441E+00 0.17053669E+04</pdfrwt>
<totfact> 0.96447042E-02</totfact>
</mgrwt>
</event>
<event>
 4    5  0.8511149E-008  0.7579356E+03  0.7818608E-02  0.9810482E-01
         -2   -1    0    0    0  501 -0.00000000000E+00  0.00000000000E+00  0.12924222099E+04  0.12924222099E+04  0.25500000000E-02 0.  1.
          2   -1    0    0  501    0  0.00000000000E+00 -0.00000000000E+00 -0.57398636044E+03  0.57398636044E+03  0.25500000000E-02 0. -1.
    8880023    1    1    2    0    0 -0.24282021827E+03 -0.28582243294E+03  0.10827293891E+04  0.13216539857E+04  0.65864270000E+03 0.  1.
    8880022    1    1    2    0    0  0.24282021827E+03  0.28582243294E+03 -0.36429353959E+03  0.54475458472E+03  0.15294330000E+03 0.  0.
<mgrwt>
<rscale>  0 0.64803059E+03</rscale>
<asrwt>0</asrwt>
<pdfrwt beam="1">  1        2 0.88305595E-01 0.75793557E+03</pdfrwt>
<pdfrwt beam="2">  1       -2 0.19883418E+00 0.75793557E+03</pdfrwt>
<totfact> 0.72156764E+00</totfact>
</mgrwt>
</event>
<event>
 4    5  0.8511149E-008  0.8072361E+03  0.7818608E-02  0.9695363E-01
          2   -1    0    0  501    0  0.00000000000E+00  0.00000000000E+00  0.99458451563E+03  0.99458451564E+03  0.25500000000E-02 0. -1.
         -2   -1    0    0    0  501 -0.00000000000E+00 -0.00000000000E+00 -0.15083225764E+04  0.15083225764E+04  0.25500000000E-02 0.  1.
    8880023    1    1    2    0    0 -0.24993043057E+03 -0.39415054728E+03 -0.13267717139E+04  0.15530464453E+04  0.65864270000E+03 0.  0.
    8880022    1    1    2    0    0  0.24993043057E+03  0.39415054728E+03  0.81303365317E+03  0.94986064675E+03  0.15294330000E+03 0.  0.
<mgrwt>
<rscale>  0 0.71293540E+03</rscale>
<asrwt>0</asrwt>
<pdfrwt beam="1">  1        2 0.15301300E+00 0.80723607E+03</pdfrwt>
<pdfrwt beam="2">  1       -2 0.23204963E+00 0.80723607E+03</pdfrwt>
<totfact> 0.21517969E+00</totfact>
</mgrwt>
</event>
<event>
 4    5  0.8511149E-008  0.7769396E+03  0.7818608E-02  0.9763076E-01
          2   -1    0    0  501    0  0.00000000000E+00  0.00000000000E+00  0.27021149415E+04  0.27021149415E+04  0.25500000000E-02 0. -1.
         -2   -1    0    0    0  501 -0.00000000000E+00 -0.00000000000E+00 -0.33322621130E+03  0.33322621131E+03  0.25500000000E-02 0.  1.
    8880023    1    1    2    0    0 -0.38202775347E+03  0.15453071160E+03  0.17310218011E+03  0.79598964583E+03  0.65864270000E+03 0.  1.
    8880022    1    1    2    0    0  0.38202775347E+03 -0.15453071160E+03  0.21957865501E+04  0.22393515070E+04  0.15294330000E+03 0.  0.
<mgrwt>
<rscale>  0 0.67382326E+03</rscale>
<asrwt>0</asrwt>
<pdfrwt beam="1">  1        2 0.41571000E+00 0.77693961E+03</pdfrwt>
<pdfrwt beam="2">  1       -2 0.51265570E-01 0.77693961E+03</pdfrwt>
<totfact> 0.99916697E+00</totfact>
</mgrwt>
</event>
<event>
 4    5  0.8511149E-008  0.1456043E+04  0.7818608E-02  0.8941316E-01
         -2   -1    0    0    0  501 -0.00000000000E+00  0.00000000000E+00  0.10815177736E+04  0.10815177736E+04  0.25500000000E-02 0.  1.
          2   -1    0    0  501    0  0.00000000000E+00 -0.00000000000E+00 -0.30637797100E+04  0.30637797100E+04  0.25500000000E-02 0. -1.
    8880023    1    1    2    0    0 -0.11447301028E+04  0.61306165519E+03  0.32630886303E+03  0.14921592682E+04  0.65864270000E+03 0.  0.
    8880022    1    1    2    0    0  0.11447301028E+04 -0.61306165519E+03 -0.23085707994E+04  0.26531382154E+04  0.15294330000E+03 0.  0.
<mgrwt>
<rscale>  0 0.14174047E+04</rscale>
<asrwt>0</asrwt>
<pdfrwt beam="1">  1        2 0.47135072E+00 0.14560432E+04</pdfrwt>
<pdfrwt beam="2">  1       -2 0.16638735E+00 0.14560432E+04</pdfrwt>
<totfact> 0.34153588E-01</totfact>
</mgrwt>
</event>
<event>
 4    5  0.8511149E-008  0.1045956E+04  0.7818608E-02  0.9323759E-01
         -2   -1    0    0    0  501 -0.00000000000E+00  0.00000000000E+00  0.83676457064E+03  0.83676457065E+03  0.25500000000E-02 0.  1.
          2   -1    0    0  501    0  0.00000000000E+00 -0.00000000000E+00 -0.19109373399E+04  0.19109373399E+04  0.25500000000E-02 0. -1.
    8880023    1    1    2    0    0  0.18605707504E+02  0.81232214184E+03  0.34827650606E+03  0.11024156047E+04  0.65864270000E+03 0.  0.
    8880022    1    1    2    0    0 -0.18605707504E+02 -0.81232214184E+03 -0.14224492754E+04  0.16452863059E+04  0.15294330000E+03 0.  0.
<mgrwt>
<rscale>  0 0.98624696E+03</rscale>
<asrwt>0</asrwt>
<pdfrwt beam="1">  1        2 0.29399036E+00 0.10459559E+04</pdfrwt>
<pdfrwt beam="2">  1       -2 0.12873301E+00 0.10459559E+04</pdfrwt>
<totfact> 0.33061437E+00</totfact>
</mgrwt>
</event>
<event>
 4    5  0.8511149E-008  0.1073833E+04  0.7818608E-02  0.9290765E-01
         -2   -1    0    0    0  501 -0.00000000000E+00  0.00000000000E+00  0.43593821731E+03  0.43593821732E+03  0.25500000000E-02 0.  1.
          2   -1    0    0  501    0  0.00000000000E+00 -0.00000000000E+00 -0.21488592924E+04  0.21488592924E+04  0.25500000000E-02 0. -1.
    8880023    1    1    2    0    0  0.27160409914E+03 -0.80345394353E+03 -0.96363825876E+03  0.14428152779E+04  0.65864270000E+03 0.  1.
    8880022    1    1    2    0    0 -0.27160409914E+03  0.80345394353E+03 -0.74928281638E+03  0.11419822319E+04  0.15294330000E+03 0. -1.
<mgrwt>
<rscale>  0 0.10163754E+04</rscale>
<asrwt>0</asrwt>
<pdfrwt beam="1">  1        2 0.33059373E+00 0.10738330E+04</pdfrwt>
<pdfrwt beam="2">  1       -2 0.67067419E-01 0.10738330E+04</pdfrwt>
<totfact> 0.11225505E+01</totfact>
</mgrwt>
</event>
<event>
 4    5  0.8511149E-008  0.6933372E+03  0.7818608E-02  0.1002605E+00
         -2   -1    0    0    0  501 -0.00000000000E+00  0.00000000000E+00  0.36175212438E+03  0.36175212439E+03  0.25500000000E-02 0.  1.
          2   -1    0    0  501    0  0.00000000000E+00 -0.00000000000E+00 -0.11724914738E+04  0.11724914738E+04  0.25500000000E-02 0. -1.
    8880023    1    1    2    0    0 -0.77006780888E+02  0.20242577839E+03 -0.12851239844E+02  0.69345627165E+03  0.65864270000E+03 0.  0.
    8880022    1    1    2    0    0  0.77006780888E+02 -0.20242577839E+03 -0.79788810958E+03  0.84078732654E+03  0.15294330000E+03 0.  0.
<mgrwt>
<rscale>  0 0.54522550E+03</rscale>
<asrwt>0</asrwt>
<pdfrwt beam="1">  1        2 0.18038330E+00 0.69333718E+03</pdfrwt>
<pdfrwt beam="2">  1       -2 0.55654173E-01 0.69333718E+03</pdfrwt>
<totfact> 0.61008413E+01</totfact>
</mgrwt>
</event>
<event>
 4    5  0.8511149E-008  0.1022023E+04  0.7818608E-02  0.9353295E-01
         -2   -1    0    0    0  501 -0.00000000000E+00  0.00000000000E+00  0.24278042528E+04  0.24278042528E+04  0.25500000000E-02 0.  1.
          2   -1    0    0  501    0  0.00000000000E+00 -0.00000000000E+00 -0.94024280646E+03  0.94024280646E+03  0.25500000000E-02 0. -1.
    8880023    1    1    2    0    0  0.76732660638E+03  0.14809014869E+03  0.21184568581E+04  0.23521034158E+04  0.65864270000E+03 0.  0.
    8880022    1    1    2    0    0 -0.76732660638E+03 -0.14809014869E+03 -0.63089541176E+03  0.10159436434E+04  0.15294330000E+03 0.  0.
<mgrwt>
<rscale>  0 0.96021014E+03</rscale>
<asrwt>0</asrwt>
<pdfrwt beam="1">  1        2 0.14465274E+00 0.10220230E+04</pdfrwt>
<pdfrwt beam="2">  1       -2 0.37350835E+00 0.10220230E+04</pdfrwt>
<totfact> 0.30708998E-01</totfact>
</mgrwt>
</event>
<event>
 4    5  0.8511149E-008  0.9192199E+03  0.7818608E-02  0.9495856E-01
         -2   -1    0    0    0  501 -0.00000000000E+00  0.00000000000E+00  0.13286991923E+04  0.13286991924E+04  0.25500000000E-02 0.  1.
          2   -1    0    0  501    0  0.00000000000E+00 -0.00000000000E+00 -0.17557450677E+04  0.17557450677E+04  0.25500000000E-02 0. -1.
    8880023    1    1    2    0    0 -0.54243152740E+03 -0.34194018097E+03  0.10926811460E+04  0.14279066294E+04  0.65864270000E+03 0.  0.
    8880022    1    1    2    0    0  0.54243152740E+03  0.34194018097E+03 -0.15197270214E+04  0.16565376306E+04  0.15294330000E+03 0.  0.
<mgrwt>
<rscale>  0 0.84590020E+03</rscale>
<asrwt>0</asrwt>
<pdfrwt beam="1">  1        2 0.27011463E+00 0.91921992E+03</pdfrwt>
<pdfrwt beam="2">  1       -2 0.20441526E+00 0.91921992E+03</pdfrwt>
<totfact> 0.11457101E+00</totfact>
</mgrwt>
</event>
<event>
 4    5  0.8511149E-008  0.1184717E+04  0.7818608E-02  0.9172123E-01
         -2   -1    0    0    0  501 -0.00000000000E+00  0.00000000000E+00  0.13036885675E+04  0.13036885675E+04  0.25500000000E-02 0.  1.
          2   -1    0    0  501    0  0.00000000000E+00 -0.00000000000E+00 -0.22300253808E+04  0.22300253808E+04  0.25500000000E-02 0. -1.
    8880023    1    1    2    0    0  0.19258875053E+03  0.96573998299E+03  0.87654627654E+03  0.14737325818E+04  0.65864270000E+03 0.  1.
    8880022    1    1    2    0    0 -0.19258875053E+03 -0.96573998299E+03 -0.18028830898E+04  0.20599813665E+04  0.15294330000E+03 0.  0.
<mgrwt>
<rscale>  0 0.11345850E+04</rscale>
<asrwt>0</asrwt>
<pdfrwt beam="1">  1        2 0.34308083E+00 0.11847170E+04</pdfrwt>
<pdfrwt beam="2">  1       -2 0.20056747E+00 0.11847170E+04</pdfrwt>
<totfact> 0.63856269E-01</totfact>
</mgrwt>
</event>
<event>
 4    5  0.8511149E-008  0.6732242E+03  0.7818608E-02  0.1013450E+00
          2   -1    0    0  501    0  0.00000000000E+00  0.00000000000E+00  0.78645655583E+03  0.78645655584E+03  0.25500000000E-02 0. -1.
         -2   -1    0    0    0  501 -0.00000000000E+00 -0.00000000000E+00 -0.51584167212E+03  0.51584167213E+03  0.25500000000E-02 0.  1.
    8880023    1    1    2    0    0 -0.49611533950E+01 -0.13926932626E+03 -0.26853765579E+03  0.72480565472E+03  0.65864270000E+03 0.  1.
    8880022    1    1    2    0    0  0.49611533950E+01  0.13926932626E+03  0.53915253950E+03  0.57749257324E+03  0.15294330000E+03 0.  0.
<mgrwt>
<rscale>  0 0.50126309E+03</rscale>
<asrwt>0</asrwt>
<pdfrwt beam="1">  1        2 0.12099332E+00 0.67322416E+03</pdfrwt>
<pdfrwt beam="2">  1       -2 0.79360257E-01 0.67322416E+03</pdfrwt>
<totfact> 0.50586909E+01</totfact>
</mgrwt>
</event>
<event>
 4    5  0.8511149E-008  0.8329822E+03  0.7818608E-02  0.9643558E-01
          2   -1    0    0  501    0  0.00000000000E+00  0.00000000000E+00  0.23492602328E+04  0.23492602328E+04  0.25500000000E-02 0. -1.
         -2   -1    0    0    0  501 -0.00000000000E+00 -0.00000000000E+00 -0.20778275085E+03  0.20778275087E+03  0.25500000000E-02 0.  1.
    8880023    1    1    2    0    0  0.50930265466E+03 -0.25687779714E+02  0.15613228728E+04  0.17696294458E+04  0.65864270000E+03 0.  1.
    8880022    1    1    2    0    0 -0.50930265466E+03  0.25687779714E+02  0.58015460913E+03  0.78741353785E+03  0.15294330000E+03 0. -1.
<mgrwt>
<rscale>  0 0.74479122E+03</rscale>
<asrwt>0</asrwt>
<pdfrwt beam="1">  1        2 0.36142466E+00 0.83298215E+03</pdfrwt>
<pdfrwt beam="2">  1       -2 0.31966576E-01 0.83298215E+03</pdfrwt>
<totfact> 0.39740026E+01</totfact>
</mgrwt>
</event>
<event>
 4    5  0.8511149E-008  0.7006961E+03  0.7818608E-02  0.9994326E-01
          2   -1    0    0  501    0  0.00000000000E+00  0.00000000000E+00  0.20398005205E+04  0.20398005205E+04  0.25500000000E-02 0. -1.
         -2   -1    0    0    0  501 -0.00000000000E+00 -0.00000000000E+00 -0.99323390353E+03  0.99323390354E+03  0.25500000000E-02 0.  1.
    8880023    1    1    2    0    0  0.51214126291E+02  0.23354210594E+03 -0.85781437330E+03  0.11076192971E+04  0.65864270000E+03 0.  0.
    8880022    1    1    2    0    0 -0.51214126291E+02 -0.23354210594E+03  0.19043809903E+04  0.19254151270E+04  0.15294330000E+03 0. -1.
<mgrwt>
<rscale>  0 0.55899743E+03</rscale>
<asrwt>0</asrwt>
<pdfrwt beam="1">  1        2 0.31381546E+00 0.70069609E+03</pdfrwt>
<pdfrwt beam="2">  1       -2 0.15280522E+00 0.70069609E+03</pdfrwt>
<totfact> 0.18998386E+00</totfact>
</mgrwt>
</event>
<event>
 4    5  0.8511149E-008  0.1059731E+04  0.7818608E-02  0.9307274E-01
         -2   -1    0    0    0  501 -0.00000000000E+00  0.00000000000E+00  0.10077778045E+04  0.10077778045E+04  0.25500000000E-02 0.  1.
          2   -1    0    0  501    0  0.00000000000E+00 -0.00000000000E+00 -0.20886772023E+04  0.20886772023E+04  0.25500000000E-02 0. -1.
    8880023    1    1    2    0    0 -0.79986809816E+03 -0.22232956325E+03  0.59833427764E+03  0.12169772074E+04  0.65864270000E+03 0.  1.
    8880022    1    1    2    0    0  0.79986809816E+03  0.22232956325E+03 -0.16792336754E+04  0.18794777994E+04  0.15294330000E+03 0.  0.
<mgrwt>
<rscale>  0 0.10011595E+04</rscale>
<asrwt>0</asrwt>
<pdfrwt beam="1">  1        2 0.32133495E+00 0.10597309E+04</pdfrwt>
<pdfrwt beam="2">  1       -2 0.15504274E+00 0.10597309E+04</pdfrwt>
<totfact> 0.16202432E+00</totfact>
</mgrwt>
</event>
<event>
 4    5  0.8511149E-008  0.9952663E+03  0.7818608E-02  0.9387777E-01
          2   -1    0    0  501    0  0.00000000000E+00  0.00000000000E+00  0.44870122764E+04  0.44870122764E+04  0.25500000000E-02 0. -1.
         -2   -1    0    0    0  501 -0.00000000000E+00 -0.00000000000E+00 -0.41538545096E+03  0.41538545097E+03  0.25500000000E-02 0.  1.
    8880023    1    1    2    0    0  0.74459714657E+03 -0.48164840250E+02  0.27841985244E+03  0.10334759712E+04  0.65864270000E+03 0.  1.
    8880022    1    1    2    0    0 -0.74459714657E+03  0.48164840250E+02  0.37932069730E+04  0.38689217562E+04  0.15294330000E+03 0.  0.
<mgrwt>
<rscale>  0 0.93088436E+03</rscale>
<asrwt>0</asrwt>
<pdfrwt beam="1">  1        2 0.69030960E+00 0.99526628E+03</pdfrwt>
<pdfrwt beam="2">  1       -2 0.63905452E-01 0.99526628E+03</pdfrwt>
<totfact> 0.30880931E-01</totfact>
</mgrwt>
</event>
<event>
 4    5  0.8511149E-008  0.1220583E+04  0.7818608E-02  0.9137369E-01
         -2   -1    0    0    0  501 -0.00000000000E+00  0.00000000000E+00  0.61233319955E+03  0.61233319955E+03  0.25500000000E-02 0.  1.
          2   -1    0    0  501    0  0.00000000000E+00 -0.00000000000E+00 -0.34201929815E+04  0.34201929815E+04  0.25500000000E-02 0. -1.
    8880023    1    1    2    0    0  0.98327625658E+03  0.29863238947E+03 -0.21514935092E+03  0.12394002381E+04  0.65864270000E+03 0.  1.
    8880022    1    1    2    0    0 -0.98327625658E+03 -0.29863238947E+03 -0.25927104310E+04  0.27931259429E+04  0.15294330000E+03 0.  0.
<mgrwt>
<rscale>  0 0.11723941E+04</rscale>
<asrwt>0</asrwt>
<pdfrwt beam="1">  1        2 0.52618352E+00 0.12205833E+04</pdfrwt>
<pdfrwt beam="2">  1       -2 0.94205110E-01 0.12205833E+04</pdfrwt>
<totfact> 0.87480153E-01</totfact>
</mgrwt>
</event>
<event>
 4    5  0.8511149E-008  0.1511192E+04  0.7818608E-02  0.8901773E-01
          2   -1    0    0  501    0  0.00000000000E+00  0.00000000000E+00  0.23798347574E+04  0.23798347574E+04  0.25500000000E-02 0. -1.
         -2   -1    0    0    0  501 -0.00000000000E+00 -0.00000000000E+00 -0.19813540206E+04  0.19813540206E+04  0.25500000000E-02 0.  1.
    8880023    1    1    2    0    0 -0.41741286758E+03  0.12944719298E+04 -0.14277589350E+04  0.20789893847E+04  0.65864270000E+03 0.  0.
    8880022    1    1    2    0    0  0.41741286758E+03 -0.12944719298E+04  0.18262396717E+04  0.22821993933E+04  0.15294330000E+03 0.  0.
<mgrwt>
<rscale>  0 0.14742297E+04</rscale>
<asrwt>0</asrwt>
<pdfrwt beam="1">  1        2 0.36612842E+00 0.15111920E+04</pdfrwt>
<pdfrwt beam="2">  1       -2 0.30482370E+00 0.15111920E+04</pdfrwt>
<totfact> 0.11354260E-01</totfact>
</mgrwt>
</event>
<event>
 4    5  0.8511149E-008  0.1688481E+04  0.7818608E-02  0.8786870E-01
         -2   -1    0    0    0  501 -0.00000000000E+00  0.00000000000E+00  0.10111899402E+04  0.10111899402E+04  0.25500000000E-02 0.  1.
          2   -1    0    0  501    0  0.00000000000E+00 -0.00000000000E+00 -0.28150833744E+04  0.28150833744E+04  0.25500000000E-02 0. -1.
    8880023    1    1    2    0    0 -0.12037727262E+04  0.98391562592E+03 -0.42164929346E+03  0.17403324591E+04  0.65864270000E+03 0.  0.
    8880022    1    1    2    0    0  0.12037727262E+04 -0.98391562592E+03 -0.13822441407E+04  0.20859408555E+04  0.15294330000E+03 0.  0.
<mgrwt>
<rscale>  0 0.16559917E+04</rscale>
<asrwt>0</asrwt>
<pdfrwt beam="1">  1        2 0.43308975E+00 0.16884813E+04</pdfrwt>
<pdfrwt beam="2">  1       -2 0.15556768E+00 0.16884813E+04</pdfrwt>
<totfact> 0.57083078E-01</totfact>
</mgrwt>
</event>
<event>
 4    5  0.8511149E-008  0.7978424E+03  0.7818608E-02  0.9715481E-01
          2   -1    0    0  501    0  0.00000000000E+00  0.00000000000E+00  0.29856816455E+04  0.29856816455E+04  0.25500000000E-02 0. -1.
         -2   -1    0    0    0  501 -0.00000000000E+00 -0.00000000000E+00 -0.35059631019E+03  0.35059631020E+03  0.25500000000E-02 0.  1.
    8880023    1    1    2    0    0  0.44938724255E+03  0.28168018161E+02  0.15720871642E+03  0.81318332361E+03  0.65864270000E+03 0.  1.
    8880022    1    1    2    0    0 -0.44938724255E+03 -0.28168018161E+02  0.24778766189E+04  0.25230946321E+04  0.15294330000E+03 0.  0.
<mgrwt>
<rscale>  0 0.70102511E+03</rscale>
<asrwt>0</asrwt>
<pdfrwt beam="1">  1        2 0.45933562E+00 0.79784243E+03</pdfrwt>
<pdfrwt beam="2">  1       -2 0.53937896E-01 0.79784243E+03</pdfrwt>
<totfact> 0.60748763E+00</totfact>
</mgrwt>
</event>
<event>
 4    5  0.8511149E-008  0.1157292E+04  0.7818608E-02  0.9199799E-01
         -2   -1    0    0    0  501 -0.00000000000E+00  0.00000000000E+00  0.26841842870E+04  0.26841842870E+04  0.25500000000E-02 0.  1.
          2   -1    0    0  501    0  0.00000000000E+00 -0.00000000000E+00 -0.23791931350E+04  0.23791931350E+04  0.25500000000E-02 0. -1.
    8880023    1    1    2    0    0 -0.84695886744E+03  0.43379162512E+03 -0.21413245720E+04  0.24340492242E+04  0.65864270000E+03 0. -1.
    8880022    1    1    2    0    0  0.84695886744E+03 -0.43379162512E+03  0.24463157240E+04  0.26293281978E+04  0.15294330000E+03 0.  0.
<mgrwt>
<rscale>  0 0.11055508E+04</rscale>
<asrwt>0</asrwt>
<pdfrwt beam="1">  1        2 0.36602971E+00 0.11572920E+04</pdfrwt>
<pdfrwt beam="2">  1       -2 0.41295143E+00 0.11572920E+04</pdfrwt>
<totfact> 0.24845373E-02</totfact>
</mgrwt>
</event>
<event>
 4    5  0.8511149E-008  0.8169851E+03  0.7818608E-02  0.9675207E-01
         -2   -1    0    0    0  501 -0.00000000000E+00  0.00000000000E+00  0.58071178655E+03  0.58071178655E+03  0.25500000000E-02 0.  1.
          2   -1    0    0  501    0  0.00000000000E+00 -0.00000000000E+00 -0.12386609423E+04  0.12386609423E+04  0.25500000000E-02 0. -1.
    8880023    1    1    2    0    0 -0.21910099750E+03 -0.43087037646E+03 -0.93497368330E+03  0.12416281743E+04  0.65864270000E+03 0. -1.
    8880022    1    1    2    0    0  0.21910099750E+03  0.43087037646E+03  0.27702452758E+03  0.57774455455E+03  0.15294330000E+03 0.  0.
<mgrwt>
<rscale>  0 0.72512356E+03</rscale>
<asrwt>0</asrwt>
<pdfrwt beam="1">  1        2 0.19056322E+00 0.81698515E+03</pdfrwt>
<pdfrwt beam="2">  1       -2 0.89340275E-01 0.81698515E+03</pdfrwt>
<totfact> 0.19546071E+01</totfact>
</mgrwt>
</event>
<event>
 4    5  0.8511149E-008  0.7988727E+03  0.7818608E-02  0.9713239E-01
          2   -1    0    0  501    0  0.00000000000E+00  0.00000000000E+00  0.13153055297E+04  0.13153055297E+04  0.25500000000E-02 0. -1.
         -2   -1    0    0    0  501 -0.00000000000E+00 -0.00000000000E+00 -0.42936094454E+03  0.42936094455E+03  0.25500000000E-02 0.  1.
    8880023    1    1    2    0    0 -0.68274880167E+02  0.44690705862E+03  0.73286793804E+02  0.80222723633E+03  0.65864270000E+03 0.  1.
    8880022    1    1    2    0    0  0.68274880167E+02 -0.44690705862E+03  0.81265779136E+03  0.94243923792E+03  0.15294330000E+03 0.  0.
<mgrwt>
<rscale>  0 0.70234000E+03</rscale>
<asrwt>0</asrwt>
<pdfrwt beam="1">  1        2 0.20235469E+00 0.79887270E+03</pdfrwt>
<pdfrwt beam="2">  1       -2 0.66055531E-01 0.79887270E+03</pdfrwt>
<totfact> 0.34662120E+01</totfact>
</mgrwt>
</event>
<event>
 4    5  0.8511149E-008  0.1409787E+04  0.7818608E-02  0.8976115E-01
          2   -1    0    0  501    0  0.00000000000E+00  0.00000000000E+00  0.18949152083E+04  0.18949152083E+04  0.25500000000E-02 0. -1.
         -2   -1    0    0    0  501 -0.00000000000E+00 -0.00000000000E+00 -0.95634365618E+03  0.95634365618E+03  0.25500000000E-02 0.  1.
    8880023    1    1    2    0    0  0.65055109714E+02  0.12447717610E+04  0.69597970350E+03  0.15722235396E+04  0.65864270000E+03 0.  1.
    8880022    1    1    2    0    0 -0.65055109714E+02 -0.12447717610E+04  0.24259184861E+03  0.12790353249E+04  0.15294330000E+03 0.  0.
<mgrwt>
<rscale>  0 0.13696097E+04</rscale>
<asrwt>0</asrwt>
<pdfrwt beam="1">  1        2 0.29152541E+00 0.14097869E+04</pdfrwt>
<pdfrwt beam="2">  1       -2 0.14712980E+00 0.14097869E+04</pdfrwt>
<totfact> 0.22967199E+00</totfact>
</mgrwt>
</event>
<event>
 4    5  0.8511149E-008  0.7635521E+03  0.7818608E-02  0.9795997E-01
          2   -1    0    0  501    0  0.00000000000E+00  0.00000000000E+00  0.11777464864E+04  0.11777464864E+04  0.25500000000E-02 0. -1.
         -2   -1    0    0    0  501 -0.00000000000E+00 -0.00000000000E+00 -0.18164439118E+04  0.18164439118E+04  0.25500000000E-02 0.  1.
    8880023    1    1    2    0    0 -0.36665300136E+03  0.12152050548E+03 -0.16950462937E+04  0.18590841295E+04  0.65864270000E+03 0.  1.
    8880022    1    1    2    0    0  0.36665300136E+03 -0.12152050548E+03  0.10563488683E+04  0.11351062687E+04  0.15294330000E+03 0.  0.
<mgrwt>
<rscale>  0 0.65577826E+03</rscale>
<asrwt>0</asrwt>
<pdfrwt beam="1">  1        2 0.18119177E+00 0.76355214E+03</pdfrwt>
<pdfrwt beam="2">  1       -2 0.27945291E+00 0.76355214E+03</pdfrwt>
<totfact> 0.86289851E-01</totfact>
</mgrwt>
</event>
<event>
 4    5  0.8511149E-008  0.8238978E+03  0.7818608E-02  0.9661324E-01
          2   -1    0    0  501    0  0.00000000000E+00  0.00000000000E+00  0.20115227810E+04  0.20115227810E+04  0.25500000000E-02 0. -1.
         -2   -1    0    0    0  501 -0.00000000000E+00 -0.00000000000E+00 -0.87541753247E+03  0.87541753247E+03  0.25500000000E-02 0.  1.
    8880023    1    1    2    0    0  0.39569866584E+03  0.29735503317E+03 -0.63589978594E+03  0.10407575097E+04  0.65864270000E+03 0.  1.
    8880022    1    1    2    0    0 -0.39569866584E+03 -0.29735503317E+03  0.17720050345E+04  0.18461828038E+04  0.15294330000E+03 0.  0.
<mgrwt>
<rscale>  0 0.73366979E+03</rscale>
<asrwt>0</asrwt>
<pdfrwt beam="1">  1        2 0.30946504E+00 0.82389784E+03</pdfrwt>
<pdfrwt beam="2">  1       -2 0.13467962E+00 0.82389784E+03</pdfrwt>
<totfact> 0.26767391E+00</totfact>
</mgrwt>
</event>
<event>
 4    5  0.8511149E-008  0.9712892E+03  0.7818608E-02  0.9420123E-01
          2   -1    0    0  501    0  0.00000000000E+00  0.00000000000E+00  0.18091652677E+04  0.18091652677E+04  0.25500000000E-02 0. -1.
         -2   -1    0    0    0  501 -0.00000000000E+00 -0.00000000000E+00 -0.10559917332E+04  0.10559917332E+04  0.25500000000E-02 0.  1.
    8880023    1    1    2    0    0 -0.62702866989E+03 -0.34121486834E+03 -0.72800341944E+03  0.12138334829E+04  0.65864270000E+03 0.  1.
    8880022    1    1    2    0    0  0.62702866989E+03  0.34121486834E+03  0.14811769539E+04  0.16513235180E+04  0.15294330000E+03 0.  0.
<mgrwt>
<rscale>  0 0.90437952E+03</rscale>
<asrwt>0</asrwt>
<pdfrwt beam="1">  1        2 0.27833312E+00 0.97128922E+03</pdfrwt>
<pdfrwt beam="2">  1       -2 0.16246027E+00 0.97128922E+03</pdfrwt>
<totfact> 0.20587154E+00</totfact>
</mgrwt>
</event>
<event>
 4    5  0.8511149E-008  0.6744856E+03  0.7818608E-02  0.1012632E+00
          2   -1    0    0  501    0  0.00000000000E+00  0.00000000000E+00  0.13677285344E+04  0.13677285344E+04  0.25500000000E-02 0. -1.
         -2   -1    0    0    0  501 -0.00000000000E+00 -0.00000000000E+00 -0.61143533487E+03  0.61143533488E+03  0.25500000000E-02 0.  1.
    8880023    1    1    2    0    0  0.13266294131E+03  0.59339300346E+02 -0.41306892214E+03  0.79092145581E+03  0.65864270000E+03 0.  1.
    8880022    1    1    2    0    0 -0.13266294131E+03 -0.59339300346E+02  0.11693621217E+04  0.11882424135E+04  0.15294330000E+03 0.  0.
<mgrwt>
<rscale>  0 0.50441671E+03</rscale>
<asrwt>0</asrwt>
<pdfrwt beam="1">  1        2 0.21041977E+00 0.67448559E+03</pdfrwt>
<pdfrwt beam="2">  1       -2 0.94066976E-01 0.67448559E+03</pdfrwt>
<totfact> 0.14866254E+01</totfact>
</mgrwt>
</event>
<event>
 4    5  0.8511149E-008  0.9656253E+03  0.7818608E-02  0.9427980E-01
         -2   -1    0    0    0  501 -0.00000000000E+00  0.00000000000E+00  0.92099395015E+03  0.92099395015E+03  0.25500000000E-02 0.  1.
          2   -1    0    0  501    0  0.00000000000E+00 -0.00000000000E+00 -0.13999821739E+04  0.13999821739E+04  0.25500000000E-02 0. -1.
    8880023    1    1    2    0    0  0.19885003986E+03 -0.67755489105E+03  0.51325563963E+03  0.10935554520E+04  0.65864270000E+03 0.  1.
    8880022    1    1    2    0    0 -0.19885003986E+03  0.67755489105E+03 -0.99224386339E+03  0.12274206721E+04  0.15294330000E+03 0.  0.
<mgrwt>
<rscale>  0 0.89808346E+03</rscale>
<asrwt>0</asrwt>
<pdfrwt beam="1">  1        2 0.21538187E+00 0.96562528E+03</pdfrwt>
<pdfrwt beam="2">  1       -2 0.14169138E+00 0.96562528E+03</pdfrwt>
<totfact> 0.50179264E+00</totfact>
</mgrwt>
</event>
<event>
 4    5  0.8511149E-008  0.8711355E+03  0.7818608E-02  0.9574054E-01
         -2   -1    0    0    0  501 -0.00000000000E+00  0.00000000000E+00  0.24958952709E+03  0.24958952710E+03  0.25500000000E-02 0.  1.
          2   -1    0    0  501    0  0.00000000000E+00 -0.00000000000E+00 -0.31448748533E+04  0.31448748533E+04  0.25500000000E-02 0. -1.
    8880023    1    1    2    0    0 -0.56464842336E+03 -0.78987390990E+02 -0.68928992322E+03  0.11108544704E+04  0.65864270000E+03 0.  1.
    8880022    1    1    2    0    0  0.56464842336E+03  0.78987390990E+02 -0.22059954030E+04  0.22836099100E+04  0.15294330000E+03 0.  0.
<mgrwt>
<rscale>  0 0.79037495E+03</rscale>
<asrwt>0</asrwt>
<pdfrwt beam="1">  1        2 0.48382687E+00 0.87113550E+03</pdfrwt>
<pdfrwt beam="2">  1       -2 0.38398391E-01 0.87113550E+03</pdfrwt>
<totfact> 0.94361306E+00</totfact>
</mgrwt>
</event>
<event>
 4    5  0.8511149E-008  0.1298741E+04  0.7818608E-02  0.9066647E-01
         -2   -1    0    0    0  501 -0.00000000000E+00  0.00000000000E+00  0.20276309953E+04  0.20276309953E+04  0.25500000000E-02 0.  1.
          2   -1    0    0  501    0  0.00000000000E+00 -0.00000000000E+00 -0.10236164315E+04  0.10236164315E+04  0.25500000000E-02 0. -1.
    8880023    1    1    2    0    0  0.97041046268E+03  0.55787336600E+03 -0.29281467972E+03  0.13313413542E+04  0.65864270000E+03 0.  0.
    8880022    1    1    2    0    0 -0.97041046268E+03 -0.55787336600E+03  0.12968292435E+04  0.17199060726E+04  0.15294330000E+03 0.  0.
<mgrwt>
<rscale>  0 0.12542571E+04</rscale>
<asrwt>0</asrwt>
<pdfrwt beam="1">  1        2 0.15747945E+00 0.12987415E+04</pdfrwt>
<pdfrwt beam="2">  1       -2 0.31194323E+00 0.12987415E+04</pdfrwt>
<totfact> 0.63204457E-01</totfact>
</mgrwt>
</event>
<event>
 4    5  0.8511149E-008  0.1400525E+04  0.7818608E-02  0.8983275E-01
         -2   -1    0    0    0  501 -0.00000000000E+00  0.00000000000E+00  0.16511999490E+04  0.16511999490E+04  0.25500000000E-02 0.  1.
          2   -1    0    0  501    0  0.00000000000E+00 -0.00000000000E+00 -0.14327134484E+04  0.14327134484E+04  0.25500000000E-02 0. -1.
    8880023    1    1    2    0    0 -0.11035188128E+04 -0.55669149368E+03 -0.67150147669E+03  0.15531849950E+04  0.65864270000E+03 0.  0.
    8880022    1    1    2    0    0  0.11035188128E+04  0.55669149368E+03  0.88998797724E+03  0.15307284024E+04  0.15294330000E+03 0.  0.
<mgrwt>
<rscale>  0 0.13600232E+04</rscale>
<asrwt>0</asrwt>
<pdfrwt beam="1">  1        2 0.22041746E+00 0.14005247E+04</pdfrwt>
<pdfrwt beam="2">  1       -2 0.25403076E+00 0.14005247E+04</pdfrwt>
<totfact> 0.79968137E-01</totfact>
</mgrwt>
</event>
<event>
 4    5  0.8511149E-008  0.1290893E+04  0.7818608E-02  0.9073465E-01
          2   -1    0    0  501    0  0.00000000000E+00  0.00000000000E+00  0.87258428977E+03  0.87258428978E+03  0.25500000000E-02 0. -1.
         -2   -1    0    0    0  501 -0.00000000000E+00 -0.00000000000E+00 -0.18514894008E+04  0.18514894009E+04  0.25500000000E-02 0.  1.
    8880023    1    1    2    0    0  0.10795061364E+04 -0.25934525577E+03 -0.95037659493E+03  0.16030032248E+04  0.65864270000E+03 0.  0.
    8880022    1    1    2    0    0 -0.10795061364E+04  0.25934525577E+03 -0.28528516141E+02  0.11210704659E+04  0.15294330000E+03 0.  0.
<mgrwt>
<rscale>  0 0.12460648E+04</rscale>
<asrwt>0</asrwt>
<pdfrwt beam="1">  1        2 0.13424374E+00 0.12908926E+04</pdfrwt>
<pdfrwt beam="2">  1       -2 0.28484452E+00 0.12908926E+04</pdfrwt>
<totfact> 0.11670405E+00</totfact>
</mgrwt>
</event>
<event>
 4    5  0.8511149E-008  0.7733722E+03  0.7818608E-02  0.9771643E-01
          2   -1    0    0  501    0  0.00000000000E+00  0.00000000000E+00  0.94867457512E+03  0.94867457512E+03  0.25500000000E-02 0. -1.
         -2   -1    0    0    0  501 -0.00000000000E+00 -0.00000000000E+00 -0.12228018843E+04  0.12228018843E+04  0.25500000000E-02 0.  1.
    8880023    1    1    2    0    0  0.72023579025E+02  0.39888213791E+03 -0.10373262684E+04  0.12938896202E+04  0.65864270000E+03 0.  1.
    8880022    1    1    2    0    0 -0.72023579025E+02 -0.39888213791E+03  0.76319895927E+03  0.87758683919E+03  0.15294330000E+03 0.  0.
<mgrwt>
<rscale>  0 0.66906823E+03</rscale>
<asrwt>0</asrwt>
<pdfrwt beam="1">  1        2 0.14594993E+00 0.77337220E+03</pdfrwt>
<pdfrwt beam="2">  1       -2 0.18812337E+00 0.77337220E+03</pdfrwt>
<totfact> 0.44216859E+00</totfact>
</mgrwt>
</event>
<event>
 4    5  0.8511149E-008  0.1165923E+04  0.7818608E-02  0.9190981E-01
         -2   -1    0    0    0  501 -0.00000000000E+00  0.00000000000E+00  0.94915663450E+03  0.94915663451E+03  0.25500000000E-02 0.  1.
          2   -1    0    0  501    0  0.00000000000E+00 -0.00000000000E+00 -0.18500899719E+04  0.18500899719E+04  0.25500000000E-02 0. -1.
    8880023    1    1    2    0    0 -0.87336864709E+03  0.40347634193E+03  0.34667774294E+03  0.12163723180E+04  0.65864270000E+03 0.  0.
    8880022    1    1    2    0    0  0.87336864709E+03 -0.40347634193E+03 -0.12476110803E+04  0.15828742884E+04  0.15294330000E+03 0.  0.
<mgrwt>
<rscale>  0 0.11147006E+04</rscale>
<asrwt>0</asrwt>
<pdfrwt beam="1">  1        2 0.28462923E+00 0.11659229E+04</pdfrwt>
<pdfrwt beam="2">  1       -2 0.14602410E+00 0.11659229E+04</pdfrwt>
<totfact> 0.25423687E+00</totfact>
</mgrwt>
</event>
<event>
 4    5  0.8511149E-008  0.7112797E+03  0.7818608E-02  0.9953279E-01
          2   -1    0    0  501    0  0.00000000000E+00  0.00000000000E+00  0.17685185594E+04  0.17685185594E+04  0.25500000000E-02 0. -1.
         -2   -1    0    0    0  501 -0.00000000000E+00 -0.00000000000E+00 -0.37801527910E+03  0.37801527911E+03  0.25500000000E-02 0.  1.
    8880023    1    1    2    0    0 -0.26689347483E+03  0.29605068964E+02 -0.10999528227E+02  0.71136473268E+03  0.65864270000E+03 0.  1.
    8880022    1    1    2    0    0  0.26689347483E+03 -0.29605068964E+02  0.14015028085E+04  0.14351691059E+04  0.15294330000E+03 0.  0.
<mgrwt>
<rscale>  0 0.57747191E+03</rscale>
<asrwt>0</asrwt>
<pdfrwt beam="1">  1        2 0.27207977E+00 0.71127969E+03</pdfrwt>
<pdfrwt beam="2">  1       -2 0.58156198E-01 0.71127969E+03</pdfrwt>
<totfact> 0.25687494E+01</totfact>
</mgrwt>
</event>
<event>
 4    5  0.8511149E-008  0.1225175E+04  0.7818608E-02  0.9133030E-01
         -2   -1    0    0    0  501 -0.00000000000E+00  0.00000000000E+00  0.18367423515E+04  0.18367423516E+04  0.25500000000E-02 0.  1.
          2   -1    0    0  501    0  0.00000000000E+00 -0.00000000000E+00 -0.15056922322E+04  0.15056922322E+04  0.25500000000E-02 0. -1.
    8880023    1    1    2    0    0  0.69640659465E+03  0.76306134886E+03  0.13915546773E+04  0.18540440646E+04  0.65864270000E+03 0.  1.
    8880022    1    1    2    0    0 -0.69640659465E+03 -0.76306134886E+03 -0.10605045579E+04  0.14883905192E+04  0.15294330000E+03 0.  0.
<mgrwt>
<rscale>  0 0.11772230E+04</rscale>
<asrwt>0</asrwt>
<pdfrwt beam="1">  1        2 0.23164496E+00 0.12251755E+04</pdfrwt>
<pdfrwt beam="2">  1       -2 0.28257575E+00 0.12251755E+04</pdfrwt>
<totfact> 0.49686196E-01</totfact>
</mgrwt>
</event>
<event>
 4    5  0.8511149E-008  0.1514298E+04  0.7818608E-02  0.8899605E-01
          2   -1    0    0  501    0  0.00000000000E+00  0.00000000000E+00  0.38316401548E+04  0.38316401548E+04  0.25500000000E-02 0. -1.
         -2   -1    0    0    0  501 -0.00000000000E+00 -0.00000000000E+00 -0.12163260849E+04  0.12163260849E+04  0.25500000000E-02 0.  1.
    8880023    1    1    2    0    0 -0.10753890762E+04 -0.83834683458E+03 -0.53962305266E+03  0.16075728057E+04  0.65864270000E+03 0.  1.
    8880022    1    1    2    0    0  0.10753890762E+04  0.83834683458E+03  0.31549371225E+04  0.34403934340E+04  0.15294330000E+03 0.  0.
<mgrwt>
<rscale>  0 0.14774250E+04</rscale>
<asrwt>0</asrwt>
<pdfrwt beam="1">  1        2 0.58948310E+00 0.15142976E+04</pdfrwt>
<pdfrwt beam="2">  1       -2 0.18712709E+00 0.15142976E+04</pdfrwt>
<totfact> 0.71659123E-02</totfact>
</mgrwt>
</event>
<event>
 4    5  0.8511149E-008  0.1702943E+04  0.7818608E-02  0.8778214E-01
          2   -1    0    0  501    0  0.00000000000E+00  0.00000000000E+00  0.42249782693E+04  0.42249782693E+04  0.25500000000E-02 0. -1.
         -2   -1    0    0    0  501 -0.00000000000E+00 -0.00000000000E+00 -0.85312752949E+03  0.85312752949E+03  0.25500000000E-02 0.  1.
    8880023    1    1    2    0    0 -0.14733340746E+04 -0.54359077791E+03  0.45635083837E+03  0.17630287925E+04  0.65864270000E+03 0.  0.
    8880022    1    1    2    0    0  0.14733340746E+04  0.54359077791E+03  0.29154999015E+04  0.33150770063E+04  0.15294330000E+03 0.  0.
<mgrwt>
<rscale>  0 0.16707681E+04</rscale>
<asrwt>0</asrwt>
<pdfrwt beam="1">  1        2 0.64999665E+00 0.17029429E+04</pdfrwt>
<pdfrwt beam="2">  1       -2 0.13125039E+00 0.17029429E+04</pdfrwt>
<totfact> 0.88357694E-02</totfact>
</mgrwt>
</event>
<event>
 4    5  0.8511149E-008  0.7115836E+03  0.7818608E-02  0.9952167E-01
         -2   -1    0    0    0  501 -0.00000000000E+00  0.00000000000E+00  0.35471733661E+03  0.35471733662E+03  0.25500000000E-02 0.  1.
          2   -1    0    0  501    0  0.00000000000E+00 -0.00000000000E+00 -0.18583604084E+04  0.18583604084E+04  0.25500000000E-02 0. -1.
    8880023    1    1    2    0    0 -0.26903562991E+03 -0.12680903515E+02 -0.35338100185E+02  0.71246049930E+03  0.65864270000E+03 0.  1.
    8880022    1    1    2    0    0  0.26903562991E+03  0.12680903515E+02 -0.14683049716E+04  0.15006172457E+04  0.15294330000E+03 0.  0.
<mgrwt>
<rscale>  0 0.57798322E+03</rscale>
<asrwt>0</asrwt>
<pdfrwt beam="1">  1        2 0.28590160E+00 0.71158357E+03</pdfrwt>
<pdfrwt beam="2">  1       -2 0.54571899E-01 0.71158357E+03</pdfrwt>
<totfact> 0.26203802E+01</totfact>
</mgrwt>
</event>
<event>
 4    5  0.8511149E-008  0.1375095E+04  0.7818608E-02  0.9003280E-01
         -2   -1    0    0    0  501 -0.00000000000E+00  0.00000000000E+00  0.19182715923E+04  0.19182715923E+04  0.25500000000E-02 0.  1.
          2   -1    0    0  501    0  0.00000000000E+00 -0.00000000000E+00 -0.19125946558E+04  0.19125946558E+04  0.25500000000E-02 0. -1.
    8880023    1    1    2    0    0  0.84536585937E+03 -0.86164492496E+03  0.14121990421E+04  0.19710889766E+04  0.65864270000E+03 0.  0.
    8880022    1    1    2    0    0 -0.84536585937E+03  0.86164492496E+03 -0.14065221056E+04  0.18597772714E+04  0.15294330000E+03 0.  0.
<mgrwt>
<rscale>  0 0.13336729E+04</rscale>
<asrwt>0</asrwt>
<pdfrwt beam="1">  1        2 0.29424533E+00 0.13750948E+04</pdfrwt>
<pdfrwt beam="2">  1       -2 0.29511871E+00 0.13750948E+04</pdfrwt>
<totfact> 0.24237060E-01</totfact>
</mgrwt>
</event>
<event>
 4    5  0.8511149E-008  0.6792489E+03  0.7818608E-02  0.1009752E+00
         -2   -1    0    0    0  501 -0.00000000000E+00  0.00000000000E+00  0.58201607865E+03  0.58201607866E+03  0.25500000000E-02 0.  1.
          2   -1    0    0  501    0  0.00000000000E+00 -0.00000000000E+00 -0.11509884469E+04  0.11509884469E+04  0.25500000000E-02 0. -1.
    8880023    1    1    2    0    0 -0.16141029065E+03  0.38929959412E+02  0.36571388029E+03  0.77144388790E+03  0.65864270000E+03 0.  1.
    8880022    1    1    2    0    0  0.16141029065E+03 -0.38929959412E+02 -0.93468624854E+03  0.96156063766E+03  0.15294330000E+03 0.  0.
<mgrwt>
<rscale>  0 0.51573414E+03</rscale>
<asrwt>0</asrwt>
<pdfrwt beam="1">  1        2 0.17707515E+00 0.67924887E+03</pdfrwt>
<pdfrwt beam="2">  1       -2 0.89540935E-01 0.67924887E+03</pdfrwt>
<totfact> 0.22256452E+01</totfact>
</mgrwt>
</event>
<event>
 4    5  0.8511149E-008  0.8494344E+03  0.7818608E-02  0.9612641E-01
          2   -1    0    0  501    0  0.00000000000E+00  0.00000000000E+00  0.63268434780E+03  0.63268434780E+03  0.25500000000E-02 0. -1.
         -2   -1    0    0    0  501 -0.00000000000E+00 -0.00000000000E+00 -0.85903013785E+03  0.85903013785E+03  0.25500000000E-02 0.  1.
    8880023    1    1    2    0    0 -0.46308546829E+03 -0.27070353638E+03 -0.35278716149E+03  0.91978124743E+03  0.65864270000E+03 0. -1.
    8880022    1    1    2    0    0  0.46308546829E+03  0.27070353638E+03  0.12644137144E+03  0.57193323822E+03  0.15294330000E+03 0.  0.
<mgrwt>
<rscale>  0 0.76465125E+03</rscale>
<asrwt>0</asrwt>
<pdfrwt beam="1">  1        2 0.97336054E-01 0.84943438E+03</pdfrwt>
<pdfrwt beam="2">  1       -2 0.13215848E+00 0.84943438E+03</pdfrwt>
<totfact> 0.19459184E+01</totfact>
</mgrwt>
</event>
<event>
 4    5  0.8511149E-008  0.1160332E+04  0.7818608E-02  0.9196681E-01
         -2   -1    0    0    0  501 -0.00000000000E+00  0.00000000000E+00  0.69808282297E+03  0.69808282298E+03  0.25500000000E-02 0.  1.
          2   -1    0    0  501    0  0.00000000000E+00 -0.00000000000E+00 -0.22002953439E+04  0.22002953439E+04  0.25500000000E-02 0. -1.
    8880023    1    1    2    0    0  0.86993070737E+03  0.39469169300E+03 -0.60189572929E+02  0.11618924043E+04  0.65864270000E+03 0.  0.
    8880022    1    1    2    0    0 -0.86993070737E+03 -0.39469169300E+03 -0.14420229480E+04  0.17364857626E+04  0.15294330000E+03 0.  0.
<mgrwt>
<rscale>  0 0.11087753E+04</rscale>
<asrwt>0</asrwt>
<pdfrwt beam="1">  1        2 0.33850697E+00 0.11603324E+04</pdfrwt>
<pdfrwt beam="2">  1       -2 0.10739736E+00 0.11603324E+04</pdfrwt>
<totfact> 0.35348239E+00</totfact>
</mgrwt>
</event>
<event>
 4    5  0.8511149E-008  0.9806607E+03  0.7818608E-02  0.9407308E-01
          2   -1    0    0  501    0  0.00000000000E+00  0.00000000000E+00  0.15117406677E+04  0.15117406677E+04  0.25500000000E-02 0. -1.
         -2   -1    0    0    0  501 -0.00000000000E+00 -0.00000000000E+00 -0.11538359396E+04  0.11538359396E+04  0.25500000000E-02 0.  1.
    8880023    1    1    2    0    0  0.67053711505E+03  0.27975929002E+03 -0.81655111473E+03  0.12761078372E+04  0.65864270000E+03 0.  0.
    8880022    1    1    2    0    0 -0.67053711505E+03 -0.27975929002E+03  0.11744558429E+04  0.13894687701E+04  0.15294330000E+03 0. -1.
<mgrwt>
<rscale>  0 0.91476664E+03</rscale>
<asrwt>0</asrwt>
<pdfrwt beam="1">  1        2 0.23257549E+00 0.98066074E+03</pdfrwt>
<pdfrwt beam="2">  1       -2 0.17751322E+00 0.98066074E+03</pdfrwt>
<totfact> 0.23475397E+00</totfact>
</mgrwt>
</event>
<event>
 4    5  0.8511149E-008  0.9182481E+03  0.7818608E-02  0.9497350E-01
          2   -1    0    0  501    0  0.00000000000E+00  0.00000000000E+00  0.76151593339E+03  0.76151593339E+03  0.25500000000E-02 0. -1.
         -2   -1    0    0    0  501 -0.00000000000E+00 -0.00000000000E+00 -0.20897728568E+04  0.20897728568E+04  0.25500000000E-02 0.  1.
    8880023    1    1    2    0    0  0.63494170938E+03 -0.78856686027E+02 -0.18142520760E+04  0.20333937525E+04  0.65864270000E+03 0.  0.
    8880022    1    1    2    0    0 -0.63494170938E+03  0.78856686027E+02  0.48599515261E+03  0.81789503765E+03  0.15294330000E+03 0.  0.
<mgrwt>
<rscale>  0 0.84479443E+03</rscale>
<asrwt>0</asrwt>
<pdfrwt beam="1">  1        2 0.11715630E+00 0.91824809E+03</pdfrwt>
<pdfrwt beam="2">  1       -2 0.32150351E+00 0.91824809E+03</pdfrwt>
<totfact> 0.87887751E-01</totfact>
</mgrwt>
</event>
<event>
 4    5  0.8511149E-008  0.7386990E+03  0.7818608E-02  0.9863753E-01
         -2   -1    0    0    0  501 -0.00000000000E+00  0.00000000000E+00  0.37092737770E+03  0.37092737771E+03  0.25500000000E-02 0.  1.
          2   -1    0    0  501    0  0.00000000000E+00 -0.00000000000E+00 -0.15223147031E+04  0.15223147031E+04  0.25500000000E-02 0. -1.
    8880023    1    1    2    0    0  0.20695809171E+03  0.26274386733E+03 -0.59512188067E+02  0.74109236829E+03  0.65864270000E+03 0.  1.
    8880022    1    1    2    0    0 -0.20695809171E+03 -0.26274386733E+03 -0.10918751374E+04  0.11521497126E+04  0.15294330000E+03 0.  0.
<mgrwt>
<rscale>  0 0.62050582E+03</rscale>
<asrwt>0</asrwt>
<pdfrwt beam="1">  1        2 0.23420226E+00 0.73869899E+03</pdfrwt>
<pdfrwt beam="2">  1       -2 0.57065751E-01 0.73869899E+03</pdfrwt>
<totfact> 0.36361398E+01</totfact>
</mgrwt>
</event>
<event>
 4    5  0.1043668E-007  0.7887736E+03  0.7818608E-02  0.9735617E-01
         -2   -1    0    0    0  501 -0.00000000000E+00  0.00000000000E+00  0.18589124975E+04  0.18589124975E+04  0.25500000000E-02 0.  1.
          2   -1    0    0  501    0  0.00000000000E+00 -0.00000000000E+00 -0.17280608535E+04  0.17280608535E+04  0.25500000000E-02 0. -1.
    8880023    1    1    2    0    0 -0.61206756891E+02 -0.42965955468E+03  0.17415424669E+04  0.19118404667E+04  0.65864270000E+03 0.  0.
    8880022    1    1    2    0    0  0.61206756891E+02  0.42965955468E+03 -0.16106908229E+04  0.16751328843E+04  0.15294330000E+03 0.  0.
<mgrwt>
<rscale>  0 0.68935192E+03</rscale>
<asrwt>0</asrwt>
<pdfrwt beam="1">  1        2 0.26585551E+00 0.78877361E+03</pdfrwt>
<pdfrwt beam="2">  1       -2 0.28598654E+00 0.78877361E+03</pdfrwt>
<totfact> 0.38345567E-01</totfact>
</mgrwt>
</event>
<event>
 4    5  0.8511149E-008  0.9784981E+03  0.7818608E-02  0.9410246E-01
         -2   -1    0    0    0  501 -0.00000000000E+00  0.00000000000E+00  0.10440234817E+04  0.10440234817E+04  0.25500000000E-02 0.  1.
          2   -1    0    0  501    0  0.00000000000E+00 -0.00000000000E+00 -0.86049442646E+03  0.86049442646E+03  0.25500000000E-02 0. -1.
    8880023    1    1    2    0    0  0.44711630059E+03  0.56897738643E+03  0.50140084168E+03  0.10994822704E+04  0.65864270000E+03 0.  1.
    8880022    1    1    2    0    0 -0.44711630059E+03 -0.56897738643E+03 -0.31787178644E+03  0.80503563781E+03  0.15294330000E+03 0.  0.
<mgrwt>
<rscale>  0 0.91237285E+03</rscale>
<asrwt>0</asrwt>
<pdfrwt beam="1">  1        2 0.13238376E+00 0.97849806E+03</pdfrwt>
<pdfrwt beam="2">  1       -2 0.16061900E+00 0.97849806E+03</pdfrwt>
<totfact> 0.77282644E+00</totfact>
</mgrwt>
</event>
<event>
 4    5  0.8511149E-008  0.7488635E+03  0.7818608E-02  0.9834842E-01
          2   -1    0    0  501    0  0.00000000000E+00  0.00000000000E+00  0.38114650219E+04  0.38114650219E+04  0.25500000000E-02 0. -1.
         -2   -1    0    0    0  501 -0.00000000000E+00 -0.00000000000E+00 -0.30956554866E+03  0.30956554867E+03  0.25500000000E-02 0.  1.
    8880023    1    1    2    0    0  0.27241330242E+03 -0.22973307302E+03  0.17165572754E+03  0.76828522519E+03  0.65864270000E+03 0.  1.
    8880022    1    1    2    0    0 -0.27241330242E+03  0.22973307302E+03  0.33302437457E+04  0.33527453453E+04  0.15294330000E+03 0.  0.
<mgrwt>
<rscale>  0 0.63525780E+03</rscale>
<asrwt>0</asrwt>
<pdfrwt beam="1">  1        2 0.58637919E+00 0.74886347E+03</pdfrwt>
<pdfrwt beam="2">  1       -2 0.47625472E-01 0.74886347E+03</pdfrwt>
<totfact> 0.22138356E+00</totfact>
</mgrwt>
</event>
<event>
 4    5  0.8511149E-008  0.6629461E+03  0.7818608E-02  0.1021322E+00
         -2   -1    0    0    0  501 -0.00000000000E+00  0.00000000000E+00  0.25757234971E+03  0.25757234972E+03  0.25500000000E-02 0.  1.
          2   -1    0    0  501    0  0.00000000000E+00 -0.00000000000E+00 -0.17113158699E+04  0.17113158699E+04  0.25500000000E-02 0. -1.
    8880023    1    1    2    0    0 -0.73207774948E+02  0.18108240686E+02 -0.18436181364E+03  0.68810375038E+03  0.65864270000E+03 0.  1.
    8880022    1    1    2    0    0  0.73207774948E+02 -0.18108240686E+02 -0.12693817065E+04  0.12807844692E+04  0.15294330000E+03 0.  0.
<mgrwt>
<rscale>  0 0.47212388E+03</rscale>
<asrwt>0</asrwt>
<pdfrwt beam="1">  1        2 0.26327936E+00 0.66294607E+03</pdfrwt>
<pdfrwt beam="2">  1       -2 0.39626517E-01 0.66294607E+03</pdfrwt>
<totfact> 0.60223714E+01</totfact>
</mgrwt>
</event>
<event>
 4    5  0.8511149E-008  0.6637911E+03  0.7818608E-02  0.1020570E+00
         -2   -1    0    0    0  501 -0.00000000000E+00  0.00000000000E+00  0.74956063145E+02  0.74956063189E+02  0.25500000000E-02 0.  1.
          2   -1    0    0  501    0  0.00000000000E+00 -0.00000000000E+00 -0.36635910429E+04  0.36635910429E+04  0.25500000000E-02 0. -1.
    8880023    1    1    2    0    0 -0.82359693321E+02  0.50244790905E+01 -0.14714736333E+04  0.16142655371E+04  0.65864270000E+03 0.  1.
    8880022    1    1    2    0    0  0.82359693321E+02 -0.50244790905E+01 -0.21171613465E+04  0.21242815690E+04  0.15294330000E+03 0.  0.
<mgrwt>
<rscale>  0 0.47481502E+03</rscale>
<asrwt>0</asrwt>
<pdfrwt beam="1">  1        2 0.56362925E+00 0.66379106E+03</pdfrwt>
<pdfrwt beam="2">  1       -2 0.11531705E-01 0.66379106E+03</pdfrwt>
<totfact> 0.37118112E+01</totfact>
</mgrwt>
</event>
<event>
 4    5  0.8511149E-008  0.1125270E+04  0.7818608E-02  0.9233430E-01
         -2   -1    0    0    0  501 -0.00000000000E+00  0.00000000000E+00  0.14838741860E+04  0.14838741860E+04  0.25500000000E-02 0.  1.
          2   -1    0    0  501    0  0.00000000000E+00 -0.00000000000E+00 -0.13082836189E+04  0.13082836189E+04  0.25500000000E-02 0. -1.
    8880023    1    1    2    0    0 -0.84093011905E+03  0.35391857622E+03  0.10354335216E+04  0.15291679462E+04  0.65864270000E+03 0.  0.
    8880022    1    1    2    0    0  0.84093011905E+03 -0.35391857622E+03 -0.85984295452E+03  0.12629898587E+04  0.15294330000E+03 0.  0.
<mgrwt>
<rscale>  0 0.10714943E+04</rscale>
<asrwt>0</asrwt>
<pdfrwt beam="1">  1        2 0.20127440E+00 0.11252698E+04</pdfrwt>
<pdfrwt beam="2">  1       -2 0.22828834E+00 0.11252698E+04</pdfrwt>
<totfact> 0.14031800E+00</totfact>
</mgrwt>
</event>
<event>
 4    5  0.8511149E-008  0.7087395E+03  0.7818608E-02  0.9962712E-01
          2   -1    0    0  501    0  0.00000000000E+00  0.00000000000E+00  0.24647061228E+04  0.24647061228E+04  0.25500000000E-02 0. -1.
         -2   -1    0    0    0  501 -0.00000000000E+00 -0.00000000000E+00 -0.10011918555E+04  0.10011918555E+04  0.25500000000E-02 0.  1.
    8880023    1    1    2    0    0  0.25966628238E+03  0.32786397622E+02 -0.86469433325E+03  0.11180375764E+04  0.65864270000E+03 0.  1.
    8880022    1    1    2    0    0 -0.25966628238E+03 -0.32786397622E+02  0.23282086005E+04  0.23478604019E+04  0.15294330000E+03 0.  0.
<mgrwt>
<rscale>  0 0.57315938E+03</rscale>
<asrwt>0</asrwt>
<pdfrwt beam="1">  1        2 0.37918555E+00 0.70873954E+03</pdfrwt>
<pdfrwt beam="2">  1       -2 0.15402952E+00 0.70873954E+03</pdfrwt>
<totfact> 0.10808721E+00</totfact>
</mgrwt>
</event>
<event>
 4    5  0.8511149E-008  0.1007488E+04  0.7818608E-02  0.9371826E-01
         -2   -1    0    0    0  501 -0.00000000000E+00  0.00000000000E+00  0.12752231496E+04  0.12752231496E+04  0.25500000000E-02 0.  1.
          2   -1    0    0  501    0  0.00000000000E+00 -0.00000000000E+00 -0.11125418404E+04  0.11125418404E+04  0.25500000000E-02 0. -1.
    8880023    1    1    2    0    0 -0.11256837502E+03 -0.75402270085E+03  0.87412294948E+03  0.13338376998E+04  0.65864270000E+03 0.  0.
    8880022    1    1    2    0    0  0.11256837502E+03  0.75402270085E+03 -0.71144164023E+03  0.10539272901E+04  0.15294330000E+03 0.  0.
<mgrwt>
<rscale>  0 0.94431012E+03</rscale>
<asrwt>0</asrwt>
<pdfrwt beam="1">  1        2 0.17116028E+00 0.10074880E+04</pdfrwt>
<pdfrwt beam="2">  1       -2 0.19618818E+00 0.10074880E+04</pdfrwt>
<totfact> 0.29893721E+00</totfact>
</mgrwt>
</event>
<event>
 4    5  0.8511149E-008  0.1011681E+04  0.7818608E-02  0.9366432E-01
          2   -1    0    0  501    0  0.00000000000E+00  0.00000000000E+00  0.16568380953E+04  0.16568380953E+04  0.25500000000E-02 0. -1.
         -2   -1    0    0    0  501 -0.00000000000E+00 -0.00000000000E+00 -0.11438690435E+04  0.11438690435E+04  0.25500000000E-02 0.  1.
    8880023    1    1    2    0    0  0.75737408150E+03  0.12677788804E+03 -0.78795154217E+03  0.12823283399E+04  0.65864270000E+03 0.  0.
    8880022    1    1    2    0    0 -0.75737408150E+03 -0.12677788804E+03  0.13009205940E+04  0.15183787989E+04  0.15294330000E+03 0.  0.
<mgrwt>
<rscale>  0 0.94890406E+03</rscale>
<asrwt>0</asrwt>
<pdfrwt beam="1">  1        2 0.25489817E+00 0.10116809E+04</pdfrwt>
<pdfrwt beam="2">  1       -2 0.17597985E+00 0.10116809E+04</pdfrwt>
<totfact> 0.19893178E+00</totfact>
</mgrwt>
</event>
<event>
 4    5  0.8511149E-008  0.1202732E+04  0.7818608E-02  0.9154471E-01
          2   -1    0    0  501    0  0.00000000000E+00  0.00000000000E+00  0.37485666730E+04  0.37485666730E+04  0.25500000000E-02 0. -1.
         -2   -1    0    0    0  501 -0.00000000000E+00 -0.00000000000E+00 -0.47813194990E+03  0.47813194991E+03  0.25500000000E-02 0.  1.
    8880023    1    1    2    0    0 -0.31244310993E+03 -0.95662665480E+03  0.55088401210E+03  0.13228902655E+04  0.65864270000E+03 0.  0.
    8880022    1    1    2    0    0  0.31244310993E+03  0.95662665480E+03  0.27195507110E+04  0.29038083573E+04  0.15294330000E+03 0.  0.
<mgrwt>
<rscale>  0 0.11535979E+04</rscale>
<asrwt>0</asrwt>
<pdfrwt beam="1">  1        2 0.57670256E+00 0.12027325E+04</pdfrwt>
<pdfrwt beam="2">  1       -2 0.73558762E-01 0.12027325E+04</pdfrwt>
<totfact> 0.90437388E-01</totfact>
</mgrwt>
</event>
<event>
 4    5  0.8511149E-008  0.2028147E+04  0.7818608E-02  0.8605839E-01
         -2   -1    0    0    0  501 -0.00000000000E+00  0.00000000000E+00  0.12085826775E+04  0.12085826775E+04  0.25500000000E-02 0.  1.
          2   -1    0    0  501    0  0.00000000000E+00 -0.00000000000E+00 -0.34016151259E+04  0.34016151259E+04  0.25500000000E-02 0. -1.
    8880023    1    1    2    0    0  0.12924181193E+04  0.14174709402E+04 -0.60848732839E+03  0.21174596800E+04  0.65864270000E+03 0.  0.
    8880022    1    1    2    0    0 -0.12924181193E+04 -0.14174709402E+04 -0.15845451200E+04  0.24927381234E+04  0.15294330000E+03 0.  0.
<mgrwt>
<rscale>  0 0.20016730E+04</rscale>
<asrwt>0</asrwt>
<pdfrwt beam="1">  1        2 0.52332540E+00 0.20281466E+04</pdfrwt>
<pdfrwt beam="2">  1       -2 0.18593580E+00 0.20281466E+04</pdfrwt>
<totfact> 0.14032104E-01</totfact>
</mgrwt>
</event>
<event>
 4    5  0.8511149E-008  0.8992673E+03  0.7818608E-02  0.9527209E-01
         -2   -1    0    0    0  501 -0.00000000000E+00  0.00000000000E+00  0.98473748188E+03  0.98473748188E+03  0.25500000000E-02 0.  1.
          2   -1    0    0  501    0  0.00000000000E+00 -0.00000000000E+00 -0.12786344655E+04  0.12786344655E+04  0.25500000000E-02 0. -1.
    8880023    1    1    2    0    0 -0.56028239801E+03 -0.24689096042E+03  0.66290142694E+03  0.11171929198E+04  0.65864270000E+03 0.  1.
    8880022    1    1    2    0    0  0.56028239801E+03  0.24689096042E+03 -0.95679841053E+03  0.11461790276E+04  0.15294330000E+03 0.  0.
<mgrwt>
<rscale>  0 0.82307209E+03</rscale>
<asrwt>0</asrwt>
<pdfrwt beam="1">  1        2 0.19671299E+00 0.89926732E+03</pdfrwt>
<pdfrwt beam="2">  1       -2 0.15149807E+00 0.89926732E+03</pdfrwt>
<totfact> 0.49792823E+00</totfact>
</mgrwt>
</event>
<event>
 4    5  0.1220543E-007  0.8954900E+03  0.7818608E-02  0.9533311E-01
         -2   -1    0    0    0  501 -0.00000000000E+00  0.00000000000E+00  0.15926574968E+04  0.15926574968E+04  0.25500000000E-02 0.  1.
          2   -1    0    0  501    0  0.00000000000E+00 -0.00000000000E+00 -0.28182841963E+04  0.28182841963E+04  0.25500000000E-02 0. -1.
    8880023    1    1    2    0    0 -0.58171921078E+03  0.17232200767E+03  0.14274487816E+04  0.16850852634E+04  0.65864270000E+03 0.  1.
    8880022    1    1    2    0    0  0.58171921078E+03 -0.17232200767E+03 -0.26530754810E+04  0.27258564297E+04  0.15294330000E+03 0.  0.
<mgrwt>
<rscale>  0 0.81871882E+03</rscale>
<asrwt>0</asrwt>
<pdfrwt beam="1">  1        2 0.43358218E+00 0.89548999E+03</pdfrwt>
<pdfrwt beam="2">  1       -2 0.24502423E+00 0.89548999E+03</pdfrwt>
<totfact> 0.16169852E-01</totfact>
</mgrwt>
</event>
<event>
 4    5  0.8511149E-008  0.9792936E+03  0.7818608E-02  0.9409164E-01
          2   -1    0    0  501    0  0.00000000000E+00  0.00000000000E+00  0.39412162945E+04  0.39412162945E+04  0.25500000000E-02 0. -1.
         -2   -1    0    0    0  501 -0.00000000000E+00 -0.00000000000E+00 -0.52545793342E+03  0.52545793342E+03  0.25500000000E-02 0.  1.
    8880023    1    1    2    0    0 -0.32670350391E+03  0.64689298255E+03  0.79731510320E+01  0.97932603751E+03  0.65864270000E+03 0.  0.
    8880022    1    1    2    0    0  0.32670350391E+03 -0.64689298255E+03  0.34077852100E+04  0.34873481904E+04  0.15294330000E+03 0.  0.
<mgrwt>
<rscale>  0 0.91325360E+03</rscale>
<asrwt>0</asrwt>
<pdfrwt beam="1">  1        2 0.60634097E+00 0.97929358E+03</pdfrwt>
<pdfrwt beam="2">  1       -2 0.80839682E-01 0.97929358E+03</pdfrwt>
<totfact> 0.54311646E-01</totfact>
</mgrwt>
</event>
<event>
 4    5  0.8511149E-008  0.1005774E+04  0.7818608E-02  0.9374042E-01
          2   -1    0    0  501    0  0.00000000000E+00  0.00000000000E+00  0.26151590202E+04  0.26151590202E+04  0.25500000000E-02 0. -1.
         -2   -1    0    0    0  501 -0.00000000000E+00 -0.00000000000E+00 -0.91038172893E+03  0.91038172894E+03  0.25500000000E-02 0.  1.
    8880023    1    1    2    0    0 -0.52532475886E+03  0.54936864361E+03 -0.54637961428E+03  0.11446016329E+04  0.65864270000E+03 0.  1.
    8880022    1    1    2    0    0  0.52532475886E+03 -0.54936864361E+03  0.22511569055E+04  0.23809391162E+04  0.15294330000E+03 0.  0.
<mgrwt>
<rscale>  0 0.94243094E+03</rscale>
<asrwt>0</asrwt>
<pdfrwt beam="1">  1        2 0.40233215E+00 0.10057744E+04</pdfrwt>
<pdfrwt beam="2">  1       -2 0.14005873E+00 0.10057744E+04</pdfrwt>
<totfact> 0.10775905E+00</totfact>
</mgrwt>
</event>
<event>
 4    5  0.8511149E-008  0.1181616E+04  0.7818608E-02  0.9175203E-01
         -2   -1    0    0    0  501 -0.00000000000E+00  0.00000000000E+00  0.10921213015E+04  0.10921213015E+04  0.25500000000E-02 0.  1.
          2   -1    0    0  501    0  0.00000000000E+00 -0.00000000000E+00 -0.49005379871E+04  0.49005379871E+04  0.25500000000E-02 0. -1.
    8880023    1    1    2    0    0  0.80943658080E+03  0.55427326040E+03  0.70189154127E+03  0.13743610761E+04  0.65864270000E+03 0.  0.
    8880022    1    1    2    0    0 -0.80943658080E+03 -0.55427326040E+03 -0.45103082268E+04  0.46182982125E+04  0.15294330000E+03 0.  0.
<mgrwt>
<rscale>  0 0.11313078E+04</rscale>
<asrwt>0</asrwt>
<pdfrwt beam="1">  1        2 0.75392891E+00 0.11816161E+04</pdfrwt>
<pdfrwt beam="2">  1       -2 0.16801866E+00 0.11816161E+04</pdfrwt>
<totfact> 0.10456000E-02</totfact>
</mgrwt>
</event>
<event>
 4    5  0.8511149E-008  0.1343953E+04  0.7818608E-02  0.9028504E-01
         -2   -1    0    0    0  501 -0.00000000000E+00  0.00000000000E+00  0.12432966928E+04  0.12432966928E+04  0.25500000000E-02 0.  1.
          2   -1    0    0  501    0  0.00000000000E+00 -0.00000000000E+00 -0.14117881048E+04  0.14117881048E+04  0.25500000000E-02 0. -1.
    8880023    1    1    2    0    0 -0.11570496918E+04  0.18339628313E+03  0.31197577946E+03  0.13796873846E+04  0.65864270000E+03 0.  0.
    8880022    1    1    2    0    0  0.11570496918E+04 -0.18339628313E+03 -0.48046719143E+03  0.12753974130E+04  0.15294330000E+03 0.  0.
<mgrwt>
<rscale>  0 0.13013390E+04</rscale>
<asrwt>0</asrwt>
<pdfrwt beam="1">  1        2 0.21719817E+00 0.13439525E+04</pdfrwt>
<pdfrwt beam="2">  1       -2 0.19127641E+00 0.13439525E+04</pdfrwt>
<totfact> 0.20716652E+00</totfact>
</mgrwt>
</event>
<event>
 4    5  0.8511149E-008  0.1629743E+04  0.7818608E-02  0.8823068E-01
         -2   -1    0    0    0  501 -0.00000000000E+00  0.00000000000E+00  0.17011317587E+04  0.17011317587E+04  0.25500000000E-02 0.  1.
          2   -1    0    0  501    0  0.00000000000E+00 -0.00000000000E+00 -0.18290469163E+04  0.18290469163E+04  0.25500000000E-02 0. -1.
    8880023    1    1    2    0    0 -0.14874458059E+04 -0.98783286401E+02 -0.88145134790E+03  0.18528410208E+04  0.65864270000E+03 0.  0.
    8880022    1    1    2    0    0  0.14874458059E+04  0.98783286401E+02  0.75353619025E+03  0.16773376542E+04  0.15294330000E+03 0.  0.
<mgrwt>
<rscale>  0 0.15959050E+04</rscale>
<asrwt>0</asrwt>
<pdfrwt beam="1">  1        2 0.28139183E+00 0.16297433E+04</pdfrwt>
<pdfrwt beam="2">  1       -2 0.26171258E+00 0.16297433E+04</pdfrwt>
<totfact> 0.41916156E-01</totfact>
</mgrwt>
</event>
<event>
 4    5  0.8511149E-008  0.9558123E+03  0.7818608E-02  0.9441800E-01
         -2   -1    0    0    0  501 -0.00000000000E+00  0.00000000000E+00  0.12259624909E+04  0.12259624909E+04  0.25500000000E-02 0.  1.
          2   -1    0    0  501    0  0.00000000000E+00 -0.00000000000E+00 -0.15002414971E+04  0.15002414971E+04  0.25500000000E-02 0. -1.
    8880023    1    1    2    0    0  0.92934647440E+02  0.68638914051E+03  0.92675943043E+03  0.13313377291E+04  0.65864270000E+03 0.  0.
    8880022    1    1    2    0    0 -0.92934647440E+02 -0.68638914051E+03 -0.12010384366E+04  0.13948662588E+04  0.15294330000E+03 0.  0.
<mgrwt>
<rscale>  0 0.88714082E+03</rscale>
<asrwt>0</asrwt>
<pdfrwt beam="1">  1        2 0.23080638E+00 0.95581228E+03</pdfrwt>
<pdfrwt beam="2">  1       -2 0.18860961E+00 0.95581228E+03</pdfrwt>
<totfact> 0.20074622E+00</totfact>
</mgrwt>
</event>
<event>
 4    5  0.8511149E-008  0.1227125E+04  0.7818608E-02  0.9131195E-01
          2   -1    0    0  501    0  0.00000000000E+00  0.00000000000E+00  0.30933597651E+04  0.30933597651E+04  0.25500000000E-02 0. -1.
         -2   -1    0    0    0  501 -0.00000000000E+00 -0.00000000000E+00 -0.58997814206E+03  0.58997814207E+03  0.25500000000E-02 0.  1.
    8880023    1    1    2    0    0  0.43581000997E+03 -0.93919964211E+03  0.32944888510E+03  0.12705798309E+04  0.65864270000E+03 0.  0.
    8880022    1    1    2    0    0 -0.43581000997E+03  0.93919964211E+03  0.21739327379E+04  0.24127580762E+04  0.15294330000E+03 0.  0.
<mgrwt>
<rscale>  0 0.11792725E+04</rscale>
<asrwt>0</asrwt>
<pdfrwt beam="1">  1        2 0.47590150E+00 0.12271253E+04</pdfrwt>
<pdfrwt beam="2">  1       -2 0.90765869E-01 0.12271253E+04</pdfrwt>
<totfact> 0.15590675E+00</totfact>
</mgrwt>
</event>
<event>
 4    5  0.8511149E-008  0.1341803E+04  0.7818608E-02  0.9030276E-01
          2   -1    0    0  501    0  0.00000000000E+00  0.00000000000E+00  0.40565437670E+03  0.40565437671E+03  0.25500000000E-02 0. -1.
         -2   -1    0    0    0  501 -0.00000000000E+00 -0.00000000000E+00 -0.42917395073E+04  0.42917395073E+04  0.25500000000E-02 0.  1.
    8880023    1    1    2    0    0  0.10794895385E+04 -0.44869534535E+03 -0.13640591669E+04  0.19133982319E+04  0.65864270000E+03 0.  0.
    8880022    1    1    2    0    0 -0.10794895385E+04  0.44869534535E+03 -0.25220259637E+04  0.27839956522E+04  0.15294330000E+03 0.  0.
<mgrwt>
<rscale>  0 0.12991045E+04</rscale>
<asrwt>0</asrwt>
<pdfrwt beam="1">  1        2 0.62408368E-01 0.13418030E+04</pdfrwt>
<pdfrwt beam="2">  1       -2 0.66026759E+00 0.13418030E+04</pdfrwt>
<totfact> 0.23175749E-02</totfact>
</mgrwt>
</event>
<event>
 4    5  0.8511149E-008  0.7097929E+03  0.7818608E-02  0.9958771E-01
         -2   -1    0    0    0  501 -0.00000000000E+00  0.00000000000E+00  0.90983265961E+03  0.90983265961E+03  0.25500000000E-02 0.  1.
          2   -1    0    0  501    0  0.00000000000E+00 -0.00000000000E+00 -0.69855150319E+03  0.69855150319E+03  0.25500000000E-02 0. -1.
    8880023    1    1    2    0    0  0.91138226426E+02  0.24837376940E+03  0.72247864183E+03  0.10128086195E+04  0.65864270000E+03 0.  1.
    8880022    1    1    2    0    0 -0.91138226426E+02 -0.24837376940E+03 -0.51119748541E+03  0.59557554327E+03  0.15294330000E+03 0.  0.
<mgrwt>
<rscale>  0 0.57495616E+03</rscale>
<asrwt>0</asrwt>
<pdfrwt beam="1">  1        2 0.10746946E+00 0.70979287E+03</pdfrwt>
<pdfrwt beam="2">  1       -2 0.13997426E+00 0.70979287E+03</pdfrwt>
<totfact> 0.15039164E+01</totfact>
</mgrwt>
</event>
<event>
 4    5  0.8511149E-008  0.1098998E+04  0.7818608E-02  0.9262173E-01
         -2   -1    0    0    0  501 -0.00000000000E+00  0.00000000000E+00  0.65469195670E+03  0.65469195671E+03  0.25500000000E-02 0.  1.
          2   -1    0    0  501    0  0.00000000000E+00 -0.00000000000E+00 -0.37729295607E+04  0.37729295607E+04  0.25500000000E-02 0. -1.
    8880023    1    1    2    0    0 -0.79775361080E+03 -0.37091122312E+03  0.84969295289E+02  0.11022776177E+04  0.65864270000E+03 0.  0.
    8880022    1    1    2    0    0  0.79775361080E+03  0.37091122312E+03 -0.32032068993E+04  0.33253438998E+04  0.15294330000E+03 0.  0.
<mgrwt>
<rscale>  0 0.10434115E+04</rscale>
<asrwt>0</asrwt>
<pdfrwt beam="1">  1        2 0.58045069E+00 0.10989978E+04</pdfrwt>
<pdfrwt beam="2">  1       -2 0.10072184E+00 0.10989978E+04</pdfrwt>
<totfact> 0.42811659E-01</totfact>
</mgrwt>
</event>
<event>
 4    5  0.8511149E-008  0.1020376E+04  0.7818608E-02  0.9355372E-01
         -2   -1    0    0    0  501 -0.00000000000E+00  0.00000000000E+00  0.85809376916E+03  0.85809376917E+03  0.25500000000E-02 0.  1.
          2   -1    0    0  501    0  0.00000000000E+00 -0.00000000000E+00 -0.20305556177E+04  0.20305556177E+04  0.25500000000E-02 0. -1.
    8880023    1    1    2    0    0  0.58027182576E+03  0.52023225426E+03  0.42445982537E+03  0.11051395114E+04  0.65864270000E+03 0.  0.
    8880022    1    1    2    0    0 -0.58027182576E+03 -0.52023225426E+03 -0.15969216739E+04  0.17835098755E+04  0.15294330000E+03 0.  0.
<mgrwt>
<rscale>  0 0.95841195E+03</rscale>
<asrwt>0</asrwt>
<pdfrwt beam="1">  1        2 0.31239317E+00 0.10203760E+04</pdfrwt>
<pdfrwt beam="2">  1       -2 0.13201443E+00 0.10203760E+04</pdfrwt>
<totfact> 0.26728704E+00</totfact>
</mgrwt>
</event>
<event>
 4    5  0.8511149E-008  0.1068135E+04  0.7818608E-02  0.9297392E-01
          2   -1    0    0  501    0  0.00000000000E+00  0.00000000000E+00  0.14013418769E+04  0.14013418769E+04  0.25500000000E-02 0. -1.
         -2   -1    0    0    0  501 -0.00000000000E+00 -0.00000000000E+00 -0.83070250288E+03  0.83070250289E+03  0.25500000000E-02 0.  1.
    8880023    1    1    2    0    0  0.32100473599E+03 -0.77721115360E+03 -0.19356003458E+03  0.10855307048E+04  0.65864270000E+03 0.  0.
    8880022    1    1    2    0    0 -0.32100473599E+03  0.77721115360E+03  0.76419940859E+03  0.11465136750E+04  0.15294330000E+03 0.  0.
<mgrwt>
<rscale>  0 0.10102328E+04</rscale>
<asrwt>0</asrwt>
<pdfrwt beam="1">  1        2 0.21559106E+00 0.10681346E+04</pdfrwt>
<pdfrwt beam="2">  1       -2 0.12780039E+00 0.10681346E+04</pdfrwt>
<totfact> 0.64595243E+00</totfact>
</mgrwt>
</event>
<event>
 4    5  0.8511149E-008  0.7408045E+03  0.7818608E-02  0.9857610E-01
          2   -1    0    0  501    0  0.00000000000E+00  0.00000000000E+00  0.21422764891E+04  0.21422764891E+04  0.25500000000E-02 0. -1.
         -2   -1    0    0    0  501 -0.00000000000E+00 -0.00000000000E+00 -0.20842178059E+03  0.20842178061E+03  0.25500000000E-02 0.  1.
    8880023    1    1    2    0    0  0.24827567781E+03 -0.23095501880E+03  0.56353351296E+03  0.93078529178E+03  0.65864270000E+03 0.  1.
    8880022    1    1    2    0    0 -0.24827567781E+03  0.23095501880E+03  0.13703211956E+04  0.14199129779E+04  0.15294330000E+03 0.  0.
<mgrwt>
<rscale>  0 0.62360413E+03</rscale>
<asrwt>0</asrwt>
<pdfrwt beam="1">  1        2 0.32958099E+00 0.74080445E+03</pdfrwt>
<pdfrwt beam="2">  1       -2 0.32064890E-01 0.74080445E+03</pdfrwt>
<totfact> 0.52035471E+01</totfact>
</mgrwt>
</event>
<event>
 4    5  0.9294755E-008  0.1447262E+04  0.7818608E-02  0.8947803E-01
          2   -1    0    0  501    0  0.00000000000E+00  0.00000000000E+00  0.19632842206E+04  0.19632842206E+04  0.25500000000E-02 0. -1.
         -2   -1    0    0    0  501 -0.00000000000E+00 -0.00000000000E+00 -0.18612588012E+04  0.18612588012E+04  0.25500000000E-02 0.  1.
    8880023    1    1    2    0    0  0.12884558523E+04 -0.25269071488E+02 -0.12775782116E+04  0.19304852505E+04  0.65864270000E+03 0.  0.
    8880022    1    1    2    0    0 -0.12884558523E+04  0.25269071488E+02  0.13796036310E+04  0.18940577713E+04  0.15294330000E+03 0.  0.
<mgrwt>
<rscale>  0 0.14083413E+04</rscale>
<asrwt>0</asrwt>
<pdfrwt beam="1">  1        2 0.30204372E+00 0.14472620E+04</pdfrwt>
<pdfrwt beam="2">  1       -2 0.28634751E+00 0.14472620E+04</pdfrwt>
<totfact> 0.25457819E-01</totfact>
</mgrwt>
</event>
<event>
 4    5  0.8511149E-008  0.1348395E+04  0.7818608E-02  0.9024855E-01
         -2   -1    0    0    0  501 -0.00000000000E+00  0.00000000000E+00  0.11225302661E+04  0.11225302662E+04  0.25500000000E-02 0.  1.
          2   -1    0    0  501    0  0.00000000000E+00 -0.00000000000E+00 -0.18486197880E+04  0.18486197880E+04  0.25500000000E-02 0. -1.
    8880023    1    1    2    0    0 -0.35322580211E+03  0.11223152134E+04 -0.10859217036E+04  0.17312989512E+04  0.65864270000E+03 0.  0.
    8880022    1    1    2    0    0  0.35322580211E+03 -0.11223152134E+04  0.35983218176E+03  0.12398511030E+04  0.15294330000E+03 0.  0.
<mgrwt>
<rscale>  0 0.13059565E+04</rscale>
<asrwt>0</asrwt>
<pdfrwt beam="1">  1        2 0.28440304E+00 0.13483954E+04</pdfrwt>
<pdfrwt beam="2">  1       -2 0.17269696E+00 0.13483954E+04</pdfrwt>
<totfact> 0.15810737E+00</totfact>
</mgrwt>
</event>
<event>
 4    5  0.9543105E-008  0.1063892E+04  0.7818608E-02  0.9302364E-01
          2   -1    0    0  501    0  0.00000000000E+00  0.00000000000E+00  0.24231578149E+04  0.24231578149E+04  0.25500000000E-02 0. -1.
         -2   -1    0    0    0  501 -0.00000000000E+00 -0.00000000000E+00 -0.15283898489E+04  0.15283898489E+04  0.25500000000E-02 0.  1.
    8880023    1    1    2    0    0  0.54805946758E+03  0.63062482206E+03 -0.12519283963E+04  0.16429217151E+04  0.65864270000E+03 0.  1.
    8880022    1    1    2    0    0 -0.54805946758E+03 -0.63062482206E+03  0.21466963623E+04  0.23086259487E+04  0.15294330000E+03 0.  0.
<mgrwt>
<rscale>  0 0.10056548E+04</rscale>
<asrwt>0</asrwt>
<pdfrwt beam="1">  1        2 0.37279351E+00 0.10638924E+04</pdfrwt>
<pdfrwt beam="2">  1       -2 0.23513690E+00 0.10638924E+04</pdfrwt>
<totfact> 0.30525485E-01</totfact>
</mgrwt>
</event>
<event>
 4    5  0.8511149E-008  0.8463077E+03  0.7818608E-02  0.9618399E-01
          2   -1    0    0  501    0  0.00000000000E+00  0.00000000000E+00  0.24462041255E+04  0.24462041255E+04  0.25500000000E-02 0. -1.
         -2   -1    0    0    0  501 -0.00000000000E+00 -0.00000000000E+00 -0.54451123502E+03  0.54451123502E+03  0.25500000000E-02 0.  1.
    8880023    1    1    2    0    0  0.52844893953E+02  0.52880429956E+03 -0.15551303657E+03  0.86047724018E+03  0.65864270000E+03 0.  1.
    8880022    1    1    2    0    0 -0.52844893953E+02 -0.52880429956E+03  0.20572059271E+04  0.21302381204E+04  0.15294330000E+03 0.  0.
<mgrwt>
<rscale>  0 0.76090275E+03</rscale>
<asrwt>0</asrwt>
<pdfrwt beam="1">  1        2 0.37633909E+00 0.84630773E+03</pdfrwt>
<pdfrwt beam="2">  1       -2 0.83770960E-01 0.84630773E+03</pdfrwt>
<totfact> 0.48042791E+00</totfact>
</mgrwt>
</event>
<event>
 4    5  0.8511149E-008  0.9241730E+03  0.7818608E-02  0.9488290E-01
         -2   -1    0    0    0  501 -0.00000000000E+00  0.00000000000E+00  0.10161541354E+04  0.10161541354E+04  0.25500000000E-02 0.  1.
          2   -1    0    0  501    0  0.00000000000E+00 -0.00000000000E+00 -0.10184765874E+04  0.10184765874E+04  0.25500000000E-02 0. -1.
    8880023    1    1    2    0    0  0.67443010481E+02  0.64477664687E+03  0.62818031604E+03  0.11174552339E+04  0.65864270000E+03 0.  1.
    8880022    1    1    2    0    0 -0.67443010481E+02 -0.64477664687E+03 -0.63050276808E+03  0.91717548898E+03  0.15294330000E+03 0.  0.
<mgrwt>
<rscale>  0 0.85152682E+03</rscale>
<asrwt>0</asrwt>
<pdfrwt beam="1">  1        2 0.15668871E+00 0.92417298E+03</pdfrwt>
<pdfrwt beam="2">  1       -2 0.15633141E+00 0.92417298E+03</pdfrwt>
<totfact> 0.65670621E+00</totfact>
</mgrwt>
</event>
<event>
 4    5  0.8511149E-008  0.7461671E+03  0.7818608E-02  0.9842334E-01
          2   -1    0    0  501    0  0.00000000000E+00  0.00000000000E+00  0.98412894135E+03  0.98412894135E+03  0.25500000000E-02 0. -1.
         -2   -1    0    0    0  501 -0.00000000000E+00 -0.00000000000E+00 -0.65370625491E+03  0.65370625492E+03  0.25500000000E-02 0.  1.
    8880023    1    1    2    0    0  0.47912892096E+02 -0.34736070246E+03 -0.37519582124E+03  0.83518693319E+03  0.65864270000E+03 0.  0.
    8880022    1    1    2    0    0 -0.47912892096E+02  0.34736070246E+03  0.70561850767E+03  0.80264826308E+03  0.15294330000E+03 0.  0.
<mgrwt>
<rscale>  0 0.63139327E+03</rscale>
<asrwt>0</asrwt>
<pdfrwt beam="1">  1        2 0.15140445E+00 0.74616708E+03</pdfrwt>
<pdfrwt beam="2">  1       -2 0.10057019E+00 0.74616708E+03</pdfrwt>
<totfact> 0.21367341E+01</totfact>
</mgrwt>
</event>
<event>
 4    5  0.8511149E-008  0.1431212E+04  0.7818608E-02  0.8959802E-01
         -2   -1    0    0    0  501 -0.00000000000E+00  0.00000000000E+00  0.11840681191E+04  0.11840681191E+04  0.25500000000E-02 0.  1.
          2   -1    0    0  501    0  0.00000000000E+00 -0.00000000000E+00 -0.17163482726E+04  0.17163482726E+04  0.25500000000E-02 0. -1.
    8880023    1    1    2    0    0 -0.63590061470E+03 -0.11000850400E+04  0.16882886155E+03  0.14411349964E+04  0.65864270000E+03 0.  0.
    8880022    1    1    2    0    0  0.63590061470E+03  0.11000850400E+04 -0.70110901498E+03  0.14592813954E+04  0.15294330000E+03 0.  0.
<mgrwt>
<rscale>  0 0.13917635E+04</rscale>
<asrwt>0</asrwt>
<pdfrwt beam="1">  1        2 0.26405358E+00 0.14312117E+04</pdfrwt>
<pdfrwt beam="2">  1       -2 0.18216432E+00 0.14312117E+04</pdfrwt>
<totfact> 0.15950630E+00</totfact>
</mgrwt>
</event>
<event>
 4    5  0.8511149E-008  0.7182097E+03  0.7818608E-02  0.9928691E-01
         -2   -1    0    0    0  501 -0.00000000000E+00  0.00000000000E+00  0.70976686583E+03  0.70976686583E+03  0.25500000000E-02 0.  1.
          2   -1    0    0  501    0  0.00000000000E+00 -0.00000000000E+00 -0.95952243579E+03  0.95952243580E+03  0.25500000000E-02 0. -1.
    8880023    1    1    2    0    0  0.17548168939E+03  0.22632075026E+03  0.48457221306E+03  0.86639214057E+03  0.65864270000E+03 0.  1.
    8880022    1    1    2    0    0 -0.17548168939E+03 -0.22632075026E+03 -0.73432778302E+03  0.80289716106E+03  0.15294330000E+03 0.  0.
<mgrwt>
<rscale>  0 0.58890723E+03</rscale>
<asrwt>0</asrwt>
<pdfrwt beam="1">  1        2 0.14761884E+00 0.71820966E+03</pdfrwt>
<pdfrwt beam="2">  1       -2 0.10919490E+00 0.71820966E+03</pdfrwt>
<totfact> 0.18249873E+01</totfact>
</mgrwt>
</event>
<event>
 4    5  0.8511149E-008  0.6844455E+03  0.7818608E-02  0.1006913E+00
          2   -1    0    0  501    0  0.00000000000E+00  0.00000000000E+00  0.20663577867E+04  0.20663577867E+04  0.25500000000E-02 0. -1.
         -2   -1    0    0    0  501 -0.00000000000E+00 -0.00000000000E+00 -0.14113707445E+03  0.14113707447E+03  0.25500000000E-02 0.  1.
    8880023    1    1    2    0    0 -0.18613326297E+03  0.31344510939E+01  0.78227907755E+03  0.10394355092E+04  0.65864270000E+03 0.  0.
    8880022    1    1    2    0    0  0.18613326297E+03 -0.31344510939E+01  0.11429416347E+04  0.11680593519E+04  0.15294330000E+03 0.  0.
<mgrwt>
<rscale>  0 0.52720156E+03</rscale>
<asrwt>0</asrwt>
<pdfrwt beam="1">  1        2 0.31790116E+00 0.68444549E+03</pdfrwt>
<pdfrwt beam="2">  1       -2 0.21713399E-01 0.68444549E+03</pdfrwt>
<totfact> 0.11713463E+02</totfact>
</mgrwt>
</event>
<event>
 4    5  0.8511149E-008  0.1198295E+04  0.7818608E-02  0.9158781E-01
          2   -1    0    0  501    0  0.00000000000E+00  0.00000000000E+00  0.27627754960E+04  0.27627754960E+04  0.25500000000E-02 0. -1.
         -2   -1    0    0    0  501 -0.00000000000E+00 -0.00000000000E+00 -0.48891358039E+03  0.48891358039E+03  0.25500000000E-02 0.  1.
    8880023    1    1    2    0    0 -0.59039106786E+03 -0.80841771041E+03  0.72309545915E+03  0.13995635237E+04  0.65864270000E+03 0.  0.
    8880022    1    1    2    0    0  0.59039106786E+03  0.80841771041E+03  0.15507664565E+04  0.18521255527E+04  0.15294330000E+03 0.  0.
<mgrwt>
<rscale>  0 0.11489189E+04</rscale>
<asrwt>0</asrwt>
<pdfrwt beam="1">  1        2 0.42504237E+00 0.11982950E+04</pdfrwt>
<pdfrwt beam="2">  1       -2 0.75217476E-01 0.11982950E+04</pdfrwt>
<totfact> 0.38277111E+00</totfact>
</mgrwt>
</event>
<event>
 4    5  0.8511149E-008  0.1612491E+04  0.7818608E-02  0.8834032E-01
         -2   -1    0    0    0  501 -0.00000000000E+00  0.00000000000E+00  0.89374829539E+03  0.89374829540E+03  0.25500000000E-02 0.  1.
          2   -1    0    0  501    0  0.00000000000E+00 -0.00000000000E+00 -0.30792550140E+04  0.30792550140E+04  0.25500000000E-02 0. -1.
    8880023    1    1    2    0    0  0.11736218546E+04  0.88821717539E+03 -0.41403963108E+03  0.16647993965E+04  0.65864270000E+03 0.  0.
    8880022    1    1    2    0    0 -0.11736218546E+04 -0.88821717539E+03 -0.17714670875E+04  0.23082039129E+04  0.15294330000E+03 0.  0.
<mgrwt>
<rscale>  0 0.15782338E+04</rscale>
<asrwt>0</asrwt>
<pdfrwt beam="1">  1        2 0.47373153E+00 0.16124913E+04</pdfrwt>
<pdfrwt beam="2">  1       -2 0.13749974E+00 0.16124913E+04</pdfrwt>
<totfact> 0.54815332E-01</totfact>
</mgrwt>
</event>
<event>
 4    5  0.8511149E-008  0.6660303E+03  0.7818608E-02  0.1018684E+00
          2   -1    0    0  501    0  0.00000000000E+00  0.00000000000E+00  0.86021426811E+03  0.86021426811E+03  0.25500000000E-02 0. -1.
         -2   -1    0    0    0  501 -0.00000000000E+00 -0.00000000000E+00 -0.55305651545E+03  0.55305651545E+03  0.25500000000E-02 0.  1.
    8880023    1    1    2    0    0  0.88784045700E+02  0.43629494309E+02 -0.33517386739E+03  0.74561241083E+03  0.65864270000E+03 0.  1.
    8880022    1    1    2    0    0 -0.88784045700E+02 -0.43629494309E+02  0.64233162005E+03  0.66765837273E+03  0.15294330000E+03 0.  0.
<mgrwt>
<rscale>  0 0.48164430E+03</rscale>
<asrwt>0</asrwt>
<pdfrwt beam="1">  1        2 0.13234066E+00 0.66603029E+03</pdfrwt>
<pdfrwt beam="2">  1       -2 0.85085618E-01 0.66603029E+03</pdfrwt>
<totfact> 0.38372903E+01</totfact>
</mgrwt>
</event>
<event>
 4    5  0.8511149E-008  0.7707343E+03  0.7818608E-02  0.9778070E-01
          2   -1    0    0  501    0  0.00000000000E+00  0.00000000000E+00  0.14822871015E+04  0.14822871015E+04  0.25500000000E-02 0. -1.
         -2   -1    0    0    0  501 -0.00000000000E+00 -0.00000000000E+00 -0.53559211716E+03  0.53559211717E+03  0.25500000000E-02 0.  1.
    8880023    1    1    2    0    0  0.28849223090E+03 -0.27747678884E+03 -0.19787363703E+03  0.79572942520E+03  0.65864270000E+03 0.  0.
    8880022    1    1    2    0    0 -0.28849223090E+03  0.27747678884E+03  0.11445686214E+04  0.12221497935E+04  0.15294330000E+03 0. -1.
<mgrwt>
<rscale>  0 0.66552807E+03</rscale>
<asrwt>0</asrwt>
<pdfrwt beam="1">  1        2 0.22804416E+00 0.77073429E+03</pdfrwt>
<pdfrwt beam="2">  1       -2 0.82398789E-01 0.77073429E+03</pdfrwt>
<totfact> 0.17153860E+01</totfact>
</mgrwt>
</event>
<event>
 4    5  0.8511149E-008  0.9696213E+03  0.7818608E-02  0.9422428E-01
         -2   -1    0    0    0  501 -0.00000000000E+00  0.00000000000E+00  0.87073206169E+03  0.87073206169E+03  0.25500000000E-02 0.  1.
          2   -1    0    0  501    0  0.00000000000E+00 -0.00000000000E+00 -0.10390889175E+04  0.10390889175E+04  0.25500000000E-02 0. -1.
    8880023    1    1    2    0    0 -0.65927216598E+03  0.26779739462E+03  0.33390693796E+03  0.10255044041E+04  0.65864270000E+03 0.  0.
    8880022    1    1    2    0    0  0.65927216598E+03 -0.26779739462E+03 -0.50226379376E+03  0.88431657507E+03  0.15294330000E+03 0.  0.
<mgrwt>
<rscale>  0 0.90252691E+03</rscale>
<asrwt>0</asrwt>
<pdfrwt beam="1">  1        2 0.15985983E+00 0.96962129E+03</pdfrwt>
<pdfrwt beam="2">  1       -2 0.13395878E+00 0.96962129E+03</pdfrwt>
<totfact> 0.95181132E+00</totfact>
</mgrwt>
</event>
<event>
 4    5  0.8511149E-008  0.1232617E+04  0.7818608E-02  0.9126051E-01
         -2   -1    0    0    0  501 -0.00000000000E+00  0.00000000000E+00  0.58952605886E+03  0.58952605887E+03  0.25500000000E-02 0.  1.
          2   -1    0    0  501    0  0.00000000000E+00 -0.00000000000E+00 -0.32062667928E+04  0.32062667928E+04  0.25500000000E-02 0. -1.
    8880023    1    1    2    0    0 -0.19419013211E+03  0.10236324788E+04 -0.32661095505E+03  0.12751541794E+04  0.65864270000E+03 0.  1.
    8880022    1    1    2    0    0  0.19419013211E+03 -0.10236324788E+04 -0.22901297789E+04  0.25206386723E+04  0.15294330000E+03 0.  0.
<mgrwt>
<rscale>  0 0.11850420E+04</rscale>
<asrwt>0</asrwt>
<pdfrwt beam="1">  1        2 0.49327180E+00 0.12326165E+04</pdfrwt>
<pdfrwt beam="2">  1       -2 0.90696319E-01 0.12326165E+04</pdfrwt>
<totfact> 0.13219921E+00</totfact>
</mgrwt>
</event>
<event>
 4    5  0.8511149E-008  0.9712201E+03  0.7818608E-02  0.9420219E-01
          2   -1    0    0  501    0  0.00000000000E+00  0.00000000000E+00  0.11915928084E+04  0.11915928084E+04  0.25500000000E-02 0. -1.
         -2   -1    0    0    0  501 -0.00000000000E+00 -0.00000000000E+00 -0.80488991788E+03  0.80488991788E+03  0.25500000000E-02 0.  1.
    8880023    1    1    2    0    0 -0.67508572113E+03  0.23177042430E+03 -0.27694481010E+03  0.10099341041E+04  0.65864270000E+03 0.  0.
    8880022    1    1    2    0    0  0.67508572113E+03 -0.23177042430E+03  0.66364770065E+03  0.98654862225E+03  0.15294330000E+03 0.  0.
<mgrwt>
<rscale>  0 0.90430276E+03</rscale>
<asrwt>0</asrwt>
<pdfrwt beam="1">  1        2 0.18332197E+00 0.97122009E+03</pdfrwt>
<pdfrwt beam="2">  1       -2 0.12382922E+00 0.97122009E+03</pdfrwt>
<totfact> 0.93619448E+00</totfact>
</mgrwt>
</event>
<event>
 4    5  0.8511149E-008  0.8196489E+03  0.7818608E-02  0.9669818E-01
          2   -1    0    0  501    0  0.00000000000E+00  0.00000000000E+00  0.16348640990E+04  0.16348640990E+04  0.25500000000E-02 0. -1.
         -2   -1    0    0    0  501 -0.00000000000E+00 -0.00000000000E+00 -0.72514676893E+03  0.72514676893E+03  0.25500000000E-02 0.  1.
    8880023    1    1    2    0    0  0.65258898419E+02  0.48348251819E+03 -0.43032482395E+03  0.92574495926E+03  0.65864270000E+03 0.  1.
    8880022    1    1    2    0    0 -0.65258898419E+02 -0.48348251819E+03  0.13400421540E+04  0.14342659087E+04  0.15294330000E+03 0.  0.
<mgrwt>
<rscale>  0 0.72842572E+03</rscale>
<asrwt>0</asrwt>
<pdfrwt beam="1">  1        2 0.25151755E+00 0.81964887E+03</pdfrwt>
<pdfrwt beam="2">  1       -2 0.11156104E+00 0.81964887E+03</pdfrwt>
<totfact> 0.68890860E+00</totfact>
</mgrwt>
</event>
<event>
 4    5  0.8511149E-008  0.7496453E+03  0.7818608E-02  0.9832692E-01
         -2   -1    0    0    0  501 -0.00000000000E+00  0.00000000000E+00  0.42504461046E+03  0.42504461047E+03  0.25500000000E-02 0.  1.
          2   -1    0    0  501    0  0.00000000000E+00 -0.00000000000E+00 -0.26124619039E+04  0.26124619039E+04  0.25500000000E-02 0. -1.
    8880023    1    1    2    0    0 -0.16099247926E+03 -0.31974870198E+03  0.64288031795E+02  0.75239681558E+03  0.65864270000E+03 0.  1.
    8880022    1    1    2    0    0  0.16099247926E+03  0.31974870198E+03 -0.22517053252E+04  0.22851096988E+04  0.15294330000E+03 0.  0.
<mgrwt>
<rscale>  0 0.63637213E+03</rscale>
<asrwt>0</asrwt>
<pdfrwt beam="1">  1        2 0.40191721E+00 0.74964526E+03</pdfrwt>
<pdfrwt beam="2">  1       -2 0.65391480E-01 0.74964526E+03</pdfrwt>
<totfact> 0.67894592E+00</totfact>
</mgrwt>
</event>
<event>
 4    5  0.8511149E-008  0.1184678E+04  0.7818608E-02  0.9172162E-01
          2   -1    0    0  501    0  0.00000000000E+00  0.00000000000E+00  0.17717129660E+04  0.17717129660E+04  0.25500000000E-02 0. -1.
         -2   -1    0    0    0  501 -0.00000000000E+00 -0.00000000000E+00 -0.11735202295E+04  0.11735202295E+04  0.25500000000E-02 0.  1.
    8880023    1    1    2    0    0 -0.45848351391E+03  0.87146100867E+03 -0.64742988313E+03  0.13500470666E+04  0.65864270000E+03 0.  1.
    8880022    1    1    2    0    0  0.45848351391E+03 -0.87146100867E+03  0.12456226197E+04  0.15951861289E+04  0.15294330000E+03 0.  0.
<mgrwt>
<rscale>  0 0.11345437E+04</rscale>
<asrwt>0</asrwt>
<pdfrwt beam="1">  1        2 0.27257123E+00 0.11846779E+04</pdfrwt>
<pdfrwt beam="2">  1       -2 0.18054157E+00 0.11846779E+04</pdfrwt>
<totfact> 0.15639395E+00</totfact>
</mgrwt>
</event>
<event>
 4    5  0.8511149E-008  0.7315419E+03  0.7818608E-02  0.9885307E-01
          2   -1    0    0  501    0  0.00000000000E+00  0.00000000000E+00  0.12573102024E+04  0.12573102024E+04  0.25500000000E-02 0. -1.
         -2   -1    0    0    0  501 -0.00000000000E+00 -0.00000000000E+00 -0.47485406114E+03  0.47485406115E+03  0.25500000000E-02 0.  1.
    8880023    1    1    2    0    0  0.21062408238E+03 -0.23870656699E+03 -0.13963559747E+03  0.74474937767E+03  0.65864270000E+03 0.  0.
    8880022    1    1    2    0    0 -0.21062408238E+03  0.23870656699E+03  0.92209173868E+03  0.98741488583E+03  0.15294330000E+03 0.  0.
<mgrwt>
<rscale>  0 0.60978668E+03</rscale>
<asrwt>0</asrwt>
<pdfrwt beam="1">  1        2 0.19343233E+00 0.73154189E+03</pdfrwt>
<pdfrwt beam="2">  1       -2 0.73054473E-01 0.73154189E+03</pdfrwt>
<totfact> 0.30276343E+01</totfact>
</mgrwt>
</event>
<event>
 4    5  0.8511149E-008  0.1246827E+04  0.7818608E-02  0.9112895E-01
          2   -1    0    0  501    0  0.00000000000E+00  0.00000000000E+00  0.24557985018E+04  0.24557985018E+04  0.25500000000E-02 0. -1.
         -2   -1    0    0    0  501 -0.00000000000E+00 -0.00000000000E+00 -0.63655477322E+03  0.63655477323E+03  0.25500000000E-02 0.  1.
    8880023    1    1    2    0    0 -0.58926135120E+03 -0.87951020419E+03  0.38847525074E+03  0.13059442431E+04  0.65864270000E+03 0.  0.
    8880022    1    1    2    0    0  0.58926135120E+03  0.87951020419E+03  0.14307684778E+04  0.17864090320E+04  0.15294330000E+03 0.  0.
<mgrwt>
<rscale>  0 0.11999563E+04</rscale>
<asrwt>0</asrwt>
<pdfrwt beam="1">  1        2 0.37781516E+00 0.12468269E+04</pdfrwt>
<pdfrwt beam="2">  1       -2 0.97931502E-01 0.12468269E+04</pdfrwt>
<totfact> 0.31337995E+00</totfact>
</mgrwt>
</event>
<event>
 4    5  0.8511149E-008  0.8313881E+03  0.7818608E-02  0.9646638E-01
          2   -1    0    0  501    0  0.00000000000E+00  0.00000000000E+00  0.17305621501E+04  0.17305621501E+04  0.25500000000E-02 0. -1.
         -2   -1    0    0    0  501 -0.00000000000E+00 -0.00000000000E+00 -0.38469009198E+03  0.38469009199E+03  0.25500000000E-02 0.  1.
    8880023    1    1    2    0    0 -0.34810390988E+03  0.36907943324E+03  0.20344800600E+03  0.85591895500E+03  0.65864270000E+03 0.  1.
    8880022    1    1    2    0    0  0.34810390988E+03 -0.36907943324E+03  0.11424240521E+04  0.12593332871E+04  0.15294330000E+03 0.  0.
<mgrwt>
<rscale>  0 0.74284823E+03</rscale>
<asrwt>0</asrwt>
<pdfrwt beam="1">  1        2 0.26624032E+00 0.83138810E+03</pdfrwt>
<pdfrwt beam="2">  1       -2 0.59183093E-01 0.83138810E+03</pdfrwt>
<totfact> 0.25592471E+01</totfact>
</mgrwt>
</event>
<event>
 4    5  0.8511149E-008  0.7188049E+03  0.7818608E-02  0.9926651E-01
          2   -1    0    0  501    0  0.00000000000E+00  0.00000000000E+00  0.22787468168E+04  0.22787468168E+04  0.25500000000E-02 0. -1.
         -2   -1    0    0    0  501 -0.00000000000E+00 -0.00000000000E+00 -0.13353366243E+03  0.13353366246E+03  0.25500000000E-02 0.  1.
    8880023    1    1    2    0    0  0.28766057714E+03 -0.11031801805E+02  0.10722443438E+04  0.12908866904E+04  0.65864270000E+03 0.  1.
    8880022    1    1    2    0    0 -0.28766057714E+03  0.11031801805E+02  0.10729688106E+04  0.11213937889E+04  0.15294330000E+03 0.  0.
<mgrwt>
<rscale>  0 0.58986891E+03</rscale>
<asrwt>0</asrwt>
<pdfrwt beam="1">  1        2 0.35057645E+00 0.71880492E+03</pdfrwt>
<pdfrwt beam="2">  1       -2 0.20543639E-01 0.71880492E+03</pdfrwt>
<totfact> 0.98319545E+01</totfact>
</mgrwt>
</event>
<event>
 4    5  0.8511149E-008  0.7406139E+03  0.7818608E-02  0.9858162E-01
          2   -1    0    0  501    0  0.00000000000E+00  0.00000000000E+00  0.60493986820E+03  0.60493986821E+03  0.25500000000E-02 0. -1.
         -2   -1    0    0    0  501 -0.00000000000E+00 -0.00000000000E+00 -0.60849477828E+03  0.60849477829E+03  0.25500000000E-02 0.  1.
    8880023    1    1    2    0    0 -0.17803839043E+03 -0.28809904936E+03 -0.23336482234E+03  0.77651019136E+03  0.65864270000E+03 0. -1.
    8880022    1    1    2    0    0  0.17803839043E+03  0.28809904936E+03  0.22980991226E+03  0.43692445514E+03  0.15294330000E+03 0.  1.
<mgrwt>
<rscale>  0 0.62332468E+03</rscale>
<asrwt>0</asrwt>
<pdfrwt beam="1">  1        2 0.93067672E-01 0.74061389E+03</pdfrwt>
<pdfrwt beam="2">  1       -2 0.93614581E-01 0.74061389E+03</pdfrwt>
<totfact> 0.47981450E+01</totfact>
</mgrwt>
</event>
<event>
 4    5  0.8511149E-008  0.6929615E+03  0.7818608E-02  0.1002776E+00
         -2   -1    0    0    0  501 -0.00000000000E+00  0.00000000000E+00  0.31793742960E+03  0.31793742961E+03  0.25500000000E-02 0.  1.
          2   -1    0    0  501    0  0.00000000000E+00 -0.00000000000E+00 -0.20557083985E+04  0.20557083985E+04  0.25500000000E-02 0. -1.
    8880023    1    1    2    0    0  0.18065802492E+03 -0.11725230256E+03 -0.82989181815E+02  0.69791320018E+03  0.65864270000E+03 0.  0.
    8880022    1    1    2    0    0 -0.18065802492E+03  0.11725230256E+03 -0.16547817871E+04  0.16757326279E+04  0.15294330000E+03 0. -1.
<mgrwt>
<rscale>  0 0.54449754E+03</rscale>
<asrwt>0</asrwt>
<pdfrwt beam="1">  1        2 0.31626282E+00 0.69296149E+03</pdfrwt>
<pdfrwt beam="2">  1       -2 0.48913452E-01 0.69296149E+03</pdfrwt>
<totfact> 0.25669390E+01</totfact>
</mgrwt>
</event>
<event>
 4    5  0.8511149E-008  0.9352571E+03  0.7818608E-02  0.9471651E-01
         -2   -1    0    0    0  501 -0.00000000000E+00  0.00000000000E+00  0.26253760236E+03  0.26253760237E+03  0.25500000000E-02 0.  1.
          2   -1    0    0  501    0  0.00000000000E+00 -0.00000000000E+00 -0.31195125843E+04  0.31195125843E+04  0.25500000000E-02 0. -1.
    8880023    1    1    2    0    0  0.31164532831E+03 -0.58632140266E+03 -0.85455783946E+03  0.12668760417E+04  0.65864270000E+03 0.  0.
    8880022    1    1    2    0    0 -0.31164532831E+03  0.58632140266E+03 -0.20024171424E+04  0.21151741449E+04  0.15294330000E+03 0.  0.
<mgrwt>
<rscale>  0 0.86406537E+03</rscale>
<asrwt>0</asrwt>
<pdfrwt beam="1">  1        2 0.47992499E+00 0.93525708E+03</pdfrwt>
<pdfrwt beam="2">  1       -2 0.40390403E-01 0.93525708E+03</pdfrwt>
<totfact> 0.87858380E+00</totfact>
</mgrwt>
</event>
<event>
 4    5  0.8511149E-008  0.7163596E+03  0.7818608E-02  0.9935102E-01
         -2   -1    0    0    0  501 -0.00000000000E+00  0.00000000000E+00  0.77113234696E+03  0.77113234697E+03  0.25500000000E-02 0.  1.
          2   -1    0    0  501    0  0.00000000000E+00 -0.00000000000E+00 -0.64334469943E+03  0.64334469943E+03  0.25500000000E-02 0. -1.
    8880023    1    1    2    0    0  0.24151490555E+03  0.14502236259E+03  0.53654899617E+03  0.89501729973E+03  0.65864270000E+03 0.  1.
    8880022    1    1    2    0    0 -0.24151490555E+03 -0.14502236259E+03 -0.40876134864E+03  0.51945974667E+03  0.15294330000E+03 0.  0.
<mgrwt>
<rscale>  0 0.58589856E+03</rscale>
<asrwt>0</asrwt>
<pdfrwt beam="1">  1        2 0.98976107E-01 0.71635965E+03</pdfrwt>
<pdfrwt beam="2">  1       -2 0.11863575E+00 0.71635965E+03</pdfrwt>
<totfact> 0.25282064E+01</totfact>
</mgrwt>
</event>
<event>
 4    5  0.8511149E-008  0.9424664E+03  0.7818608E-02  0.9461037E-01
         -2   -1    0    0    0  501 -0.00000000000E+00  0.00000000000E+00  0.15178027640E+04  0.15178027640E+04  0.25500000000E-02 0.  1.
          2   -1    0    0  501    0  0.00000000000E+00 -0.00000000000E+00 -0.12008992871E+04  0.12008992871E+04  0.25500000000E-02 0. -1.
    8880023    1    1    2    0    0 -0.44993620905E+03 -0.50198608157E+03  0.12449837498E+04  0.15614824245E+04  0.65864270000E+03 0.  1.
    8880022    1    1    2    0    0  0.44993620905E+03  0.50198608157E+03 -0.92808027289E+03  0.11572196266E+04  0.15294330000E+03 0.  0.
<mgrwt>
<rscale>  0 0.87218360E+03</rscale>
<asrwt>0</asrwt>
<pdfrwt beam="1">  1        2 0.18475374E+00 0.94246635E+03</pdfrwt>
<pdfrwt beam="2">  1       -2 0.23350812E+00 0.94246635E+03</pdfrwt>
<totfact> 0.15420399E+00</totfact>
</mgrwt>
</event>
<event>
 4    5  0.8511149E-008  0.9309616E+03  0.7818608E-02  0.9478052E-01
          2   -1    0    0  501    0  0.00000000000E+00  0.00000000000E+00  0.26210413044E+04  0.26210413044E+04  0.25500000000E-02 0. -1.
         -2   -1    0    0    0  501 -0.00000000000E+00 -0.00000000000E+00 -0.49418773681E+03  0.49418773682E+03  0.25500000000E-02 0.  1.
    8880023    1    1    2    0    0 -0.65269785795E+03 -0.82853843748E+02  0.51130521677E+02  0.93236462273E+03  0.65864270000E+03 0.  0.
    8880022    1    1    2    0    0  0.65269785795E+03  0.82853843748E+02  0.20757230460E+04  0.21828644185E+04  0.15294330000E+03 0. -1.
<mgrwt>
<rscale>  0 0.85921463E+03</rscale>
<asrwt>0</asrwt>
<pdfrwt beam="1">  1        2 0.40323712E+00 0.93096158E+03</pdfrwt>
<pdfrwt beam="2">  1       -2 0.76028884E-01 0.93096158E+03</pdfrwt>
<totfact> 0.46869199E+00</totfact>
</mgrwt>
</event>
<event>
 4    5  0.8511149E-008  0.7167020E+03  0.7818608E-02  0.9933907E-01
          2   -1    0    0  501    0  0.00000000000E+00  0.00000000000E+00  0.11842353729E+04  0.11842353729E+04  0.25500000000E-02 0. -1.
         -2   -1    0    0    0  501 -0.00000000000E+00 -0.00000000000E+00 -0.25005075196E+03  0.25005075198E+03  0.25500000000E-02 0.  1.
    8880023    1    1    2    0    0 -0.88708399381E+02 -0.26829534299E+03  0.42812573992E+03  0.83483736538E+03  0.65864270000E+03 0.  0.
    8880022    1    1    2    0    0  0.88708399381E+02  0.26829534299E+03  0.50605888102E+03  0.59944875950E+03  0.15294330000E+03 0.  0.
<mgrwt>
<rscale>  0 0.58645766E+03</rscale>
<asrwt>0</asrwt>
<pdfrwt beam="1">  1        2 0.18219006E+00 0.71670201E+03</pdfrwt>
<pdfrwt beam="2">  1       -2 0.38469346E-01 0.71670201E+03</pdfrwt>
<totfact> 0.12558366E+02</totfact>
</mgrwt>
</event>
<event>
 4    5  0.8511149E-008  0.7750698E+03  0.7818608E-02  0.9767548E-01
         -2   -1    0    0    0  501 -0.00000000000E+00  0.00000000000E+00  0.75870852887E+03  0.75870852887E+03  0.25500000000E-02 0.  1.
          2   -1    0    0  501    0  0.00000000000E+00 -0.00000000000E+00 -0.12459786277E+04  0.12459786277E+04  0.25500000000E-02 0. -1.
    8880023    1    1    2    0    0  0.37102964091E+03 -0.17105531591E+03  0.50204139432E+03  0.92346016883E+03  0.65864270000E+03 0.  0.
    8880022    1    1    2    0    0 -0.37102964091E+03  0.17105531591E+03 -0.98931149317E+03  0.10812269878E+04  0.15294330000E+03 0.  0.
<mgrwt>
<rscale>  0 0.67133547E+03</rscale>
<asrwt>0</asrwt>
<pdfrwt beam="1">  1        2 0.19168902E+00 0.77506975E+03</pdfrwt>
<pdfrwt beam="2">  1       -2 0.11672439E+00 0.77506975E+03</pdfrwt>
<totfact> 0.10286145E+01</totfact>
</mgrwt>
</event>
<event>
 4    5  0.8511149E-008  0.8943713E+03  0.7818608E-02  0.9535129E-01
          2   -1    0    0  501    0  0.00000000000E+00  0.00000000000E+00  0.80657859072E+03  0.80657859073E+03  0.25500000000E-02 0. -1.
         -2   -1    0    0    0  501 -0.00000000000E+00 -0.00000000000E+00 -0.81358519692E+03  0.81358519693E+03  0.25500000000E-02 0.  1.
    8880023    1    1    2    0    0  0.63738199995E+02 -0.60168701223E+03  0.27447012413E+03  0.93553934932E+03  0.65864270000E+03 0.  0.
    8880022    1    1    2    0    0 -0.63738199995E+02  0.60168701223E+03 -0.28147673033E+03  0.68462443833E+03  0.15294330000E+03 0.  0.
<mgrwt>
<rscale>  0 0.81742750E+03</rscale>
<asrwt>0</asrwt>
<pdfrwt beam="1">  1        2 0.12408901E+00 0.89437130E+03</pdfrwt>
<pdfrwt beam="2">  1       -2 0.12516695E+00 0.89437130E+03</pdfrwt>
<totfact> 0.16304702E+01</totfact>
</mgrwt>
</event>
<event>
 4    5  0.8511149E-008  0.9415961E+03  0.7818608E-02  0.9462310E-01
          2   -1    0    0  501    0  0.00000000000E+00  0.00000000000E+00  0.13044775191E+04  0.13044775191E+04  0.25500000000E-02 0. -1.
         -2   -1    0    0    0  501 -0.00000000000E+00 -0.00000000000E+00 -0.70819697796E+03  0.70819697796E+03  0.25500000000E-02 0.  1.
    8880023    1    1    2    0    0 -0.51144247951E+03  0.43728662895E+03  0.85874859832E+03  0.12743831320E+04  0.65864270000E+03 0.  1.
    8880022    1    1    2    0    0  0.51144247951E+03 -0.43728662895E+03 -0.26246805718E+03  0.73829136508E+03  0.15294330000E+03 0.  0.
<mgrwt>
<rscale>  0 0.87120511E+03</rscale>
<asrwt>0</asrwt>
<pdfrwt beam="1">  1        2 0.20068885E+00 0.94159610E+03</pdfrwt>
<pdfrwt beam="2">  1       -2 0.10895338E+00 0.94159610E+03</pdfrwt>
<totfact> 0.11043083E+01</totfact>
</mgrwt>
</event>
<event>
 4    5  0.8511149E-008  0.7832801E+03  0.7818608E-02  0.9748188E-01
         -2   -1    0    0    0  501 -0.00000000000E+00  0.00000000000E+00  0.23530608540E+03  0.23530608542E+03  0.25500000000E-02 0.  1.
          2   -1    0    0  501    0  0.00000000000E+00 -0.00000000000E+00 -0.17268497443E+04  0.17268497443E+04  0.25500000000E-02 0. -1.
    8880023    1    1    2    0    0 -0.35536639037E+03 -0.23115428277E+03 -0.69601006557E+03  0.10478348112E+04  0.65864270000E+03 0.  1.
    8880022    1    1    2    0    0  0.35536639037E+03  0.23115428277E+03 -0.79553359332E+03  0.91432101855E+03  0.15294330000E+03 0.  0.
<mgrwt>
<rscale>  0 0.68218795E+03</rscale>
<asrwt>0</asrwt>
<pdfrwt beam="1">  1        2 0.26566918E+00 0.78328014E+03</pdfrwt>
<pdfrwt beam="2">  1       -2 0.36200937E-01 0.78328014E+03</pdfrwt>
<totfact> 0.69387700E+01</totfact>
</mgrwt>
</event>
<event>
 4    5  0.8511149E-008  0.8631818E+03  0.7818608E-02  0.9587928E-01
          2   -1    0    0  501    0  0.00000000000E+00  0.00000000000E+00  0.30422883406E+04  0.30422883406E+04  0.25500000000E-02 0. -1.
         -2   -1    0    0    0  501 -0.00000000000E+00 -0.00000000000E+00 -0.55372123412E+03  0.55372123412E+03  0.25500000000E-02 0.  1.
    8880023    1    1    2    0    0  0.36063942084E+03 -0.42568984958E+03 -0.16611945890E+03  0.87902134263E+03  0.65864270000E+03 0.  1.
    8880022    1    1    2    0    0 -0.36063942084E+03  0.42568984958E+03  0.26546865654E+04  0.27169882321E+04  0.15294330000E+03 0.  0.
<mgrwt>
<rscale>  0 0.78100333E+03</rscale>
<asrwt>0</asrwt>
<pdfrwt beam="1">  1        2 0.46804437E+00 0.86318182E+03</pdfrwt>
<pdfrwt beam="2">  1       -2 0.85187881E-01 0.86318182E+03</pdfrwt>
<totfact> 0.20526218E+00</totfact>
</mgrwt>
</event>
<event>
 4    5  0.8511149E-008  0.7765641E+03  0.7818608E-02  0.9763971E-01
         -2   -1    0    0    0  501 -0.00000000000E+00  0.00000000000E+00  0.51881808185E+03  0.51881808186E+03  0.25500000000E-02 0.  1.
          2   -1    0    0  501    0  0.00000000000E+00 -0.00000000000E+00 -0.20374172522E+04  0.20374172522E+04  0.25500000000E-02 0. -1.
    8880023    1    1    2    0    0  0.23710262693E+03 -0.33619025700E+03  0.18392546334E+03  0.79804782246E+03  0.65864270000E+03 0.  1.
    8880022    1    1    2    0    0 -0.23710262693E+03  0.33619025700E+03 -0.17025246336E+04  0.17581875116E+04  0.15294330000E+03 0.  0.
<mgrwt>
<rscale>  0 0.67332441E+03</rscale>
<asrwt>0</asrwt>
<pdfrwt beam="1">  1        2 0.31344880E+00 0.77656407E+03</pdfrwt>
<pdfrwt beam="2">  1       -2 0.79818167E-01 0.77656407E+03</pdfrwt>
<totfact> 0.91333429E+00</totfact>
</mgrwt>
</event>
<event>
 4    5  0.8511149E-008  0.8747976E+03  0.7818608E-02  0.9567765E-01
         -2   -1    0    0    0  501 -0.00000000000E+00  0.00000000000E+00  0.38078264986E+03  0.38078264987E+03  0.25500000000E-02 0.  1.
          2   -1    0    0  501    0  0.00000000000E+00 -0.00000000000E+00 -0.30355563053E+04  0.30355563053E+04  0.25500000000E-02 0. -1.
    8880023    1    1    2    0    0 -0.10499219450E+03  0.56607178721E+03 -0.20947510210E+03  0.89952801726E+03  0.65864270000E+03 0.  0.
    8880022    1    1    2    0    0  0.10499219450E+03 -0.56607178721E+03 -0.24452985533E+04  0.25168109379E+04  0.15294330000E+03 0.  0.
<mgrwt>
<rscale>  0 0.79466967E+03</rscale>
<asrwt>0</asrwt>
<pdfrwt beam="1">  1        2 0.46700865E+00 0.87479760E+03</pdfrwt>
<pdfrwt beam="2">  1       -2 0.58581948E-01 0.87479760E+03</pdfrwt>
<totfact> 0.47013233E+00</totfact>
</mgrwt>
</event>
<event>
 4    5  0.8511149E-008  0.8978750E+03  0.7818608E-02  0.9529452E-01
         -2   -1    0    0    0  501 -0.00000000000E+00  0.00000000000E+00  0.32005135174E+03  0.32005135175E+03  0.25500000000E-02 0.  1.
          2   -1    0    0  501    0  0.00000000000E+00 -0.00000000000E+00 -0.26553895577E+04  0.26553895577E+04  0.25500000000E-02 0. -1.
    8880023    1    1    2    0    0  0.52021161148E+03  0.31898150087E+03 -0.21335388351E+04  0.23147715839E+04  0.65864270000E+03 0.  0.
    8880022    1    1    2    0    0 -0.52021161148E+03 -0.31898150087E+03 -0.20179937088E+03  0.66066932554E+03  0.15294330000E+03 0.  0.
<mgrwt>
<rscale>  0 0.82146872E+03</rscale>
<asrwt>0</asrwt>
<pdfrwt beam="1">  1        2 0.40852145E+00 0.89787501E+03</pdfrwt>
<pdfrwt beam="2">  1       -2 0.49238671E-01 0.89787501E+03</pdfrwt>
<totfact> 0.11340311E+01</totfact>
</mgrwt>
</event>
<event>
 4    5  0.8511149E-008  0.7886062E+03  0.7818608E-02  0.9735996E-01
          2   -1    0    0  501    0  0.00000000000E+00  0.00000000000E+00  0.33489794054E+03  0.33489794055E+03  0.25500000000E-02 0. -1.
         -2   -1    0    0    0  501 -0.00000000000E+00 -0.00000000000E+00 -0.36301900254E+04  0.36301900254E+04  0.25500000000E-02 0.  1.
    8880023    1    1    2    0    0  0.42616508907E+03  0.80453660320E+02 -0.34026604938E+04  0.34928495697E+04  0.65864270000E+03 0.  1.
    8880022    1    1    2    0    0 -0.42616508907E+03 -0.80453660320E+02  0.10736840893E+03  0.47223839620E+03  0.15294330000E+03 0.  0.
<mgrwt>
<rscale>  0 0.68913463E+03</rscale>
<asrwt>0</asrwt>
<pdfrwt beam="1">  1        2 0.51522763E-01 0.78860616E+03</pdfrwt>
<pdfrwt beam="2">  1       -2 0.55849075E+00 0.78860616E+03</pdfrwt>
<totfact> 0.77061115E-02</totfact>
</mgrwt>
</event>
<event>
 4    5  0.8511149E-008  0.9716110E+03  0.7818608E-02  0.9419680E-01
         -2   -1    0    0    0  501 -0.00000000000E+00  0.00000000000E+00  0.82483527925E+03  0.82483527925E+03  0.25500000000E-02 0.  1.
          2   -1    0    0  501    0  0.00000000000E+00 -0.00000000000E+00 -0.16304738217E+04  0.16304738217E+04  0.25500000000E-02 0. -1.
    8880023    1    1    2    0    0 -0.67091636806E+03 -0.24513034305E+03  0.39587506775E+03  0.10491639212E+04  0.65864270000E+03 0.  1.
    8880022    1    1    2    0    0  0.67091636806E+03  0.24513034305E+03 -0.12015136102E+04  0.14061451797E+04  0.15294330000E+03 0.  0.
<mgrwt>
<rscale>  0 0.90473675E+03</rscale>
<asrwt>0</asrwt>
<pdfrwt beam="1">  1        2 0.25084213E+00 0.97161096E+03</pdfrwt>
<pdfrwt beam="2">  1       -2 0.12689774E+00 0.97161096E+03</pdfrwt>
<totfact> 0.49396290E+00</totfact>
</mgrwt>
</event>
<event>
 4    5  0.8511149E-008  0.7750623E+03  0.7818608E-02  0.9767566E-01
         -2   -1    0    0    0  501 -0.00000000000E+00  0.00000000000E+00  0.29169456289E+03  0.29169456290E+03  0.25500000000E-02 0.  1.
          2   -1    0    0  501    0  0.00000000000E+00 -0.00000000000E+00 -0.19485325507E+04  0.19485325507E+04  0.25500000000E-02 0. -1.
    8880023    1    1    2    0    0 -0.40847642602E+03  0.76451227828E+01 -0.32798772289E+03  0.84160417724E+03  0.65864270000E+03 0.  0.
    8880022    1    1    2    0    0  0.40847642602E+03 -0.76451227828E+01 -0.13288502649E+04  0.13986229363E+04  0.15294330000E+03 0.  0.
<mgrwt>
<rscale>  0 0.67132560E+03</rscale>
<asrwt>0</asrwt>
<pdfrwt beam="1">  1        2 0.29977423E+00 0.77506235E+03</pdfrwt>
<pdfrwt beam="2">  1       -2 0.44876088E-01 0.77506235E+03</pdfrwt>
<totfact> 0.34536862E+01</totfact>
</mgrwt>
</event>
<event>
 4    5  0.8511149E-008  0.9701067E+03  0.7818608E-02  0.9421757E-01
          2   -1    0    0  501    0  0.00000000000E+00  0.00000000000E+00  0.44621216089E+03  0.44621216090E+03  0.25500000000E-02 0. -1.
         -2   -1    0    0    0  501 -0.00000000000E+00 -0.00000000000E+00 -0.17865356510E+04  0.17865356510E+04  0.25500000000E-02 0.  1.
    8880023    1    1    2    0    0  0.71153206235E+03 -0.31921698948E+02 -0.10976586651E+04  0.14649101071E+04  0.65864270000E+03 0.  0.
    8880022    1    1    2    0    0 -0.71153206235E+03  0.31921698948E+02 -0.24266482505E+03  0.76783770482E+03  0.15294330000E+03 0.  0.
<mgrwt>
<rscale>  0 0.90306623E+03</rscale>
<asrwt>0</asrwt>
<pdfrwt beam="1">  1        2 0.68648025E-01 0.97010673E+03</pdfrwt>
<pdfrwt beam="2">  1       -2 0.27485164E+00 0.97010673E+03</pdfrwt>
<totfact> 0.32020310E+00</totfact>
</mgrwt>
</event>
<event>
 4    5  0.8511149E-008  0.8276003E+03  0.7818608E-02  0.9654020E-01
         -2   -1    0    0    0  501 -0.00000000000E+00  0.00000000000E+00  0.42757944006E+03  0.42757944007E+03  0.25500000000E-02 0.  1.
          2   -1    0    0  501    0  0.00000000000E+00 -0.00000000000E+00 -0.16311686627E+04  0.16311686627E+04  0.25500000000E-02 0. -1.
    8880023    1    1    2    0    0  0.48257855375E+03  0.13501870715E+03 -0.95568749580E+02  0.83310005640E+03  0.65864270000E+03 0.  0.
    8880022    1    1    2    0    0 -0.48257855375E+03 -0.13501870715E+03 -0.11080204731E+04  0.12256480464E+04  0.15294330000E+03 0.  0.
<mgrwt>
<rscale>  0 0.73821698E+03</rscale>
<asrwt>0</asrwt>
<pdfrwt beam="1">  1        2 0.25094902E+00 0.82760034E+03</pdfrwt>
<pdfrwt beam="2">  1       -2 0.65781453E-01 0.82760034E+03</pdfrwt>
<totfact> 0.23176757E+01</totfact>
</mgrwt>
</event>
<event>
 4    5  0.8511149E-008  0.6870160E+03  0.7818608E-02  0.1005604E+00
          2   -1    0    0  501    0  0.00000000000E+00  0.00000000000E+00  0.39868603381E+03  0.39868603382E+03  0.25500000000E-02 0. -1.
         -2   -1    0    0    0  501 -0.00000000000E+00 -0.00000000000E+00 -0.60804338462E+03  0.60804338462E+03  0.25500000000E-02 0.  1.
    8880023    1    1    2    0    0  0.17895466853E+03 -0.78460572852E+02 -0.29014470341E+03  0.74577140604E+03  0.65864270000E+03 0.  0.
    8880022    1    1    2    0    0 -0.17895466853E+03  0.78460572852E+02  0.80787352596E+02  0.26095801240E+03  0.15294330000E+03 0.  0.
<mgrwt>
<rscale>  0 0.53259673E+03</rscale>
<asrwt>0</asrwt>
<pdfrwt beam="1">  1        2 0.61336313E-01 0.68701604E+03</pdfrwt>
<pdfrwt beam="2">  1       -2 0.93545135E-01 0.68701604E+03</pdfrwt>
<totfact> 0.78220485E+01</totfact>
</mgrwt>
</event>
<event>
 4    5  0.8511149E-008  0.1304892E+04  0.7818608E-02  0.9061347E-01
          2   -1    0    0  501    0  0.00000000000E+00  0.00000000000E+00  0.28967806908E+04  0.28967806908E+04  0.25500000000E-02 0. -1.
         -2   -1    0    0    0  501 -0.00000000000E+00 -0.00000000000E+00 -0.69177551380E+03  0.69177551381E+03  0.25500000000E-02 0.  1.
    8880023    1    1    2    0    0  0.33733783118E+03  0.10747729628E+04  0.25231892216E+03  0.13290631206E+04  0.65864270000E+03 0.  0.
    8880022    1    1    2    0    0 -0.33733783118E+03 -0.10747729628E+04  0.19526862549E+04  0.22594930840E+04  0.15294330000E+03 0.  0.
<mgrwt>
<rscale>  0 0.12606731E+04</rscale>
<asrwt>0</asrwt>
<pdfrwt beam="1">  1        2 0.44565858E+00 0.13048923E+04</pdfrwt>
<pdfrwt beam="2">  1       -2 0.10642700E+00 0.13048923E+04</pdfrwt>
<totfact> 0.14005456E+00</totfact>
</mgrwt>
</event>
<event>
 4    5  0.8511149E-008  0.1490349E+04  0.7818608E-02  0.8916481E-01
         -2   -1    0    0    0  501 -0.00000000000E+00  0.00000000000E+00  0.10732986444E+04  0.10732986444E+04  0.25500000000E-02 0.  1.
          2   -1    0    0  501    0  0.00000000000E+00 -0.00000000000E+00 -0.28694349260E+04  0.28694349260E+04  0.25500000000E-02 0. -1.
    8880023    1    1    2    0    0 -0.88241230258E+03 -0.10043292651E+04  0.23250332626E+03  0.15083755327E+04  0.65864270000E+03 0.  1.
    8880022    1    1    2    0    0  0.88241230258E+03  0.10043292651E+04 -0.20286396079E+04  0.24343580378E+04  0.15294330000E+03 0.  0.
<mgrwt>
<rscale>  0 0.14527715E+04</rscale>
<asrwt>0</asrwt>
<pdfrwt beam="1">  1        2 0.44145152E+00 0.14903486E+04</pdfrwt>
<pdfrwt beam="2">  1       -2 0.16512287E+00 0.14903486E+04</pdfrwt>
<totfact> 0.45845262E-01</totfact>
</mgrwt>
</event>
<event>
 4    5  0.8511149E-008  0.7781913E+03  0.7818608E-02  0.9760103E-01
          2   -1    0    0  501    0  0.00000000000E+00  0.00000000000E+00  0.13933022472E+04  0.13933022472E+04  0.25500000000E-02 0. -1.
         -2   -1    0    0    0  501 -0.00000000000E+00 -0.00000000000E+00 -0.54438040260E+03  0.54438040260E+03  0.25500000000E-02 0.  1.
    8880023    1    1    2    0    0 -0.13575371902E+03  0.39158954034E+03 -0.19661497199E+03  0.80264506091E+03  0.65864270000E+03 0.  1.
    8880022    1    1    2    0    0  0.13575371902E+03 -0.39158954034E+03  0.10455368166E+04  0.11350375889E+04  0.15294330000E+03 0.  0.
<mgrwt>
<rscale>  0 0.67548308E+03</rscale>
<asrwt>0</asrwt>
<pdfrwt beam="1">  1        2 0.21435419E+00 0.77819127E+03</pdfrwt>
<pdfrwt beam="2">  1       -2 0.83750832E-01 0.77819127E+03</pdfrwt>
<totfact> 0.18535752E+01</totfact>
</mgrwt>
</event>
<event>
 4    5  0.8511149E-008  0.6773728E+03  0.7818608E-02  0.1010851E+00
          2   -1    0    0  501    0  0.00000000000E+00  0.00000000000E+00  0.22801583167E+04  0.22801583167E+04  0.25500000000E-02 0. -1.
         -2   -1    0    0    0  501 -0.00000000000E+00 -0.00000000000E+00 -0.81801067399E+03  0.81801067399E+03  0.25500000000E-02 0.  1.
    8880023    1    1    2    0    0 -0.12999661887E+03  0.90136596928E+02 -0.67114649306E+03  0.95355731261E+03  0.65864270000E+03 0.  0.
    8880022    1    1    2    0    0  0.12999661887E+03 -0.90136596928E+02  0.21332941358E+04  0.21446116781E+04  0.15294330000E+03 0.  0.
<mgrwt>
<rscale>  0 0.51138000E+03</rscale>
<asrwt>0</asrwt>
<pdfrwt beam="1">  1        2 0.35079359E+00 0.67737282E+03</pdfrwt>
<pdfrwt beam="2">  1       -2 0.12584780E+00 0.67737282E+03</pdfrwt>
<totfact> 0.23240726E+00</totfact>
</mgrwt>
</event>
<event>
 4    5  0.8511149E-008  0.9585229E+03  0.7818608E-02  0.9437956E-01
         -2   -1    0    0    0  501 -0.00000000000E+00  0.00000000000E+00  0.59681195310E+03  0.59681195311E+03  0.25500000000E-02 0.  1.
          2   -1    0    0  501    0  0.00000000000E+00 -0.00000000000E+00 -0.20816864030E+04  0.20816864030E+04  0.25500000000E-02 0. -1.
    8880023    1    1    2    0    0 -0.67422170761E+03 -0.17430176299E+03  0.76971638179E+02  0.96160847279E+03  0.65864270000E+03 0.  1.
    8880022    1    1    2    0    0  0.67422170761E+03  0.17430176299E+03 -0.15618460880E+04  0.17168898833E+04  0.15294330000E+03 0.  0.
<mgrwt>
<rscale>  0 0.89016802E+03</rscale>
<asrwt>0</asrwt>
<pdfrwt beam="1">  1        2 0.32025944E+00 0.95852294E+03</pdfrwt>
<pdfrwt beam="2">  1       -2 0.91817224E-01 0.95852294E+03</pdfrwt>
<totfact> 0.61154515E+00</totfact>
</mgrwt>
</event>
<event>
 4    5  0.8511149E-008  0.6856307E+03  0.7818608E-02  0.1006303E+00
         -2   -1    0    0    0  501 -0.00000000000E+00  0.00000000000E+00  0.34619910387E+03  0.34619910387E+03  0.25500000000E-02 0.  1.
          2   -1    0    0  501    0  0.00000000000E+00 -0.00000000000E+00 -0.98669887688E+03  0.98669887689E+03  0.25500000000E-02 0. -1.
    8880023    1    1    2    0    0 -0.19038256562E+03 -0.58069745293E+01 -0.42519265278E+02  0.68694784113E+03  0.65864270000E+03 0.  1.
    8880022    1    1    2    0    0  0.19038256562E+03  0.58069745293E+01 -0.59798050774E+03  0.64595013964E+03  0.15294330000E+03 0.  0.
<mgrwt>
<rscale>  0 0.52970980E+03</rscale>
<asrwt>0</asrwt>
<pdfrwt beam="1">  1        2 0.15179983E+00 0.68563069E+03</pdfrwt>
<pdfrwt beam="2">  1       -2 0.53261401E-01 0.68563069E+03</pdfrwt>
<totfact> 0.87013619E+01</totfact>
</mgrwt>
</event>
<event>
 4    5  0.8511149E-008  0.1223062E+04  0.7818608E-02  0.9135024E-01
          2   -1    0    0  501    0  0.00000000000E+00  0.00000000000E+00  0.16556988752E+04  0.16556988752E+04  0.25500000000E-02 0. -1.
         -2   -1    0    0    0  501 -0.00000000000E+00 -0.00000000000E+00 -0.10794557552E+04  0.10794557552E+04  0.25500000000E-02 0.  1.
    8880023    1    1    2    0    0  0.91253089650E+03  0.47891242244E+03 -0.42046675832E+03  0.12933183083E+04  0.65864270000E+03 0.  0.
    8880022    1    1    2    0    0 -0.91253089650E+03 -0.47891242244E+03  0.99670987824E+03  0.14418363221E+04  0.15294330000E+03 0.  0.
<mgrwt>
<rscale>  0 0.11750006E+04</rscale>
<asrwt>0</asrwt>
<pdfrwt beam="1">  1        2 0.25472290E+00 0.12230617E+04</pdfrwt>
<pdfrwt beam="2">  1       -2 0.16607012E+00 0.12230617E+04</pdfrwt>
<totfact> 0.22868806E+00</totfact>
</mgrwt>
</event>
<event>
 4    5  0.8511149E-008  0.6841811E+03  0.7818608E-02  0.1007051E+00
         -2   -1    0    0    0  501 -0.00000000000E+00  0.00000000000E+00  0.33363950600E+03  0.33363950601E+03  0.25500000000E-02 0.  1.
          2   -1    0    0  501    0  0.00000000000E+00 -0.00000000000E+00 -0.19320120162E+04  0.19320120162E+04  0.25500000000E-02 0. -1.
    8880023    1    1    2    0    0  0.18251765973E+03 -0.31319821116E+02 -0.36215448940E+02  0.68513895840E+03  0.65864270000E+03 0.  0.
    8880022    1    1    2    0    0 -0.18251765973E+03  0.31319821116E+02 -0.15621570612E+04  0.15805125638E+04  0.15294330000E+03 0.  0.
<mgrwt>
<rscale>  0 0.52663710E+03</rscale>
<asrwt>0</asrwt>
<pdfrwt beam="1">  1        2 0.29723261E+00 0.68418114E+03</pdfrwt>
<pdfrwt beam="2">  1       -2 0.51329156E-01 0.68418114E+03</pdfrwt>
<totfact> 0.27209458E+01</totfact>
</mgrwt>
</event>
<event>
 4    5  0.8511149E-008  0.9212378E+03  0.7818608E-02  0.9492764E-01
         -2   -1    0    0    0  501 -0.00000000000E+00  0.00000000000E+00  0.76897183228E+03  0.76897183229E+03  0.25500000000E-02 0.  1.
          2   -1    0    0  501    0  0.00000000000E+00 -0.00000000000E+00 -0.21298736376E+04  0.21298736376E+04  0.25500000000E-02 0. -1.
    8880023    1    1    2    0    0  0.14265472891E+03 -0.62810707710E+03  0.40992160860E+03  0.10083227675E+04  0.65864270000E+03 0.  1.
    8880022    1    1    2    0    0 -0.14265472891E+03  0.62810707710E+03 -0.17708234140E+04  0.18905227024E+04  0.15294330000E+03 0.  0.
<mgrwt>
<rscale>  0 0.84819431E+03</rscale>
<asrwt>0</asrwt>
<pdfrwt beam="1">  1        2 0.32767287E+00 0.92123780E+03</pdfrwt>
<pdfrwt beam="2">  1       -2 0.11830336E+00 0.92123780E+03</pdfrwt>
<totfact> 0.31471134E+00</totfact>
</mgrwt>
</event>
<event>
 4    5  0.8511149E-008  0.8088043E+03  0.7818608E-02  0.9692073E-01
          2   -1    0    0  501    0  0.00000000000E+00  0.00000000000E+00  0.76239930967E+03  0.76239930968E+03  0.25500000000E-02 0. -1.
         -2   -1    0    0    0  501 -0.00000000000E+00 -0.00000000000E+00 -0.78931538056E+03  0.78931538056E+03  0.25500000000E-02 0.  1.
    8880023    1    1    2    0    0  0.20397988322E+02 -0.46897567057E+03 -0.42850448231E+03  0.91530353169E+03  0.65864270000E+03 0.  1.
    8880022    1    1    2    0    0 -0.20397988322E+02  0.46897567057E+03  0.40158841142E+03  0.63641115854E+03  0.15294330000E+03 0.  0.
<mgrwt>
<rscale>  0 0.71490737E+03</rscale>
<asrwt>0</asrwt>
<pdfrwt beam="1">  1        2 0.11729220E+00 0.80880434E+03</pdfrwt>
<pdfrwt beam="2">  1       -2 0.12143314E+00 0.80880434E+03</pdfrwt>
<totfact> 0.19090114E+01</totfact>
</mgrwt>
</event>
<event>
 4    5  0.8511149E-008  0.1295328E+04  0.7818608E-02  0.9069605E-01
          2   -1    0    0  501    0  0.00000000000E+00  0.00000000000E+00  0.18725310736E+04  0.18725310736E+04  0.25500000000E-02 0. -1.
         -2   -1    0    0    0  501 -0.00000000000E+00 -0.00000000000E+00 -0.11112092039E+04  0.11112092039E+04  0.25500000000E-02 0.  1.
    8880023    1    1    2    0    0  0.99297307577E+03  0.50800570148E+03 -0.41042470721E+03  0.13587950429E+04  0.65864270000E+03 0.  0.
    8880022    1    1    2    0    0 -0.99297307577E+03 -0.50800570148E+03  0.11717465769E+04  0.16249452346E+04  0.15294330000E+03 0.  0.
<mgrwt>
<rscale>  0 0.12506954E+04</rscale>
<asrwt>0</asrwt>
<pdfrwt beam="1">  1        2 0.28808170E+00 0.12953283E+04</pdfrwt>
<pdfrwt beam="2">  1       -2 0.17095526E+00 0.12953283E+04</pdfrwt>
<totfact> 0.15864122E+00</totfact>
</mgrwt>
</event>
<event>
 4    5  0.8511149E-008  0.7804630E+03  0.7818608E-02  0.9754751E-01
         -2   -1    0    0    0  501 -0.00000000000E+00  0.00000000000E+00  0.25309431760E+03  0.25309431761E+03  0.25500000000E-02 0.  1.
          2   -1    0    0  501    0  0.00000000000E+00 -0.00000000000E+00 -0.15734957134E+04  0.15734957134E+04  0.25500000000E-02 0. -1.
    8880023    1    1    2    0    0  0.37499635479E+03  0.18625248794E+03 -0.62175023529E+03  0.99784558761E+03  0.65864270000E+03 0.  1.
    8880022    1    1    2    0    0 -0.37499635479E+03 -0.18625248794E+03 -0.69865116056E+03  0.82874444344E+03  0.15294330000E+03 0.  0.
<mgrwt>
<rscale>  0 0.67848466E+03</rscale>
<asrwt>0</asrwt>
<pdfrwt beam="1">  1        2 0.24207626E+00 0.78046298E+03</pdfrwt>
<pdfrwt beam="2">  1       -2 0.38937588E-01 0.78046298E+03</pdfrwt>
<totfact> 0.73228738E+01</totfact>
</mgrwt>
</event>
<event>
 4    5  0.8511149E-008  0.8688546E+03  0.7818608E-02  0.9578003E-01
         -2   -1    0    0    0  501 -0.00000000000E+00  0.00000000000E+00  0.21552292582E+04  0.21552292582E+04  0.25500000000E-02 0.  1.
          2   -1    0    0  501    0  0.00000000000E+00 -0.00000000000E+00 -0.48979005062E+03  0.48979005063E+03  0.25500000000E-02 0. -1.
    8880023    1    1    2    0    0  0.16920135136E+03 -0.54080411291E+03  0.18381938919E+04  0.20331908854E+04  0.65864270000E+03 0.  0.
    8880022    1    1    2    0    0 -0.16920135136E+03  0.54080411291E+03 -0.17275468429E+03  0.61182842350E+03  0.15294330000E+03 0.  0.
<mgrwt>
<rscale>  0 0.78769375E+03</rscale>
<asrwt>0</asrwt>
<pdfrwt beam="1">  1        2 0.75352316E-01 0.86885464E+03</pdfrwt>
<pdfrwt beam="2">  1       -2 0.33157373E+00 0.86885464E+03</pdfrwt>
<totfact> 0.13186374E+00</totfact>
</mgrwt>
</event>
<event>
 4    5  0.8511149E-008  0.7601195E+03  0.7818608E-02  0.9804798E-01
         -2   -1    0    0    0  501 -0.00000000000E+00  0.00000000000E+00  0.24734404078E+03  0.24734404079E+03  0.25500000000E-02 0.  1.
          2   -1    0    0  501    0  0.00000000000E+00 -0.00000000000E+00 -0.14098818099E+04  0.14098818099E+04  0.25500000000E-02 0. -1.
    8880023    1    1    2    0    0 -0.24079542111E+03 -0.29323876434E+03 -0.86404294178E+03  0.11508048572E+04  0.65864270000E+03 0. -1.
    8880022    1    1    2    0    0  0.24079542111E+03  0.29323876434E+03 -0.29849482736E+03  0.50642099356E+03  0.15294330000E+03 0.  1.
<mgrwt>
<rscale>  0 0.65105675E+03</rscale>
<asrwt>0</asrwt>
<pdfrwt beam="1">  1        2 0.21690489E+00 0.76011947E+03</pdfrwt>
<pdfrwt beam="2">  1       -2 0.38052930E-01 0.76011947E+03</pdfrwt>
<totfact> 0.94662341E+01</totfact>
</mgrwt>
</event>
<event>
 4    5  0.8511149E-008  0.6633665E+03  0.7818608E-02  0.1020945E+00
          2   -1    0    0  501    0  0.00000000000E+00  0.00000000000E+00  0.17480613656E+04  0.17480613656E+04  0.25500000000E-02 0. -1.
         -2   -1    0    0    0  501 -0.00000000000E+00 -0.00000000000E+00 -0.18564145831E+03  0.18564145833E+03  0.25500000000E-02 0.  1.
    8880023    1    1    2    0    0 -0.79023678508E+02  0.43306819531E+00  0.43512879049E+03  0.79334242285E+03  0.65864270000E+03 0.  1.
    8880022    1    1    2    0    0  0.79023678508E+02 -0.43306819531E+00  0.11272911168E+04  0.11403604011E+04  0.15294330000E+03 0.  0.
<mgrwt>
<rscale>  0 0.47347132E+03</rscale>
<asrwt>0</asrwt>
<pdfrwt beam="1">  1        2 0.26893251E+00 0.66336652E+03</pdfrwt>
<pdfrwt beam="2">  1       -2 0.28560225E-01 0.66336652E+03</pdfrwt>
<totfact> 0.10675065E+02</totfact>
</mgrwt>
</event>
<event>
 4    5  0.8511149E-008  0.7135447E+03  0.7818608E-02  0.9945066E-01
          2   -1    0    0  501    0  0.00000000000E+00  0.00000000000E+00  0.16496332961E+04  0.16496332961E+04  0.25500000000E-02 0. -1.
         -2   -1    0    0    0  501 -0.00000000000E+00 -0.00000000000E+00 -0.53397170987E+03  0.53397170988E+03  0.25500000000E-02 0.  1.
    8880023    1    1    2    0    0 -0.83119923137E+02 -0.26158548567E+03 -0.26988398663E+03  0.76287840475E+03  0.65864270000E+03 0.  1.
    8880022    1    1    2    0    0  0.83119923137E+02  0.26158548567E+03  0.13855455729E+04  0.14207266013E+04  0.15294330000E+03 0.  0.
<mgrwt>
<rscale>  0 0.58126035E+03</rscale>
<asrwt>0</asrwt>
<pdfrwt beam="1">  1        2 0.25378973E+00 0.71354474E+03</pdfrwt>
<pdfrwt beam="2">  1       -2 0.82149495E-01 0.71354474E+03</pdfrwt>
<totfact> 0.14062048E+01</totfact>
</mgrwt>
</event>
<event>
 4    5  0.8511149E-008  0.8049850E+03  0.7818608E-02  0.9700119E-01
          2   -1    0    0  501    0  0.00000000000E+00  0.00000000000E+00  0.25131814180E+04  0.25131814180E+04  0.25500000000E-02 0. -1.
         -2   -1    0    0    0  501 -0.00000000000E+00 -0.00000000000E+00 -0.85137832112E+03  0.85137832112E+03  0.25500000000E-02 0.  1.
    8880023    1    1    2    0    0 -0.23904512161E+03  0.39629285561E+03 -0.62955651882E+03  0.10219306308E+04  0.65864270000E+03 0.  1.
    8880022    1    1    2    0    0  0.23904512161E+03 -0.39629285561E+03  0.22913596157E+04  0.23426291083E+04  0.15294330000E+03 0.  0.
<mgrwt>
<rscale>  0 0.71009684E+03</rscale>
<asrwt>0</asrwt>
<pdfrwt beam="1">  1        2 0.38664329E+00 0.80498497E+03</pdfrwt>
<pdfrwt beam="2">  1       -2 0.13098128E+00 0.80498497E+03</pdfrwt>
<totfact> 0.15162754E+00</totfact>
</mgrwt>
</event>
<event>
 4    5  0.8511149E-008  0.6904231E+03  0.7818608E-02  0.1003952E+00
         -2   -1    0    0    0  501 -0.00000000000E+00  0.00000000000E+00  0.55290677560E+03  0.55290677560E+03  0.25500000000E-02 0.  1.
          2   -1    0    0  501    0  0.00000000000E+00 -0.00000000000E+00 -0.11281524666E+04  0.11281524666E+04  0.25500000000E-02 0. -1.
    8880023    1    1    2    0    0  0.17595199956E+03 -0.10915479934E+03  0.31169256179E+03  0.75751985829E+03  0.65864270000E+03 0.  1.
    8880022    1    1    2    0    0 -0.17595199956E+03  0.10915479934E+03 -0.88693825280E+03  0.92353938392E+03  0.15294330000E+03 0.  0.
<mgrwt>
<rscale>  0 0.53950746E+03</rscale>
<asrwt>0</asrwt>
<pdfrwt beam="1">  1        2 0.17356192E+00 0.69042312E+03</pdfrwt>
<pdfrwt beam="2">  1       -2 0.85062581E-01 0.69042312E+03</pdfrwt>
<totfact> 0.25799208E+01</totfact>
</mgrwt>
</event>
<event>
 4    5  0.8511149E-008  0.1097784E+04  0.7818608E-02  0.9263528E-01
         -2   -1    0    0    0  501 -0.00000000000E+00  0.00000000000E+00  0.68543174555E+03  0.68543174555E+03  0.25500000000E-02 0.  1.
          2   -1    0    0  501    0  0.00000000000E+00 -0.00000000000E+00 -0.22400440742E+04  0.22400440742E+04  0.25500000000E-02 0. -1.
    8880023    1    1    2    0    0 -0.56943609523E+03 -0.66862673706E+03  0.40089150238E+02  0.10985156013E+04  0.65864270000E+03 0.  1.
    8880022    1    1    2    0    0  0.56943609523E+03  0.66862673706E+03 -0.15947014789E+04  0.18269602185E+04  0.15294330000E+03 0.  0.
<mgrwt>
<rscale>  0 0.10421105E+04</rscale>
<asrwt>0</asrwt>
<pdfrwt beam="1">  1        2 0.34462216E+00 0.10977839E+04</pdfrwt>
<pdfrwt beam="2">  1       -2 0.10545104E+00 0.10977839E+04</pdfrwt>
<totfact> 0.35359289E+00</totfact>
</mgrwt>
</event>
<event>
 4    5  0.8511149E-008  0.2093425E+04  0.7818608E-02  0.8575539E-01
          2   -1    0    0  501    0  0.00000000000E+00  0.00000000000E+00  0.16402898954E+04  0.16402898954E+04  0.25500000000E-02 0. -1.
         -2   -1    0    0    0  501 -0.00000000000E+00 -0.00000000000E+00 -0.27259720422E+04  0.27259720422E+04  0.25500000000E-02 0.  1.
    8880023    1    1    2    0    0  0.73686857007E+03  0.18454386983E+04  0.68945517894E+01  0.20934366530E+04  0.65864270000E+03 0.  0.
    8880022    1    1    2    0    0 -0.73686857007E+03 -0.18454386983E+04 -0.10925766986E+04  0.22728252846E+04  0.15294330000E+03 0.  0.
<mgrwt>
<rscale>  0 0.20678518E+04</rscale>
<asrwt>0</asrwt>
<pdfrwt beam="1">  1        2 0.25235229E+00 0.20934253E+04</pdfrwt>
<pdfrwt beam="2">  1       -2 0.41938031E+00 0.20934253E+04</pdfrwt>
<totfact> 0.51714060E-02</totfact>
</mgrwt>
</event>
<event>
 4    5  0.8511149E-008  0.1228088E+04  0.7818608E-02  0.9130291E-01
          2   -1    0    0  501    0  0.00000000000E+00  0.00000000000E+00  0.11699057181E+04  0.11699057181E+04  0.25500000000E-02 0. -1.
         -2   -1    0    0    0  501 -0.00000000000E+00 -0.00000000000E+00 -0.20506661491E+04  0.20506661491E+04  0.25500000000E-02 0.  1.
    8880023    1    1    2    0    0  0.90181898379E+03 -0.51099148986E+03  0.63140150905E+03  0.13808938606E+04  0.65864270000E+03 0.  0.
    8880022    1    1    2    0    0 -0.90181898379E+03  0.51099148986E+03 -0.15121619400E+04  0.18396780066E+04  0.15294330000E+03 0.  0.
<mgrwt>
<rscale>  0 0.11802842E+04</rscale>
<asrwt>0</asrwt>
<pdfrwt beam="1">  1        2 0.17998550E+00 0.12280879E+04</pdfrwt>
<pdfrwt beam="2">  1       -2 0.31548710E+00 0.12280879E+04</pdfrwt>
<totfact> 0.49139704E-01</totfact>
</mgrwt>
</event>
<event>
 4    5  0.8511149E-008  0.1200636E+04  0.7818608E-02  0.9156504E-01
          2   -1    0    0  501    0  0.00000000000E+00  0.00000000000E+00  0.18511907802E+04  0.18511907802E+04  0.25500000000E-02 0. -1.
         -2   -1    0    0    0  501 -0.00000000000E+00 -0.00000000000E+00 -0.75726353934E+03  0.75726353934E+03  0.25500000000E-02 0.  1.
    8880023    1    1    2    0    0  0.54941814438E+01 -0.10038362295E+04  0.12878595773E+03  0.12075236606E+04  0.65864270000E+03 0.  1.
    8880022    1    1    2    0    0 -0.54941814438E+01  0.10038362295E+04  0.96514128309E+03  0.14009306589E+04  0.15294330000E+03 0.  0.
<mgrwt>
<rscale>  0 0.11513880E+04</rscale>
<asrwt>0</asrwt>
<pdfrwt beam="1">  1        2 0.28479858E+00 0.12006363E+04</pdfrwt>
<pdfrwt beam="2">  1       -2 0.11650208E+00 0.12006363E+04</pdfrwt>
<totfact> 0.45056968E+00</totfact>
</mgrwt>
</event>
<event>
 4    5  0.8511149E-008  0.1051023E+04  0.7818608E-02  0.9317652E-01
          2   -1    0    0  501    0  0.00000000000E+00  0.00000000000E+00  0.18403055624E+04  0.18403055624E+04  0.25500000000E-02 0. -1.
         -2   -1    0    0    0  501 -0.00000000000E+00 -0.00000000000E+00 -0.59785143086E+03  0.59785143087E+03  0.25500000000E-02 0.  1.
    8880023    1    1    2    0    0  0.40481534733E+02 -0.81804732987E+03  0.14611060511E+03  0.10611308608E+04  0.65864270000E+03 0.  0.
    8880022    1    1    2    0    0 -0.40481534733E+02  0.81804732987E+03  0.10963435264E+04  0.13770261325E+04  0.15294330000E+03 0.  0.
<mgrwt>
<rscale>  0 0.99173899E+03</rscale>
<asrwt>0</asrwt>
<pdfrwt beam="1">  1        2 0.28312393E+00 0.10510235E+04</pdfrwt>
<pdfrwt beam="2">  1       -2 0.91977145E-01 0.10510235E+04</pdfrwt>
<totfact> 0.81839374E+00</totfact>
</mgrwt>
</event>
<event>
 4    5  0.8511149E-008  0.1293315E+04  0.7818608E-02  0.9071354E-01
          2   -1    0    0  501    0  0.00000000000E+00  0.00000000000E+00  0.18092401902E+04  0.18092401902E+04  0.25500000000E-02 0. -1.
         -2   -1    0    0    0  501 -0.00000000000E+00 -0.00000000000E+00 -0.92471066975E+03  0.92471066975E+03  0.25500000000E-02 0.  1.
    8880023    1    1    2    0    0  0.69525390481E+03  0.86918102391E+03 -0.17059115090E+02  0.12934275643E+04  0.65864270000E+03 0.  1.
    8880022    1    1    2    0    0 -0.69525390481E+03 -0.86918102391E+03  0.90158863553E+03  0.14405232956E+04  0.15294330000E+03 0.  0.
<mgrwt>
<rscale>  0 0.12485939E+04</rscale>
<asrwt>0</asrwt>
<pdfrwt beam="1">  1        2 0.27834464E+00 0.12933151E+04</pdfrwt>
<pdfrwt beam="2">  1       -2 0.14226318E+00 0.12933151E+04</pdfrwt>
<totfact> 0.28316286E+00</totfact>
</mgrwt>
</event>
<event>
 4    5  0.8511149E-008  0.1217865E+04  0.7818608E-02  0.9139949E-01
          2   -1    0    0  501    0  0.00000000000E+00  0.00000000000E+00  0.18058200129E+04  0.18058200129E+04  0.25500000000E-02 0. -1.
         -2   -1    0    0    0  501 -0.00000000000E+00 -0.00000000000E+00 -0.14060356442E+04  0.14060356442E+04  0.25500000000E-02 0.  1.
    8880023    1    1    2    0    0 -0.43266815984E+03  0.92853854215E+03 -0.92566033363E+03  0.15297198503E+04  0.65864270000E+03 0.  1.
    8880022    1    1    2    0    0  0.43266815984E+03 -0.92853854215E+03  0.13254447023E+04  0.16821358069E+04  0.15294330000E+03 0.  0.
<mgrwt>
<rscale>  0 0.11695347E+04</rscale>
<asrwt>0</asrwt>
<pdfrwt beam="1">  1        2 0.27781846E+00 0.12178652E+04</pdfrwt>
<pdfrwt beam="2">  1       -2 0.21631318E+00 0.12178652E+04</pdfrwt>
<totfact> 0.86532853E-01</totfact>
</mgrwt>
</event>
<event>
 4    5  0.8511149E-008  0.6991070E+03  0.7818608E-02  0.1000093E+00
          2   -1    0    0  501    0  0.00000000000E+00  0.00000000000E+00  0.14429883442E+04  0.14429883442E+04  0.25500000000E-02 0. -1.
         -2   -1    0    0    0  501 -0.00000000000E+00 -0.00000000000E+00 -0.20629191481E+03  0.20629191483E+03  0.25500000000E-02 0.  1.
    8880023    1    1    2    0    0 -0.13173794943E+03 -0.19386971557E+03  0.49520230552E+03  0.85672392495E+03  0.65864270000E+03 0.  1.
    8880022    1    1    2    0    0  0.13173794943E+03  0.19386971557E+03  0.74149412384E+03  0.79255633405E+03  0.15294330000E+03 0.  0.
<mgrwt>
<rscale>  0 0.55609646E+03</rscale>
<asrwt>0</asrwt>
<pdfrwt beam="1">  1        2 0.22199821E+00 0.69910697E+03</pdfrwt>
<pdfrwt beam="2">  1       -2 0.31737218E-01 0.69910697E+03</pdfrwt>
<totfact> 0.12875812E+02</totfact>
</mgrwt>
</event>
<event>
 4    5  0.8511149E-008  0.6692756E+03  0.7818608E-02  0.1016188E+00
         -2   -1    0    0    0  501 -0.00000000000E+00  0.00000000000E+00  0.74506331067E+03  0.74506331068E+03  0.25500000000E-02 0.  1.
          2   -1    0    0  501    0  0.00000000000E+00 -0.00000000000E+00 -0.39329061430E+03  0.39329061431E+03  0.25500000000E-02 0. -1.
    8880023    1    1    2    0    0 -0.87635752606E+02 -0.80246784927E+02  0.54624143904E+03  0.86389205785E+03  0.65864270000E+03 0.  1.
    8880022    1    1    2    0    0  0.87635752606E+02  0.80246784927E+02 -0.19446874266E+03  0.27446186714E+03  0.15294330000E+03 0.  0.
<mgrwt>
<rscale>  0 0.49087835E+03</rscale>
<asrwt>0</asrwt>
<pdfrwt beam="1">  1        2 0.60506248E-01 0.66927556E+03</pdfrwt>
<pdfrwt beam="2">  1       -2 0.11462512E+00 0.66927556E+03</pdfrwt>
<totfact> 0.48975077E+01</totfact>
</mgrwt>
</event>
<event>
 4    5  0.8511149E-008  0.1204320E+04  0.7818608E-02  0.9152934E-01
          2   -1    0    0  501    0  0.00000000000E+00  0.00000000000E+00  0.33104572427E+04  0.33104572427E+04  0.25500000000E-02 0. -1.
         -2   -1    0    0    0  501 -0.00000000000E+00 -0.00000000000E+00 -0.57369302580E+03  0.57369302581E+03  0.25500000000E-02 0.  1.
    8880023    1    1    2    0    0  0.94360990842E+03 -0.35521481063E+03  0.29783408773E+03  0.12406016972E+04  0.65864270000E+03 0.  0.
    8880022    1    1    2    0    0 -0.94360990842E+03  0.35521481063E+03  0.24389301292E+04  0.26435485713E+04  0.15294330000E+03 0.  0.
<mgrwt>
<rscale>  0 0.11552715E+04</rscale>
<asrwt>0</asrwt>
<pdfrwt beam="1">  1        2 0.50930112E+00 0.12043203E+04</pdfrwt>
<pdfrwt beam="2">  1       -2 0.88260465E-01 0.12043203E+04</pdfrwt>
<totfact> 0.12085930E+00</totfact>
</mgrwt>
</event>
<event>
 4    5  0.8511149E-008  0.7432290E+03  0.7818608E-02  0.9850639E-01
          2   -1    0    0  501    0  0.00000000000E+00  0.00000000000E+00  0.16849438687E+04  0.16849438687E+04  0.25500000000E-02 0. -1.
         -2   -1    0    0    0  501 -0.00000000000E+00 -0.00000000000E+00 -0.74652586139E+03  0.74652586139E+03  0.25500000000E-02 0.  1.
    8880023    1    1    2    0    0  0.32176411019E+03 -0.12266630274E+03 -0.53169949949E+03  0.91383462861E+03  0.65864270000E+03 0.  0.
    8880022    1    1    2    0    0 -0.32176411019E+03  0.12266630274E+03  0.14701175068E+04  0.15176351015E+04  0.15294330000E+03 0.  0.
<mgrwt>
<rscale>  0 0.62714343E+03</rscale>
<asrwt>0</asrwt>
<pdfrwt beam="1">  1        2 0.25922213E+00 0.74322902E+03</pdfrwt>
<pdfrwt beam="2">  1       -2 0.11485014E+00 0.74322902E+03</pdfrwt>
<totfact> 0.60907189E+00</totfact>
</mgrwt>
</event>
<event>
 4    5  0.8511149E-008  0.6846638E+03  0.7818608E-02  0.1006800E+00
         -2   -1    0    0    0  501 -0.00000000000E+00  0.00000000000E+00  0.16409228370E+04  0.16409228370E+04  0.25500000000E-02 0.  1.
          2   -1    0    0  501    0  0.00000000000E+00 -0.00000000000E+00 -0.36058523035E+03  0.36058523036E+03  0.25500000000E-02 0. -1.
    8880023    1    1    2    0    0 -0.86602780044E+02 -0.16569316623E+03  0.15163767930E+04  0.16637797485E+04  0.65864270000E+03 0.  1.
    8880022    1    1    2    0    0  0.86602780044E+02  0.16569316623E+03 -0.23603918637E+03  0.33772831887E+03  0.15294330000E+03 0.  0.
<mgrwt>
<rscale>  0 0.52766625E+03</rscale>
<asrwt>0</asrwt>
<pdfrwt beam="1">  1        2 0.55474649E-01 0.68466377E+03</pdfrwt>
<pdfrwt beam="2">  1       -2 0.25244968E+00 0.68466377E+03</pdfrwt>
<totfact> 0.57532665E+00</totfact>
</mgrwt>
</event>
<event>
 4    5  0.8511149E-008  0.7790229E+03  0.7818608E-02  0.9758137E-01
         -2   -1    0    0    0  501 -0.00000000000E+00  0.00000000000E+00  0.95724742777E+03  0.95724742778E+03  0.25500000000E-02 0.  1.
          2   -1    0    0  501    0  0.00000000000E+00 -0.00000000000E+00 -0.29743688193E+04  0.29743688193E+04  0.25500000000E-02 0. -1.
    8880023    1    1    2    0    0  0.38175556542E+03  0.16531522863E+03  0.77834723071E+03  0.11012270676E+04  0.65864270000E+03 0.  1.
    8880022    1    1    2    0    0 -0.38175556542E+03 -0.16531522863E+03 -0.27954686222E+04  0.28303891795E+04  0.15294330000E+03 0.  0.
<mgrwt>
<rscale>  0 0.67658349E+03</rscale>
<asrwt>0</asrwt>
<pdfrwt beam="1">  1        2 0.45759520E+00 0.77902288E+03</pdfrwt>
<pdfrwt beam="2">  1       -2 0.14726884E+00 0.77902288E+03</pdfrwt>
<totfact> 0.60329221E-01</totfact>
</mgrwt>
</event>
<event>
 4    5  0.8511149E-008  0.1129421E+04  0.7818608E-02  0.9228986E-01
          2   -1    0    0  501    0  0.00000000000E+00  0.00000000000E+00  0.13064049250E+04  0.13064049250E+04  0.25500000000E-02 0. -1.
         -2   -1    0    0    0  501 -0.00000000000E+00 -0.00000000000E+00 -0.11191480806E+04  0.11191480806E+04  0.25500000000E-02 0.  1.
    8880023    1    1    2    0    0  0.54922292669E+03 -0.73493904001E+03 -0.53326017157E+03  0.12489827191E+04  0.65864270000E+03 0.  0.
    8880022    1    1    2    0    0 -0.54922292669E+03  0.73493904001E+03  0.72051701604E+03  0.11765702865E+04  0.15294330000E+03 0.  0.
<mgrwt>
<rscale>  0 0.10759193E+04</rscale>
<asrwt>0</asrwt>
<pdfrwt beam="1">  1        2 0.20098537E+00 0.11294208E+04</pdfrwt>
<pdfrwt beam="2">  1       -2 0.17217663E+00 0.11294208E+04</pdfrwt>
<totfact> 0.32967152E+00</totfact>
</mgrwt>
</event>
<event>
 4    5  0.8511149E-008  0.6594392E+03  0.7818608E-02  0.1024738E+00
         -2   -1    0    0    0  501 -0.00000000000E+00  0.00000000000E+00  0.36063615323E+03  0.36063615324E+03  0.25500000000E-02 0.  1.
          2   -1    0    0  501    0  0.00000000000E+00 -0.00000000000E+00 -0.93689371553E+03  0.93689371554E+03  0.25500000000E-02 0. -1.
    8880023    1    1    2    0    0  0.25679447510E+02  0.19760093493E+02  0.41066853467E+02  0.66071672299E+03  0.65864270000E+03 0.  1.
    8880022    1    1    2    0    0 -0.25679447510E+02 -0.19760093493E+02 -0.61732441577E+03  0.63681314578E+03  0.15294330000E+03 0.  0.
<mgrwt>
<rscale>  0 0.46014762E+03</rscale>
<asrwt>0</asrwt>
<pdfrwt beam="1">  1        2 0.14413749E+00 0.65943923E+03</pdfrwt>
<pdfrwt beam="2">  1       -2 0.55482486E-01 0.65943923E+03</pdfrwt>
<totfact> 0.86324523E+01</totfact>
</mgrwt>
</event>
<event>
 4    5  0.8511149E-008  0.1871660E+04  0.7818608E-02  0.8683899E-01
         -2   -1    0    0    0  501 -0.00000000000E+00  0.00000000000E+00  0.20941456301E+04  0.20941456301E+04  0.25500000000E-02 0.  1.
          2   -1    0    0  501    0  0.00000000000E+00 -0.00000000000E+00 -0.19393114700E+04  0.19393114700E+04  0.25500000000E-02 0. -1.
    8880023    1    1    2    0    0 -0.16991556777E+04 -0.42681679463E+03  0.95516957880E+03  0.21013000080E+04  0.65864270000E+03 0.  1.
    8880022    1    1    2    0    0  0.16991556777E+04  0.42681679463E+03 -0.80033541869E+03  0.19321570921E+04  0.15294330000E+03 0.  0.
<mgrwt>
<rscale>  0 0.18427330E+04</rscale>
<asrwt>0</asrwt>
<pdfrwt beam="1">  1        2 0.29835561E+00 0.18716604E+04</pdfrwt>
<pdfrwt beam="2">  1       -2 0.32217625E+00 0.18716604E+04</pdfrwt>
<totfact> 0.15109238E-01</totfact>
</mgrwt>
</event>
<event>
 4    5  0.8511149E-008  0.2102316E+04  0.7818608E-02  0.8571506E-01
          2   -1    0    0  501    0  0.00000000000E+00  0.00000000000E+00  0.20760119425E+04  0.20760119425E+04  0.25500000000E-02 0. -1.
         -2   -1    0    0    0  501 -0.00000000000E+00 -0.00000000000E+00 -0.33225629539E+04  0.33225629539E+04  0.25500000000E-02 0.  1.
    8880023    1    1    2    0    0 -0.70139247597E+03  0.18692168184E+04 -0.23165546502E+04  0.31282836465E+04  0.65864270000E+03 0.  0.
    8880022    1    1    2    0    0  0.70139247597E+03 -0.18692168184E+04  0.10700036388E+04  0.22702912499E+04  0.15294330000E+03 0.  0.
<mgrwt>
<rscale>  0 0.20768603E+04</rscale>
<asrwt>0</asrwt>
<pdfrwt beam="1">  1        2 0.31938645E+00 0.21023161E+04</pdfrwt>
<pdfrwt beam="2">  1       -2 0.51116353E+00 0.21023161E+04</pdfrwt>
<totfact> 0.73848356E-03</totfact>
</mgrwt>
</event>
<event>
 4    5  0.8511149E-008  0.8646962E+03  0.7818608E-02  0.9585264E-01
          2   -1    0    0  501    0  0.00000000000E+00  0.00000000000E+00  0.13701113439E+04  0.13701113440E+04  0.25500000000E-02 0. -1.
         -2   -1    0    0    0  501 -0.00000000000E+00 -0.00000000000E+00 -0.12676251935E+04  0.12676251935E+04  0.25500000000E-02 0.  1.
    8880023    1    1    2    0    0 -0.33717719622E+02 -0.55924274386E+03 -0.10421665003E+04  0.13541826139E+04  0.65864270000E+03 0.  1.
    8880022    1    1    2    0    0  0.33717719622E+02  0.55924274386E+03  0.11446526507E+04  0.12835539236E+04  0.15294330000E+03 0.  0.
<mgrwt>
<rscale>  0 0.78279249E+03</rscale>
<asrwt>0</asrwt>
<pdfrwt beam="1">  1        2 0.21078636E+00 0.86469621E+03</pdfrwt>
<pdfrwt beam="2">  1       -2 0.19501926E+00 0.86469621E+03</pdfrwt>
<totfact> 0.21832472E+00</totfact>
</mgrwt>
</event>
<event>
 4    5  0.8511149E-008  0.7088029E+03  0.7818608E-02  0.9962473E-01
         -2   -1    0    0    0  501 -0.00000000000E+00  0.00000000000E+00  0.31549951875E+04  0.31549951875E+04  0.25500000000E-02 0.  1.
          2   -1    0    0  501    0  0.00000000000E+00 -0.00000000000E+00 -0.72886458511E+03  0.72886458511E+03  0.25500000000E-02 0. -1.
    8880023    1    1    2    0    0 -0.71236841763E+02 -0.25202504387E+03  0.30813657847E+04  0.31618375378E+04  0.65864270000E+03 0.  1.
    8880022    1    1    2    0    0  0.71236841763E+02  0.25202504387E+03 -0.65523518230E+03  0.72202223477E+03  0.15294330000E+03 0.  0.
<mgrwt>
<rscale>  0 0.57326777E+03</rscale>
<asrwt>0</asrwt>
<pdfrwt beam="1">  1        2 0.11213301E+00 0.70880288E+03</pdfrwt>
<pdfrwt beam="2">  1       -2 0.48538389E+00 0.70880288E+03</pdfrwt>
<totfact> 0.85240368E-02</totfact>
</mgrwt>
</event>
<event>
 4    5  0.1777193E-007  0.1808741E+04  0.7818608E-02  0.8717717E-01
          2   -1    0    0  501    0  0.00000000000E+00  0.00000000000E+00  0.40042320536E+04  0.40042320536E+04  0.25500000000E-02 0. -1.
         -2   -1    0    0    0  501 -0.00000000000E+00 -0.00000000000E+00 -0.29999771802E+04  0.29999771802E+04  0.25500000000E-02 0.  1.
    8880023    1    1    2    0    0 -0.15403413511E+04 -0.68196918284E+03 -0.25159896828E+04  0.30986687036E+04  0.65864270000E+03 0.  0.
    8880022    1    1    2    0    0  0.15403413511E+04  0.68196918284E+03  0.35202445563E+04  0.39055405302E+04  0.15294330000E+03 0.  0.
<mgrwt>
<rscale>  0 0.17786864E+04</rscale>
<asrwt>0</asrwt>
<pdfrwt beam="1">  1        2 0.61603570E+00 0.18087409E+04</pdfrwt>
<pdfrwt beam="2">  1       -2 0.46153495E+00 0.18087409E+04</pdfrwt>
<totfact> 0.89276990E-04</totfact>
</mgrwt>
</event>
<event>
 4    5  0.8511149E-008  0.6731234E+03  0.7818608E-02  0.1013516E+00
          2   -1    0    0  501    0  0.00000000000E+00  0.00000000000E+00  0.81446878289E+03  0.81446878290E+03  0.25500000000E-02 0. -1.
         -2   -1    0    0    0  501 -0.00000000000E+00 -0.00000000000E+00 -0.46590324764E+03  0.46590324765E+03  0.25500000000E-02 0.  1.
    8880023    1    1    2    0    0  0.13218570932E+03  0.42565788974E+02 -0.19341087445E+03  0.70035910843E+03  0.65864270000E+03 0.  1.
    8880022    1    1    2    0    0 -0.13218570932E+03 -0.42565788974E+02  0.54197640970E+03  0.58001292212E+03  0.15294330000E+03 0.  0.
<mgrwt>
<rscale>  0 0.50100804E+03</rscale>
<asrwt>0</asrwt>
<pdfrwt beam="1">  1        2 0.12530289E+00 0.67312340E+03</pdfrwt>
<pdfrwt beam="2">  1       -2 0.71677424E-01 0.67312340E+03</pdfrwt>
<totfact> 0.60527555E+01</totfact>
</mgrwt>
</event>
<event>
 4    5  0.8511149E-008  0.1408567E+04  0.7818608E-02  0.8977055E-01
         -2   -1    0    0    0  501 -0.00000000000E+00  0.00000000000E+00  0.85862182943E+03  0.85862182943E+03  0.25500000000E-02 0.  1.
          2   -1    0    0  501    0  0.00000000000E+00 -0.00000000000E+00 -0.38626089865E+04  0.38626089865E+04  0.25500000000E-02 0. -1.
    8880023    1    1    2    0    0 -0.60752132417E+03  0.10868153489E+04  0.60565254492E+02  0.14098681209E+04  0.65864270000E+03 0.  1.
    8880022    1    1    2    0    0  0.60752132417E+03 -0.10868153489E+04 -0.30645524116E+04  0.33113626950E+04  0.15294330000E+03 0.  0.
<mgrwt>
<rscale>  0 0.13683471E+04</rscale>
<asrwt>0</asrwt>
<pdfrwt beam="1">  1        2 0.59424753E+00 0.14085666E+04</pdfrwt>
<pdfrwt beam="2">  1       -2 0.13209567E+00 0.14085666E+04</pdfrwt>
<totfact> 0.17850856E-01</totfact>
</mgrwt>
</event>
<event>
 4    5  0.8511149E-008  0.1567039E+04  0.7818608E-02  0.8863692E-01
         -2   -1    0    0    0  501 -0.00000000000E+00  0.00000000000E+00  0.86245418490E+03  0.86245418490E+03  0.25500000000E-02 0.  1.
          2   -1    0    0  501    0  0.00000000000E+00 -0.00000000000E+00 -0.27598133451E+04  0.27598133451E+04  0.25500000000E-02 0. -1.
    8880023    1    1    2    0    0 -0.13817635454E+04 -0.33545797631E+03 -0.14196760325E+04  0.21144958720E+04  0.65864270000E+03 0.  0.
    8880022    1    1    2    0    0  0.13817635454E+04  0.33545797631E+03 -0.47768312774E+03  0.15077716580E+04  0.15294330000E+03 0.  0.
<mgrwt>
<rscale>  0 0.15316226E+04</rscale>
<asrwt>0</asrwt>
<pdfrwt beam="1">  1        2 0.42458666E+00 0.15670395E+04</pdfrwt>
<pdfrwt beam="2">  1       -2 0.13268526E+00 0.15670395E+04</pdfrwt>
<totfact> 0.95002710E-01</totfact>
</mgrwt>
</event>
<event>
 4    5  0.8511149E-008  0.7891925E+03  0.7818608E-02  0.9734670E-01
          2   -1    0    0  501    0  0.00000000000E+00  0.00000000000E+00  0.17983720734E+04  0.17983720734E+04  0.25500000000E-02 0. -1.
         -2   -1    0    0    0  501 -0.00000000000E+00 -0.00000000000E+00 -0.34416852664E+03  0.34416852665E+03  0.25500000000E-02 0.  1.
    8880023    1    1    2    0    0 -0.32078146878E+03 -0.29345169764E+03  0.21137275151E+03  0.81700874898E+03  0.65864270000E+03 0.  1.
    8880022    1    1    2    0    0  0.32078146878E+03  0.29345169764E+03  0.12428307952E+04  0.13255318510E+04  0.15294330000E+03 0.  0.
<mgrwt>
<rscale>  0 0.68989524E+03</rscale>
<asrwt>0</asrwt>
<pdfrwt beam="1">  1        2 0.27667262E+00 0.78919253E+03</pdfrwt>
<pdfrwt beam="2">  1       -2 0.52949005E-01 0.78919253E+03</pdfrwt>
<totfact> 0.29777936E+01</totfact>
</mgrwt>
</event>
<event>
 4    5  0.8511149E-008  0.8332118E+03  0.7818608E-02  0.9643115E-01
          2   -1    0    0  501    0  0.00000000000E+00  0.00000000000E+00  0.37945013578E+03  0.37945013579E+03  0.25500000000E-02 0. -1.
         -2   -1    0    0    0  501 -0.00000000000E+00 -0.00000000000E+00 -0.21193332398E+04  0.21193332398E+04  0.25500000000E-02 0.  1.
    8880023    1    1    2    0    0 -0.49543586967E+03 -0.12237245258E+03 -0.17791466988E+04  0.19645877176E+04  0.65864270000E+03 0.  0.
    8880022    1    1    2    0    0  0.49543586967E+03  0.12237245258E+03  0.39263594786E+02  0.53419565797E+03  0.15294330000E+03 0.  0.
<mgrwt>
<rscale>  0 0.74507087E+03</rscale>
<asrwt>0</asrwt>
<pdfrwt beam="1">  1        2 0.58376945E-01 0.83321181E+03</pdfrwt>
<pdfrwt beam="2">  1       -2 0.32605126E+00 0.83321181E+03</pdfrwt>
<totfact> 0.19172555E+00</totfact>
</mgrwt>
</event>
<event>
 4    5  0.8511149E-008  0.1069756E+04  0.7818608E-02  0.9295501E-01
          2   -1    0    0  501    0  0.00000000000E+00  0.00000000000E+00  0.24215715590E+04  0.24215715590E+04  0.25500000000E-02 0. -1.
         -2   -1    0    0    0  501 -0.00000000000E+00 -0.00000000000E+00 -0.55871966103E+03  0.55871966103E+03  0.25500000000E-02 0.  1.
    8880023    1    1    2    0    0  0.51790626287E+03 -0.66508658031E+03  0.17024103613E+03  0.10832170942E+04  0.65864270000E+03 0.  0.
    8880022    1    1    2    0    0 -0.51790626287E+03  0.66508658031E+03  0.16926108619E+04  0.18970741259E+04  0.15294330000E+03 0.  0.
<mgrwt>
<rscale>  0 0.10119811E+04</rscale>
<asrwt>0</asrwt>
<pdfrwt beam="1">  1        2 0.37254946E+00 0.10697557E+04</pdfrwt>
<pdfrwt beam="2">  1       -2 0.85956873E-01 0.10697557E+04</pdfrwt>
<totfact> 0.45351696E+00</totfact>
</mgrwt>
</event>
<event>
 4    5  0.8511149E-008  0.1035627E+04  0.7818608E-02  0.9336363E-01
          2   -1    0    0  501    0  0.00000000000E+00  0.00000000000E+00  0.23015539773E+04  0.23015539773E+04  0.25500000000E-02 0. -1.
         -2   -1    0    0    0  501 -0.00000000000E+00 -0.00000000000E+00 -0.10471543096E+04  0.10471543096E+04  0.25500000000E-02 0.  1.
    8880023    1    1    2    0    0 -0.98992180573E+02  0.79304072733E+03 -0.68761383834E+03  0.12431154588E+04  0.65864270000E+03 0.  0.
    8880022    1    1    2    0    0  0.98992180573E+02 -0.79304072733E+03  0.19420135060E+04  0.21055928281E+04  0.15294330000E+03 0.  0.
<mgrwt>
<rscale>  0 0.97503084E+03</rscale>
<asrwt>0</asrwt>
<pdfrwt beam="1">  1        2 0.35408522E+00 0.10356270E+04</pdfrwt>
<pdfrwt beam="2">  1       -2 0.16110067E+00 0.10356270E+04</pdfrwt>
<totfact> 0.11148953E+00</totfact>
</mgrwt>
</event>
<event>
 4    5  0.8511149E-008  0.6688801E+03  0.7818608E-02  0.1016479E+00
         -2   -1    0    0    0  501 -0.00000000000E+00  0.00000000000E+00  0.11602901893E+04  0.11602901893E+04  0.25500000000E-02 0.  1.
          2   -1    0    0  501    0  0.00000000000E+00 -0.00000000000E+00 -0.31495209264E+03  0.31495209265E+03  0.25500000000E-02 0. -1.
    8880023    1    1    2    0    0  0.87613375380E+02 -0.76904378265E+02  0.10171444287E+04  0.12173673982E+04  0.65864270000E+03 0.  1.
    8880022    1    1    2    0    0 -0.87613375380E+02  0.76904378265E+02 -0.17180633207E+03  0.25787488380E+03  0.15294330000E+03 0.  0.
<mgrwt>
<rscale>  0 0.48979017E+03</rscale>
<asrwt>0</asrwt>
<pdfrwt beam="1">  1        2 0.48454168E-01 0.66888010E+03</pdfrwt>
<pdfrwt beam="2">  1       -2 0.17850618E+00 0.66888010E+03</pdfrwt>
<totfact> 0.19733695E+01</totfact>
</mgrwt>
</event>
<event>
 4    5  0.8511149E-008  0.9990198E+03  0.7818608E-02  0.9382841E-01
         -2   -1    0    0    0  501 -0.00000000000E+00  0.00000000000E+00  0.78229296010E+03  0.78229296011E+03  0.25500000000E-02 0.  1.
          2   -1    0    0  501    0  0.00000000000E+00 -0.00000000000E+00 -0.20152900538E+04  0.20152900538E+04  0.25500000000E-02 0. -1.
    8880023    1    1    2    0    0 -0.42952155838E+03 -0.61623171871E+03  0.33380274131E+03  0.10533113389E+04  0.65864270000E+03 0.  0.
    8880022    1    1    2    0    0  0.42952155838E+03  0.61623171871E+03 -0.15667998350E+04  0.17442716750E+04  0.15294330000E+03 0.  0.
<mgrwt>
<rscale>  0 0.93501336E+03</rscale>
<asrwt>0</asrwt>
<pdfrwt beam="1">  1        2 0.31004462E+00 0.99901977E+03</pdfrwt>
<pdfrwt beam="2">  1       -2 0.12035276E+00 0.99901977E+03</pdfrwt>
<totfact> 0.34512857E+00</totfact>
</mgrwt>
</event>
<event>
 4    5  0.8511149E-008  0.1020458E+04  0.7818608E-02  0.9355268E-01
          2   -1    0    0  501    0  0.00000000000E+00  0.00000000000E+00  0.36222499913E+04  0.36222499913E+04  0.25500000000E-02 0. -1.
         -2   -1    0    0    0  501 -0.00000000000E+00 -0.00000000000E+00 -0.97347112366E+03  0.97347112366E+03  0.25500000000E-02 0.  1.
    8880023    1    1    2    0    0  0.14577177685E+03 -0.76568617644E+03 -0.64520578543E+03  0.12073215990E+04  0.65864270000E+03 0.  0.
    8880022    1    1    2    0    0 -0.14577177685E+03  0.76568617644E+03  0.32939846531E+04  0.33883995159E+04  0.15294330000E+03 0.  0.
<mgrwt>
<rscale>  0 0.95850171E+03</rscale>
<asrwt>0</asrwt>
<pdfrwt beam="1">  1        2 0.55726923E+00 0.10204582E+04</pdfrwt>
<pdfrwt beam="2">  1       -2 0.14976479E+00 0.10204582E+04</pdfrwt>
<totfact> 0.20625471E-01</totfact>
</mgrwt>
</event>
<event>
 4    5  0.8511149E-008  0.9758666E+03  0.7818608E-02  0.9413836E-01
         -2   -1    0    0    0  501 -0.00000000000E+00  0.00000000000E+00  0.14590168105E+04  0.14590168105E+04  0.25500000000E-02 0.  1.
          2   -1    0    0  501    0  0.00000000000E+00 -0.00000000000E+00 -0.11091276297E+04  0.11091276297E+04  0.25500000000E-02 0. -1.
    8880023    1    1    2    0    0  0.62107057413E+03  0.36438535219E+03 -0.75960243216E+03  0.12366533080E+04  0.65864270000E+03 0.  0.
    8880022    1    1    2    0    0 -0.62107057413E+03 -0.36438535219E+03  0.11094916130E+04  0.13314911322E+04  0.15294330000E+03 0.  0.
<mgrwt>
<rscale>  0 0.90945753E+03</rscale>
<asrwt>0</asrwt>
<pdfrwt beam="1">  1        2 0.17063502E+00 0.97586656E+03</pdfrwt>
<pdfrwt beam="2">  1       -2 0.22446413E+00 0.97586656E+03</pdfrwt>
<totfact> 0.19859094E+00</totfact>
</mgrwt>
</event>
<event>
 4    5  0.9627090E-008  0.1192634E+04  0.7818608E-02  0.9164316E-01
          2   -1    0    0  501    0  0.00000000000E+00  0.00000000000E+00  0.16309922904E+04  0.16309922904E+04  0.25500000000E-02 0. -1.
         -2   -1    0    0    0  501 -0.00000000000E+00 -0.00000000000E+00 -0.34588487296E+04  0.34588487296E+04  0.25500000000E-02 0.  1.
    8880023    1    1    2    0    0  0.22264972090E+03 -0.96901582154E+03 -0.31847429276E+04  0.34007296690E+04  0.65864270000E+03 0.  1.
    8880022    1    1    2    0    0 -0.22264972090E+03  0.96901582154E+03  0.13568864884E+04  0.16891113510E+04  0.15294330000E+03 0.  0.
<mgrwt>
<rscale>  0 0.11429454E+04</rscale>
<asrwt>0</asrwt>
<pdfrwt beam="1">  1        2 0.25092189E+00 0.11926335E+04</pdfrwt>
<pdfrwt beam="2">  1       -2 0.53213057E+00 0.11926335E+04</pdfrwt>
<totfact> 0.11034257E-02</totfact>
</mgrwt>
</event>
<event>
 4    5  0.8511149E-008  0.1411476E+04  0.7818608E-02  0.8974816E-01
          2   -1    0    0  501    0  0.00000000000E+00  0.00000000000E+00  0.14069147987E+04  0.14069147987E+04  0.25500000000E-02 0. -1.
         -2   -1    0    0    0  501 -0.00000000000E+00 -0.00000000000E+00 -0.19150714371E+04  0.19150714371E+04  0.25500000000E-02 0.  1.
    8880023    1    1    2    0    0 -0.12131749956E+04  0.29438373225E+03 -0.12296863945E+04  0.18720027208E+04  0.65864270000E+03 0.  1.
    8880022    1    1    2    0    0  0.12131749956E+04 -0.29438373225E+03  0.72152975606E+03  0.14499835149E+04  0.15294330000E+03 0.  0.
<mgrwt>
<rscale>  0 0.13713578E+04</rscale>
<asrwt>0</asrwt>
<pdfrwt beam="1">  1        2 0.21644843E+00 0.14114764E+04</pdfrwt>
<pdfrwt beam="2">  1       -2 0.29462638E+00 0.14114764E+04</pdfrwt>
<totfact> 0.46739933E-01</totfact>
</mgrwt>
</event>
<event>
 4    5  0.8511149E-008  0.1001498E+04  0.7818608E-02  0.9379600E-01
         -2   -1    0    0    0  501 -0.00000000000E+00  0.00000000000E+00  0.12242872672E+04  0.12242872672E+04  0.25500000000E-02 0.  1.
          2   -1    0    0  501    0  0.00000000000E+00 -0.00000000000E+00 -0.13833590000E+04  0.13833590000E+04  0.25500000000E-02 0. -1.
    8880023    1    1    2    0    0 -0.70817614366E+03  0.26014404177E+03  0.86718380305E+03  0.13247665181E+04  0.65864270000E+03 0.  0.
    8880022    1    1    2    0    0  0.70817614366E+03 -0.26014404177E+03 -0.10262555358E+04  0.12828797491E+04  0.15294330000E+03 0.  0.
<mgrwt>
<rscale>  0 0.93773688E+03</rscale>
<asrwt>0</asrwt>
<pdfrwt beam="1">  1        2 0.21282446E+00 0.10014982E+04</pdfrwt>
<pdfrwt beam="2">  1       -2 0.18835189E+00 0.10014982E+04</pdfrwt>
<totfact> 0.23337518E+00</totfact>
</mgrwt>
</event>
<event>
 4    5  0.8511149E-008  0.7107069E+03  0.7818608E-02  0.9955385E-01
          2   -1    0    0  501    0  0.00000000000E+00  0.00000000000E+00  0.30105083340E+04  0.30105083340E+04  0.25500000000E-02 0. -1.
         -2   -1    0    0    0  501 -0.00000000000E+00 -0.00000000000E+00 -0.44266288800E+03  0.44266288801E+03  0.25500000000E-02 0.  1.
    8880023    1    1    2    0    0 -0.21582497478E+03  0.15720595584E+03 -0.14297215588E+03  0.72494508476E+03  0.65864270000E+03 0.  1.
    8880022    1    1    2    0    0  0.21582497478E+03 -0.15720595584E+03  0.27108176019E+04  0.27282261373E+04  0.15294330000E+03 0.  0.
<mgrwt>
<rscale>  0 0.57650557E+03</rscale>
<asrwt>0</asrwt>
<pdfrwt beam="1">  1        2 0.46315512E+00 0.71070693E+03</pdfrwt>
<pdfrwt beam="2">  1       -2 0.68101984E-01 0.71070693E+03</pdfrwt>
<totfact> 0.36411360E+00</totfact>
</mgrwt>
</event>
<event>
 4    5  0.8511149E-008  0.1480693E+04  0.7818608E-02  0.8923391E-01
         -2   -1    0    0    0  501 -0.00000000000E+00  0.00000000000E+00  0.16067535972E+04  0.16067535972E+04  0.25500000000E-02 0.  1.
          2   -1    0    0  501    0  0.00000000000E+00 -0.00000000000E+00 -0.22386884441E+04  0.22386884441E+04  0.25500000000E-02 0. -1.
    8880023    1    1    2    0    0 -0.11721006376E+04  0.62034071655E+03 -0.16124059727E+04  0.21891335583E+04  0.65864270000E+03 0.  0.
    8880022    1    1    2    0    0  0.11721006376E+04 -0.62034071655E+03  0.98047112580E+03  0.16563084830E+04  0.15294330000E+03 0.  0.
<mgrwt>
<rscale>  0 0.14428239E+04</rscale>
<asrwt>0</asrwt>
<pdfrwt beam="1">  1        2 0.34441361E+00 0.14806933E+04</pdfrwt>
<pdfrwt beam="2">  1       -2 0.24719286E+00 0.14806933E+04</pdfrwt>
<totfact> 0.30852586E-01</totfact>
</mgrwt>
</event>
<event>
 4    5  0.8511149E-008  0.1325812E+04  0.7818608E-02  0.9043584E-01
         -2   -1    0    0    0  501 -0.00000000000E+00  0.00000000000E+00  0.11777243844E+04  0.11777243844E+04  0.25500000000E-02 0.  1.
          2   -1    0    0  501    0  0.00000000000E+00 -0.00000000000E+00 -0.28768819355E+04  0.28768819355E+04  0.25500000000E-02 0. -1.
    8880023    1    1    2    0    0 -0.88984656365E+03 -0.72948016611E+03  0.61815022868E+03  0.14628356473E+04  0.65864270000E+03 0.  0.
    8880022    1    1    2    0    0  0.88984656365E+03  0.72948016611E+03 -0.23173077799E+04  0.25917706726E+04  0.15294330000E+03 0.  0.
<mgrwt>
<rscale>  0 0.12824694E+04</rscale>
<asrwt>0</asrwt>
<pdfrwt beam="1">  1        2 0.44259722E+00 0.13258124E+04</pdfrwt>
<pdfrwt beam="2">  1       -2 0.18118837E+00 0.13258124E+04</pdfrwt>
<totfact> 0.35606556E-01</totfact>
</mgrwt>
</event>
<event>
 4    5  0.8511149E-008  0.1664237E+04  0.7818608E-02  0.8801604E-01
          2   -1    0    0  501    0  0.00000000000E+00  0.00000000000E+00  0.30305838409E+04  0.30305838409E+04  0.25500000000E-02 0. -1.
         -2   -1    0    0    0  501 -0.00000000000E+00 -0.00000000000E+00 -0.17273192192E+04  0.17273192192E+04  0.25500000000E-02 0.  1.
    8880023    1    1    2    0    0  0.11580737447E+04  0.99736701375E+03  0.23641363849E+04  0.28911635739E+04  0.65864270000E+03 0.  0.
    8880022    1    1    2    0    0 -0.11580737447E+04 -0.99736701375E+03 -0.10608717632E+04  0.18667394862E+04  0.15294330000E+03 0.  0.
<mgrwt>
<rscale>  0 0.16312052E+04</rscale>
<asrwt>0</asrwt>
<pdfrwt beam="1">  1        2 0.46624367E+00 0.16642374E+04</pdfrwt>
<pdfrwt beam="2">  1       -2 0.26574142E+00 0.16642374E+04</pdfrwt>
<totfact> 0.78938626E-02</totfact>
</mgrwt>
</event>
<event>
 4    5  0.8511149E-008  0.1409258E+04  0.7818608E-02  0.8976522E-01
         -2   -1    0    0    0  501 -0.00000000000E+00  0.00000000000E+00  0.11033884131E+04  0.11033884131E+04  0.25500000000E-02 0.  1.
          2   -1    0    0  501    0  0.00000000000E+00 -0.00000000000E+00 -0.20477292698E+04  0.20477292698E+04  0.25500000000E-02 0. -1.
    8880023    1    1    2    0    0  0.92152565260E+03 -0.83844401493E+03  0.23507817655E+03  0.14287301529E+04  0.65864270000E+03 0.  1.
    8880022    1    1    2    0    0 -0.92152565260E+03  0.83844401493E+03 -0.11794190332E+04  0.17223875300E+04  0.15294330000E+03 0.  0.
<mgrwt>
<rscale>  0 0.13690625E+04</rscale>
<asrwt>0</asrwt>
<pdfrwt beam="1">  1        2 0.31503527E+00 0.14092580E+04</pdfrwt>
<pdfrwt beam="2">  1       -2 0.16975206E+00 0.14092580E+04</pdfrwt>
<totfact> 0.12781877E+00</totfact>
</mgrwt>
</event>
<event>
 4    5  0.8511149E-008  0.1787001E+04  0.7818608E-02  0.8729761E-01
         -2   -1    0    0    0  501 -0.00000000000E+00  0.00000000000E+00  0.20586917404E+04  0.20586917404E+04  0.25500000000E-02 0.  1.
          2   -1    0    0  501    0  0.00000000000E+00 -0.00000000000E+00 -0.23299635727E+04  0.23299635727E+04  0.25500000000E-02 0. -1.
    8880023    1    1    2    0    0  0.13067713089E+04  0.10256269178E+04  0.12096665546E+04  0.21579307700E+04  0.65864270000E+03 0.  0.
    8880022    1    1    2    0    0 -0.13067713089E+04 -0.10256269178E+04 -0.14809383870E+04  0.22307245432E+04  0.15294330000E+03 0.  0.
<mgrwt>
<rscale>  0 0.17565350E+04</rscale>
<asrwt>0</asrwt>
<pdfrwt beam="1">  1        2 0.35845593E+00 0.17870008E+04</pdfrwt>
<pdfrwt beam="2">  1       -2 0.31672181E+00 0.17870008E+04</pdfrwt>
<totfact> 0.99133167E-02</totfact>
</mgrwt>
</event>
<event>
 4    5  0.8511149E-008  0.1077225E+04  0.7818608E-02  0.9286848E-01
         -2   -1    0    0    0  501 -0.00000000000E+00  0.00000000000E+00  0.15240349705E+04  0.15240349705E+04  0.25500000000E-02 0.  1.
          2   -1    0    0  501    0  0.00000000000E+00 -0.00000000000E+00 -0.15603330626E+04  0.15603330626E+04  0.25500000000E-02 0. -1.
    8880023    1    1    2    0    0 -0.84712634485E+03  0.94760826588E+02  0.11758161197E+04  0.15946649842E+04  0.65864270000E+03 0.  0.
    8880022    1    1    2    0    0  0.84712634485E+03 -0.94760826588E+02 -0.12121142118E+04  0.14897030489E+04  0.15294330000E+03 0.  0.
<mgrwt>
<rscale>  0 0.10200277E+04</rscale>
<asrwt>0</asrwt>
<pdfrwt beam="1">  1        2 0.24005124E+00 0.10772246E+04</pdfrwt>
<pdfrwt beam="2">  1       -2 0.23446692E+00 0.10772246E+04</pdfrwt>
<totfact> 0.92807757E-01</totfact>
</mgrwt>
</event>
<event>
 4    5  0.8511149E-008  0.9750407E+03  0.7818608E-02  0.9414966E-01
          2   -1    0    0  501    0  0.00000000000E+00  0.00000000000E+00  0.20501292858E+04  0.20501292858E+04  0.25500000000E-02 0. -1.
         -2   -1    0    0    0  501 -0.00000000000E+00 -0.00000000000E+00 -0.64489343963E+03  0.64489343963E+03  0.25500000000E-02 0.  1.
    8880023    1    1    2    0    0  0.71864423271E+03 -0.21088272367E+02 -0.13888067926E+03  0.98488186996E+03  0.65864270000E+03 0.  0.
    8880022    1    1    2    0    0 -0.71864423271E+03  0.21088272367E+02  0.15441165254E+04  0.17101408554E+04  0.15294330000E+03 0.  0.
<mgrwt>
<rscale>  0 0.90854204E+03</rscale>
<asrwt>0</asrwt>
<pdfrwt beam="1">  1        2 0.31540451E+00 0.97504075E+03</pdfrwt>
<pdfrwt beam="2">  1       -2 0.99214375E-01 0.97504075E+03</pdfrwt>
<totfact> 0.52954587E+00</totfact>
</mgrwt>
</event>
<event>
 4    5  0.8511149E-008  0.1314417E+04  0.7818608E-02  0.9053209E-01
          2   -1    0    0  501    0  0.00000000000E+00  0.00000000000E+00  0.15927987568E+04  0.15927987568E+04  0.25500000000E-02 0. -1.
         -2   -1    0    0    0  501 -0.00000000000E+00 -0.00000000000E+00 -0.11443264677E+04  0.11443264677E+04  0.25500000000E-02 0.  1.
    8880023    1    1    2    0    0 -0.43628588974E+03 -0.10504937667E+04 -0.32386816836E+03  0.13537294147E+04  0.65864270000E+03 0.  0.
    8880022    1    1    2    0    0  0.43628588974E+03  0.10504937667E+04  0.77234045747E+03  0.13833958099E+04  0.15294330000E+03 0.  0.
<mgrwt>
<rscale>  0 0.12706018E+04</rscale>
<asrwt>0</asrwt>
<pdfrwt beam="1">  1        2 0.24504596E+00 0.13144173E+04</pdfrwt>
<pdfrwt beam="2">  1       -2 0.17605023E+00 0.13144173E+04</pdfrwt>
<totfact> 0.20860489E+00</totfact>
</mgrwt>
</event>
<event>
 4    5  0.8511149E-008  0.9151617E+03  0.7818608E-02  0.9502118E-01
          2   -1    0    0  501    0  0.00000000000E+00  0.00000000000E+00  0.20492805284E+04  0.20492805284E+04  0.25500000000E-02 0. -1.
         -2   -1    0    0    0  501 -0.00000000000E+00 -0.00000000000E+00 -0.35996301293E+03  0.35996301294E+03  0.25500000000E-02 0.  1.
    8880023    1    1    2    0    0 -0.35118353683E+03 -0.52951002002E+03  0.47704429274E+03  0.10320330428E+04  0.65864270000E+03 0.  1.
    8880022    1    1    2    0    0  0.35118353683E+03  0.52951002002E+03  0.12122732228E+04  0.13772104986E+04  0.15294330000E+03 0.  0.
<mgrwt>
<rscale>  0 0.84127867E+03</rscale>
<asrwt>0</asrwt>
<pdfrwt beam="1">  1        2 0.31527393E+00 0.91516170E+03</pdfrwt>
<pdfrwt beam="2">  1       -2 0.55378925E-01 0.91516170E+03</pdfrwt>
<totfact> 0.19488010E+01</totfact>
</mgrwt>
</event>
<event>
 4    5  0.8511149E-008  0.6991799E+03  0.7818608E-02  0.1000062E+00
          2   -1    0    0  501    0  0.00000000000E+00  0.00000000000E+00  0.38580285636E+04  0.38580285636E+04  0.25500000000E-02 0. -1.
         -2   -1    0    0    0  501 -0.00000000000E+00 -0.00000000000E+00 -0.12440427487E+04  0.12440427487E+04  0.25500000000E-02 0.  1.
    8880023    1    1    2    0    0  0.23302825881E+03 -0.27206017573E+02 -0.11401745438E+04  0.13374791712E+04  0.65864270000E+03 0.  1.
    8880022    1    1    2    0    0 -0.23302825881E+03  0.27206017573E+02  0.37541603587E+04  0.37645921411E+04  0.15294330000E+03 0.  0.
<mgrwt>
<rscale>  0 0.55623043E+03</rscale>
<asrwt>0</asrwt>
<pdfrwt beam="1">  1        2 0.59354285E+00 0.69917991E+03</pdfrwt>
<pdfrwt beam="2">  1       -2 0.19139119E+00 0.69917991E+03</pdfrwt>
<totfact> 0.76089432E-02</totfact>
</mgrwt>
</event>
<event>
 4    5  0.8511149E-008  0.8640546E+03  0.7818608E-02  0.9586391E-01
          2   -1    0    0  501    0  0.00000000000E+00  0.00000000000E+00  0.19437040464E+04  0.19437040464E+04  0.25500000000E-02 0. -1.
         -2   -1    0    0    0  501 -0.00000000000E+00 -0.00000000000E+00 -0.34613256295E+03  0.34613256296E+03  0.25500000000E-02 0.  1.
    8880023    1    1    2    0    0  0.24029129536E+03 -0.50501517301E+03  0.38534707897E+03  0.94608816139E+03  0.65864270000E+03 0.  1.
    8880022    1    1    2    0    0 -0.24029129536E+03  0.50501517301E+03  0.12122244045E+04  0.13437484480E+04  0.15294330000E+03 0.  0.
<mgrwt>
<rscale>  0 0.78203481E+03</rscale>
<asrwt>0</asrwt>
<pdfrwt beam="1">  1        2 0.29903140E+00 0.86405465E+03</pdfrwt>
<pdfrwt beam="2">  1       -2 0.53251162E-01 0.86405465E+03</pdfrwt>
<totfact> 0.24296131E+01</totfact>
</mgrwt>
</event>
<event>
 4    5  0.8511149E-008  0.6714335E+03  0.7818608E-02  0.1014655E+00
         -2   -1    0    0    0  501 -0.00000000000E+00  0.00000000000E+00  0.71601763337E+02  0.71601763382E+02  0.25500000000E-02 0.  1.
          2   -1    0    0  501    0  0.00000000000E+00 -0.00000000000E+00 -0.40045794715E+04  0.40045794715E+04  0.25500000000E-02 0. -1.
    8880023    1    1    2    0    0  0.98277129914E+02 -0.85757439493E+02 -0.16082904206E+04  0.17428198461E+04  0.65864270000E+03 0.  1.
    8880022    1    1    2    0    0 -0.98277129914E+02  0.85757439493E+02 -0.23246872876E+04  0.23333613888E+04  0.15294330000E+03 0. -1.
<mgrwt>
<rscale>  0 0.49665615E+03</rscale>
<asrwt>0</asrwt>
<pdfrwt beam="1">  1        2 0.61608898E+00 0.67143350E+03</pdfrwt>
<pdfrwt beam="2">  1       -2 0.11015659E-01 0.67143350E+03</pdfrwt>
<totfact> 0.22229242E+01</totfact>
</mgrwt>
</event>
<event>
 4    5  0.8511149E-008  0.9917372E+03  0.7818608E-02  0.9392449E-01
         -2   -1    0    0    0  501 -0.00000000000E+00  0.00000000000E+00  0.76815026835E+03  0.76815026836E+03  0.25500000000E-02 0.  1.
          2   -1    0    0  501    0  0.00000000000E+00 -0.00000000000E+00 -0.17690478906E+04  0.17690478906E+04  0.25500000000E-02 0. -1.
    8880023    1    1    2    0    0 -0.64731789295E+03 -0.36154126384E+03  0.29647127258E+03  0.10351028749E+04  0.65864270000E+03 0.  0.
    8880022    1    1    2    0    0  0.64731789295E+03  0.36154126384E+03 -0.12973688949E+04  0.15020952841E+04  0.15294330000E+03 0.  0.
<mgrwt>
<rscale>  0 0.92699749E+03</rscale>
<asrwt>0</asrwt>
<pdfrwt beam="1">  1        2 0.27216121E+00 0.99173724E+03</pdfrwt>
<pdfrwt beam="2">  1       -2 0.11817696E+00 0.99173724E+03</pdfrwt>
<totfact> 0.49385580E+00</totfact>
</mgrwt>
</event>
<event>
 4    5  0.1087167E-007  0.1293208E+04  0.7818608E-02  0.9071448E-01
         -2   -1    0    0    0  501 -0.00000000000E+00  0.00000000000E+00  0.17639465095E+04  0.17639465095E+04  0.25500000000E-02 0.  1.
          2   -1    0    0  501    0  0.00000000000E+00 -0.00000000000E+00 -0.29110366119E+04  0.29110366119E+04  0.25500000000E-02 0. -1.
    8880023    1    1    2    0    0 -0.10814565636E+04  0.26273143883E+03  0.13910716038E+04  0.18993331780E+04  0.65864270000E+03 0.  1.
    8880022    1    1    2    0    0  0.10814565636E+04 -0.26273143883E+03 -0.25381617062E+04  0.27756499433E+04  0.15294330000E+03 0.  0.
<mgrwt>
<rscale>  0 0.12484819E+04</rscale>
<asrwt>0</asrwt>
<pdfrwt beam="1">  1        2 0.44785179E+00 0.12932078E+04</pdfrwt>
<pdfrwt beam="2">  1       -2 0.27137639E+00 0.12932078E+04</pdfrwt>
<totfact> 0.91134019E-02</totfact>
</mgrwt>
</event>
<event>
 4    5  0.8511149E-008  0.7011560E+03  0.7818608E-02  0.9992439E-01
         -2   -1    0    0    0  501 -0.00000000000E+00  0.00000000000E+00  0.98134288427E+02  0.98134288460E+02  0.25500000000E-02 0.  1.
          2   -1    0    0  501    0  0.00000000000E+00 -0.00000000000E+00 -0.28723923414E+04  0.28723923414E+04  0.25500000000E-02 0. -1.
    8880023    1    1    2    0    0  0.23028945155E+03 -0.69110385743E+02 -0.13852565339E+04  0.15525963248E+04  0.65864270000E+03 0.  1.
    8880022    1    1    2    0    0 -0.23028945155E+03  0.69110385743E+02 -0.13890015191E+04  0.14179303050E+04  0.15294330000E+03 0.  0.
<mgrwt>
<rscale>  0 0.55983008E+03</rscale>
<asrwt>0</asrwt>
<pdfrwt beam="1">  1        2 0.44190645E+00 0.70115596E+03</pdfrwt>
<pdfrwt beam="2">  1       -2 0.15097585E-01 0.70115596E+03</pdfrwt>
<totfact> 0.76554902E+01</totfact>
</mgrwt>
</event>
<event>
 4    5  0.8511149E-008  0.1451212E+04  0.7818608E-02  0.8944878E-01
         -2   -1    0    0    0  501 -0.00000000000E+00  0.00000000000E+00  0.14605625481E+04  0.14605625481E+04  0.25500000000E-02 0.  1.
          2   -1    0    0  501    0  0.00000000000E+00 -0.00000000000E+00 -0.18602521519E+04  0.18602521520E+04  0.25500000000E-02 0. -1.
    8880023    1    1    2    0    0  0.11219119295E+04 -0.64305433123E+03 -0.11196075333E+04  0.18329038396E+04  0.65864270000E+03 0.  0.
    8880022    1    1    2    0    0 -0.11219119295E+04  0.64305433123E+03  0.71991792944E+03  0.14879108604E+04  0.15294330000E+03 0.  0.
<mgrwt>
<rscale>  0 0.14124185E+04</rscale>
<asrwt>0</asrwt>
<pdfrwt beam="1">  1        2 0.28619264E+00 0.14512117E+04</pdfrwt>
<pdfrwt beam="2">  1       -2 0.22470193E+00 0.14512117E+04</pdfrwt>
<totfact> 0.69563488E-01</totfact>
</mgrwt>
</event>
<event>
 4    5  0.8511149E-008  0.9656245E+03  0.7818608E-02  0.9427982E-01
          2   -1    0    0  501    0  0.00000000000E+00  0.00000000000E+00  0.76224544548E+03  0.76224544549E+03  0.25500000000E-02 0. -1.
         -2   -1    0    0    0  501 -0.00000000000E+00 -0.00000000000E+00 -0.11778833241E+04  0.11778833241E+04  0.25500000000E-02 0.  1.
    8880023    1    1    2    0    0  0.69525300871E+03 -0.12346515498E+03 -0.66873168012E+03  0.11745776504E+04  0.65864270000E+03 0. -1.
    8880022    1    1    2    0    0 -0.69525300871E+03  0.12346515498E+03  0.25309380154E+03  0.76555111914E+03  0.15294330000E+03 0.  0.
<mgrwt>
<rscale>  0 0.89808255E+03</rscale>
<asrwt>0</asrwt>
<pdfrwt beam="1">  1        2 0.11726853E+00 0.96562446E+03</pdfrwt>
<pdfrwt beam="2">  1       -2 0.18121282E+00 0.96562446E+03</pdfrwt>
<totfact> 0.65010495E+00</totfact>
</mgrwt>
</event>
<event>
 4    5  0.8511149E-008  0.8369551E+03  0.7818608E-02  0.9635949E-01
          2   -1    0    0  501    0  0.00000000000E+00  0.00000000000E+00  0.89246166728E+03  0.89246166728E+03  0.25500000000E-02 0. -1.
         -2   -1    0    0    0  501 -0.00000000000E+00 -0.00000000000E+00 -0.18561734752E+04  0.18561734752E+04  0.25500000000E-02 0.  1.
    8880023    1    1    2    0    0 -0.50693663691E+03  0.98482879477E+02 -0.16655169201E+04  0.18639850988E+04  0.65864270000E+03 0.  1.
    8880022    1    1    2    0    0  0.50693663691E+03 -0.98482879477E+02  0.70180511211E+03  0.88465004368E+03  0.15294330000E+03 0.  0.
<mgrwt>
<rscale>  0 0.74961878E+03</rscale>
<asrwt>0</asrwt>
<pdfrwt beam="1">  1        2 0.13730179E+00 0.83695510E+03</pdfrwt>
<pdfrwt beam="2">  1       -2 0.28556515E+00 0.83695510E+03</pdfrwt>
<totfact> 0.11856155E+00</totfact>
</mgrwt>
</event>
<event>
 4    5  0.8511149E-008  0.7135178E+03  0.7818608E-02  0.9945163E-01
         -2   -1    0    0    0  501 -0.00000000000E+00  0.00000000000E+00  0.84542950794E+03  0.84542950794E+03  0.25500000000E-02 0.  1.
          2   -1    0    0  501    0  0.00000000000E+00 -0.00000000000E+00 -0.72641287362E+03  0.72641287362E+03  0.25500000000E-02 0. -1.
    8880023    1    1    2    0    0 -0.24208220213E+03  0.12920403723E+03  0.64326467820E+03  0.96067535011E+03  0.65864270000E+03 0.  1.
    8880022    1    1    2    0    0  0.24208220213E+03 -0.12920403723E+03 -0.52424804387E+03  0.61116703146E+03  0.15294330000E+03 0.  0.
<mgrwt>
<rscale>  0 0.58121563E+03</rscale>
<asrwt>0</asrwt>
<pdfrwt beam="1">  1        2 0.11175583E+00 0.71351782E+03</pdfrwt>
<pdfrwt beam="2">  1       -2 0.13006608E+00 0.71351782E+03</pdfrwt>
<totfact> 0.17257474E+01</totfact>
</mgrwt>
</event>
<event>
 4    5  0.8511149E-008  0.8973925E+03  0.7818608E-02  0.9530231E-01
          2   -1    0    0  501    0  0.00000000000E+00  0.00000000000E+00  0.30729294030E+04  0.30729294030E+04  0.25500000000E-02 0. -1.
         -2   -1    0    0    0  501 -0.00000000000E+00 -0.00000000000E+00 -0.34575204824E+03  0.34575204825E+03  0.25500000000E-02 0.  1.
    8880023    1    1    2    0    0 -0.28169422542E+03  0.54051033455E+03  0.35563168527E+03  0.96529123078E+03  0.65864270000E+03 0.  0.
    8880022    1    1    2    0    0  0.28169422542E+03 -0.54051033455E+03  0.23715456695E+04  0.24533902205E+04  0.15294330000E+03 0.  1.
<mgrwt>
<rscale>  0 0.82091272E+03</rscale>
<asrwt>0</asrwt>
<pdfrwt beam="1">  1        2 0.47275835E+00 0.89739248E+03</pdfrwt>
<pdfrwt beam="2">  1       -2 0.53192625E-01 0.89739248E+03</pdfrwt>
<totfact> 0.54310215E+00</totfact>
</mgrwt>
</event>
<event>
 4    5  0.8511149E-008  0.1845737E+04  0.7818608E-02  0.8697650E-01
         -2   -1    0    0    0  501 -0.00000000000E+00  0.00000000000E+00  0.13616563151E+04  0.13616563151E+04  0.25500000000E-02 0.  1.
          2   -1    0    0  501    0  0.00000000000E+00 -0.00000000000E+00 -0.27555809691E+04  0.27555809691E+04  0.25500000000E-02 0. -1.
    8880023    1    1    2    0    0 -0.16719085572E+04 -0.42149293586E+03 -0.15066356280E+04  0.23825817174E+04  0.65864270000E+03 0.  0.
    8880022    1    1    2    0    0  0.16719085572E+04  0.42149293586E+03  0.11271097404E+03  0.17346555668E+04  0.15294330000E+03 0.  0.
<mgrwt>
<rscale>  0 0.18163560E+04</rscale>
<asrwt>0</asrwt>
<pdfrwt beam="1">  1        2 0.42393553E+00 0.18457369E+04</pdfrwt>
<pdfrwt beam="2">  1       -2 0.20948559E+00 0.18457369E+04</pdfrwt>
<totfact> 0.25712118E-01</totfact>
</mgrwt>
</event>
<event>
 4    5  0.8511149E-008  0.8235896E+03  0.7818608E-02  0.9661936E-01
          2   -1    0    0  501    0  0.00000000000E+00  0.00000000000E+00  0.35322211915E+04  0.35322211915E+04  0.25500000000E-02 0. -1.
         -2   -1    0    0    0  501 -0.00000000000E+00 -0.00000000000E+00 -0.51606708651E+03  0.51606708652E+03  0.25500000000E-02 0.  1.
    8880023    1    1    2    0    0  0.12517109481E+03  0.47835327576E+03 -0.15254485401E+03  0.83759763500E+03  0.65864270000E+03 0.  1.
    8880022    1    1    2    0    0 -0.12517109481E+03 -0.47835327576E+03  0.31686989590E+04  0.32106906430E+04  0.15294330000E+03 0.  0.
<mgrwt>
<rscale>  0 0.73329032E+03</rscale>
<asrwt>0</asrwt>
<pdfrwt beam="1">  1        2 0.54341865E+00 0.82358962E+03</pdfrwt>
<pdfrwt beam="2">  1       -2 0.79394936E-01 0.82358962E+03</pdfrwt>
<totfact> 0.11630426E+00</totfact>
</mgrwt>
</event>
<event>
 4    5  0.8511149E-008  0.9981475E+03  0.7818608E-02  0.9383985E-01
         -2   -1    0    0    0  501 -0.00000000000E+00  0.00000000000E+00  0.35476174190E+03  0.35476174191E+03  0.25500000000E-02 0.  1.
          2   -1    0    0  501    0  0.00000000000E+00 -0.00000000000E+00 -0.25864130747E+04  0.25864130747E+04  0.25500000000E-02 0. -1.
    8880023    1    1    2    0    0 -0.65047242883E+02  0.74716604644E+03 -0.67040229356E+03  0.12023883259E+04  0.65864270000E+03 0.  0.
    8880022    1    1    2    0    0  0.65047242883E+02 -0.74716604644E+03 -0.15612490393E+04  0.17387864908E+04  0.15294330000E+03 0.  0.
<mgrwt>
<rscale>  0 0.93405429E+03</rscale>
<asrwt>0</asrwt>
<pdfrwt beam="1">  1        2 0.39790969E+00 0.99814751E+03</pdfrwt>
<pdfrwt beam="2">  1       -2 0.54578731E-01 0.99814751E+03</pdfrwt>
<totfact> 0.99287821E+00</totfact>
</mgrwt>
</event>
<event>
 4    5  0.8511149E-008  0.1326634E+04  0.7818608E-02  0.9042894E-01
          2   -1    0    0  501    0  0.00000000000E+00  0.00000000000E+00  0.22695890036E+04  0.22695890036E+04  0.25500000000E-02 0. -1.
         -2   -1    0    0    0  501 -0.00000000000E+00 -0.00000000000E+00 -0.10342978174E+04  0.10342978174E+04  0.25500000000E-02 0.  1.
    8880023    1    1    2    0    0 -0.77114347089E+03 -0.85526971305E+03 -0.31801815748E+03  0.13642192967E+04  0.65864270000E+03 0.  0.
    8880022    1    1    2    0    0  0.77114347089E+03  0.85526971305E+03  0.15533093436E+04  0.19396675243E+04  0.15294330000E+03 0.  0.
<mgrwt>
<rscale>  0 0.12833250E+04</rscale>
<asrwt>0</asrwt>
<pdfrwt beam="1">  1        2 0.34916753E+00 0.13266344E+04</pdfrwt>
<pdfrwt beam="2">  1       -2 0.15912274E+00 0.13266344E+04</pdfrwt>
<totfact> 0.11583466E+00</totfact>
</mgrwt>
</event>
<event>
 4    5  0.8511149E-008  0.9357291E+03  0.7818608E-02  0.9470951E-01
         -2   -1    0    0    0  501 -0.00000000000E+00  0.00000000000E+00  0.17373603829E+04  0.17373603829E+04  0.25500000000E-02 0.  1.
          2   -1    0    0  501    0  0.00000000000E+00 -0.00000000000E+00 -0.80844665820E+03  0.80844665820E+03  0.25500000000E-02 0. -1.
    8880023    1    1    2    0    0  0.65988627070E+03 -0.79554383235E+02  0.14233668177E+04  0.17033972215E+04  0.65864270000E+03 0.  1.
    8880022    1    1    2    0    0 -0.65988627070E+03  0.79554383235E+02 -0.49445309294E+03  0.84240981968E+03  0.15294330000E+03 0.  0.
<mgrwt>
<rscale>  0 0.86459780E+03</rscale>
<asrwt>0</asrwt>
<pdfrwt beam="1">  1        2 0.12437641E+00 0.93572913E+03</pdfrwt>
<pdfrwt beam="2">  1       -2 0.26728621E+00 0.93572913E+03</pdfrwt>
<totfact> 0.17238712E+00</totfact>
</mgrwt>
</event>
<event>
 4    5  0.8511149E-008  0.8121733E+03  0.7818608E-02  0.9685068E-01
         -2   -1    0    0    0  501 -0.00000000000E+00  0.00000000000E+00  0.52240201706E+03  0.52240201707E+03  0.25500000000E-02 0.  1.
          2   -1    0    0  501    0  0.00000000000E+00 -0.00000000000E+00 -0.85197195190E+03  0.85197195191E+03  0.25500000000E-02 0. -1.
    8880023    1    1    2    0    0  0.44964594373E+03  0.15373272736E+03 -0.79555525743E+02  0.81606036181E+03  0.65864270000E+03 0. -1.
    8880022    1    1    2    0    0 -0.44964594373E+03 -0.15373272736E+03 -0.25001440910E+03  0.55831360717E+03  0.15294330000E+03 0.  0.
<mgrwt>
<rscale>  0 0.71912854E+03</rscale>
<asrwt>0</asrwt>
<pdfrwt beam="1">  1        2 0.13107261E+00 0.81217328E+03</pdfrwt>
<pdfrwt beam="2">  1       -2 0.80369541E-01 0.81217328E+03</pdfrwt>
<totfact> 0.43679511E+01</totfact>
</mgrwt>
</event>
<event>
 4    5  0.8511149E-008  0.7812152E+03  0.7818608E-02  0.9752990E-01
          2   -1    0    0  501    0  0.00000000000E+00  0.00000000000E+00  0.14190843552E+04  0.14190843552E+04  0.25500000000E-02 0. -1.
         -2   -1    0    0    0  501 -0.00000000000E+00 -0.00000000000E+00 -0.43908420762E+03  0.43908420763E+03  0.25500000000E-02 0.  1.
    8880023    1    1    2    0    0  0.33516473053E+03  0.25328168149E+03  0.22987882194E+00  0.78121524939E+03  0.65864270000E+03 0.  1.
    8880022    1    1    2    0    0 -0.33516473053E+03 -0.25328168149E+03  0.97977026871E+03  0.10769533134E+04  0.15294330000E+03 0.  0.
<mgrwt>
<rscale>  0 0.67947553E+03</rscale>
<asrwt>0</asrwt>
<pdfrwt beam="1">  1        2 0.21832067E+00 0.78121522E+03</pdfrwt>
<pdfrwt beam="2">  1       -2 0.67551417E-01 0.78121522E+03</pdfrwt>
<totfact> 0.28872163E+01</totfact>
</mgrwt>
</event>
<event>
 4    5  0.8511149E-008  0.1058465E+04  0.7818608E-02  0.9308774E-01
         -2   -1    0    0    0  501 -0.00000000000E+00  0.00000000000E+00  0.44201318687E+03  0.44201318688E+03  0.25500000000E-02 0.  1.
          2   -1    0    0  501    0  0.00000000000E+00 -0.00000000000E+00 -0.25554325701E+04  0.25554325701E+04  0.25500000000E-02 0. -1.
    8880023    1    1    2    0    0 -0.48940229206E+03 -0.66859794619E+03 -0.48570713625E+03  0.11645855252E+04  0.65864270000E+03 0.  1.
    8880022    1    1    2    0    0  0.48940229206E+03  0.66859794619E+03 -0.16277122470E+04  0.18328602318E+04  0.15294330000E+03 0. -1.
<mgrwt>
<rscale>  0 0.99979108E+03</rscale>
<asrwt>0</asrwt>
<pdfrwt beam="1">  1        2 0.39314346E+00 0.10584649E+04</pdfrwt>
<pdfrwt beam="2">  1       -2 0.68002030E-01 0.10584649E+04</pdfrwt>
<totfact> 0.64301990E+00</totfact>
</mgrwt>
</event>
<event>
 4    5  0.8511149E-008  0.9973832E+03  0.7818608E-02  0.9384989E-01
          2   -1    0    0  501    0  0.00000000000E+00  0.00000000000E+00  0.17599459458E+04  0.17599459458E+04  0.25500000000E-02 0. -1.
         -2   -1    0    0    0  501 -0.00000000000E+00 -0.00000000000E+00 -0.97094019979E+03  0.97094019980E+03  0.25500000000E-02 0.  1.
    8880023    1    1    2    0    0 -0.15964345755E+03  0.73176292810E+03 -0.58663850223E+03  0.11571162237E+04  0.65864270000E+03 0.  0.
    8880022    1    1    2    0    0  0.15964345755E+03 -0.73176292810E+03  0.13756442482E+04  0.15737699219E+04  0.15294330000E+03 0.  0.
<mgrwt>
<rscale>  0 0.93321368E+03</rscale>
<asrwt>0</asrwt>
<pdfrwt beam="1">  1        2 0.27076092E+00 0.99738319E+03</pdfrwt>
<pdfrwt beam="2">  1       -2 0.14937541E+00 0.99738319E+03</pdfrwt>
<totfact> 0.27384680E+00</totfact>
</mgrwt>
</event>
<event>
 4    5  0.8511149E-008  0.7993800E+03  0.7818608E-02  0.9712138E-01
          2   -1    0    0  501    0  0.00000000000E+00  0.00000000000E+00  0.10873153217E+04  0.10873153217E+04  0.25500000000E-02 0. -1.
         -2   -1    0    0    0  501 -0.00000000000E+00 -0.00000000000E+00 -0.87554761590E+03  0.87554761590E+03  0.25500000000E-02 0.  1.
    8880023    1    1    2    0    0  0.43772705737E+03 -0.11658960308E+03 -0.61447512688E+03  0.10082598872E+04  0.65864270000E+03 0.  1.
    8880022    1    1    2    0    0 -0.43772705737E+03  0.11658960308E+03  0.82624283273E+03  0.95460305046E+03  0.15294330000E+03 0.  0.
<mgrwt>
<rscale>  0 0.70298659E+03</rscale>
<asrwt>0</asrwt>
<pdfrwt beam="1">  1        2 0.16727928E+00 0.79937996E+03</pdfrwt>
<pdfrwt beam="2">  1       -2 0.13469963E+00 0.79937996E+03</pdfrwt>
<totfact> 0.89132087E+00</totfact>
</mgrwt>
</event>
<event>
 4    5  0.8511149E-008  0.7093029E+03  0.7818608E-02  0.9960599E-01
         -2   -1    0    0    0  501 -0.00000000000E+00  0.00000000000E+00  0.16278390442E+04  0.16278390442E+04  0.25500000000E-02 0.  1.
          2   -1    0    0  501    0  0.00000000000E+00 -0.00000000000E+00 -0.16893155845E+04  0.16893155845E+04  0.25500000000E-02 0. -1.
    8880023    1    1    2    0    0  0.25305680074E+03  0.72544005971E+02  0.15355026962E+04  0.16914133479E+04  0.65864270000E+03 0.  1.
    8880022    1    1    2    0    0 -0.25305680074E+03 -0.72544005971E+02 -0.15969792365E+04  0.16257412808E+04  0.15294330000E+03 0.  0.
<mgrwt>
<rscale>  0 0.57412187E+03</rscale>
<asrwt>0</asrwt>
<pdfrwt beam="1">  1        2 0.25989471E+00 0.70930289E+03</pdfrwt>
<pdfrwt beam="2">  1       -2 0.25043677E+00 0.70930289E+03</pdfrwt>
<totfact> 0.67036523E-01</totfact>
</mgrwt>
</event>
<event>
 4    5  0.8511149E-008  0.1615100E+04  0.7818608E-02  0.8832364E-01
         -2   -1    0    0    0  501 -0.00000000000E+00  0.00000000000E+00  0.14919696207E+04  0.14919696207E+04  0.25500000000E-02 0.  1.
          2   -1    0    0  501    0  0.00000000000E+00 -0.00000000000E+00 -0.21397701881E+04  0.21397701881E+04  0.25500000000E-02 0. -1.
    8880023    1    1    2    0    0 -0.30016945859E+03  0.14438270159E+04  0.57038393441E+03  0.17128590702E+04  0.65864270000E+03 0.  0.
    8880022    1    1    2    0    0  0.30016945859E+03 -0.14438270159E+04 -0.12181845018E+04  0.19188807386E+04  0.15294330000E+03 0.  0.
<mgrwt>
<rscale>  0 0.15809067E+04</rscale>
<asrwt>0</asrwt>
<pdfrwt beam="1">  1        2 0.32919541E+00 0.16151001E+04</pdfrwt>
<pdfrwt beam="2">  1       -2 0.22953379E+00 0.16151001E+04</pdfrwt>
<totfact> 0.44519591E-01</totfact>
</mgrwt>
</event>
<event>
 4    5  0.8511149E-008  0.9982461E+03  0.7818608E-02  0.9383856E-01
         -2   -1    0    0    0  501 -0.00000000000E+00  0.00000000000E+00  0.51280468650E+03  0.51280468651E+03  0.25500000000E-02 0.  1.
          2   -1    0    0  501    0  0.00000000000E+00 -0.00000000000E+00 -0.16201282690E+04  0.16201282690E+04  0.25500000000E-02 0. -1.
    8880023    1    1    2    0    0 -0.69911707353E+03  0.27188286997E+03 -0.88934644540E+03  0.13369488710E+04  0.65864270000E+03 0.  0.
    8880022    1    1    2    0    0  0.69911707353E+03 -0.27188286997E+03 -0.21797713711E+03  0.79598408451E+03  0.15294330000E+03 0.  0.
<mgrwt>
<rscale>  0 0.93416266E+03</rscale>
<asrwt>0</asrwt>
<pdfrwt beam="1">  1        2 0.24925050E+00 0.99824605E+03</pdfrwt>
<pdfrwt beam="2">  1       -2 0.78893029E-01 0.99824605E+03</pdfrwt>
<totfact> 0.15472002E+01</totfact>
</mgrwt>
</event>
<event>
 4    5  0.8511149E-008  0.7448279E+03  0.7818608E-02  0.9846100E-01
          2   -1    0    0  501    0  0.00000000000E+00  0.00000000000E+00  0.20568913591E+04  0.20568913591E+04  0.25500000000E-02 0. -1.
         -2   -1    0    0    0  501 -0.00000000000E+00 -0.00000000000E+00 -0.66292897490E+03  0.66292897491E+03  0.25500000000E-02 0.  1.
    8880023    1    1    2    0    0 -0.30586132569E+03  0.16555136901E+03 -0.42774537565E+03  0.85891484967E+03  0.65864270000E+03 0.  1.
    8880022    1    1    2    0    0  0.30586132569E+03 -0.16555136901E+03  0.18217077599E+04  0.18609054844E+04  0.15294330000E+03 0.  0.
<mgrwt>
<rscale>  0 0.62946136E+03</rscale>
<asrwt>0</asrwt>
<pdfrwt beam="1">  1        2 0.31644482E+00 0.74482791E+03</pdfrwt>
<pdfrwt beam="2">  1       -2 0.10198907E+00 0.74482791E+03</pdfrwt>
<totfact> 0.50829479E+00</totfact>
</mgrwt>
</event>
<event>
 4    5  0.8511149E-008  0.7150822E+03  0.7818608E-02  0.9939592E-01
          2   -1    0    0  501    0  0.00000000000E+00  0.00000000000E+00  0.16436958173E+04  0.16436958173E+04  0.25500000000E-02 0. -1.
         -2   -1    0    0    0  501 -0.00000000000E+00 -0.00000000000E+00 -0.33390019545E+03  0.33390019546E+03  0.25500000000E-02 0.  1.
    8880023    1    1    2    0    0 -0.27122202154E+03 -0.63015190526E+02  0.94303087137E+02  0.72127358035E+03  0.65864270000E+03 0.  1.
    8880022    1    1    2    0    0  0.27122202154E+03  0.63015190526E+02  0.12154925347E+04  0.12563224324E+04  0.15294330000E+03 0.  0.
<mgrwt>
<rscale>  0 0.58380289E+03</rscale>
<asrwt>0</asrwt>
<pdfrwt beam="1">  1        2 0.25287628E+00 0.71508217E+03</pdfrwt>
<pdfrwt beam="2">  1       -2 0.51369261E-01 0.71508217E+03</pdfrwt>
<totfact> 0.38844091E+01</totfact>
</mgrwt>
</event>
<event>
 4    5  0.8511149E-008  0.1198338E+04  0.7818608E-02  0.9158740E-01
         -2   -1    0    0    0  501 -0.00000000000E+00  0.00000000000E+00  0.83550516164E+03  0.83550516164E+03  0.25500000000E-02 0.  1.
          2   -1    0    0  501    0  0.00000000000E+00 -0.00000000000E+00 -0.21427896742E+04  0.21427896742E+04  0.25500000000E-02 0. -1.
    8880023    1    1    2    0    0 -0.62114579092E+03 -0.78509964671E+03  0.14574474748E+03  0.12071682925E+04  0.65864270000E+03 0.  0.
    8880022    1    1    2    0    0  0.62114579092E+03  0.78509964671E+03 -0.14530292601E+04  0.17711265433E+04  0.15294330000E+03 0.  0.
<mgrwt>
<rscale>  0 0.11489641E+04</rscale>
<asrwt>0</asrwt>
<pdfrwt beam="1">  1        2 0.32965995E+00 0.11983379E+04</pdfrwt>
<pdfrwt beam="2">  1       -2 0.12853926E+00 0.11983379E+04</pdfrwt>
<totfact> 0.24265934E+00</totfact>
</mgrwt>
</event>
<event>
 4    5  0.8511149E-008  0.7827395E+03  0.7818608E-02  0.9749441E-01
          2   -1    0    0  501    0  0.00000000000E+00  0.00000000000E+00  0.10945852243E+04  0.10945852244E+04  0.25500000000E-02 0. -1.
         -2   -1    0    0    0  501 -0.00000000000E+00 -0.00000000000E+00 -0.14759372635E+04  0.14759372635E+04  0.25500000000E-02 0.  1.
    8880023    1    1    2    0    0  0.13153108445E+03  0.40195831919E+03 -0.13171996912E+04  0.15322193541E+04  0.65864270000E+03 0.  1.
    8880022    1    1    2    0    0 -0.13153108445E+03 -0.40195831919E+03  0.93584765205E+03  0.10383031337E+04  0.15294330000E+03 0.  0.
<mgrwt>
<rscale>  0 0.68147884E+03</rscale>
<asrwt>0</asrwt>
<pdfrwt beam="1">  1        2 0.16839773E+00 0.78273950E+03</pdfrwt>
<pdfrwt beam="2">  1       -2 0.22706727E+00 0.78273950E+03</pdfrwt>
<totfact> 0.20070587E+00</totfact>
</mgrwt>
</event>
<event>
 4    5  0.8511149E-008  0.9708997E+03  0.7818608E-02  0.9420661E-01
         -2   -1    0    0    0  501 -0.00000000000E+00  0.00000000000E+00  0.10407259325E+04  0.10407259325E+04  0.25500000000E-02 0.  1.
          2   -1    0    0  501    0  0.00000000000E+00 -0.00000000000E+00 -0.42797008611E+04  0.42797008611E+04  0.25500000000E-02 0. -1.
    8880023    1    1    2    0    0  0.27604609171E+03 -0.65774966621E+03  0.77401023009E+03  0.12416674719E+04  0.65864270000E+03 0.  0.
    8880022    1    1    2    0    0 -0.27604609171E+03  0.65774966621E+03 -0.40129851587E+04  0.40787593218E+04  0.15294330000E+03 0.  0.
<mgrwt>
<rscale>  0 0.90394700E+03</rscale>
<asrwt>0</asrwt>
<pdfrwt beam="1">  1        2 0.65841550E+00 0.97089972E+03</pdfrwt>
<pdfrwt beam="2">  1       -2 0.16011169E+00 0.97089972E+03</pdfrwt>
<totfact> 0.53057344E-02</totfact>
</mgrwt>
</event>
<event>
 4    5  0.8511149E-008  0.9681295E+03  0.7818608E-02  0.9424496E-01
          2   -1    0    0  501    0  0.00000000000E+00  0.00000000000E+00  0.51026684696E+04  0.51026684696E+04  0.25500000000E-02 0. -1.
         -2   -1    0    0    0  501 -0.00000000000E+00 -0.00000000000E+00 -0.17984786212E+03  0.17984786214E+03  0.25500000000E-02 0.  1.
    8880023    1    1    2    0    0 -0.13390589163E+03 -0.69680249769E+03  0.15125176625E+04  0.17958241546E+04  0.65864270000E+03 0.  0.
    8880022    1    1    2    0    0  0.13390589163E+03  0.69680249769E+03  0.34103029450E+04  0.34866921771E+04  0.15294330000E+03 0.  0.
<mgrwt>
<rscale>  0 0.90086890E+03</rscale>
<asrwt>0</asrwt>
<pdfrwt beam="1">  1        2 0.78502579E+00 0.96812949E+03</pdfrwt>
<pdfrwt beam="2">  1       -2 0.27668907E-01 0.96812949E+03</pdfrwt>
<totfact> 0.33617787E-01</totfact>
</mgrwt>
</event>
<event>
 4    5  0.8511149E-008  0.7050992E+03  0.7818608E-02  0.9976671E-01
         -2   -1    0    0    0  501 -0.00000000000E+00  0.00000000000E+00  0.22551919129E+03  0.22551919130E+03  0.25500000000E-02 0.  1.
          2   -1    0    0  501    0  0.00000000000E+00 -0.00000000000E+00 -0.19710105583E+04  0.19710105583E+04  0.25500000000E-02 0. -1.
    8880023    1    1    2    0    0 -0.68177157182E+02 -0.24229440601E+03 -0.38267413492E+03  0.80224958943E+03  0.65864270000E+03 0.  1.
    8880022    1    1    2    0    0  0.68177157182E+02  0.24229440601E+03 -0.13628172321E+04  0.13942801602E+04  0.15294330000E+03 0.  0.
<mgrwt>
<rscale>  0 0.56685121E+03</rscale>
<asrwt>0</asrwt>
<pdfrwt beam="1">  1        2 0.30323238E+00 0.70509922E+03</pdfrwt>
<pdfrwt beam="2">  1       -2 0.34695261E-01 0.70509922E+03</pdfrwt>
<totfact> 0.55868518E+01</totfact>
</mgrwt>
</event>
<event>
 4    5  0.8511149E-008  0.9545609E+03  0.7818608E-02  0.9443582E-01
         -2   -1    0    0    0  501 -0.00000000000E+00  0.00000000000E+00  0.70480831362E+03  0.70480831362E+03  0.25500000000E-02 0.  1.
          2   -1    0    0  501    0  0.00000000000E+00 -0.00000000000E+00 -0.32467661376E+04  0.32467661376E+04  0.25500000000E-02 0. -1.
    8880023    1    1    2    0    0  0.68997610563E+03 -0.36183761589E+02  0.31740346983E+03  0.10059480403E+04  0.65864270000E+03 0.  0.
    8880022    1    1    2    0    0 -0.68997610563E+03  0.36183761589E+02 -0.28593612938E+04  0.29456264109E+04  0.15294330000E+03 0.  0.
<mgrwt>
<rscale>  0 0.88574211E+03</rscale>
<asrwt>0</asrwt>
<pdfrwt beam="1">  1        2 0.49950248E+00 0.95456089E+03</pdfrwt>
<pdfrwt beam="2">  1       -2 0.10843205E+00 0.95456089E+03</pdfrwt>
<totfact> 0.84959136E-01</totfact>
</mgrwt>
</event>
<event>
 4    5  0.8511149E-008  0.6797994E+03  0.7818608E-02  0.1009437E+00
          2   -1    0    0  501    0  0.00000000000E+00  0.00000000000E+00  0.19958838168E+04  0.19958838168E+04  0.25500000000E-02 0. -1.
         -2   -1    0    0    0  501 -0.00000000000E+00 -0.00000000000E+00 -0.30122841988E+03  0.30122841989E+03  0.25500000000E-02 0.  1.
    8880023    1    1    2    0    0 -0.94817172416E+02 -0.13902034953E+03  0.10093598699E+03  0.68725194325E+03  0.65864270000E+03 0.  1.
    8880022    1    1    2    0    0  0.94817172416E+02  0.13902034953E+03  0.15937194099E+04  0.16098602934E+04  0.15294330000E+03 0.  0.
<mgrwt>
<rscale>  0 0.51698854E+03</rscale>
<asrwt>0</asrwt>
<pdfrwt beam="1">  1        2 0.30705906E+00 0.67979935E+03</pdfrwt>
<pdfrwt beam="2">  1       -2 0.46342833E-01 0.67979935E+03</pdfrwt>
<totfact> 0.30905753E+01</totfact>
</mgrwt>
</event>
<event>
 4    5  0.8511149E-008  0.7438428E+03  0.7818608E-02  0.9848891E-01
         -2   -1    0    0    0  501 -0.00000000000E+00  0.00000000000E+00  0.15152431482E+04  0.15152431482E+04  0.25500000000E-02 0.  1.
          2   -1    0    0  501    0  0.00000000000E+00 -0.00000000000E+00 -0.11042837746E+04  0.11042837746E+04  0.25500000000E-02 0. -1.
    8880023    1    1    2    0    0  0.22162879972E+03 -0.26527823720E+03  0.13864352169E+04  0.15733736635E+04  0.65864270000E+03 0.  1.
    8880022    1    1    2    0    0 -0.22162879972E+03  0.26527823720E+03 -0.97547584329E+03  0.10461532593E+04  0.15294330000E+03 0.  0.
<mgrwt>
<rscale>  0 0.62803469E+03</rscale>
<asrwt>0</asrwt>
<pdfrwt beam="1">  1        2 0.16988981E+00 0.74384278E+03</pdfrwt>
<pdfrwt beam="2">  1       -2 0.23311433E+00 0.74384278E+03</pdfrwt>
<totfact> 0.18283279E+00</totfact>
</mgrwt>
</event>
<event>
 4    5  0.8511149E-008  0.7480519E+03  0.7818608E-02  0.9837084E-01
          2   -1    0    0  501    0  0.00000000000E+00  0.00000000000E+00  0.42195112301E+03  0.42195112302E+03  0.25500000000E-02 0. -1.
         -2   -1    0    0    0  501 -0.00000000000E+00 -0.00000000000E+00 -0.14146110786E+04  0.14146110786E+04  0.25500000000E-02 0.  1.
    8880023    1    1    2    0    0 -0.35456967325E+03  0.71938300751E+01 -0.11878920193E+04  0.14038052074E+04  0.65864270000E+03 0.  1.
    8880022    1    1    2    0    0  0.35456967325E+03 -0.71938300751E+01  0.19523206372E+03  0.43275699428E+03  0.15294330000E+03 0.  0.
<mgrwt>
<rscale>  0 0.63409809E+03</rscale>
<asrwt>0</asrwt>
<pdfrwt beam="1">  1        2 0.64915558E-01 0.74805188E+03</pdfrwt>
<pdfrwt beam="2">  1       -2 0.21763247E+00 0.74805188E+03</pdfrwt>
<totfact> 0.78268612E+00</totfact>
</mgrwt>
</event>
<event>
 4    5  0.8511149E-008  0.7545417E+03  0.7818608E-02  0.9819449E-01
         -2   -1    0    0    0  501 -0.00000000000E+00  0.00000000000E+00  0.41490280593E+03  0.41490280594E+03  0.25500000000E-02 0.  1.
          2   -1    0    0  501    0  0.00000000000E+00 -0.00000000000E+00 -0.17542521970E+04  0.17542521970E+04  0.25500000000E-02 0. -1.
    8880023    1    1    2    0    0 -0.23671462289E+03  0.28193831509E+03  0.17716447612E+02  0.75474969691E+03  0.65864270000E+03 0.  1.
    8880022    1    1    2    0    0  0.23671462289E+03 -0.28193831509E+03 -0.13570658387E+04  0.14144053061E+04  0.15294330000E+03 0.  0.
<mgrwt>
<rscale>  0 0.64329171E+03</rscale>
<asrwt>0</asrwt>
<pdfrwt beam="1">  1        2 0.26988495E+00 0.75454174E+03</pdfrwt>
<pdfrwt beam="2">  1       -2 0.63831202E-01 0.75454174E+03</pdfrwt>
<totfact> 0.21350339E+01</totfact>
</mgrwt>
</event>
<event>
 4    5  0.8511149E-008  0.9776440E+03  0.7818608E-02  0.9411409E-01
          2   -1    0    0  501    0  0.00000000000E+00  0.00000000000E+00  0.11820066353E+04  0.11820066353E+04  0.25500000000E-02 0. -1.
         -2   -1    0    0    0  501 -0.00000000000E+00 -0.00000000000E+00 -0.18246052034E+04  0.18246052034E+04  0.25500000000E-02 0.  1.
    8880023    1    1    2    0    0  0.56943292069E+03 -0.44466135812E+03 -0.15525364569E+04  0.18347090317E+04  0.65864270000E+03 0.  0.
    8880022    1    1    2    0    0 -0.56943292069E+03  0.44466135812E+03  0.90993788887E+03  0.11719028071E+04  0.15294330000E+03 0.  0.
<mgrwt>
<rscale>  0 0.91142698E+03</rscale>
<asrwt>0</asrwt>
<pdfrwt beam="1">  1        2 0.18184718E+00 0.97764399E+03</pdfrwt>
<pdfrwt beam="2">  1       -2 0.28070849E+00 0.97764399E+03</pdfrwt>
<totfact> 0.81315043E-01</totfact>
</mgrwt>
</event>
<event>
 4    5  0.8511149E-008  0.6940820E+03  0.7818608E-02  0.1002270E+00
          2   -1    0    0  501    0  0.00000000000E+00  0.00000000000E+00  0.15675973990E+04  0.15675973990E+04  0.25500000000E-02 0. -1.
         -2   -1    0    0    0  501 -0.00000000000E+00 -0.00000000000E+00 -0.29998892050E+03  0.29998892051E+03  0.25500000000E-02 0.  1.
    8880023    1    1    2    0    0  0.12116401906E+03  0.18237023613E+03  0.13907299704E+03  0.70787790424E+03  0.65864270000E+03 0.  1.
    8880022    1    1    2    0    0 -0.12116401906E+03 -0.18237023613E+03  0.11285354815E+04  0.11597084153E+04  0.15294330000E+03 0.  0.
<mgrwt>
<rscale>  0 0.54666099E+03</rscale>
<asrwt>0</asrwt>
<pdfrwt beam="1">  1        2 0.24116883E+00 0.69408200E+03</pdfrwt>
<pdfrwt beam="2">  1       -2 0.46152142E-01 0.69408200E+03</pdfrwt>
<totfact> 0.53251240E+01</totfact>
</mgrwt>
</event>
<event>
 4    5  0.8511149E-008  0.7040450E+03  0.7818608E-02  0.9980817E-01
         -2   -1    0    0    0  501 -0.00000000000E+00  0.00000000000E+00  0.35405320655E+03  0.35405320656E+03  0.25500000000E-02 0.  1.
          2   -1    0    0  501    0  0.00000000000E+00 -0.00000000000E+00 -0.92513626710E+03  0.92513626711E+03  0.25500000000E-02 0. -1.
    8880023    1    1    2    0    0 -0.14025262564E+03 -0.20542255714E+03 -0.80966773058E+02  0.70868543839E+03  0.65864270000E+03 0.  1.
    8880022    1    1    2    0    0  0.14025262564E+03  0.20542255714E+03 -0.49011628750E+03  0.57050403528E+03  0.15294330000E+03 0.  0.
<mgrwt>
<rscale>  0 0.56499430E+03</rscale>
<asrwt>0</asrwt>
<pdfrwt beam="1">  1        2 0.14232866E+00 0.70404505E+03</pdfrwt>
<pdfrwt beam="2">  1       -2 0.54469724E-01 0.70404505E+03</pdfrwt>
<totfact> 0.90970319E+01</totfact>
</mgrwt>
</event>
<event>
 4    5  0.8511149E-008  0.1337398E+04  0.7818608E-02  0.9033919E-01
          2   -1    0    0  501    0  0.00000000000E+00  0.00000000000E+00  0.12065535011E+04  0.12065535011E+04  0.25500000000E-02 0. -1.
         -2   -1    0    0    0  501 -0.00000000000E+00 -0.00000000000E+00 -0.21502451787E+04  0.21502451787E+04  0.25500000000E-02 0.  1.
    8880023    1    1    2    0    0 -0.65690134094E+03 -0.96088704070E+03 -0.15403276381E+04  0.20399124284E+04  0.65864270000E+03 0.  0.
    8880022    1    1    2    0    0  0.65690134094E+03  0.96088704070E+03  0.59663596053E+03  0.13168862514E+04  0.15294330000E+03 0.  0.
<mgrwt>
<rscale>  0 0.12945241E+04</rscale>
<asrwt>0</asrwt>
<pdfrwt beam="1">  1        2 0.18562362E+00 0.13373980E+04</pdfrwt>
<pdfrwt beam="2">  1       -2 0.33080695E+00 0.13373980E+04</pdfrwt>
<totfact> 0.37078889E-01</totfact>
</mgrwt>
</event>
<event>
 4    5  0.8511149E-008  0.1590079E+04  0.7818608E-02  0.8848515E-01
          2   -1    0    0  501    0  0.00000000000E+00  0.00000000000E+00  0.21714173471E+04  0.21714173471E+04  0.25500000000E-02 0. -1.
         -2   -1    0    0    0  501 -0.00000000000E+00 -0.00000000000E+00 -0.12154301199E+04  0.12154301199E+04  0.25500000000E-02 0.  1.
    8880023    1    1    2    0    0 -0.13940284060E+04  0.38887578995E+03 -0.93136750550E+02  0.15928038917E+04  0.65864270000E+03 0.  0.
    8880022    1    1    2    0    0  0.13940284060E+04 -0.38887578995E+03  0.10491239777E+04  0.17940435754E+04  0.15294330000E+03 0.  0.
<mgrwt>
<rscale>  0 0.15552597E+04</rscale>
<asrwt>0</asrwt>
<pdfrwt beam="1">  1        2 0.33406421E+00 0.15900785E+04</pdfrwt>
<pdfrwt beam="2">  1       -2 0.18698925E+00 0.15900785E+04</pdfrwt>
<totfact> 0.81110972E-01</totfact>
</mgrwt>
</event>
<event>
 4    5  0.8511149E-008  0.7032454E+03  0.7818608E-02  0.9983995E-01
         -2   -1    0    0    0  501 -0.00000000000E+00  0.00000000000E+00  0.53937314811E+03  0.53937314811E+03  0.25500000000E-02 0.  1.
          2   -1    0    0  501    0  0.00000000000E+00 -0.00000000000E+00 -0.28474990460E+04  0.28474990460E+04  0.25500000000E-02 0. -1.
    8880023    1    1    2    0    0 -0.24646271504E+03 -0.28713410377E-01  0.29863225992E+03  0.76402572186E+03  0.65864270000E+03 0.  1.
    8880022    1    1    2    0    0  0.24646271504E+03  0.28713410377E-01 -0.26067581578E+04  0.26228464722E+04  0.15294330000E+03 0.  0.
<mgrwt>
<rscale>  0 0.56357614E+03</rscale>
<asrwt>0</asrwt>
<pdfrwt beam="1">  1        2 0.43807677E+00 0.70324539E+03</pdfrwt>
<pdfrwt beam="2">  1       -2 0.82980486E-01 0.70324539E+03</pdfrwt>
<totfact> 0.29516659E+00</totfact>
</mgrwt>
</event>
<event>
 4    5  0.1023816E-007  0.1252082E+04  0.7818608E-02  0.9108086E-01
         -2   -1    0    0    0  501 -0.00000000000E+00  0.00000000000E+00  0.21818246998E+04  0.21818246998E+04  0.25500000000E-02 0.  1.
          2   -1    0    0  501    0  0.00000000000E+00 -0.00000000000E+00 -0.18467486382E+04  0.18467486382E+04  0.25500000000E-02 0. -1.
    8880023    1    1    2    0    0  0.10219867178E+04  0.29906732734E+03  0.18113137918E+04  0.22019459522E+04  0.65864270000E+03 0.  1.
    8880022    1    1    2    0    0 -0.10219867178E+04 -0.29906732734E+03 -0.14762377302E+04  0.18266273858E+04  0.15294330000E+03 0.  0.
<mgrwt>
<rscale>  0 0.12054654E+04</rscale>
<asrwt>0</asrwt>
<pdfrwt beam="1">  1        2 0.28411518E+00 0.12520816E+04</pdfrwt>
<pdfrwt beam="2">  1       -2 0.33566534E+00 0.12520816E+04</pdfrwt>
<totfact> 0.15114706E-01</totfact>
</mgrwt>
</event>
<event>
 4    5  0.8511149E-008  0.8091128E+03  0.7818608E-02  0.9691428E-01
         -2   -1    0    0    0  501 -0.00000000000E+00  0.00000000000E+00  0.18032636983E+03  0.18032636985E+03  0.25500000000E-02 0.  1.
          2   -1    0    0  501    0  0.00000000000E+00 -0.00000000000E+00 -0.36250889504E+04  0.36250889504E+04  0.25500000000E-02 0. -1.
    8880023    1    1    2    0    0  0.16109402640E+03 -0.44147718715E+03 -0.88803921846E+03  0.12013647456E+04  0.65864270000E+03 0.  1.
    8880022    1    1    2    0    0 -0.16109402640E+03  0.44147718715E+03 -0.25567233621E+04  0.26040505747E+04  0.15294330000E+03 0.  0.
<mgrwt>
<rscale>  0 0.71529476E+03</rscale>
<asrwt>0</asrwt>
<pdfrwt beam="1">  1        2 0.55770594E+00 0.80911285E+03</pdfrwt>
<pdfrwt beam="2">  1       -2 0.27742521E-01 0.80911285E+03</pdfrwt>
<totfact> 0.84242703E+00</totfact>
</mgrwt>
</event>
<event>
 4    5  0.8511149E-008  0.1011591E+04  0.7818608E-02  0.9366547E-01
          2   -1    0    0  501    0  0.00000000000E+00  0.00000000000E+00  0.27042063828E+04  0.27042063828E+04  0.25500000000E-02 0. -1.
         -2   -1    0    0    0  501 -0.00000000000E+00 -0.00000000000E+00 -0.48422678524E+03  0.48422678524E+03  0.25500000000E-02 0.  1.
    8880023    1    1    2    0    0  0.71168626672E+03  0.28811341355E+03  0.21245757651E+03  0.10336610225E+04  0.65864270000E+03 0.  0.
    8880022    1    1    2    0    0 -0.71168626672E+03 -0.28811341355E+03  0.20075220211E+04  0.21547721456E+04  0.15294330000E+03 0.  0.
<mgrwt>
<rscale>  0 0.94880586E+03</rscale>
<asrwt>0</asrwt>
<pdfrwt beam="1">  1        2 0.41603174E+00 0.10115913E+04</pdfrwt>
<pdfrwt beam="2">  1       -2 0.74496430E-01 0.10115913E+04</pdfrwt>
<totfact> 0.43360420E+00</totfact>
</mgrwt>
</event>
<event>
 4    5  0.8511149E-008  0.6915961E+03  0.7818608E-02  0.1003403E+00
          2   -1    0    0  501    0  0.00000000000E+00  0.00000000000E+00  0.23987838487E+04  0.23987838487E+04  0.25500000000E-02 0. -1.
         -2   -1    0    0    0  501 -0.00000000000E+00 -0.00000000000E+00 -0.24115662683E+03  0.24115662685E+03  0.25500000000E-02 0.  1.
    8880023    1    1    2    0    0 -0.32314523835E+02  0.20844832666E+03  0.28294209204E+03  0.74723581756E+03  0.65864270000E+03 0.  1.
    8880022    1    1    2    0    0  0.32314523835E+02 -0.20844832666E+03  0.18746851298E+04  0.18927046579E+04  0.15294330000E+03 0.  0.
<mgrwt>
<rscale>  0 0.54182918E+03</rscale>
<asrwt>0</asrwt>
<pdfrwt beam="1">  1        2 0.36904368E+00 0.69159608E+03</pdfrwt>
<pdfrwt beam="2">  1       -2 0.37101018E-01 0.69159608E+03</pdfrwt>
<totfact> 0.28642140E+01</totfact>
</mgrwt>
</event>
<event>
 4    5  0.8511149E-008  0.1342246E+04  0.7818608E-02  0.9029910E-01
          2   -1    0    0  501    0  0.00000000000E+00  0.00000000000E+00  0.87076494764E+03  0.87076494764E+03  0.25500000000E-02 0. -1.
         -2   -1    0    0    0  501 -0.00000000000E+00 -0.00000000000E+00 -0.24855984117E+04  0.24855984117E+04  0.25500000000E-02 0.  1.
    8880023    1    1    2    0    0 -0.65822065577E+03  0.96672618425E+03  0.17648104236E+02  0.13423619515E+04  0.65864270000E+03 0.  0.
    8880022    1    1    2    0    0  0.65822065577E+03 -0.96672618425E+03 -0.16324815683E+04  0.20140014079E+04  0.15294330000E+03 0.  0.
<mgrwt>
<rscale>  0 0.12995649E+04</rscale>
<asrwt>0</asrwt>
<pdfrwt beam="1">  1        2 0.13396384E+00 0.13422459E+04</pdfrwt>
<pdfrwt beam="2">  1       -2 0.38239975E+00 0.13422459E+04</pdfrwt>
<totfact> 0.28751577E-01</totfact>
</mgrwt>
</event>
<event>
 4    5  0.8511149E-008  0.7401604E+03  0.7818608E-02  0.9859480E-01
          2   -1    0    0  501    0  0.00000000000E+00  0.00000000000E+00  0.37145808918E+04  0.37145808918E+04  0.25500000000E-02 0. -1.
         -2   -1    0    0    0  501 -0.00000000000E+00 -0.00000000000E+00 -0.13156592691E+03  0.13156592694E+03  0.25500000000E-02 0.  1.
    8880023    1    1    2    0    0  0.10609580875E+03 -0.32057900734E+03  0.32938954680E+04  0.33760309213E+04  0.65864270000E+03 0.  0.
    8880022    1    1    2    0    0 -0.10609580875E+03  0.32057900734E+03  0.28911949679E+03  0.47011589743E+03  0.15294330000E+03 0.  0.
<mgrwt>
<rscale>  0 0.62265888E+03</rscale>
<asrwt>0</asrwt>
<pdfrwt beam="1">  1        2 0.57147401E+00 0.74016041E+03</pdfrwt>
<pdfrwt beam="2">  1       -2 0.20240911E-01 0.74016041E+03</pdfrwt>
<totfact> 0.12960182E+01</totfact>
</mgrwt>
</event>
<event>
 4    5  0.8511149E-008  0.7560341E+03  0.7818608E-02  0.9815485E-01
          2   -1    0    0  501    0  0.00000000000E+00  0.00000000000E+00  0.42777211780E+03  0.42777211781E+03  0.25500000000E-02 0. -1.
         -2   -1    0    0    0  501 -0.00000000000E+00 -0.00000000000E+00 -0.14965382272E+04  0.14965382272E+04  0.25500000000E-02 0.  1.
    8880023    1    1    2    0    0 -0.23341498767E+03  0.28860830107E+03 -0.12678847598E+04  0.14761840259E+04  0.65864270000E+03 0.  0.
    8880022    1    1    2    0    0  0.23341498767E+03 -0.28860830107E+03  0.19911865041E+03  0.44812631910E+03  0.15294330000E+03 0.  0.
<mgrwt>
<rscale>  0 0.64538104E+03</rscale>
<asrwt>0</asrwt>
<pdfrwt beam="1">  1        2 0.65811096E-01 0.75603407E+03</pdfrwt>
<pdfrwt beam="2">  1       -2 0.23023665E+00 0.75603407E+03</pdfrwt>
<totfact> 0.64270944E+00</totfact>
</mgrwt>
</event>
<event>
 4    5  0.8511149E-008  0.1122131E+04  0.7818608E-02  0.9236807E-01
          2   -1    0    0  501    0  0.00000000000E+00  0.00000000000E+00  0.45325656990E+03  0.45325656991E+03  0.25500000000E-02 0. -1.
         -2   -1    0    0    0  501 -0.00000000000E+00 -0.00000000000E+00 -0.31199810524E+04  0.31199810524E+04  0.25500000000E-02 0.  1.
    8880023    1    1    2    0    0 -0.21702006177E+03  0.88219582869E+03 -0.23410421698E+04  0.25960847125E+04  0.65864270000E+03 0.  0.
    8880022    1    1    2    0    0  0.21702006177E+03 -0.88219582869E+03 -0.32568231272E+03  0.97715290984E+03  0.15294330000E+03 0.  0.
<mgrwt>
<rscale>  0 0.10681460E+04</rscale>
<asrwt>0</asrwt>
<pdfrwt beam="1">  1        2 0.69731782E-01 0.11221307E+04</pdfrwt>
<pdfrwt beam="2">  1       -2 0.47999707E+00 0.11221307E+04</pdfrwt>
<totfact> 0.15241025E-01</totfact>
</mgrwt>
</event>
<event>
 4    5  0.8511149E-008  0.7119512E+03  0.7818608E-02  0.9950825E-01
         -2   -1    0    0    0  501 -0.00000000000E+00  0.00000000000E+00  0.16065702932E+03  0.16065702934E+03  0.25500000000E-02 0.  1.
          2   -1    0    0  501    0  0.00000000000E+00 -0.00000000000E+00 -0.21168737118E+04  0.21168737118E+04  0.25500000000E-02 0. -1.
    8880023    1    1    2    0    0  0.15764094030E+03  0.21957610816E+03 -0.75885348964E+03  0.10405446450E+04  0.65864270000E+03 0.  1.
    8880022    1    1    2    0    0 -0.15764094030E+03 -0.21957610816E+03 -0.11973631928E+04  0.12369860961E+04  0.15294330000E+03 0.  0.
<mgrwt>
<rscale>  0 0.57860053E+03</rscale>
<asrwt>0</asrwt>
<pdfrwt beam="1">  1        2 0.32567286E+00 0.71195122E+03</pdfrwt>
<pdfrwt beam="2">  1       -2 0.24716468E-01 0.71195122E+03</pdfrwt>
<totfact> 0.86973882E+01</totfact>
</mgrwt>
</event>
<event>
 4    5  0.8511149E-008  0.7043029E+03  0.7818608E-02  0.9979798E-01
         -2   -1    0    0    0  501 -0.00000000000E+00  0.00000000000E+00  0.12299239143E+03  0.12299239145E+03  0.25500000000E-02 0.  1.
          2   -1    0    0  501    0  0.00000000000E+00 -0.00000000000E+00 -0.27940693841E+04  0.27940693841E+04  0.25500000000E-02 0. -1.
    8880023    1    1    2    0    0  0.20167451764E+03 -0.14683258411E+03 -0.10155521902E+04  0.12358757527E+04  0.65864270000E+03 0.  0.
    8880022    1    1    2    0    0 -0.20167451764E+03  0.14683258411E+03 -0.16555248024E+04  0.16811860228E+04  0.15294330000E+03 0.  0.
<mgrwt>
<rscale>  0 0.56544987E+03</rscale>
<asrwt>0</asrwt>
<pdfrwt beam="1">  1        2 0.42985678E+00 0.70430294E+03</pdfrwt>
<pdfrwt beam="2">  1       -2 0.18921908E-01 0.70430294E+03</pdfrwt>
<totfact> 0.57850550E+01</totfact>
</mgrwt>
</event>
<event>
 4    5  0.8511149E-008  0.7064823E+03  0.7818608E-02  0.9971303E-01
         -2   -1    0    0    0  501 -0.00000000000E+00  0.00000000000E+00  0.97895390301E+03  0.97895390301E+03  0.25500000000E-02 0.  1.
          2   -1    0    0  501    0  0.00000000000E+00 -0.00000000000E+00 -0.24361238701E+04  0.24361238701E+04  0.25500000000E-02 0. -1.
    8880023    1    1    2    0    0 -0.24658555817E+03 -0.67101668751E+02  0.84061807441E+03  0.10980692258E+04  0.65864270000E+03 0.  1.
    8880022    1    1    2    0    0  0.24658555817E+03  0.67101668751E+02 -0.22977880415E+04  0.23170085473E+04  0.15294330000E+03 0.  0.
<mgrwt>
<rscale>  0 0.56926653E+03</rscale>
<asrwt>0</asrwt>
<pdfrwt beam="1">  1        2 0.37478829E+00 0.70648233E+03</pdfrwt>
<pdfrwt beam="2">  1       -2 0.15060829E+00 0.70648233E+03</pdfrwt>
<totfact> 0.11911262E+00</totfact>
</mgrwt>
</event>
<event>
 4    5  0.8511149E-008  0.7862387E+03  0.7818608E-02  0.9741381E-01
         -2   -1    0    0    0  501 -0.00000000000E+00  0.00000000000E+00  0.54302858938E+03  0.54302858939E+03  0.25500000000E-02 0.  1.
          2   -1    0    0  501    0  0.00000000000E+00 -0.00000000000E+00 -0.16760460276E+04  0.16760460276E+04  0.25500000000E-02 0. -1.
    8880023    1    1    2    0    0  0.41924030962E+03 -0.92729192242E+02  0.19916740935E+03  0.81107274860E+03  0.65864270000E+03 0.  1.
    8880022    1    1    2    0    0 -0.41924030962E+03  0.92729192242E+02 -0.13321848475E+04  0.14080018684E+04  0.15294330000E+03 0.  0.
<mgrwt>
<rscale>  0 0.68605540E+03</rscale>
<asrwt>0</asrwt>
<pdfrwt beam="1">  1        2 0.25785323E+00 0.78623873E+03</pdfrwt>
<pdfrwt beam="2">  1       -2 0.83542861E-01 0.78623873E+03</pdfrwt>
<totfact> 0.12964504E+01</totfact>
</mgrwt>
</event>
<event>
 4    5  0.8511149E-008  0.1798782E+04  0.7818608E-02  0.8723211E-01
          2   -1    0    0  501    0  0.00000000000E+00  0.00000000000E+00  0.22066509015E+04  0.22066509015E+04  0.25500000000E-02 0. -1.
         -2   -1    0    0    0  501 -0.00000000000E+00 -0.00000000000E+00 -0.23993994910E+04  0.23993994910E+04  0.25500000000E-02 0.  1.
    8880023    1    1    2    0    0 -0.16428583205E+04 -0.32065892592E+03 -0.16049583435E+04  0.24107067633E+04  0.65864270000E+03 0.  0.
    8880022    1    1    2    0    0  0.16428583205E+04  0.32065892592E+03  0.14122097540E+04  0.21953436292E+04  0.15294330000E+03 0.  0.
<mgrwt>
<rscale>  0 0.17685403E+04</rscale>
<asrwt>0</asrwt>
<pdfrwt beam="1">  1        2 0.33948475E+00 0.17987818E+04</pdfrwt>
<pdfrwt beam="2">  1       -2 0.36913838E+00 0.17987818E+04</pdfrwt>
<totfact> 0.54470242E-02</totfact>
</mgrwt>
</event>
<event>
 4    5  0.8511149E-008  0.1886534E+04  0.7818608E-02  0.8676121E-01
          2   -1    0    0  501    0  0.00000000000E+00  0.00000000000E+00  0.36611749946E+04  0.36611749946E+04  0.25500000000E-02 0. -1.
         -2   -1    0    0    0  501 -0.00000000000E+00 -0.00000000000E+00 -0.15025211574E+04  0.15025211574E+04  0.25500000000E-02 0.  1.
    8880023    1    1    2    0    0 -0.66461911885E+03  0.16381338041E+04  0.27132185229E+04  0.33046279507E+04  0.65864270000E+03 0.  0.
    8880022    1    1    2    0    0  0.66461911885E+03 -0.16381338041E+04 -0.55456468568E+03  0.18590682013E+04  0.15294330000E+03 0.  0.
<mgrwt>
<rscale>  0 0.18578603E+04</rscale>
<asrwt>0</asrwt>
<pdfrwt beam="1">  1        2 0.56325768E+00 0.18865342E+04</pdfrwt>
<pdfrwt beam="2">  1       -2 0.23115711E+00 0.18865342E+04</pdfrwt>
<totfact> 0.47276730E-02</totfact>
</mgrwt>
</event>
<event>
 4    5  0.8511149E-008  0.6593677E+03  0.7818608E-02  0.1024814E+00
          2   -1    0    0  501    0  0.00000000000E+00  0.00000000000E+00  0.21315022574E+04  0.21315022574E+04  0.25500000000E-02 0. -1.
         -2   -1    0    0    0  501 -0.00000000000E+00 -0.00000000000E+00 -0.49620560792E+03  0.49620560792E+03  0.25500000000E-02 0.  1.
    8880023    1    1    2    0    0 -0.31151799249E+01  0.30755316057E+02 -0.27256024242E+03  0.71348082372E+03  0.65864270000E+03 0.  1.
    8880022    1    1    2    0    0  0.31151799249E+01 -0.30755316057E+02  0.19078568919E+04  0.19142270416E+04  0.15294330000E+03 0.  0.
<mgrwt>
<rscale>  0 0.45988792E+03</rscale>
<asrwt>0</asrwt>
<pdfrwt beam="1">  1        2 0.32792343E+00 0.65936773E+03</pdfrwt>
<pdfrwt beam="2">  1       -2 0.76339322E-01 0.65936773E+03</pdfrwt>
<totfact> 0.91364703E+00</totfact>
</mgrwt>
</event>
<event>
 4    5  0.8511149E-008  0.9280659E+03  0.7818608E-02  0.9482401E-01
          2   -1    0    0  501    0  0.00000000000E+00  0.00000000000E+00  0.13005113775E+04  0.13005113775E+04  0.25500000000E-02 0. -1.
         -2   -1    0    0    0  501 -0.00000000000E+00 -0.00000000000E+00 -0.11037133086E+04  0.11037133086E+04  0.25500000000E-02 0.  1.
    8880023    1    1    2    0    0  0.55348504877E+03 -0.34806657012E+03 -0.78447467678E+03  0.12151982395E+04  0.65864270000E+03 0.  0.
    8880022    1    1    2    0    0 -0.55348504877E+03  0.34806657012E+03  0.98127274569E+03  0.11890264467E+04  0.15294330000E+03 0.  0.
<mgrwt>
<rscale>  0 0.85593867E+03</rscale>
<asrwt>0</asrwt>
<pdfrwt beam="1">  1        2 0.20007867E+00 0.92806586E+03</pdfrwt>
<pdfrwt beam="2">  1       -2 0.16980205E+00 0.92806586E+03</pdfrwt>
<totfact> 0.35324990E+00</totfact>
</mgrwt>
</event>
<event>
 4    5  0.8511149E-008  0.1592360E+04  0.7818608E-02  0.8847028E-01
          2   -1    0    0  501    0  0.00000000000E+00  0.00000000000E+00  0.21579909923E+04  0.21579909923E+04  0.25500000000E-02 0. -1.
         -2   -1    0    0    0  501 -0.00000000000E+00 -0.00000000000E+00 -0.12431121982E+04  0.12431121982E+04  0.25500000000E-02 0.  1.
    8880023    1    1    2    0    0 -0.96885508612E+03  0.10784809199E+04 -0.14468329197E+03  0.15989198647E+04  0.65864270000E+03 0.  0.
    8880022    1    1    2    0    0  0.96885508612E+03 -0.10784809199E+04  0.10595620860E+04  0.18021833258E+04  0.15294330000E+03 0.  0.
<mgrwt>
<rscale>  0 0.15575995E+04</rscale>
<asrwt>0</asrwt>
<pdfrwt beam="1">  1        2 0.33199862E+00 0.15923603E+04</pdfrwt>
<pdfrwt beam="2">  1       -2 0.19124803E+00 0.15923603E+04</pdfrwt>
<totfact> 0.77209092E-01</totfact>
</mgrwt>
</event>
<event>
 4    5  0.8511149E-008  0.9405647E+03  0.7818608E-02  0.9463821E-01
          2   -1    0    0  501    0  0.00000000000E+00  0.00000000000E+00  0.20793427020E+04  0.20793427020E+04  0.25500000000E-02 0. -1.
         -2   -1    0    0    0  501 -0.00000000000E+00 -0.00000000000E+00 -0.35304828274E+03  0.35304828275E+03  0.25500000000E-02 0.  1.
    8880023    1    1    2    0    0 -0.21458674172E+03 -0.63624226748E+03  0.13566397824E+04  0.16507978066E+04  0.65864270000E+03 0.  0.
    8880022    1    1    2    0    0  0.21458674172E+03  0.63624226748E+03  0.36965463685E+03  0.78159317820E+03  0.15294330000E+03 0.  0.
<mgrwt>
<rscale>  0 0.87004487E+03</rscale>
<asrwt>0</asrwt>
<pdfrwt beam="1">  1        2 0.31989888E+00 0.94056467E+03</pdfrwt>
<pdfrwt beam="2">  1       -2 0.54315119E-01 0.94056467E+03</pdfrwt>
<totfact> 0.19475893E+01</totfact>
</mgrwt>
</event>
<event>
 4    5  0.8511149E-008  0.6862331E+03  0.7818608E-02  0.1005997E+00
         -2   -1    0    0    0  501 -0.00000000000E+00  0.00000000000E+00  0.42288535871E+03  0.42288535872E+03  0.25500000000E-02 0.  1.
          2   -1    0    0  501    0  0.00000000000E+00 -0.00000000000E+00 -0.55573234831E+03  0.55573234831E+03  0.25500000000E-02 0. -1.
    8880023    1    1    2    0    0  0.42201140083E+01  0.19258224223E+03  0.24433801662E+02  0.68666800298E+03  0.65864270000E+03 0. -1.
    8880022    1    1    2    0    0 -0.42201140083E+01 -0.19258224223E+03 -0.15728079126E+03  0.29194970405E+03  0.15294330000E+03 0.  0.
<mgrwt>
<rscale>  0 0.53097105E+03</rscale>
<asrwt>0</asrwt>
<pdfrwt beam="1">  1        2 0.85497284E-01 0.68623315E+03</pdfrwt>
<pdfrwt beam="2">  1       -2 0.65059286E-01 0.68623315E+03</pdfrwt>
<totfact> 0.12019053E+02</totfact>
</mgrwt>
</event>
<event>
 4    5  0.8511149E-008  0.1157652E+04  0.7818608E-02  0.9199428E-01
          2   -1    0    0  501    0  0.00000000000E+00  0.00000000000E+00  0.19552873644E+04  0.19552873644E+04  0.25500000000E-02 0. -1.
         -2   -1    0    0    0  501 -0.00000000000E+00 -0.00000000000E+00 -0.12919201296E+04  0.12919201296E+04  0.25500000000E-02 0.  1.
    8880023    1    1    2    0    0 -0.95131859564E+03  0.36627855696E+02 -0.86151711949E+03  0.14430421420E+04  0.65864270000E+03 0.  0.
    8880022    1    1    2    0    0  0.95131859564E+03 -0.36627855696E+02  0.15248843543E+04  0.18041653519E+04  0.15294330000E+03 0.  0.
<mgrwt>
<rscale>  0 0.11059330E+04</rscale>
<asrwt>0</asrwt>
<pdfrwt beam="1">  1        2 0.30081344E+00 0.11576523E+04</pdfrwt>
<pdfrwt beam="2">  1       -2 0.19875694E+00 0.11576523E+04</pdfrwt>
<totfact> 0.93620439E-01</totfact>
</mgrwt>
</event>
<event>
 4    5  0.8511149E-008  0.7709247E+03  0.7818608E-02  0.9777604E-01
         -2   -1    0    0    0  501 -0.00000000000E+00  0.00000000000E+00  0.16952898087E+03  0.16952898089E+03  0.25500000000E-02 0.  1.
          2   -1    0    0  501    0  0.00000000000E+00 -0.00000000000E+00 -0.26209097482E+04  0.26209097482E+04  0.25500000000E-02 0. -1.
    8880023    1    1    2    0    0  0.15623158893E+03 -0.36892597034E+03 -0.92079847230E+03  0.12009141159E+04  0.65864270000E+03 0.  0.
    8880022    1    1    2    0    0 -0.15623158893E+03  0.36892597034E+03 -0.15305822950E+04  0.15895246131E+04  0.15294330000E+03 0.  0.
<mgrwt>
<rscale>  0 0.66578431E+03</rscale>
<asrwt>0</asrwt>
<pdfrwt beam="1">  1        2 0.40321685E+00 0.77092470E+03</pdfrwt>
<pdfrwt beam="2">  1       -2 0.26081384E-01 0.77092470E+03</pdfrwt>
<totfact> 0.40903980E+01</totfact>
</mgrwt>
</event>
<event>
 4    5  0.8511149E-008  0.1588872E+04  0.7818608E-02  0.8849303E-01
          2   -1    0    0  501    0  0.00000000000E+00  0.00000000000E+00  0.26627128298E+04  0.26627128298E+04  0.25500000000E-02 0. -1.
         -2   -1    0    0    0  501 -0.00000000000E+00 -0.00000000000E+00 -0.89707953138E+03  0.89707953139E+03  0.25500000000E-02 0.  1.
    8880023    1    1    2    0    0  0.72101850077E+03 -0.12533295898E+04  0.60794733088E+03  0.17012092472E+04  0.65864270000E+03 0.  0.
    8880022    1    1    2    0    0 -0.72101850077E+03  0.12533295898E+04  0.11576859675E+04  0.18585831140E+04  0.15294330000E+03 0.  0.
<mgrwt>
<rscale>  0 0.15540219E+04</rscale>
<asrwt>0</asrwt>
<pdfrwt beam="1">  1        2 0.40964812E+00 0.15888716E+04</pdfrwt>
<pdfrwt beam="2">  1       -2 0.13801224E+00 0.15888716E+04</pdfrwt>
<totfact> 0.97810838E-01</totfact>
</mgrwt>
</event>
<event>
 4    5  0.8511149E-008  0.1122663E+04  0.7818608E-02  0.9236234E-01
          2   -1    0    0  501    0  0.00000000000E+00  0.00000000000E+00  0.22647297678E+04  0.22647297678E+04  0.25500000000E-02 0. -1.
         -2   -1    0    0    0  501 -0.00000000000E+00 -0.00000000000E+00 -0.71202155509E+03  0.71202155510E+03  0.25500000000E-02 0.  1.
    8880023    1    1    2    0    0 -0.58630484454E+03 -0.69484382425E+03  0.17059095794E+04  0.20421799652E+04  0.65864270000E+03 0. -1.
    8880022    1    1    2    0    0  0.58630484454E+03  0.69484382425E+03 -0.15320136673E+03  0.93457135768E+03  0.15294330000E+03 0.  0.
<mgrwt>
<rscale>  0 0.10687136E+04</rscale>
<asrwt>0</asrwt>
<pdfrwt beam="1">  1        2 0.34841996E+00 0.11226627E+04</pdfrwt>
<pdfrwt beam="2">  1       -2 0.10954178E+00 0.11226627E+04</pdfrwt>
<totfact> 0.31139646E+00</totfact>
</mgrwt>
</event>
<event>
 4    5  0.8511149E-008  0.6670328E+03  0.7818608E-02  0.1017886E+00
          2   -1    0    0  501    0  0.00000000000E+00  0.00000000000E+00  0.33433211015E+03  0.33433211016E+03  0.25500000000E-02 0. -1.
         -2   -1    0    0    0  501 -0.00000000000E+00 -0.00000000000E+00 -0.10819956184E+04  0.10819956184E+04  0.25500000000E-02 0.  1.
    8880023    1    1    2    0    0 -0.88987175476E+01  0.10508764380E+03 -0.93758442541E+03  0.11506508424E+04  0.65864270000E+03 0.  1.
    8880022    1    1    2    0    0  0.88987175476E+01 -0.10508764380E+03  0.18992091716E+03  0.26567688617E+03  0.15294330000E+03 0.  0.
<mgrwt>
<rscale>  0 0.48457413E+03</rscale>
<asrwt>0</asrwt>
<pdfrwt beam="1">  1        2 0.51435710E-01 0.66703284E+03</pdfrwt>
<pdfrwt beam="2">  1       -2 0.16646086E+00 0.66703284E+03</pdfrwt>
<totfact> 0.22434026E+01</totfact>
</mgrwt>
</event>
<event>
 4    5  0.8511149E-008  0.6612571E+03  0.7818608E-02  0.1022904E+00
          2   -1    0    0  501    0  0.00000000000E+00  0.00000000000E+00  0.66668139285E+03  0.66668139285E+03  0.25500000000E-02 0. -1.
         -2   -1    0    0    0  501 -0.00000000000E+00 -0.00000000000E+00 -0.56055460228E+03  0.56055460228E+03  0.25500000000E-02 0.  1.
    8880023    1    1    2    0    0  0.44095969939E+02  0.38810121320E+02 -0.34602218881E+03  0.74631912845E+03  0.65864270000E+03 0.  1.
    8880022    1    1    2    0    0 -0.44095969939E+02 -0.38810121320E+02  0.45214897938E+03  0.48091686668E+03  0.15294330000E+03 0.  0.
<mgrwt>
<rscale>  0 0.46653074E+03</rscale>
<asrwt>0</asrwt>
<pdfrwt beam="1">  1        2 0.10256637E+00 0.66125705E+03</pdfrwt>
<pdfrwt beam="2">  1       -2 0.86239171E-01 0.66125705E+03</pdfrwt>
<totfact> 0.51787600E+01</totfact>
</mgrwt>
</event>
<event>
 4    5  0.8511149E-008  0.1491851E+04  0.7818608E-02  0.8915412E-01
          2   -1    0    0  501    0  0.00000000000E+00  0.00000000000E+00  0.38713416398E+04  0.38713416398E+04  0.25500000000E-02 0. -1.
         -2   -1    0    0    0  501 -0.00000000000E+00 -0.00000000000E+00 -0.63889514455E+03  0.63889514456E+03  0.25500000000E-02 0.  1.
    8880023    1    1    2    0    0 -0.79964740290E+03 -0.10734863123E+04  0.26528646008E+04  0.30435685680E+04  0.65864270000E+03 0.  0.
    8880022    1    1    2    0    0  0.79964740290E+03  0.10734863123E+04  0.57958189446E+03  0.14666682164E+04  0.15294330000E+03 0.  0.
<mgrwt>
<rscale>  0 0.14543189E+04</rscale>
<asrwt>0</asrwt>
<pdfrwt beam="1">  1        2 0.59559103E+00 0.14918509E+04</pdfrwt>
<pdfrwt beam="2">  1       -2 0.98291559E-01 0.14918509E+04</pdfrwt>
<totfact> 0.36085359E-01</totfact>
</mgrwt>
</event>
<event>
 4    5  0.8511149E-008  0.1040678E+04  0.7818608E-02  0.9330172E-01
          2   -1    0    0  501    0  0.00000000000E+00  0.00000000000E+00  0.18182299751E+04  0.18182299751E+04  0.25500000000E-02 0. -1.
         -2   -1    0    0    0  501 -0.00000000000E+00 -0.00000000000E+00 -0.13108517435E+04  0.13108517435E+04  0.25500000000E-02 0.  1.
    8880023    1    1    2    0    0 -0.48351028750E+03  0.64452974023E+03 -0.98070902147E+03  0.14299654455E+04  0.65864270000E+03 0.  0.
    8880022    1    1    2    0    0  0.48351028750E+03 -0.64452974023E+03  0.14880872530E+04  0.16991162732E+04  0.15294330000E+03 0.  0.
<mgrwt>
<rscale>  0 0.98051969E+03</rscale>
<asrwt>0</asrwt>
<pdfrwt beam="1">  1        2 0.27972769E+00 0.10406781E+04</pdfrwt>
<pdfrwt beam="2">  1       -2 0.20166950E+00 0.10406781E+04</pdfrwt>
<totfact> 0.10831166E+00</totfact>
</mgrwt>
</event>
<event>
 4    5  0.8511149E-008  0.7542084E+03  0.7818608E-02  0.9820339E-01
         -2   -1    0    0    0  501 -0.00000000000E+00  0.00000000000E+00  0.12926559241E+03  0.12926559244E+03  0.25500000000E-02 0.  1.
          2   -1    0    0  501    0  0.00000000000E+00 -0.00000000000E+00 -0.36510827747E+04  0.36510827747E+04  0.25500000000E-02 0. -1.
    8880023    1    1    2    0    0  0.36367914282E+03 -0.52512033146E+02 -0.11492536614E+04  0.13746323935E+04  0.65864270000E+03 0. -1.
    8880022    1    1    2    0    0 -0.36367914282E+03  0.52512033146E+02 -0.23725635209E+04  0.24057159737E+04  0.15294330000E+03 0.  0.
<mgrwt>
<rscale>  0 0.64282374E+03</rscale>
<asrwt>0</asrwt>
<pdfrwt beam="1">  1        2 0.56170496E+00 0.75420835E+03</pdfrwt>
<pdfrwt beam="2">  1       -2 0.19887017E-01 0.75420835E+03</pdfrwt>
<totfact> 0.14803087E+01</totfact>
</mgrwt>
</event>
<event>
 4    5  0.8511149E-008  0.8010069E+03  0.7818608E-02  0.9708623E-01
          2   -1    0    0  501    0  0.00000000000E+00  0.00000000000E+00  0.61340724671E+03  0.61340724671E+03  0.25500000000E-02 0. -1.
         -2   -1    0    0    0  501 -0.00000000000E+00 -0.00000000000E+00 -0.13502370035E+04  0.13502370035E+04  0.25500000000E-02 0.  1.
    8880023    1    1    2    0    0  0.12016118040E+03 -0.43973084764E+03 -0.11002397498E+04  0.13609333713E+04  0.65864270000E+03 0.  0.
    8880022    1    1    2    0    0 -0.12016118040E+03  0.43973084764E+03  0.36340999299E+03  0.60271087900E+03  0.15294330000E+03 0.  0.
<mgrwt>
<rscale>  0 0.70505693E+03</rscale>
<asrwt>0</asrwt>
<pdfrwt beam="1">  1        2 0.94370346E-01 0.80100695E+03</pdfrwt>
<pdfrwt beam="2">  1       -2 0.20772877E+00 0.80100695E+03</pdfrwt>
<totfact> 0.58059261E+00</totfact>
</mgrwt>
</event>
<event>
 4    5  0.8511149E-008  0.8015302E+03  0.7818608E-02  0.9707497E-01
          2   -1    0    0  501    0  0.00000000000E+00  0.00000000000E+00  0.57833059476E+03  0.57833059477E+03  0.25500000000E-02 0. -1.
         -2   -1    0    0    0  501 -0.00000000000E+00 -0.00000000000E+00 -0.16002056464E+04  0.16002056464E+04  0.25500000000E-02 0.  1.
    8880023    1    1    2    0    0 -0.29564627538E+03  0.34818631581E+03 -0.13679028508E+04  0.15854364844E+04  0.65864270000E+03 0.  0.
    8880022    1    1    2    0    0  0.29564627538E+03 -0.34818631581E+03  0.34602779915E+03  0.59309975676E+03  0.15294330000E+03 0.  0.
<mgrwt>
<rscale>  0 0.70572161E+03</rscale>
<asrwt>0</asrwt>
<pdfrwt beam="1">  1        2 0.88973939E-01 0.80153018E+03</pdfrwt>
<pdfrwt beam="2">  1       -2 0.24618548E+00 0.80153018E+03</pdfrwt>
<totfact> 0.35939248E+00</totfact>
</mgrwt>
</event>
<event>
 4    5  0.8511149E-008  0.8394240E+03  0.7818608E-02  0.9631267E-01
          2   -1    0    0  501    0  0.00000000000E+00  0.00000000000E+00  0.25946766510E+04  0.25946766510E+04  0.25500000000E-02 0. -1.
         -2   -1    0    0    0  501 -0.00000000000E+00 -0.00000000000E+00 -0.61835456511E+03  0.61835456512E+03  0.25500000000E-02 0.  1.
    8880023    1    1    2    0    0 -0.43726325407E+03 -0.28217604264E+03 -0.28583375501E+03  0.88675453998E+03  0.65864270000E+03 0.  1.
    8880022    1    1    2    0    0  0.43726325407E+03  0.28217604264E+03  0.22621558409E+04  0.23262766761E+04  0.15294330000E+03 0.  0.
<mgrwt>
<rscale>  0 0.75260826E+03</rscale>
<asrwt>0</asrwt>
<pdfrwt beam="1">  1        2 0.39918102E+00 0.83942402E+03</pdfrwt>
<pdfrwt beam="2">  1       -2 0.95131472E-01 0.83942402E+03</pdfrwt>
<totfact> 0.29511728E+00</totfact>
</mgrwt>
</event>
<event>
 4    5  0.8511149E-008  0.7521712E+03  0.7818608E-02  0.9825814E-01
         -2   -1    0    0    0  501 -0.00000000000E+00  0.00000000000E+00  0.99843579196E+03  0.99843579196E+03  0.25500000000E-02 0.  1.
          2   -1    0    0  501    0  0.00000000000E+00 -0.00000000000E+00 -0.11998368458E+04  0.11998368458E+04  0.25500000000E-02 0. -1.
    8880023    1    1    2    0    0 -0.23204542416E+03 -0.27947490521E+03  0.81444874413E+03  0.11086425324E+04  0.65864270000E+03 0.  1.
    8880022    1    1    2    0    0  0.23204542416E+03  0.27947490521E+03 -0.10158497980E+04  0.10896301054E+04  0.15294330000E+03 0.  0.
<mgrwt>
<rscale>  0 0.63995431E+03</rscale>
<asrwt>0</asrwt>
<pdfrwt beam="1">  1        2 0.18459028E+00 0.75217120E+03</pdfrwt>
<pdfrwt beam="2">  1       -2 0.15360551E+00 0.75217120E+03</pdfrwt>
<totfact> 0.54415704E+00</totfact>
</mgrwt>
</event>
<event>
 4    5  0.8511149E-008  0.8885240E+03  0.7818608E-02  0.9544711E-01
         -2   -1    0    0    0  501 -0.00000000000E+00  0.00000000000E+00  0.55352281263E+03  0.55352281264E+03  0.25500000000E-02 0.  1.
          2   -1    0    0  501    0  0.00000000000E+00 -0.00000000000E+00 -0.12034385370E+04  0.12034385370E+04  0.25500000000E-02 0. -1.
    8880023    1    1    2    0    0 -0.50439607898E+02 -0.59423947877E+03 -0.38630295826E+02  0.88936337804E+03  0.65864270000E+03 0.  1.
    8880022    1    1    2    0    0  0.50439607898E+02  0.59423947877E+03 -0.61128542854E+03  0.86759797161E+03  0.15294330000E+03 0. -1.
<mgrwt>
<rscale>  0 0.81066206E+03</rscale>
<asrwt>0</asrwt>
<pdfrwt beam="1">  1        2 0.18514439E+00 0.88852401E+03</pdfrwt>
<pdfrwt beam="2">  1       -2 0.85157356E-01 0.88852401E+03</pdfrwt>
<totfact> 0.22731376E+01</totfact>
</mgrwt>
</event>
<event>
 4    5  0.8511149E-008  0.9708298E+03  0.7818608E-02  0.9420757E-01
         -2   -1    0    0    0  501 -0.00000000000E+00  0.00000000000E+00  0.13478076418E+04  0.13478076418E+04  0.25500000000E-02 0.  1.
          2   -1    0    0  501    0  0.00000000000E+00 -0.00000000000E+00 -0.16286410864E+04  0.16286410864E+04  0.25500000000E-02 0. -1.
    8880023    1    1    2    0    0  0.49955836962E+03 -0.50905974156E+03  0.10678148364E+04  0.14431698155E+04  0.65864270000E+03 0.  0.
    8880022    1    1    2    0    0 -0.49955836962E+03  0.50905974156E+03 -0.13486482810E+04  0.15332789127E+04  0.15294330000E+03 0.  0.
<mgrwt>
<rscale>  0 0.90386940E+03</rscale>
<asrwt>0</asrwt>
<pdfrwt beam="1">  1        2 0.25056017E+00 0.97082985E+03</pdfrwt>
<pdfrwt beam="2">  1       -2 0.20735502E+00 0.97082985E+03</pdfrwt>
<totfact> 0.12790460E+00</totfact>
</mgrwt>
</event>
<event>
 4    5  0.8511149E-008  0.7827504E+03  0.7818608E-02  0.9749416E-01
         -2   -1    0    0    0  501 -0.00000000000E+00  0.00000000000E+00  0.36110340363E+03  0.36110340364E+03  0.25500000000E-02 0.  1.
          2   -1    0    0  501    0  0.00000000000E+00 -0.00000000000E+00 -0.19315909456E+04  0.19315909456E+04  0.25500000000E-02 0. -1.
    8880023    1    1    2    0    0 -0.14259741190E+03 -0.39818830944E+03 -0.14257918432E+03  0.79562992762E+03  0.65864270000E+03 0.  0.
    8880022    1    1    2    0    0  0.14259741190E+03  0.39818830944E+03 -0.14279083576E+04  0.14970644216E+04  0.15294330000E+03 0.  0.
<mgrwt>
<rscale>  0 0.68149312E+03</rscale>
<asrwt>0</asrwt>
<pdfrwt beam="1">  1        2 0.29716783E+00 0.78275038E+03</pdfrwt>
<pdfrwt beam="2">  1       -2 0.55554371E-01 0.78275038E+03</pdfrwt>
<totfact> 0.22820330E+01</totfact>
</mgrwt>
</event>
<event>
 4    5  0.8511149E-008  0.7333048E+03  0.7818608E-02  0.9879897E-01
         -2   -1    0    0    0  501 -0.00000000000E+00  0.00000000000E+00  0.23022644878E+04  0.23022644878E+04  0.25500000000E-02 0.  1.
          2   -1    0    0  501    0  0.00000000000E+00 -0.00000000000E+00 -0.59468062299E+03  0.59468062299E+03  0.25500000000E-02 0. -1.
    8880023    1    1    2    0    0 -0.28966252892E+03 -0.14149699643E+03  0.21827994789E+04  0.23026831202E+04  0.65864270000E+03 0.  1.
    8880022    1    1    2    0    0  0.28966252892E+03  0.14149699643E+03 -0.47521561405E+03  0.59426199063E+03  0.15294330000E+03 0.  0.
<mgrwt>
<rscale>  0 0.61245530E+03</rscale>
<asrwt>0</asrwt>
<pdfrwt beam="1">  1        2 0.91489329E-01 0.73330484E+03</pdfrwt>
<pdfrwt beam="2">  1       -2 0.35419453E+00 0.73330484E+03</pdfrwt>
<totfact> 0.77719690E-01</totfact>
</mgrwt>
</event>
<event>
 4    5  0.8511149E-008  0.1851970E+04  0.7818608E-02  0.8694321E-01
         -2   -1    0    0    0  501 -0.00000000000E+00  0.00000000000E+00  0.20975310278E+04  0.20975310278E+04  0.25500000000E-02 0.  1.
          2   -1    0    0  501    0  0.00000000000E+00 -0.00000000000E+00 -0.26023552765E+04  0.26023552765E+04  0.25500000000E-02 0. -1.
    8880023    1    1    2    0    0  0.13339797749E+04  0.11029410284E+04  0.12468262220E+04  0.22325695479E+04  0.65864270000E+03 0.  0.
    8880022    1    1    2    0    0 -0.13339797749E+04 -0.11029410284E+04 -0.17516504708E+04  0.24673167565E+04  0.15294330000E+03 0.  0.
<mgrwt>
<rscale>  0 0.18226991E+04</rscale>
<asrwt>0</asrwt>
<pdfrwt beam="1">  1        2 0.40036235E+00 0.18519695E+04</pdfrwt>
<pdfrwt beam="2">  1       -2 0.32269708E+00 0.18519695E+04</pdfrwt>
<totfact> 0.62827276E-02</totfact>
</mgrwt>
</event>
<event>
 4    5  0.8511149E-008  0.7975629E+03  0.7818608E-02  0.9716090E-01
          2   -1    0    0  501    0  0.00000000000E+00  0.00000000000E+00  0.24959768174E+04  0.24959768174E+04  0.25500000000E-02 0. -1.
         -2   -1    0    0    0  501 -0.00000000000E+00 -0.00000000000E+00 -0.24358449503E+03  0.24358449505E+03  0.25500000000E-02 0.  1.
    8880023    1    1    2    0    0  0.40903536143E+03  0.18704684884E+03  0.20908138777E+04  0.22377688281E+04  0.65864270000E+03 0. -1.
    8880022    1    1    2    0    0 -0.40903536143E+03 -0.18704684884E+03  0.16157844469E+03  0.50179248437E+03  0.15294330000E+03 0.  0.
<mgrwt>
<rscale>  0 0.70066804E+03</rscale>
<asrwt>0</asrwt>
<pdfrwt beam="1">  1        2 0.38399642E+00 0.79756295E+03</pdfrwt>
<pdfrwt beam="2">  1       -2 0.37474539E-01 0.79756295E+03</pdfrwt>
<totfact> 0.24384852E+01</totfact>
</mgrwt>
</event>
<event>
 4    5  0.8511149E-008  0.1202559E+04  0.7818608E-02  0.9154639E-01
         -2   -1    0    0    0  501 -0.00000000000E+00  0.00000000000E+00  0.21978835316E+04  0.21978835316E+04  0.25500000000E-02 0.  1.
          2   -1    0    0  501    0  0.00000000000E+00 -0.00000000000E+00 -0.13014714902E+04  0.13014714902E+04  0.25500000000E-02 0. -1.
    8880023    1    1    2    0    0 -0.58274332341E+03 -0.82021252757E+03  0.17823198769E+04  0.21500727247E+04  0.65864270000E+03 0.  1.
    8880022    1    1    2    0    0  0.58274332341E+03  0.82021252757E+03 -0.88590783550E+03  0.13492822971E+04  0.15294330000E+03 0.  0.
<mgrwt>
<rscale>  0 0.11534152E+04</rscale>
<asrwt>0</asrwt>
<pdfrwt beam="1">  1        2 0.20022638E+00 0.12025592E+04</pdfrwt>
<pdfrwt beam="2">  1       -2 0.33813593E+00 0.12025592E+04</pdfrwt>
<totfact> 0.29843212E-01</totfact>
</mgrwt>
</event>
<event>
 4    5  0.8511149E-008  0.7832000E+03  0.7818608E-02  0.9748373E-01
          2   -1    0    0  501    0  0.00000000000E+00  0.00000000000E+00  0.65510285814E+03  0.65510285815E+03  0.25500000000E-02 0. -1.
         -2   -1    0    0    0  501 -0.00000000000E+00 -0.00000000000E+00 -0.14516481800E+04  0.14516481800E+04  0.25500000000E-02 0.  1.
    8880023    1    1    2    0    0 -0.17935663185E+03  0.38395737111E+03 -0.12451332205E+04  0.14709721300E+04  0.65864270000E+03 0.  1.
    8880022    1    1    2    0    0  0.17935663185E+03 -0.38395737111E+03  0.44858789864E+03  0.63577890814E+03  0.15294330000E+03 0.  0.
<mgrwt>
<rscale>  0 0.68208291E+03</rscale>
<asrwt>0</asrwt>
<pdfrwt beam="1">  1        2 0.10078506E+00 0.78320002E+03</pdfrwt>
<pdfrwt beam="2">  1       -2 0.22333049E+00 0.78320002E+03</pdfrwt>
<totfact> 0.42776704E+00</totfact>
</mgrwt>
</event>
<event>
 4    5  0.8511149E-008  0.6699156E+03  0.7818608E-02  0.1015723E+00
         -2   -1    0    0    0  501 -0.00000000000E+00  0.00000000000E+00  0.24014206792E+03  0.24014206794E+03  0.25500000000E-02 0.  1.
          2   -1    0    0  501    0  0.00000000000E+00 -0.00000000000E+00 -0.26427967878E+04  0.26427967878E+04  0.25500000000E-02 0. -1.
    8880023    1    1    2    0    0 -0.11335563655E+03 -0.46121034842E+02 -0.24026884951E+03  0.71169935823E+03  0.65864270000E+03 0.  1.
    8880022    1    1    2    0    0  0.11335563655E+03  0.46121034842E+02 -0.21623858704E+04  0.21712394975E+04  0.15294330000E+03 0.  0.
<mgrwt>
<rscale>  0 0.49261953E+03</rscale>
<asrwt>0</asrwt>
<pdfrwt beam="1">  1        2 0.40658410E+00 0.66991556E+03</pdfrwt>
<pdfrwt beam="2">  1       -2 0.36944936E-01 0.66991556E+03</pdfrwt>
<totfact> 0.21074179E+01</totfact>
</mgrwt>
</event>
<event>
 4    5  0.8511149E-008  0.9219818E+03  0.7818608E-02  0.9491627E-01
          2   -1    0    0  501    0  0.00000000000E+00  0.00000000000E+00  0.64841729185E+03  0.64841729186E+03  0.25500000000E-02 0. -1.
         -2   -1    0    0    0  501 -0.00000000000E+00 -0.00000000000E+00 -0.18565518157E+04  0.18565518157E+04  0.25500000000E-02 0.  1.
    8880023    1    1    2    0    0 -0.30016603737E+03  0.57108720236E+03 -0.15156759592E+04  0.17740699147E+04  0.65864270000E+03 0.  0.
    8880022    1    1    2    0    0  0.30016603737E+03 -0.57108720236E+03  0.30754143533E+03  0.73089919288E+03  0.15294330000E+03 0.  0.
<mgrwt>
<rscale>  0 0.84903953E+03</rscale>
<asrwt>0</asrwt>
<pdfrwt beam="1">  1        2 0.99756507E-01 0.92198181E+03</pdfrwt>
<pdfrwt beam="2">  1       -2 0.28562335E+00 0.92198181E+03</pdfrwt>
<totfact> 0.17783018E+00</totfact>
</mgrwt>
</event>
<event>
 4    5  0.8511149E-008  0.1516442E+04  0.7818608E-02  0.8898112E-01
          2   -1    0    0  501    0  0.00000000000E+00  0.00000000000E+00  0.19862514974E+04  0.19862514974E+04  0.25500000000E-02 0. -1.
         -2   -1    0    0    0  501 -0.00000000000E+00 -0.00000000000E+00 -0.13231510403E+04  0.13231510403E+04  0.25500000000E-02 0.  1.
    8880023    1    1    2    0    0  0.70736913819E+03  0.11685097706E+04 -0.40398474127E+03  0.15693310865E+04  0.65864270000E+03 0.  1.
    8880022    1    1    2    0    0 -0.70736913819E+03 -0.11685097706E+04  0.10670851984E+04  0.17400714512E+04  0.15294330000E+03 0.  0.
<mgrwt>
<rscale>  0 0.14796311E+04</rscale>
<asrwt>0</asrwt>
<pdfrwt beam="1">  1        2 0.30557715E+00 0.15164420E+04</pdfrwt>
<pdfrwt beam="2">  1       -2 0.20356170E+00 0.15164420E+04</pdfrwt>
<totfact> 0.80368802E-01</totfact>
</mgrwt>
</event>
<event>
 4    5  0.8511149E-008  0.8664335E+03  0.7818608E-02  0.9582220E-01
         -2   -1    0    0    0  501 -0.00000000000E+00  0.00000000000E+00  0.59656730961E+03  0.59656730961E+03  0.25500000000E-02 0.  1.
          2   -1    0    0  501    0  0.00000000000E+00 -0.00000000000E+00 -0.12605459196E+04  0.12605459196E+04  0.25500000000E-02 0. -1.
    8880023    1    1    2    0    0  0.45822471209E+01 -0.56291728413E+03  0.12552562265E+03  0.87547915679E+03  0.65864270000E+03 0.  0.
    8880022    1    1    2    0    0 -0.45822471209E+01  0.56291728413E+03 -0.78950423260E+03  0.98163407239E+03  0.15294330000E+03 0.  0.
<mgrwt>
<rscale>  0 0.78484221E+03</rscale>
<asrwt>0</asrwt>
<pdfrwt beam="1">  1        2 0.19393014E+00 0.86643354E+03</pdfrwt>
<pdfrwt beam="2">  1       -2 0.91779586E-01 0.86643354E+03</pdfrwt>
<totfact> 0.17739927E+01</totfact>
</mgrwt>
</event>
<event>
 4    5  0.8511149E-008  0.6590718E+03  0.7818608E-02  0.1025128E+00
          2   -1    0    0  501    0  0.00000000000E+00  0.00000000000E+00  0.54916278571E+03  0.54916278572E+03  0.25500000000E-02 0. -1.
         -2   -1    0    0    0  501 -0.00000000000E+00 -0.00000000000E+00 -0.43683435317E+03  0.43683435318E+03  0.25500000000E-02 0.  1.
    8880023    1    1    2    0    0  0.16778723095E+02  0.16849566235E+02 -0.15503691529E+03  0.67706135970E+03  0.65864270000E+03 0.  1.
    8880022    1    1    2    0    0 -0.16778723095E+02 -0.16849566235E+02  0.26736534783E+03  0.30893577920E+03  0.15294330000E+03 0.  0.
<mgrwt>
<rscale>  0 0.45880569E+03</rscale>
<asrwt>0</asrwt>
<pdfrwt beam="1">  1        2 0.84486582E-01 0.65907180E+03</pdfrwt>
<pdfrwt beam="2">  1       -2 0.67205285E-01 0.65907180E+03</pdfrwt>
<totfact> 0.11384440E+02</totfact>
</mgrwt>
</event>
<event>
 4    5  0.8511149E-008  0.1354609E+04  0.7818608E-02  0.9019780E-01
          2   -1    0    0  501    0  0.00000000000E+00  0.00000000000E+00  0.32038372791E+04  0.32038372791E+04  0.25500000000E-02 0. -1.
         -2   -1    0    0    0  501 -0.00000000000E+00 -0.00000000000E+00 -0.73615397946E+03  0.73615397946E+03  0.25500000000E-02 0.  1.
    8880023    1    1    2    0    0 -0.20790253219E+03  0.11653038091E+04  0.18910971364E+03  0.13677460000E+04  0.65864270000E+03 0.  0.
    8880022    1    1    2    0    0  0.20790253219E+03 -0.11653038091E+04  0.22785735860E+04  0.25722452585E+04  0.15294330000E+03 0.  0.
<mgrwt>
<rscale>  0 0.13124120E+04</rscale>
<asrwt>0</asrwt>
<pdfrwt beam="1">  1        2 0.49289803E+00 0.13546094E+04</pdfrwt>
<pdfrwt beam="2">  1       -2 0.11325446E+00 0.13546094E+04</pdfrwt>
<totfact> 0.76733913E-01</totfact>
</mgrwt>
</event>
<event>
 4    5  0.8511149E-008  0.7291923E+03  0.7818608E-02  0.9892627E-01
         -2   -1    0    0    0  501 -0.00000000000E+00  0.00000000000E+00  0.27660107712E+03  0.27660107713E+03  0.25500000000E-02 0.  1.
          2   -1    0    0  501    0  0.00000000000E+00 -0.00000000000E+00 -0.14143867589E+04  0.14143867589E+04  0.25500000000E-02 0. -1.
    8880023    1    1    2    0    0 -0.25171764808E+03 -0.18587461059E+03 -0.30893661550E+03  0.79193635090E+03  0.65864270000E+03 0.  1.
    8880022    1    1    2    0    0  0.25171764808E+03  0.18587461059E+03 -0.82884906624E+03  0.89905148509E+03  0.15294330000E+03 0.  0.
<mgrwt>
<rscale>  0 0.60619924E+03</rscale>
<asrwt>0</asrwt>
<pdfrwt beam="1">  1        2 0.21759796E+00 0.72919226E+03</pdfrwt>
<pdfrwt beam="2">  1       -2 0.42554013E-01 0.72919226E+03</pdfrwt>
<totfact> 0.75870353E+01</totfact>
</mgrwt>
</event>
<event>
 4    5  0.8511149E-008  0.6593314E+03  0.7818608E-02  0.1024852E+00
         -2   -1    0    0    0  501 -0.00000000000E+00  0.00000000000E+00  0.15326240864E+03  0.15326240866E+03  0.25500000000E-02 0.  1.
          2   -1    0    0  501    0  0.00000000000E+00 -0.00000000000E+00 -0.20697142180E+04  0.20697142180E+04  0.25500000000E-02 0. -1.
    8880023    1    1    2    0    0  0.11453074210E+02 -0.27866157738E+02 -0.58201330287E+03  0.87946426114E+03  0.65864270000E+03 0.  1.
    8880022    1    1    2    0    0 -0.11453074210E+02  0.27866157738E+02 -0.13344385065E+04  0.13435123655E+04  0.15294330000E+03 0.  0.
<mgrwt>
<rscale>  0 0.45975573E+03</rscale>
<asrwt>0</asrwt>
<pdfrwt beam="1">  1        2 0.31841755E+00 0.65933141E+03</pdfrwt>
<pdfrwt beam="2">  1       -2 0.23578834E-01 0.65933141E+03</pdfrwt>
<totfact> 0.10105870E+02</totfact>
</mgrwt>
</event>
<event>
 4    5  0.8511149E-008  0.1403558E+04  0.7818608E-02  0.8980923E-01
         -2   -1    0    0    0  501 -0.00000000000E+00  0.00000000000E+00  0.11722591918E+04  0.11722591918E+04  0.25500000000E-02 0.  1.
          2   -1    0    0  501    0  0.00000000000E+00 -0.00000000000E+00 -0.18490631474E+04  0.18490631474E+04  0.25500000000E-02 0. -1.
    8880023    1    1    2    0    0  0.12192390755E+03  0.12334097781E+04  0.30072056790E+03  0.14354122008E+04  0.65864270000E+03 0.  1.
    8880022    1    1    2    0    0 -0.12192390755E+03 -0.12334097781E+04 -0.97752452346E+03  0.15859101384E+04  0.15294330000E+03 0.  0.
<mgrwt>
<rscale>  0 0.13631635E+04</rscale>
<asrwt>0</asrwt>
<pdfrwt beam="1">  1        2 0.28447125E+00 0.14035581E+04</pdfrwt>
<pdfrwt beam="2">  1       -2 0.18034757E+00 0.14035581E+04</pdfrwt>
<totfact> 0.13886440E+00</totfact>
</mgrwt>
</event>
<event>
 4    5  0.8511149E-008  0.1279034E+04  0.7818608E-02  0.9083880E-01
         -2   -1    0    0    0  501 -0.00000000000E+00  0.00000000000E+00  0.15551450563E+04  0.15551450563E+04  0.25500000000E-02 0.  1.
          2   -1    0    0  501    0  0.00000000000E+00 -0.00000000000E+00 -0.17571898071E+04  0.17571898071E+04  0.25500000000E-02 0. -1.
    8880023    1    1    2    0    0 -0.88921032227E+03 -0.64142264012E+03  0.10400405592E+04  0.16485182958E+04  0.65864270000E+03 0.  1.
    8880022    1    1    2    0    0  0.88921032227E+03  0.64142264012E+03 -0.12420853100E+04  0.16638165677E+04  0.15294330000E+03 0.  0.
<mgrwt>
<rscale>  0 0.12336762E+04</rscale>
<asrwt>0</asrwt>
<pdfrwt beam="1">  1        2 0.27033689E+00 0.12790341E+04</pdfrwt>
<pdfrwt beam="2">  1       -2 0.23925309E+00 0.12790341E+04</pdfrwt>
<totfact> 0.65632436E-01</totfact>
</mgrwt>
</event>
<event>
 4    5  0.8511149E-008  0.1624871E+04  0.7818608E-02  0.8826149E-01
          2   -1    0    0  501    0  0.00000000000E+00  0.00000000000E+00  0.36246941464E+04  0.36246941464E+04  0.25500000000E-02 0. -1.
         -2   -1    0    0    0  501 -0.00000000000E+00 -0.00000000000E+00 -0.12905333286E+04  0.12905333286E+04  0.25500000000E-02 0.  1.
    8880023    1    1    2    0    0 -0.80348964654E+03  0.12493192220E+04 -0.50989345501E+03  0.17029960870E+04  0.65864270000E+03 0.  1.
    8880022    1    1    2    0    0  0.80348964654E+03 -0.12493192220E+04  0.28440542728E+04  0.32122313880E+04  0.15294330000E+03 0.  0.
<mgrwt>
<rscale>  0 0.15909150E+04</rscale>
<asrwt>0</asrwt>
<pdfrwt beam="1">  1        2 0.55764524E+00 0.16248706E+04</pdfrwt>
<pdfrwt beam="2">  1       -2 0.19854359E+00 0.16248706E+04</pdfrwt>
<totfact> 0.84153019E-02</totfact>
</mgrwt>
</event>
<event>
 4    5  0.8511149E-008  0.1516439E+04  0.7818608E-02  0.8898114E-01
          2   -1    0    0  501    0  0.00000000000E+00  0.00000000000E+00  0.30988402676E+04  0.30988402676E+04  0.25500000000E-02 0. -1.
         -2   -1    0    0    0  501 -0.00000000000E+00 -0.00000000000E+00 -0.70853034365E+03  0.70853034366E+03  0.25500000000E-02 0.  1.
    8880023    1    1    2    0    0 -0.56730689864E+02 -0.13647561042E+04  0.83264786153E+03  0.17299971858E+04  0.65864270000E+03 0.  0.
    8880022    1    1    2    0    0  0.56730689864E+02  0.13647561042E+04  0.15576620624E+04  0.20773734254E+04  0.15294330000E+03 0.  0.
<mgrwt>
<rscale>  0 0.14796282E+04</rscale>
<asrwt>0</asrwt>
<pdfrwt beam="1">  1        2 0.47674467E+00 0.15164392E+04</pdfrwt>
<pdfrwt beam="2">  1       -2 0.10900467E+00 0.15164392E+04</pdfrwt>
<totfact> 0.96578591E-01</totfact>
</mgrwt>
</event>
<event>
 4    5  0.8511149E-008  0.8751597E+03  0.7818608E-02  0.9567146E-01
         -2   -1    0    0    0  501 -0.00000000000E+00  0.00000000000E+00  0.25754895386E+03  0.25754895387E+03  0.25500000000E-02 0.  1.
          2   -1    0    0  501    0  0.00000000000E+00 -0.00000000000E+00 -0.25978471670E+04  0.25978471670E+04  0.25500000000E-02 0. -1.
    8880023    1    1    2    0    0  0.30678740744E+03 -0.48782768629E+03 -0.73469185120E+03  0.11426621055E+04  0.65864270000E+03 0.  0.
    8880022    1    1    2    0    0 -0.30678740744E+03  0.48782768629E+03 -0.16056063619E+04  0.17127340154E+04  0.15294330000E+03 0.  0.
<mgrwt>
<rscale>  0 0.79509370E+03</rscale>
<asrwt>0</asrwt>
<pdfrwt beam="1">  1        2 0.39966878E+00 0.87515974E+03</pdfrwt>
<pdfrwt beam="2">  1       -2 0.39622918E-01 0.87515974E+03</pdfrwt>
<totfact> 0.18934874E+01</totfact>
</mgrwt>
</event>
<event>
 4    5  0.8511149E-008  0.1003081E+04  0.7818608E-02  0.9377538E-01
          2   -1    0    0  501    0  0.00000000000E+00  0.00000000000E+00  0.20539683553E+04  0.20539683553E+04  0.25500000000E-02 0. -1.
         -2   -1    0    0    0  501 -0.00000000000E+00 -0.00000000000E+00 -0.50336769388E+03  0.50336769389E+03  0.25500000000E-02 0.  1.
    8880023    1    1    2    0    0 -0.69745029965E+03 -0.29312876306E+03  0.14722959596E+04  0.17815237835E+04  0.65864270000E+03 0. -1.
    8880022    1    1    2    0    0  0.69745029965E+03  0.29312876306E+03  0.78304701790E+02  0.77581226567E+03  0.15294330000E+03 0.  0.
<mgrwt>
<rscale>  0 0.93947517E+03</rscale>
<asrwt>0</asrwt>
<pdfrwt beam="1">  1        2 0.31599513E+00 0.10030811E+04</pdfrwt>
<pdfrwt beam="2">  1       -2 0.77441185E-01 0.10030811E+04</pdfrwt>
<totfact> 0.92948836E+00</totfact>
</mgrwt>
</event>
<event>
 4    5  0.8511149E-008  0.7608579E+03  0.7818608E-02  0.9802892E-01
         -2   -1    0    0    0  501 -0.00000000000E+00  0.00000000000E+00  0.31365674774E+03  0.31365674775E+03  0.25500000000E-02 0.  1.
          2   -1    0    0  501    0  0.00000000000E+00 -0.00000000000E+00 -0.10952058988E+04  0.10952058988E+04  0.25500000000E-02 0. -1.
    8880023    1    1    2    0    0  0.66222189186E+02  0.37511216468E+03 -0.53354928099E+03  0.92928981267E+03  0.65864270000E+03 0. -1.
    8880022    1    1    2    0    0 -0.66222189186E+02 -0.37511216468E+03 -0.24799987009E+03  0.47957283389E+03  0.15294330000E+03 0.  1.
<mgrwt>
<rscale>  0 0.65207596E+03</rscale>
<asrwt>0</asrwt>
<pdfrwt beam="1">  1        2 0.16849321E+00 0.76085788E+03</pdfrwt>
<pdfrwt beam="2">  1       -2 0.48254885E-01 0.76085788E+03</pdfrwt>
<totfact> 0.90468546E+01</totfact>
</mgrwt>
</event>
<event>
 4    5  0.8511149E-008  0.1690314E+04  0.7818608E-02  0.8785767E-01
         -2   -1    0    0    0  501 -0.00000000000E+00  0.00000000000E+00  0.17318062486E+04  0.17318062486E+04  0.25500000000E-02 0.  1.
          2   -1    0    0  501    0  0.00000000000E+00 -0.00000000000E+00 -0.17908920387E+04  0.17908920387E+04  0.25500000000E-02 0. -1.
    8880023    1    1    2    0    0 -0.12984294091E+04  0.85873863742E+03 -0.70360864409E+03  0.18309086018E+04  0.65864270000E+03 0.  0.
    8880022    1    1    2    0    0  0.12984294091E+04 -0.85873863742E+03  0.64452285393E+03  0.16917896855E+04  0.15294330000E+03 0.  0.
<mgrwt>
<rscale>  0 0.16578646E+04</rscale>
<asrwt>0</asrwt>
<pdfrwt beam="1">  1        2 0.27552185E+00 0.16903139E+04</pdfrwt>
<pdfrwt beam="2">  1       -2 0.26643173E+00 0.16903139E+04</pdfrwt>
<totfact> 0.40950578E-01</totfact>
</mgrwt>
</event>
<event>
 4    5  0.8511149E-008  0.8462053E+03  0.7818608E-02  0.9618589E-01
          2   -1    0    0  501    0  0.00000000000E+00  0.00000000000E+00  0.26554179656E+04  0.26554179656E+04  0.25500000000E-02 0. -1.
         -2   -1    0    0    0  501 -0.00000000000E+00 -0.00000000000E+00 -0.39868723301E+03  0.39868723302E+03  0.25500000000E-02 0.  1.
    8880023    1    1    2    0    0  0.13401885809E+03  0.51409350425E+03  0.12931607236E+03  0.85602922746E+03  0.65864270000E+03 0.  0.
    8880022    1    1    2    0    0 -0.13401885809E+03 -0.51409350425E+03  0.21274146602E+04  0.21980759711E+04  0.15294330000E+03 0.  0.
<mgrwt>
<rscale>  0 0.76077973E+03</rscale>
<asrwt>0</asrwt>
<pdfrwt beam="1">  1        2 0.40852584E+00 0.84620529E+03</pdfrwt>
<pdfrwt beam="2">  1       -2 0.61336497E-01 0.84620529E+03</pdfrwt>
<totfact> 0.72359418E+00</totfact>
</mgrwt>
</event>
<event>
 4    5  0.8511149E-008  0.1728065E+04  0.7818608E-02  0.8763408E-01
          2   -1    0    0  501    0  0.00000000000E+00  0.00000000000E+00  0.13229548174E+04  0.13229548174E+04  0.25500000000E-02 0. -1.
         -2   -1    0    0    0  501 -0.00000000000E+00 -0.00000000000E+00 -0.33248296284E+04  0.33248296284E+04  0.25500000000E-02 0.  1.
    8880023    1    1    2    0    0  0.92012255196E+03  0.13060520854E+04 -0.24345989776E+04  0.29855451677E+04  0.65864270000E+03 0.  0.
    8880022    1    1    2    0    0 -0.92012255196E+03 -0.13060520854E+04  0.43272416662E+03  0.16622392782E+04  0.15294330000E+03 0.  0.
<mgrwt>
<rscale>  0 0.16964216E+04</rscale>
<asrwt>0</asrwt>
<pdfrwt beam="1">  1        2 0.20353151E+00 0.17280647E+04</pdfrwt>
<pdfrwt beam="2">  1       -2 0.51151225E+00 0.17280647E+04</pdfrwt>
<totfact> 0.20446240E-02</totfact>
</mgrwt>
</event>
<event>
 4    5  0.8511149E-008  0.7483806E+03  0.7818608E-02  0.9836175E-01
          2   -1    0    0  501    0  0.00000000000E+00  0.00000000000E+00  0.73810536909E+03  0.73810536909E+03  0.25500000000E-02 0. -1.
         -2   -1    0    0    0  501 -0.00000000000E+00 -0.00000000000E+00 -0.58348328340E+03  0.58348328340E+03  0.25500000000E-02 0.  1.
    8880023    1    1    2    0    0 -0.33324678327E+03 -0.12332833905E+03 -0.22308685048E+03  0.78092332972E+03  0.65864270000E+03 0.  1.
    8880022    1    1    2    0    0  0.33324678327E+03  0.12332833905E+03  0.37770893618E+03  0.54066532278E+03  0.15294330000E+03 0.  0.
<mgrwt>
<rscale>  0 0.63456815E+03</rscale>
<asrwt>0</asrwt>
<pdfrwt beam="1">  1        2 0.11355467E+00 0.74838059E+03</pdfrwt>
<pdfrwt beam="2">  1       -2 0.89766659E-01 0.74838059E+03</pdfrwt>
<totfact> 0.41253280E+01</totfact>
</mgrwt>
</event>
<event>
 4    5  0.8511149E-008  0.7361823E+03  0.7818608E-02  0.9871210E-01
         -2   -1    0    0    0  501 -0.00000000000E+00  0.00000000000E+00  0.35197561401E+03  0.35197561402E+03  0.25500000000E-02 0.  1.
          2   -1    0    0  501    0  0.00000000000E+00 -0.00000000000E+00 -0.99527604288E+03  0.99527604288E+03  0.25500000000E-02 0. -1.
    8880023    1    1    2    0    0 -0.29465931780E+03  0.14604833863E+03 -0.17818447800E+03  0.75743920235E+03  0.65864270000E+03 0.  1.
    8880022    1    1    2    0    0  0.29465931780E+03 -0.14604833863E+03 -0.46511595086E+03  0.58981245455E+03  0.15294330000E+03 0.  0.
<mgrwt>
<rscale>  0 0.61677066E+03</rscale>
<asrwt>0</asrwt>
<pdfrwt beam="1">  1        2 0.15311939E+00 0.73618234E+03</pdfrwt>
<pdfrwt beam="2">  1       -2 0.54150095E-01 0.73618234E+03</pdfrwt>
<totfact> 0.82699439E+01</totfact>
</mgrwt>
</event>
<event>
 4    5  0.8511149E-008  0.7489253E+03  0.7818608E-02  0.9834672E-01
         -2   -1    0    0    0  501 -0.00000000000E+00  0.00000000000E+00  0.23926075432E+03  0.23926075433E+03  0.25500000000E-02 0.  1.
          2   -1    0    0  501    0  0.00000000000E+00 -0.00000000000E+00 -0.22323207797E+04  0.22323207797E+04  0.25500000000E-02 0. -1.
    8880023    1    1    2    0    0  0.26497844557E+03  0.23846453606E+03 -0.43528126111E+03  0.86623258661E+03  0.65864270000E+03 0.  1.
    8880022    1    1    2    0    0 -0.26497844557E+03 -0.23846453606E+03 -0.15577787643E+04  0.16053489475E+04  0.15294330000E+03 0.  0.
<mgrwt>
<rscale>  0 0.63534604E+03</rscale>
<asrwt>0</asrwt>
<pdfrwt beam="1">  1        2 0.34343395E+00 0.74892531E+03</pdfrwt>
<pdfrwt beam="2">  1       -2 0.36809348E-01 0.74892531E+03</pdfrwt>
<totfact> 0.35686274E+01</totfact>
</mgrwt>
</event>
<event>
 4    5  0.8511149E-008  0.8181057E+03  0.7818608E-02  0.9672934E-01
         -2   -1    0    0    0  501 -0.00000000000E+00  0.00000000000E+00  0.13638445774E+04  0.13638445774E+04  0.25500000000E-02 0.  1.
          2   -1    0    0  501    0  0.00000000000E+00 -0.00000000000E+00 -0.59083651304E+03  0.59083651304E+03  0.25500000000E-02 0. -1.
    8880023    1    1    2    0    0  0.17951593566E+03 -0.45084445351E+03  0.10842229264E+04  0.13582474932E+04  0.65864270000E+03 0.  1.
    8880022    1    1    2    0    0 -0.17951593566E+03  0.45084445351E+03 -0.31121486211E+03  0.59643359717E+03  0.15294330000E+03 0.  0.
<mgrwt>
<rscale>  0 0.72651405E+03</rscale>
<asrwt>0</asrwt>
<pdfrwt beam="1">  1        2 0.90897927E-01 0.81810568E+03</pdfrwt>
<pdfrwt beam="2">  1       -2 0.20982224E+00 0.81810568E+03</pdfrwt>
<totfact> 0.58799382E+00</totfact>
</mgrwt>
</event>
<event>
 4    5  0.8511149E-008  0.7805694E+03  0.7818608E-02  0.9754501E-01
         -2   -1    0    0    0  501 -0.00000000000E+00  0.00000000000E+00  0.27145908796E+03  0.27145908797E+03  0.25500000000E-02 0.  1.
          2   -1    0    0  501    0  0.00000000000E+00 -0.00000000000E+00 -0.15968219185E+04  0.15968219185E+04  0.25500000000E-02 0. -1.
    8880023    1    1    2    0    0  0.29870579273E+03 -0.29368913582E+03 -0.49081381095E+03  0.92205578052E+03  0.65864270000E+03 0.  1.
    8880022    1    1    2    0    0 -0.29870579273E+03  0.29368913582E+03 -0.83454901954E+03  0.94622522590E+03  0.15294330000E+03 0.  0.
<mgrwt>
<rscale>  0 0.67862500E+03</rscale>
<asrwt>0</asrwt>
<pdfrwt beam="1">  1        2 0.24566490E+00 0.78056945E+03</pdfrwt>
<pdfrwt beam="2">  1       -2 0.41762938E-01 0.78056945E+03</pdfrwt>
<totfact> 0.61990885E+01</totfact>
</mgrwt>
</event>
<event>
 4    5  0.8511149E-008  0.1546692E+04  0.7818608E-02  0.8877350E-01
         -2   -1    0    0    0  501 -0.00000000000E+00  0.00000000000E+00  0.15332444004E+04  0.15332444004E+04  0.25500000000E-02 0.  1.
          2   -1    0    0  501    0  0.00000000000E+00 -0.00000000000E+00 -0.17643383057E+04  0.17643383057E+04  0.25500000000E-02 0. -1.
    8880023    1    1    2    0    0 -0.70753189967E+03  0.12074119199E+04  0.60435215774E+03  0.16605711880E+04  0.65864270000E+03 0.  1.
    8880022    1    1    2    0    0  0.70753189967E+03 -0.12074119199E+04 -0.83544606304E+03  0.16370115182E+04  0.15294330000E+03 0. -1.
<mgrwt>
<rscale>  0 0.15107280E+04</rscale>
<asrwt>0</asrwt>
<pdfrwt beam="1">  1        2 0.27143666E+00 0.15466917E+04</pdfrwt>
<pdfrwt beam="2">  1       -2 0.23588376E+00 0.15466917E+04</pdfrwt>
<totfact> 0.66299203E-01</totfact>
</mgrwt>
</event>
<event>
 4    5  0.8511149E-008  0.8480597E+03  0.7818608E-02  0.9615166E-01
         -2   -1    0    0    0  501 -0.00000000000E+00  0.00000000000E+00  0.16909187749E+04  0.16909187749E+04  0.25500000000E-02 0.  1.
          2   -1    0    0  501    0  0.00000000000E+00 -0.00000000000E+00 -0.95035511109E+03  0.95035511109E+03  0.25500000000E-02 0. -1.
    8880023    1    1    2    0    0 -0.39126117521E+02 -0.53278899500E+03  0.14863259459E+04  0.17112480796E+04  0.65864270000E+03 0.  1.
    8880022    1    1    2    0    0  0.39126117521E+02  0.53278899500E+03 -0.74576228204E+03  0.93002580642E+03  0.15294330000E+03 0.  0.
<mgrwt>
<rscale>  0 0.76300452E+03</rscale>
<asrwt>0</asrwt>
<pdfrwt beam="1">  1        2 0.14620848E+00 0.84805965E+03</pdfrwt>
<pdfrwt beam="2">  1       -2 0.26014135E+00 0.84805965E+03</pdfrwt>
<totfact> 0.15403706E+00</totfact>
</mgrwt>
</event>
<event>
 4    5  0.8511149E-008  0.8115927E+03  0.7818608E-02  0.9686269E-01
         -2   -1    0    0    0  501 -0.00000000000E+00  0.00000000000E+00  0.34729494496E+03  0.34729494497E+03  0.25500000000E-02 0.  1.
          2   -1    0    0  501    0  0.00000000000E+00 -0.00000000000E+00 -0.13226055911E+04  0.13226055911E+04  0.25500000000E-02 0. -1.
    8880023    1    1    2    0    0  0.44469702338E+03 -0.16467272496E+03 -0.38758755359E+03  0.89939249881E+03  0.65864270000E+03 0. -1.
    8880022    1    1    2    0    0 -0.44469702338E+03  0.16467272496E+03 -0.58772309255E+03  0.77050803726E+03  0.15294330000E+03 0.  0.
<mgrwt>
<rscale>  0 0.71840256E+03</rscale>
<asrwt>0</asrwt>
<pdfrwt beam="1">  1        2 0.20347778E+00 0.81159273E+03</pdfrwt>
<pdfrwt beam="2">  1       -2 0.53429992E-01 0.81159273E+03</pdfrwt>
<totfact> 0.53647979E+01</totfact>
</mgrwt>
</event>
<event>
 4    5  0.8511149E-008  0.1595559E+04  0.7818608E-02  0.8844948E-01
          2   -1    0    0  501    0  0.00000000000E+00  0.00000000000E+00  0.16052253070E+04  0.16052253070E+04  0.25500000000E-02 0. -1.
         -2   -1    0    0    0  501 -0.00000000000E+00 -0.00000000000E+00 -0.14781360222E+04  0.14781360222E+04  0.25500000000E-02 0.  1.
    8880023    1    1    2    0    0  0.30774737273E+03  0.14203138041E+04 -0.12512290602E+03  0.16004579642E+04  0.65864270000E+03 0.  1.
    8880022    1    1    2    0    0 -0.30774737273E+03 -0.14203138041E+04  0.25221219088E+03  0.14829033649E+04  0.15294330000E+03 0. -1.
<mgrwt>
<rscale>  0 0.15608797E+04</rscale>
<asrwt>0</asrwt>
<pdfrwt beam="1">  1        2 0.24695774E+00 0.15955594E+04</pdfrwt>
<pdfrwt beam="2">  1       -2 0.22740554E+00 0.15955594E+04</pdfrwt>
<totfact> 0.91619973E-01</totfact>
</mgrwt>
</event>
<event>
 4    5  0.8511149E-008  0.8033583E+03  0.7818608E-02  0.9703581E-01
          2   -1    0    0  501    0  0.00000000000E+00  0.00000000000E+00  0.20112323365E+04  0.20112323365E+04  0.25500000000E-02 0. -1.
         -2   -1    0    0    0  501 -0.00000000000E+00 -0.00000000000E+00 -0.25431692475E+03  0.25431692477E+03  0.25500000000E-02 0.  1.
    8880023    1    1    2    0    0 -0.18057364003E+03  0.42304544972E+03  0.57452577279E+03  0.98765599368E+03  0.65864270000E+03 0.  1.
    8880022    1    1    2    0    0  0.18057364003E+03 -0.42304544972E+03  0.11823896389E+04  0.12778932676E+04  0.15294330000E+03 0.  0.
<mgrwt>
<rscale>  0 0.70803963E+03</rscale>
<asrwt>0</asrwt>
<pdfrwt beam="1">  1        2 0.30942035E+00 0.80335826E+03</pdfrwt>
<pdfrwt beam="2">  1       -2 0.39125682E-01 0.80335826E+03</pdfrwt>
<totfact> 0.41669385E+01</totfact>
</mgrwt>
</event>
<event>
 4    5  0.8511149E-008  0.7316885E+03  0.7818608E-02  0.9884855E-01
         -2   -1    0    0    0  501 -0.00000000000E+00  0.00000000000E+00  0.13840615696E+03  0.13840615698E+03  0.25500000000E-02 0.  1.
          2   -1    0    0  501    0  0.00000000000E+00 -0.00000000000E+00 -0.26350780682E+04  0.26350780682E+04  0.25500000000E-02 0. -1.
    8880023    1    1    2    0    0  0.25230210146E+03  0.19468294969E+03 -0.10212652449E+04  0.12563242846E+04  0.65864270000E+03 0.  1.
    8880022    1    1    2    0    0 -0.25230210146E+03 -0.19468294969E+03 -0.14754066663E+04  0.15171599406E+04  0.15294330000E+03 0.  0.
<mgrwt>
<rscale>  0 0.61000929E+03</rscale>
<asrwt>0</asrwt>
<pdfrwt beam="1">  1        2 0.40539659E+00 0.73168846E+03</pdfrwt>
<pdfrwt beam="2">  1       -2 0.21293257E-01 0.73168846E+03</pdfrwt>
<totfact> 0.58015178E+01</totfact>
</mgrwt>
</event>
<event>
 4    5  0.8511149E-008  0.8015519E+03  0.7818608E-02  0.9707450E-01
          2   -1    0    0  501    0  0.00000000000E+00  0.00000000000E+00  0.14612113483E+04  0.14612113483E+04  0.25500000000E-02 0. -1.
         -2   -1    0    0    0  501 -0.00000000000E+00 -0.00000000000E+00 -0.42460910164E+03  0.42460910165E+03  0.25500000000E-02 0.  1.
    8880023    1    1    2    0    0  0.42874323706E+03 -0.15765313069E+03  0.68487339093E+02  0.80447249476E+03  0.65864270000E+03 0.  0.
    8880022    1    1    2    0    0 -0.42874323706E+03  0.15765313069E+03  0.96811490757E+03  0.10813479552E+04  0.15294330000E+03 0.  0.
<mgrwt>
<rscale>  0 0.70574921E+03</rscale>
<asrwt>0</asrwt>
<pdfrwt beam="1">  1        2 0.22480175E+00 0.80155192E+03</pdfrwt>
<pdfrwt beam="2">  1       -2 0.65324477E-01 0.80155192E+03</pdfrwt>
<totfact> 0.29327538E+01</totfact>
</mgrwt>
</event>
<event>
 4    5  0.8511149E-008  0.7917479E+03  0.7818608E-02  0.9728931E-01
          2   -1    0    0  501    0  0.00000000000E+00  0.00000000000E+00  0.27766730439E+04  0.27766730439E+04  0.25500000000E-02 0. -1.
         -2   -1    0    0    0  501 -0.00000000000E+00 -0.00000000000E+00 -0.23680485155E+03  0.23680485157E+03  0.25500000000E-02 0.  1.
    8880023    1    1    2    0    0  0.40600038704E+03  0.16798289600E+03  0.53553136769E+03  0.95585491560E+03  0.65864270000E+03 0.  1.
    8880022    1    1    2    0    0 -0.40600038704E+03 -0.16798289600E+03  0.20043368246E+04  0.20576229798E+04  0.15294330000E+03 0.  0.
<mgrwt>
<rscale>  0 0.69320063E+03</rscale>
<asrwt>0</asrwt>
<pdfrwt beam="1">  1        2 0.42718044E+00 0.79174792E+03</pdfrwt>
<pdfrwt beam="2">  1       -2 0.36431518E-01 0.79174792E+03</pdfrwt>
<totfact> 0.17732840E+01</totfact>
</mgrwt>
</event>
<event>
 4    5  0.8511149E-008  0.8169541E+03  0.7818608E-02  0.9675270E-01
          2   -1    0    0  501    0  0.00000000000E+00  0.00000000000E+00  0.21131325519E+04  0.21131325519E+04  0.25500000000E-02 0. -1.
         -2   -1    0    0    0  501 -0.00000000000E+00 -0.00000000000E+00 -0.11829614999E+04  0.11829614999E+04  0.25500000000E-02 0.  1.
    8880023    1    1    2    0    0 -0.89823177587E+02  0.47490587556E+03 -0.10052659561E+04  0.12953662195E+04  0.65864270000E+03 0.  1.
    8880022    1    1    2    0    0  0.89823177587E+02 -0.47490587556E+03  0.19354370081E+04  0.20007278324E+04  0.15294330000E+03 0.  0.
<mgrwt>
<rscale>  0 0.72508500E+03</rscale>
<asrwt>0</asrwt>
<pdfrwt beam="1">  1        2 0.32509732E+00 0.81695410E+03</pdfrwt>
<pdfrwt beam="2">  1       -2 0.18199408E+00 0.81695410E+03</pdfrwt>
<totfact> 0.10460299E+00</totfact>
</mgrwt>
</event>
<event>
 4    5  0.8511149E-008  0.1469059E+04  0.7818608E-02  0.8931799E-01
         -2   -1    0    0    0  501 -0.00000000000E+00  0.00000000000E+00  0.22172835413E+04  0.22172835413E+04  0.25500000000E-02 0.  1.
          2   -1    0    0  501    0  0.00000000000E+00 -0.00000000000E+00 -0.93829293694E+03  0.93829293694E+03  0.25500000000E-02 0. -1.
    8880023    1    1    2    0    0  0.26205412223E+02 -0.13128733377E+04  0.27270969008E+03  0.14941565867E+04  0.65864270000E+03 0. -1.
    8880022    1    1    2    0    0 -0.26205412223E+02  0.13128733377E+04  0.10062809142E+04  0.16614198915E+04  0.15294330000E+03 0.  0.
<mgrwt>
<rscale>  0 0.14308304E+04</rscale>
<asrwt>0</asrwt>
<pdfrwt beam="1">  1        2 0.14435276E+00 0.14690587E+04</pdfrwt>
<pdfrwt beam="2">  1       -2 0.34112054E+00 0.14690587E+04</pdfrwt>
<totfact> 0.46613993E-01</totfact>
</mgrwt>
</event>
<event>
 4    5  0.8511149E-008  0.1049304E+04  0.7818608E-02  0.9319718E-01
         -2   -1    0    0    0  501 -0.00000000000E+00  0.00000000000E+00  0.28698151394E+04  0.28698151394E+04  0.25500000000E-02 0.  1.
          2   -1    0    0  501    0  0.00000000000E+00 -0.00000000000E+00 -0.44717844661E+03  0.44717844662E+03  0.25500000000E-02 0. -1.
    8880023    1    1    2    0    0 -0.74770637153E+03 -0.32888329517E+03  0.22290959099E+04  0.24637182919E+04  0.65864270000E+03 0.  1.
    8880022    1    1    2    0    0  0.74770637153E+03  0.32888329517E+03  0.19354078282E+03  0.85327529409E+03  0.15294330000E+03 0.  0.
<mgrwt>
<rscale>  0 0.98987646E+03</rscale>
<asrwt>0</asrwt>
<pdfrwt beam="1">  1        2 0.68796683E-01 0.10493042E+04</pdfrwt>
<pdfrwt beam="2">  1       -2 0.44151003E+00 0.10493042E+04</pdfrwt>
<totfact> 0.28075249E-01</totfact>
</mgrwt>
</event>
<event>
 4    5  0.8511149E-008  0.6805800E+03  0.7818608E-02  0.1008997E+00
         -2   -1    0    0    0  501 -0.00000000000E+00  0.00000000000E+00  0.25289918792E+03  0.25289918793E+03  0.25500000000E-02 0.  1.
          2   -1    0    0  501    0  0.00000000000E+00 -0.00000000000E+00 -0.17475526483E+04  0.17475526484E+04  0.25500000000E-02 0. -1.
    8880023    1    1    2    0    0 -0.45299997427E+02  0.16530825236E+03 -0.23497956499E+03  0.72000313214E+03  0.65864270000E+03 0.  1.
    8880022    1    1    2    0    0  0.45299997427E+02 -0.16530825236E+03 -0.12596738954E+04  0.12804487041E+04  0.15294330000E+03 0.  0.
<mgrwt>
<rscale>  0 0.51875028E+03</rscale>
<asrwt>0</asrwt>
<pdfrwt beam="1">  1        2 0.26885425E+00 0.68057998E+03</pdfrwt>
<pdfrwt beam="2">  1       -2 0.38907568E-01 0.68057998E+03</pdfrwt>
<totfact> 0.59502092E+01</totfact>
</mgrwt>
</event>
<event>
 4    5  0.8511149E-008  0.7947745E+03  0.7818608E-02  0.9722211E-01
         -2   -1    0    0    0  501 -0.00000000000E+00  0.00000000000E+00  0.57322707426E+03  0.57322707426E+03  0.25500000000E-02 0.  1.
          2   -1    0    0  501    0  0.00000000000E+00 -0.00000000000E+00 -0.81816057799E+03  0.81816057800E+03  0.25500000000E-02 0. -1.
    8880023    1    1    2    0    0  0.23466612336E+03 -0.37787308560E+03  0.10970025388E+03  0.80230954764E+03  0.65864270000E+03 0.  0.
    8880022    1    1    2    0    0 -0.23466612336E+03  0.37787308560E+03 -0.35463375762E+03  0.58907810461E+03  0.15294330000E+03 0.  0.
<mgrwt>
<rscale>  0 0.69709638E+03</rscale>
<asrwt>0</asrwt>
<pdfrwt beam="1">  1        2 0.12587086E+00 0.79477447E+03</pdfrwt>
<pdfrwt beam="2">  1       -2 0.88188781E-01 0.79477447E+03</pdfrwt>
<totfact> 0.37402418E+01</totfact>
</mgrwt>
</event>
<event>
 4    5  0.8511149E-008  0.7118799E+03  0.7818608E-02  0.9951085E-01
         -2   -1    0    0    0  501 -0.00000000000E+00  0.00000000000E+00  0.17712158569E+04  0.17712158569E+04  0.25500000000E-02 0.  1.
          2   -1    0    0  501    0  0.00000000000E+00 -0.00000000000E+00 -0.15904908396E+03  0.15904908398E+03  0.25500000000E-02 0. -1.
    8880023    1    1    2    0    0  0.15785892203E+03  0.21918779641E+03  0.13403439602E+04  0.15176609857E+04  0.65864270000E+03 0.  1.
    8880022    1    1    2    0    0 -0.15785892203E+03 -0.21918779641E+03  0.27182281273E+03  0.41260395526E+03  0.15294330000E+03 0. -1.
<mgrwt>
<rscale>  0 0.57848082E+03</rscale>
<asrwt>0</asrwt>
<pdfrwt beam="1">  1        2 0.24469089E-01 0.71187986E+03</pdfrwt>
<pdfrwt beam="2">  1       -2 0.27249475E+00 0.71187986E+03</pdfrwt>
<totfact> 0.10887630E+01</totfact>
</mgrwt>
</event>
<event>
 4    5  0.8511149E-008  0.7581525E+03  0.7818608E-02  0.9809914E-01
         -2   -1    0    0    0  501 -0.00000000000E+00  0.00000000000E+00  0.13243632180E+04  0.13243632180E+04  0.25500000000E-02 0.  1.
          2   -1    0    0  501    0  0.00000000000E+00 -0.00000000000E+00 -0.50012447716E+03  0.50012447717E+03  0.25500000000E-02 0. -1.
    8880023    1    1    2    0    0  0.13635214191E+03 -0.34984730662E+03  0.10986986407E+04  0.13348909895E+04  0.65864270000E+03 0.  1.
    8880022    1    1    2    0    0 -0.13635214191E+03  0.34984730662E+03 -0.27445989985E+03  0.48959670566E+03  0.15294330000E+03 0.  0.
<mgrwt>
<rscale>  0 0.64833202E+03</rscale>
<asrwt>0</asrwt>
<pdfrwt beam="1">  1        2 0.76942227E-01 0.75815252E+03</pdfrwt>
<pdfrwt beam="2">  1       -2 0.20374819E+00 0.75815252E+03</pdfrwt>
<totfact> 0.78855573E+00</totfact>
</mgrwt>
</event>
<event>
 4    5  0.8511149E-008  0.8444241E+03  0.7818608E-02  0.9621894E-01
         -2   -1    0    0    0  501 -0.00000000000E+00  0.00000000000E+00  0.30139125703E+03  0.30139125704E+03  0.25500000000E-02 0.  1.
          2   -1    0    0  501    0  0.00000000000E+00 -0.00000000000E+00 -0.37400795656E+04  0.37400795656E+04  0.25500000000E-02 0. -1.
    8880023    1    1    2    0    0  0.49272408951E+03 -0.19095767694E+03 -0.36669105010E+03  0.92060545037E+03  0.65864270000E+03 0.  0.
    8880022    1    1    2    0    0 -0.49272408951E+03  0.19095767694E+03 -0.30719972584E+04  0.31208653722E+04  0.15294330000E+03 0.  0.
<mgrwt>
<rscale>  0 0.75863888E+03</rscale>
<asrwt>0</asrwt>
<pdfrwt beam="1">  1        2 0.57539682E+00 0.84442410E+03</pdfrwt>
<pdfrwt beam="2">  1       -2 0.46367888E-01 0.84442410E+03</pdfrwt>
<totfact> 0.25835544E+00</totfact>
</mgrwt>
</event>
<event>
 4    5  0.8511149E-008  0.7783229E+03  0.7818608E-02  0.9759791E-01
         -2   -1    0    0    0  501 -0.00000000000E+00  0.00000000000E+00  0.90213051830E+03  0.90213051831E+03  0.25500000000E-02 0.  1.
          2   -1    0    0  501    0  0.00000000000E+00 -0.00000000000E+00 -0.20045231387E+04  0.20045231387E+04  0.25500000000E-02 0. -1.
    8880023    1    1    2    0    0  0.41697530038E+02 -0.41259872093E+03  0.70247293033E+03  0.10484535338E+04  0.65864270000E+03 0.  1.
    8880022    1    1    2    0    0 -0.41697530038E+02  0.41259872093E+03 -0.18048655508E+04  0.18582001232E+04  0.15294330000E+03 0.  0.
<mgrwt>
<rscale>  0 0.67565744E+03</rscale>
<asrwt>0</asrwt>
<pdfrwt beam="1">  1        2 0.30838817E+00 0.77832294E+03</pdfrwt>
<pdfrwt beam="2">  1       -2 0.13878931E+00 0.77832294E+03</pdfrwt>
<totfact> 0.25188010E+00</totfact>
</mgrwt>
</event>
<event>
 4    5  0.8511149E-008  0.1149063E+04  0.7818608E-02  0.9208301E-01
         -2   -1    0    0    0  501 -0.00000000000E+00  0.00000000000E+00  0.13156513515E+04  0.13156513515E+04  0.25500000000E-02 0.  1.
          2   -1    0    0  501    0  0.00000000000E+00 -0.00000000000E+00 -0.99987452225E+03  0.99987452226E+03  0.25500000000E-02 0. -1.
    8880023    1    1    2    0    0  0.78054449426E+03 -0.52657869168E+03 -0.29055883371E+03  0.11852297111E+04  0.65864270000E+03 0.  0.
    8880022    1    1    2    0    0 -0.78054449426E+03  0.52657869168E+03  0.60633566293E+03  0.11302961626E+04  0.15294330000E+03 0.  0.
<mgrwt>
<rscale>  0 0.10968155E+04</rscale>
<asrwt>0</asrwt>
<pdfrwt beam="1">  1        2 0.15382685E+00 0.11490627E+04</pdfrwt>
<pdfrwt beam="2">  1       -2 0.20240790E+00 0.11490627E+04</pdfrwt>
<totfact> 0.31576901E+00</totfact>
</mgrwt>
</event>
<event>
 4    5  0.8511149E-008  0.9763877E+03  0.7818608E-02  0.9413123E-01
         -2   -1    0    0    0  501 -0.00000000000E+00  0.00000000000E+00  0.14309607101E+04  0.14309607101E+04  0.25500000000E-02 0.  1.
          2   -1    0    0  501    0  0.00000000000E+00 -0.00000000000E+00 -0.67980328762E+03  0.67980328763E+03  0.25500000000E-02 0. -1.
    8880023    1    1    2    0    0 -0.47905321633E+03 -0.53854504262E+03  0.93443862470E+03  0.13514838129E+04  0.65864270000E+03 0.  0.
    8880022    1    1    2    0    0  0.47905321633E+03  0.53854504262E+03 -0.18328120219E+03  0.75928018484E+03  0.15294330000E+03 0.  0.
<mgrwt>
<rscale>  0 0.91003511E+03</rscale>
<asrwt>0</asrwt>
<pdfrwt beam="1">  1        2 0.10458512E+00 0.97638771E+03</pdfrwt>
<pdfrwt beam="2">  1       -2 0.22014780E+00 0.97638771E+03</pdfrwt>
<totfact> 0.41826413E+00</totfact>
</mgrwt>
</event>
<event>
 4    5  0.8511149E-008  0.7638296E+03  0.7818608E-02  0.9795292E-01
         -2   -1    0    0    0  501 -0.00000000000E+00  0.00000000000E+00  0.54218776399E+03  0.54218776399E+03  0.25500000000E-02 0.  1.
          2   -1    0    0  501    0  0.00000000000E+00 -0.00000000000E+00 -0.18701132917E+04  0.18701132917E+04  0.25500000000E-02 0. -1.
    8880023    1    1    2    0    0 -0.38507998403E+03 -0.36591016198E+02  0.23167007943E+03  0.79818965700E+03  0.65864270000E+03 0.  1.
    8880022    1    1    2    0    0  0.38507998403E+03  0.36591016198E+02 -0.15595956071E+04  0.16141113987E+04  0.15294330000E+03 0.  0.
<mgrwt>
<rscale>  0 0.65615814E+03</rscale>
<asrwt>0</asrwt>
<pdfrwt beam="1">  1        2 0.28770973E+00 0.76382963E+03</pdfrwt>
<pdfrwt beam="2">  1       -2 0.83413503E-01 0.76382963E+03</pdfrwt>
<totfact> 0.10222022E+01</totfact>
</mgrwt>
</event>
<event>
 4    5  0.8511149E-008  0.1057518E+04  0.7818608E-02  0.9309898E-01
         -2   -1    0    0    0  501 -0.00000000000E+00  0.00000000000E+00  0.20978405627E+04  0.20978405627E+04  0.25500000000E-02 0.  1.
          2   -1    0    0  501    0  0.00000000000E+00 -0.00000000000E+00 -0.68839656380E+03  0.68839656380E+03  0.25500000000E-02 0. -1.
    8880023    1    1    2    0    0 -0.57417769266E+02  0.82537039507E+03  0.16053331160E+04  0.19223521292E+04  0.65864270000E+03 0.  1.
    8880022    1    1    2    0    0  0.57417769266E+02 -0.82537039507E+03 -0.19588911707E+03  0.86388499726E+03  0.15294330000E+03 0.  0.
<mgrwt>
<rscale>  0 0.99876672E+03</rscale>
<asrwt>0</asrwt>
<pdfrwt beam="1">  1        2 0.10590717E+00 0.10575175E+04</pdfrwt>
<pdfrwt beam="2">  1       -2 0.32274470E+00 0.10575175E+04</pdfrwt>
<totfact> 0.96476736E-01</totfact>
</mgrwt>
</event>
<event>
 4    5  0.8511149E-008  0.1152942E+04  0.7818608E-02  0.9204281E-01
         -2   -1    0    0    0  501 -0.00000000000E+00  0.00000000000E+00  0.85041740154E+03  0.85041740155E+03  0.25500000000E-02 0.  1.
          2   -1    0    0  501    0  0.00000000000E+00 -0.00000000000E+00 -0.33483241500E+04  0.33483241500E+04  0.25500000000E-02 0. -1.
    8880023    1    1    2    0    0  0.70816194567E+03  0.62767185269E+03  0.34104550338E+03  0.12023258866E+04  0.65864270000E+03 0.  1.
    8880022    1    1    2    0    0 -0.70816194567E+03 -0.62767185269E+03 -0.28389522519E+04  0.29964156650E+04  0.15294330000E+03 0.  0.
<mgrwt>
<rscale>  0 0.11009348E+04</rscale>
<asrwt>0</asrwt>
<pdfrwt beam="1">  1        2 0.51512678E+00 0.11529421E+04</pdfrwt>
<pdfrwt beam="2">  1       -2 0.13083345E+00 0.11529421E+04</pdfrwt>
<totfact> 0.44194001E-01</totfact>
</mgrwt>
</event>
<event>
 4    5  0.8511149E-008  0.1158960E+04  0.7818608E-02  0.9198087E-01
          2   -1    0    0  501    0  0.00000000000E+00  0.00000000000E+00  0.20316864791E+04  0.20316864791E+04  0.25500000000E-02 0. -1.
         -2   -1    0    0    0  501 -0.00000000000E+00 -0.00000000000E+00 -0.88065850294E+03  0.88065850295E+03  0.25500000000E-02 0.  1.
    8880023    1    1    2    0    0 -0.44642601644E+03 -0.84266323800E+03 -0.27396394495E+03  0.11909004871E+04  0.65864270000E+03 0.  0.
    8880022    1    1    2    0    0  0.44642601644E+03  0.84266323800E+03  0.14249919211E+04  0.17214444949E+04  0.15294330000E+03 0.  0.
<mgrwt>
<rscale>  0 0.11073197E+04</rscale>
<asrwt>0</asrwt>
<pdfrwt beam="1">  1        2 0.31256715E+00 0.11589598E+04</pdfrwt>
<pdfrwt beam="2">  1       -2 0.13548593E+00 0.11589598E+04</pdfrwt>
<totfact> 0.24558254E+00</totfact>
</mgrwt>
</event>
<event>
 4    5  0.8511149E-008  0.1362847E+04  0.7818608E-02  0.9013103E-01
          2   -1    0    0  501    0  0.00000000000E+00  0.00000000000E+00  0.14089413737E+04  0.14089413737E+04  0.25500000000E-02 0. -1.
         -2   -1    0    0    0  501 -0.00000000000E+00 -0.00000000000E+00 -0.15152938596E+04  0.15152938596E+04  0.25500000000E-02 0.  1.
    8880023    1    1    2    0    0 -0.11930972112E+04  0.78248308083E+01 -0.75458392521E+03  0.15578027121E+04  0.65864270000E+03 0.  0.
    8880022    1    1    2    0    0  0.11930972112E+04 -0.78248308083E+01  0.64823143937E+03  0.13664325213E+04  0.15294330000E+03 0.  0.
<mgrwt>
<rscale>  0 0.13209654E+04</rscale>
<asrwt>0</asrwt>
<pdfrwt beam="1">  1        2 0.21676021E+00 0.13628472E+04</pdfrwt>
<pdfrwt beam="2">  1       -2 0.23312213E+00 0.13628472E+04</pdfrwt>
<totfact> 0.11153796E+00</totfact>
</mgrwt>
</event>
<event>
 4    5  0.8511149E-008  0.7074371E+03  0.7818608E-02  0.9967644E-01
         -2   -1    0    0    0  501 -0.00000000000E+00  0.00000000000E+00  0.11414775727E+04  0.11414775727E+04  0.25500000000E-02 0.  1.
          2   -1    0    0  501    0  0.00000000000E+00 -0.00000000000E+00 -0.27175100331E+04  0.27175100331E+04  0.25500000000E-02 0. -1.
    8880023    1    1    2    0    0  0.81373386056E+02 -0.24502123390E+03  0.10223974927E+04  0.12432875260E+04  0.65864270000E+03 0.  1.
    8880022    1    1    2    0    0 -0.81373386056E+02  0.24502123390E+03 -0.25984299531E+04  0.26157000797E+04  0.15294330000E+03 0.  0.
<mgrwt>
<rscale>  0 0.57092038E+03</rscale>
<asrwt>0</asrwt>
<pdfrwt beam="1">  1        2 0.41807847E+00 0.70743709E+03</pdfrwt>
<pdfrwt beam="2">  1       -2 0.17561193E+00 0.70743709E+03</pdfrwt>
<totfact> 0.54117512E-01</totfact>
</mgrwt>
</event>
<event>
 4    5  0.8511149E-008  0.8538213E+03  0.7818608E-02  0.9604650E-01
         -2   -1    0    0    0  501 -0.00000000000E+00  0.00000000000E+00  0.34753260180E+03  0.34753260181E+03  0.25500000000E-02 0.  1.
          2   -1    0    0  501    0  0.00000000000E+00 -0.00000000000E+00 -0.19738043226E+04  0.19738043226E+04  0.25500000000E-02 0. -1.
    8880023    1    1    2    0    0  0.45668038067E+02 -0.54140095359E+03 -0.34433573222E+03  0.92063992146E+03  0.65864270000E+03 0.  1.
    8880022    1    1    2    0    0 -0.45668038067E+02  0.54140095359E+03 -0.12819359886E+04  0.14006970030E+04  0.15294330000E+03 0.  0.
<mgrwt>
<rscale>  0 0.76989168E+03</rscale>
<asrwt>0</asrwt>
<pdfrwt beam="1">  1        2 0.30366220E+00 0.85382127E+03</pdfrwt>
<pdfrwt beam="2">  1       -2 0.53466555E-01 0.85382127E+03</pdfrwt>
<totfact> 0.23224549E+01</totfact>
</mgrwt>
</event>
<event>
 4    5  0.8511149E-008  0.9894008E+03  0.7818608E-02  0.9395558E-01
         -2   -1    0    0    0  501 -0.00000000000E+00  0.00000000000E+00  0.85530405167E+03  0.85530405167E+03  0.25500000000E-02 0.  1.
          2   -1    0    0  501    0  0.00000000000E+00 -0.00000000000E+00 -0.14130876634E+04  0.14130876634E+04  0.25500000000E-02 0. -1.
    8880023    1    1    2    0    0  0.86087899675E+02 -0.73327524827E+03  0.38458182524E+03  0.10615164166E+04  0.65864270000E+03 0.  1.
    8880022    1    1    2    0    0 -0.86087899675E+02  0.73327524827E+03 -0.94236543693E+03  0.12068752984E+04  0.15294330000E+03 0.  0.
<mgrwt>
<rscale>  0 0.92442154E+03</rscale>
<asrwt>0</asrwt>
<pdfrwt beam="1">  1        2 0.21739810E+00 0.98940079E+03</pdfrwt>
<pdfrwt beam="2">  1       -2 0.13158524E+00 0.98940079E+03</pdfrwt>
<totfact> 0.59539188E+00</totfact>
</mgrwt>
</event>
<event>
 4    5  0.8511149E-008  0.7058008E+03  0.7818608E-02  0.9973938E-01
          2   -1    0    0  501    0  0.00000000000E+00  0.00000000000E+00  0.15156958325E+04  0.15156958325E+04  0.25500000000E-02 0. -1.
         -2   -1    0    0    0  501 -0.00000000000E+00 -0.00000000000E+00 -0.12109016314E+04  0.12109016314E+04  0.25500000000E-02 0.  1.
    8880023    1    1    2    0    0  0.18156995510E+03  0.17713547941E+03 -0.10911772914E+04  0.12995471188E+04  0.65864270000E+03 0.  1.
    8880022    1    1    2    0    0 -0.18156995510E+03 -0.17713547941E+03  0.13959714925E+04  0.14270503451E+04  0.15294330000E+03 0.  0.
<mgrwt>
<rscale>  0 0.56807939E+03</rscale>
<asrwt>0</asrwt>
<pdfrwt beam="1">  1        2 0.23318398E+00 0.70580085E+03</pdfrwt>
<pdfrwt beam="2">  1       -2 0.18629256E+00 0.70580085E+03</pdfrwt>
<totfact> 0.21214982E+00</totfact>
</mgrwt>
</event>
<event>
 4    5  0.8511149E-008  0.7696819E+03  0.7818608E-02  0.9780657E-01
         -2   -1    0    0    0  501 -0.00000000000E+00  0.00000000000E+00  0.32006720196E+03  0.32006720197E+03  0.25500000000E-02 0.  1.
          2   -1    0    0  501    0  0.00000000000E+00 -0.00000000000E+00 -0.19111942443E+04  0.19111942443E+04  0.25500000000E-02 0. -1.
    8880023    1    1    2    0    0 -0.39743984483E+03  0.25329821103E+02 -0.22770679116E+03  0.80265846977E+03  0.65864270000E+03 0.  0.
    8880022    1    1    2    0    0  0.39743984483E+03 -0.25329821103E+02 -0.13634202511E+04  0.14286029765E+04  0.15294330000E+03 0.  0.
<mgrwt>
<rscale>  0 0.66410982E+03</rscale>
<asrwt>0</asrwt>
<pdfrwt beam="1">  1        2 0.29402988E+00 0.76968191E+03</pdfrwt>
<pdfrwt beam="2">  1       -2 0.49241109E-01 0.76968191E+03</pdfrwt>
<totfact> 0.30049562E+01</totfact>
</mgrwt>
</event>
<event>
 4    5  0.8511149E-008  0.1093054E+04  0.7818608E-02  0.9268829E-01
          2   -1    0    0  501    0  0.00000000000E+00  0.00000000000E+00  0.15437371916E+04  0.15437371916E+04  0.25500000000E-02 0. -1.
         -2   -1    0    0    0  501 -0.00000000000E+00 -0.00000000000E+00 -0.78740649096E+03  0.78740649096E+03  0.25500000000E-02 0.  1.
    8880023    1    1    2    0    0  0.79749457641E+03  0.35349717076E+03 -0.10202437909E+03  0.10978055517E+04  0.65864270000E+03 0.  1.
    8880022    1    1    2    0    0 -0.79749457641E+03 -0.35349717076E+03  0.85835507971E+03  0.12333381309E+04  0.15294330000E+03 0.  0.
<mgrwt>
<rscale>  0 0.10370389E+04</rscale>
<asrwt>0</asrwt>
<pdfrwt beam="1">  1        2 0.23749803E+00 0.10930545E+04</pdfrwt>
<pdfrwt beam="2">  1       -2 0.12113946E+00 0.10930545E+04</pdfrwt>
<totfact> 0.61250541E+00</totfact>
</mgrwt>
</event>
<event>
 4    5  0.8511149E-008  0.6744599E+03  0.7818608E-02  0.1012649E+00
         -2   -1    0    0    0  501 -0.00000000000E+00  0.00000000000E+00  0.38510636444E+03  0.38510636445E+03  0.25500000000E-02 0.  1.
          2   -1    0    0  501    0  0.00000000000E+00 -0.00000000000E+00 -0.76238607292E+03  0.76238607292E+03  0.25500000000E-02 0. -1.
    8880023    1    1    2    0    0  0.13820200387E+03 -0.44565646680E+02  0.44498859230E+02  0.67592621304E+03  0.65864270000E+03 0.  1.
    8880022    1    1    2    0    0 -0.13820200387E+03  0.44565646680E+02 -0.42177856771E+03  0.47156622433E+03  0.15294330000E+03 0.  0.
<mgrwt>
<rscale>  0 0.50435308E+03</rscale>
<asrwt>0</asrwt>
<pdfrwt beam="1">  1        2 0.11729016E+00 0.67445986E+03</pdfrwt>
<pdfrwt beam="2">  1       -2 0.59247133E-01 0.67445986E+03</pdfrwt>
<totfact> 0.99339710E+01</totfact>
</mgrwt>
</event>
<event>
 4    5  0.8511149E-008  0.9703500E+03  0.7818608E-02  0.9421420E-01
          2   -1    0    0  501    0  0.00000000000E+00  0.00000000000E+00  0.16637207796E+04  0.16637207796E+04  0.25500000000E-02 0. -1.
         -2   -1    0    0    0  501 -0.00000000000E+00 -0.00000000000E+00 -0.16853062191E+04  0.16853062191E+04  0.25500000000E-02 0.  1.
    8880023    1    1    2    0    0 -0.47474442423E+03  0.53140061410E+03 -0.14504061729E+04  0.17450665184E+04  0.65864270000E+03 0.  1.
    8880022    1    1    2    0    0  0.47474442423E+03 -0.53140061410E+03  0.14288207335E+04  0.16039604803E+04  0.15294330000E+03 0.  0.
<mgrwt>
<rscale>  0 0.90333643E+03</rscale>
<asrwt>0</asrwt>
<pdfrwt beam="1">  1        2 0.25595704E+00 0.97034998E+03</pdfrwt>
<pdfrwt beam="2">  1       -2 0.25927788E+00 0.97034998E+03</pdfrwt>
<totfact> 0.58230304E-01</totfact>
</mgrwt>
</event>
<event>
 4    5  0.8511149E-008  0.7692381E+03  0.7818608E-02  0.9781752E-01
         -2   -1    0    0    0  501 -0.00000000000E+00  0.00000000000E+00  0.86162493931E+03  0.86162493931E+03  0.25500000000E-02 0.  1.
          2   -1    0    0  501    0  0.00000000000E+00 -0.00000000000E+00 -0.77108390294E+03  0.77108390295E+03  0.25500000000E-02 0. -1.
    8880023    1    1    2    0    0  0.33696441868E+03 -0.21064685425E+03  0.59504995804E+03  0.97252854739E+03  0.65864270000E+03 0.  1.
    8880022    1    1    2    0    0 -0.33696441868E+03  0.21064685425E+03 -0.50450892168E+03  0.66018029487E+03  0.15294330000E+03 0.  0.
<mgrwt>
<rscale>  0 0.66351074E+03</rscale>
<asrwt>0</asrwt>
<pdfrwt beam="1">  1        2 0.11862829E+00 0.76923814E+03</pdfrwt>
<pdfrwt beam="2">  1       -2 0.13255768E+00 0.76923814E+03</pdfrwt>
<totfact> 0.15141429E+01</totfact>
</mgrwt>
</event>
<event>
 4    5  0.8511149E-008  0.7058251E+03  0.7818608E-02  0.9973843E-01
          2   -1    0    0  501    0  0.00000000000E+00  0.00000000000E+00  0.15585578479E+04  0.15585578479E+04  0.25500000000E-02 0. -1.
         -2   -1    0    0    0  501 -0.00000000000E+00 -0.00000000000E+00 -0.21125398462E+03  0.21125398464E+03  0.25500000000E-02 0.  1.
    8880023    1    1    2    0    0  0.17472830734E+03  0.18398080947E+03  0.48070454810E+03  0.85397071874E+03  0.65864270000E+03 0.  1.
    8880022    1    1    2    0    0 -0.17472830734E+03 -0.18398080947E+03  0.86659931522E+03  0.91584111383E+03  0.15294330000E+03 0.  0.
<mgrwt>
<rscale>  0 0.56812180E+03</rscale>
<asrwt>0</asrwt>
<pdfrwt beam="1">  1        2 0.23977813E+00 0.70582514E+03</pdfrwt>
<pdfrwt beam="2">  1       -2 0.32500613E-01 0.70582514E+03</pdfrwt>
<totfact> 0.10614816E+02</totfact>
</mgrwt>
</event>
<event>
 4    5  0.8511149E-008  0.7732157E+03  0.7818608E-02  0.9772022E-01
          2   -1    0    0  501    0  0.00000000000E+00  0.00000000000E+00  0.30559587420E+04  0.30559587420E+04  0.25500000000E-02 0. -1.
         -2   -1    0    0    0  501 -0.00000000000E+00 -0.00000000000E+00 -0.30432578435E+03  0.30432578436E+03  0.25500000000E-02 0.  1.
    8880023    1    1    2    0    0  0.17997592727E+03  0.36285119139E+03  0.23709972377E+03  0.80875138749E+03  0.65864270000E+03 0.  1.
    8880022    1    1    2    0    0 -0.17997592727E+03 -0.36285119139E+03  0.25145332339E+04  0.25515331389E+04  0.15294330000E+03 0.  0.
<mgrwt>
<rscale>  0 0.66885879E+03</rscale>
<asrwt>0</asrwt>
<pdfrwt beam="1">  1        2 0.47014752E+00 0.77321571E+03</pdfrwt>
<pdfrwt beam="2">  1       -2 0.46819349E-01 0.77321571E+03</pdfrwt>
<totfact> 0.73718100E+00</totfact>
</mgrwt>
</event>
<event>
 4    5  0.8511149E-008  0.7096579E+03  0.7818608E-02  0.9959274E-01
          2   -1    0    0  501    0  0.00000000000E+00  0.00000000000E+00  0.11214769309E+04  0.11214769309E+04  0.25500000000E-02 0. -1.
         -2   -1    0    0    0  501 -0.00000000000E+00 -0.00000000000E+00 -0.99078305502E+03  0.99078305502E+03  0.25500000000E-02 0.  1.
    8880023    1    1    2    0    0  0.43603494798E+01  0.26416868819E+03 -0.83711747845E+03  0.10974424757E+04  0.65864270000E+03 0.  1.
    8880022    1    1    2    0    0 -0.43603494798E+01 -0.26416868819E+03  0.96781135430E+03  0.10148175102E+04  0.15294330000E+03 0.  0.
<mgrwt>
<rscale>  0 0.57472660E+03</rscale>
<asrwt>0</asrwt>
<pdfrwt beam="1">  1        2 0.17253491E+00 0.70965789E+03</pdfrwt>
<pdfrwt beam="2">  1       -2 0.15242816E+00 0.70965789E+03</pdfrwt>
<totfact> 0.62247225E+00</totfact>
</mgrwt>
</event>
<event>
 4    5  0.8511149E-008  0.7435221E+03  0.7818608E-02  0.9849804E-01
          2   -1    0    0  501    0  0.00000000000E+00  0.00000000000E+00  0.20096573240E+04  0.20096573240E+04  0.25500000000E-02 0. -1.
         -2   -1    0    0    0  501 -0.00000000000E+00 -0.00000000000E+00 -0.16318169176E+03  0.16318169178E+03  0.25500000000E-02 0.  1.
    8880023    1    1    2    0    0  0.26470621214E+03 -0.22123649441E+03  0.10006188929E+04  0.12466207684E+04  0.65864270000E+03 0.  1.
    8880022    1    1    2    0    0 -0.26470621214E+03  0.22123649441E+03  0.84585673936E+03  0.92621824736E+03  0.15294330000E+03 0. -1.
<mgrwt>
<rscale>  0 0.62756931E+03</rscale>
<asrwt>0</asrwt>
<pdfrwt beam="1">  1        2 0.30917806E+00 0.74352214E+03</pdfrwt>
<pdfrwt beam="2">  1       -2 0.25104875E-01 0.74352214E+03</pdfrwt>
<totfact> 0.96440046E+01</totfact>
</mgrwt>
</event>
<event>
 4    5  0.8511149E-008  0.6702248E+03  0.7818608E-02  0.1015502E+00
         -2   -1    0    0    0  501 -0.00000000000E+00  0.00000000000E+00  0.58734871312E+03  0.58734871313E+03  0.25500000000E-02 0.  1.
          2   -1    0    0  501    0  0.00000000000E+00 -0.00000000000E+00 -0.52605602543E+03  0.52605602544E+03  0.25500000000E-02 0. -1.
    8880023    1    1    2    0    0 -0.12044332153E+03  0.29740140071E+02  0.35603765461E+03  0.75892297857E+03  0.65864270000E+03 0.  1.
    8880022    1    1    2    0    0  0.12044332153E+03 -0.29740140071E+02 -0.29474496692E+03  0.35448176000E+03  0.15294330000E+03 0.  0.
<mgrwt>
<rscale>  0 0.49345227E+03</rscale>
<asrwt>0</asrwt>
<pdfrwt beam="1">  1        2 0.80931697E-01 0.67022480E+03</pdfrwt>
<pdfrwt beam="2">  1       -2 0.90361340E-01 0.67022480E+03</pdfrwt>
<totfact> 0.61795821E+01</totfact>
</mgrwt>
</event>
<event>
 4    5  0.8511149E-008  0.9543944E+03  0.7818608E-02  0.9443820E-01
         -2   -1    0    0    0  501 -0.00000000000E+00  0.00000000000E+00  0.13272852962E+04  0.13272852962E+04  0.25500000000E-02 0.  1.
          2   -1    0    0  501    0  0.00000000000E+00 -0.00000000000E+00 -0.21693668097E+04  0.21693668097E+04  0.25500000000E-02 0. -1.
    8880023    1    1    2    0    0  0.54295033921E+03 -0.42692311611E+03  0.10842913112E+04  0.14444917001E+04  0.65864270000E+03 0.  1.
    8880022    1    1    2    0    0 -0.54295033921E+03  0.42692311611E+03 -0.19263728247E+04  0.20521604057E+04  0.15294330000E+03 0.  0.
<mgrwt>
<rscale>  0 0.88555593E+03</rscale>
<asrwt>0</asrwt>
<pdfrwt beam="1">  1        2 0.33374874E+00 0.95439438E+03</pdfrwt>
<pdfrwt beam="2">  1       -2 0.20419774E+00 0.95439438E+03</pdfrwt>
<totfact> 0.67674254E-01</totfact>
</mgrwt>
</event>
<event>
 4    5  0.8511149E-008  0.1761779E+04  0.7818608E-02  0.8743979E-01
          2   -1    0    0  501    0  0.00000000000E+00  0.00000000000E+00  0.37651859891E+04  0.37651859891E+04  0.25500000000E-02 0. -1.
         -2   -1    0    0    0  501 -0.00000000000E+00 -0.00000000000E+00 -0.12459036186E+04  0.12459036186E+04  0.25500000000E-02 0.  1.
    8880023    1    1    2    0    0  0.14104238132E+04  0.82508096048E+03 -0.26253873161E+03  0.17812329202E+04  0.65864270000E+03 0.  0.
    8880022    1    1    2    0    0 -0.14104238132E+04 -0.82508096048E+03  0.27818211022E+04  0.32298566875E+04  0.15294330000E+03 0.  0.
<mgrwt>
<rscale>  0 0.17308205E+04</rscale>
<asrwt>0</asrwt>
<pdfrwt beam="1">  1        2 0.57925938E+00 0.17617787E+04</pdfrwt>
<pdfrwt beam="2">  1       -2 0.19167748E+00 0.17617787E+04</pdfrwt>
<totfact> 0.72550060E-02</totfact>
</mgrwt>
</event>
<event>
 4    5  0.8511149E-008  0.9540461E+03  0.7818608E-02  0.9444316E-01
          2   -1    0    0  501    0  0.00000000000E+00  0.00000000000E+00  0.80391537018E+03  0.80391537018E+03  0.25500000000E-02 0. -1.
         -2   -1    0    0    0  501 -0.00000000000E+00 -0.00000000000E+00 -0.13399379708E+04  0.13399379708E+04  0.25500000000E-02 0.  1.
    8880023    1    1    2    0    0 -0.55730403234E+03  0.40719268733E+03 -0.93185507992E+03  0.13336257966E+04  0.65864270000E+03 0.  1.
    8880022    1    1    2    0    0  0.55730403234E+03 -0.40719268733E+03  0.39583247927E+03  0.81022754442E+03  0.15294330000E+03 0.  0.
<mgrwt>
<rscale>  0 0.88516644E+03</rscale>
<asrwt>0</asrwt>
<pdfrwt beam="1">  1        2 0.12367929E+00 0.95404606E+03</pdfrwt>
<pdfrwt beam="2">  1       -2 0.20614430E+00 0.95404606E+03</pdfrwt>
<totfact> 0.41418532E+00</totfact>
</mgrwt>
</event>
<event>
 4    5  0.8511149E-008  0.7360477E+03  0.7818608E-02  0.9871613E-01
         -2   -1    0    0    0  501 -0.00000000000E+00  0.00000000000E+00  0.56105435877E+03  0.56105435878E+03  0.25500000000E-02 0.  1.
          2   -1    0    0  501    0  0.00000000000E+00 -0.00000000000E+00 -0.19264482552E+04  0.19264482552E+04  0.25500000000E-02 0. -1.
    8880023    1    1    2    0    0  0.31935560701E+03 -0.77252555117E+02  0.29132675370E+03  0.79160434858E+03  0.65864270000E+03 0.  1.
    8880022    1    1    2    0    0 -0.31935560701E+03  0.77252555117E+02 -0.16567206502E+04  0.16958982654E+04  0.15294330000E+03 0.  0.
<mgrwt>
<rscale>  0 0.61656977E+03</rscale>
<asrwt>0</asrwt>
<pdfrwt beam="1">  1        2 0.29637665E+00 0.73604767E+03</pdfrwt>
<pdfrwt beam="2">  1       -2 0.86316056E-01 0.73604767E+03</pdfrwt>
<totfact> 0.88474117E+00</totfact>
</mgrwt>
</event>
<event>
 4    5  0.8511149E-008  0.1455731E+04  0.7818608E-02  0.8941545E-01
          2   -1    0    0  501    0  0.00000000000E+00  0.00000000000E+00  0.17072099022E+04  0.17072099022E+04  0.25500000000E-02 0. -1.
         -2   -1    0    0    0  501 -0.00000000000E+00 -0.00000000000E+00 -0.13362292058E+04  0.13362292058E+04  0.25500000000E-02 0.  1.
    8880023    1    1    2    0    0 -0.12628238574E+04  0.30103131911E+03  0.80824595886E+03  0.16650572622E+04  0.65864270000E+03 0.  0.
    8880022    1    1    2    0    0  0.12628238574E+04 -0.30103131911E+03 -0.43726526249E+03  0.13783818458E+04  0.15294330000E+03 0.  0.
<mgrwt>
<rscale>  0 0.14170831E+04</rscale>
<asrwt>0</asrwt>
<pdfrwt beam="1">  1        2 0.26264768E+00 0.14557315E+04</pdfrwt>
<pdfrwt beam="2">  1       -2 0.20557372E+00 0.14557315E+04</pdfrwt>
<totfact> 0.11221927E+00</totfact>
</mgrwt>
</event>
<event>
 4    5  0.8511149E-008  0.1460823E+04  0.7818608E-02  0.8937807E-01
         -2   -1    0    0    0  501 -0.00000000000E+00  0.00000000000E+00  0.97438056167E+03  0.97438056167E+03  0.25500000000E-02 0.  1.
          2   -1    0    0  501    0  0.00000000000E+00 -0.00000000000E+00 -0.29914321626E+04  0.29914321626E+04  0.25500000000E-02 0. -1.
    8880023    1    1    2    0    0  0.13002791224E+04  0.97303726843E+02  0.11136765634E+03  0.14650620371E+04  0.65864270000E+03 0.  1.
    8880022    1    1    2    0    0 -0.13002791224E+04 -0.97303726843E+02 -0.21284192572E+04  0.25007506871E+04  0.15294330000E+03 0.  0.
<mgrwt>
<rscale>  0 0.14223364E+04</rscale>
<asrwt>0</asrwt>
<pdfrwt beam="1">  1        2 0.46022033E+00 0.14608231E+04</pdfrwt>
<pdfrwt beam="2">  1       -2 0.14990470E+00 0.14608231E+04</pdfrwt>
<totfact> 0.50368945E-01</totfact>
</mgrwt>
</event>
<event>
 4    5  0.8511149E-008  0.1285710E+04  0.7818608E-02  0.9077999E-01
          2   -1    0    0  501    0  0.00000000000E+00  0.00000000000E+00  0.18833606911E+04  0.18833606911E+04  0.25500000000E-02 0. -1.
         -2   -1    0    0    0  501 -0.00000000000E+00 -0.00000000000E+00 -0.12737608417E+04  0.12737608417E+04  0.25500000000E-02 0.  1.
    8880023    1    1    2    0    0 -0.82617838892E+03  0.73257707779E+03 -0.67840746577E+03  0.14537148280E+04  0.65864270000E+03 0.  0.
    8880022    1    1    2    0    0  0.82617838892E+03 -0.73257707779E+03  0.12880073152E+04  0.17034067049E+04  0.15294330000E+03 0.  0.
<mgrwt>
<rscale>  0 0.12406522E+04</rscale>
<asrwt>0</asrwt>
<pdfrwt beam="1">  1        2 0.28974779E+00 0.12857100E+04</pdfrwt>
<pdfrwt beam="2">  1       -2 0.19596321E+00 0.12857100E+04</pdfrwt>
<totfact> 0.10542978E+00</totfact>
</mgrwt>
</event>
<event>
 4    5  0.8511149E-008  0.1220428E+04  0.7818608E-02  0.9137516E-01
         -2   -1    0    0    0  501 -0.00000000000E+00  0.00000000000E+00  0.96259476402E+03  0.96259476402E+03  0.25500000000E-02 0.  1.
          2   -1    0    0  501    0  0.00000000000E+00 -0.00000000000E+00 -0.22277571755E+04  0.22277571755E+04  0.25500000000E-02 0. -1.
    8880023    1    1    2    0    0 -0.95259485229E+03 -0.38496503921E+03  0.35033083452E+03  0.12697152964E+04  0.65864270000E+03 0.  1.
    8880022    1    1    2    0    0  0.95259485229E+03  0.38496503921E+03 -0.16154932460E+04  0.19206366431E+04  0.15294330000E+03 0.  0.
<mgrwt>
<rscale>  0 0.11722311E+04</rscale>
<asrwt>0</asrwt>
<pdfrwt beam="1">  1        2 0.34273187E+00 0.12204283E+04</pdfrwt>
<pdfrwt beam="2">  1       -2 0.14809150E+00 0.12204283E+04</pdfrwt>
<totfact> 0.15018964E+00</totfact>
</mgrwt>
</event>
<event>
 4    5  0.1083159E-007  0.1150231E+04  0.7818608E-02  0.9207088E-01
          2   -1    0    0  501    0  0.00000000000E+00  0.00000000000E+00  0.23287510147E+04  0.23287510147E+04  0.25500000000E-02 0. -1.
         -2   -1    0    0    0  501 -0.00000000000E+00 -0.00000000000E+00 -0.14290227669E+04  0.14290227669E+04  0.25500000000E-02 0.  1.
    8880023    1    1    2    0    0  0.71820389089E+02  0.94024652724E+03 -0.10685091653E+04  0.15699502358E+04  0.65864270000E+03 0.  1.
    8880022    1    1    2    0    0 -0.71820389089E+02 -0.94024652724E+03  0.19682374131E+04  0.21878235458E+04  0.15294330000E+03 0.  0.
<mgrwt>
<rscale>  0 0.10980566E+04</rscale>
<asrwt>0</asrwt>
<pdfrwt beam="1">  1        2 0.35826938E+00 0.11502312E+04</pdfrwt>
<pdfrwt beam="2">  1       -2 0.21984966E+00 0.11502312E+04</pdfrwt>
<totfact> 0.42438712E-01</totfact>
</mgrwt>
</event>
<event>
 4    5  0.8511149E-008  0.1126051E+04  0.7818608E-02  0.9232591E-01
         -2   -1    0    0    0  501 -0.00000000000E+00  0.00000000000E+00  0.53726598750E+03  0.53726598750E+03  0.25500000000E-02 0.  1.
          2   -1    0    0  501    0  0.00000000000E+00 -0.00000000000E+00 -0.28548978622E+04  0.28548978622E+04  0.25500000000E-02 0. -1.
    8880023    1    1    2    0    0 -0.73325600198E+03 -0.54453341490E+03 -0.28958439302E+03  0.11626909870E+04  0.65864270000E+03 0.  0.
    8880022    1    1    2    0    0  0.73325600198E+03  0.54453341490E+03 -0.20280474817E+04  0.22294728627E+04  0.15294330000E+03 0.  0.
<mgrwt>
<rscale>  0 0.10723275E+04</rscale>
<asrwt>0</asrwt>
<pdfrwt beam="1">  1        2 0.43921505E+00 0.11260512E+04</pdfrwt>
<pdfrwt beam="2">  1       -2 0.82656307E-01 0.11260512E+04</pdfrwt>
<totfact> 0.27492390E+00</totfact>
</mgrwt>
</event>
<event>
 4    5  0.8511149E-008  0.1668705E+04  0.7818608E-02  0.8798867E-01
         -2   -1    0    0    0  501 -0.00000000000E+00  0.00000000000E+00  0.18319276306E+04  0.18319276306E+04  0.25500000000E-02 0.  1.
          2   -1    0    0  501    0  0.00000000000E+00 -0.00000000000E+00 -0.19317529754E+04  0.19317529754E+04  0.25500000000E-02 0. -1.
    8880023    1    1    2    0    0 -0.99611400381E+03  0.11655564008E+04  0.93002609242E+03  0.19103726262E+04  0.65864270000E+03 0.  0.
    8880022    1    1    2    0    0  0.99611400381E+03 -0.11655564008E+04 -0.10298514372E+04  0.18533079798E+04  0.15294330000E+03 0.  0.
<mgrwt>
<rscale>  0 0.16357739E+04</rscale>
<asrwt>0</asrwt>
<pdfrwt beam="1">  1        2 0.29719277E+00 0.16687046E+04</pdfrwt>
<pdfrwt beam="2">  1       -2 0.28183502E+00 0.16687046E+04</pdfrwt>
<totfact> 0.27557581E-01</totfact>
</mgrwt>
</event>
<event>
 4    5  0.8511149E-008  0.1251786E+04  0.7818608E-02  0.9108356E-01
          2   -1    0    0  501    0  0.00000000000E+00  0.00000000000E+00  0.61779634660E+03  0.61779634661E+03  0.25500000000E-02 0. -1.
         -2   -1    0    0    0  501 -0.00000000000E+00 -0.00000000000E+00 -0.23881733304E+04  0.23881733304E+04  0.25500000000E-02 0.  1.
    8880023    1    1    2    0    0  0.46836422497E+03  0.95592452417E+03 -0.13767798408E+04  0.18607766334E+04  0.65864270000E+03 0.  0.
    8880022    1    1    2    0    0 -0.46836422497E+03 -0.95592452417E+03 -0.39359714301E+03  0.11451930436E+04  0.15294330000E+03 0.  0.
<mgrwt>
<rscale>  0 0.12051550E+04</rscale>
<asrwt>0</asrwt>
<pdfrwt beam="1">  1        2 0.95045593E-01 0.12517855E+04</pdfrwt>
<pdfrwt beam="2">  1       -2 0.36741128E+00 0.12517855E+04</pdfrwt>
<totfact> 0.56789944E-01</totfact>
</mgrwt>
</event>
<event>
 4    5  0.8511149E-008  0.6587065E+03  0.7818608E-02  0.1025523E+00
          2   -1    0    0  501    0  0.00000000000E+00  0.00000000000E+00  0.18047638807E+04  0.18047638807E+04  0.25500000000E-02 0. -1.
         -2   -1    0    0    0  501 -0.00000000000E+00 -0.00000000000E+00 -0.20692996514E+03  0.20692996516E+03  0.25500000000E-02 0.  1.
    8880023    1    1    2    0    0 -0.85716464422E+01  0.32578656770E+01  0.33388857607E+03  0.73849568333E+03  0.65864270000E+03 0.  1.
    8880022    1    1    2    0    0  0.85716464422E+01 -0.32578656770E+01  0.12639453395E+04  0.12731981626E+04  0.15294330000E+03 0.  0.
<mgrwt>
<rscale>  0 0.45745290E+03</rscale>
<asrwt>0</asrwt>
<pdfrwt beam="1">  1        2 0.27765598E+00 0.65870653E+03</pdfrwt>
<pdfrwt beam="2">  1       -2 0.31835379E-01 0.65870653E+03</pdfrwt>
<totfact> 0.81353568E+01</totfact>
</mgrwt>
</event>
<event>
 4    5  0.8511149E-008  0.1815662E+04  0.7818608E-02  0.8713922E-01
          2   -1    0    0  501    0  0.00000000000E+00  0.00000000000E+00  0.51912299838E+04  0.51912299838E+04  0.25500000000E-02 0. -1.
         -2   -1    0    0    0  501 -0.00000000000E+00 -0.00000000000E+00 -0.63523897268E+03  0.63523897268E+03  0.25500000000E-02 0.  1.
    8880023    1    1    2    0    0 -0.16034909976E+04 -0.54003321101E+03  0.16146885306E+04  0.24297836335E+04  0.65864270000E+03 0.  0.
    8880022    1    1    2    0    0  0.16034909976E+04  0.54003321101E+03  0.29413024805E+04  0.33966853230E+04  0.15294330000E+03 0.  0.
<mgrwt>
<rscale>  0 0.17857362E+04</rscale>
<asrwt>0</asrwt>
<pdfrwt beam="1">  1        2 0.79865080E+00 0.18156623E+04</pdfrwt>
<pdfrwt beam="2">  1       -2 0.97729069E-01 0.18156623E+04</pdfrwt>
<totfact> 0.15809088E-02</totfact>
</mgrwt>
</event>
<event>
 4    5  0.8511149E-008  0.1110263E+04  0.7818608E-02  0.9249715E-01
          2   -1    0    0  501    0  0.00000000000E+00  0.00000000000E+00  0.34947866922E+04  0.34947866922E+04  0.25500000000E-02 0. -1.
         -2   -1    0    0    0  501 -0.00000000000E+00 -0.00000000000E+00 -0.51615708518E+03  0.51615708519E+03  0.25500000000E-02 0.  1.
    8880023    1    1    2    0    0  0.59172480167E+03  0.66987680735E+03  0.25340138418E+03  0.11388132620E+04  0.65864270000E+03 0.  0.
    8880022    1    1    2    0    0 -0.59172480167E+03 -0.66987680735E+03  0.27252282229E+04  0.28721305154E+04  0.15294330000E+03 0.  0.
<mgrwt>
<rscale>  0 0.10554698E+04</rscale>
<asrwt>0</asrwt>
<pdfrwt beam="1">  1        2 0.53765951E+00 0.11102628E+04</pdfrwt>
<pdfrwt beam="2">  1       -2 0.79408780E-01 0.11102628E+04</pdfrwt>
<totfact> 0.11716667E+00</totfact>
</mgrwt>
</event>
<event>
 4    5  0.8511149E-008  0.7730807E+03  0.7818608E-02  0.9772349E-01
         -2   -1    0    0    0  501 -0.00000000000E+00  0.00000000000E+00  0.53370842442E+03  0.53370842442E+03  0.25500000000E-02 0.  1.
          2   -1    0    0  501    0  0.00000000000E+00 -0.00000000000E+00 -0.82064123525E+03  0.82064123526E+03  0.25500000000E-02 0. -1.
    8880023    1    1    2    0    0  0.34678161076E+03  0.20877286899E+03  0.92822476429E+02  0.77863329930E+03  0.65864270000E+03 0.  1.
    8880022    1    1    2    0    0 -0.34678161076E+03 -0.20877286899E+03 -0.37975528727E+03  0.57571636038E+03  0.15294330000E+03 0.  0.
<mgrwt>
<rscale>  0 0.66867808E+03</rscale>
<asrwt>0</asrwt>
<pdfrwt beam="1">  1        2 0.12625250E+00 0.77308072E+03</pdfrwt>
<pdfrwt beam="2">  1       -2 0.82108988E-01 0.77308072E+03</pdfrwt>
<totfact> 0.43915132E+01</totfact>
</mgrwt>
</event>
<event>
 4    5  0.8511149E-008  0.6866120E+03  0.7818608E-02  0.1005806E+00
          2   -1    0    0  501    0  0.00000000000E+00  0.00000000000E+00  0.18677247732E+04  0.18677247732E+04  0.25500000000E-02 0. -1.
         -2   -1    0    0    0  501 -0.00000000000E+00 -0.00000000000E+00 -0.12400495417E+03  0.12400495419E+03  0.25500000000E-02 0.  1.
    8880023    1    1    2    0    0  0.39723140104E+02  0.18986289611E+03  0.10427034260E+04  0.12484656535E+04  0.65864270000E+03 0.  1.
    8880022    1    1    2    0    0 -0.39723140104E+02 -0.18986289611E+03  0.70101639308E+03  0.74326407391E+03  0.15294330000E+03 0. -1.
<mgrwt>
<rscale>  0 0.53175961E+03</rscale>
<asrwt>0</asrwt>
<pdfrwt beam="1">  1        2 0.28734228E+00 0.68661201E+03</pdfrwt>
<pdfrwt beam="2">  1       -2 0.19077685E-01 0.68661201E+03</pdfrwt>
<totfact> 0.18840317E+02</totfact>
</mgrwt>
</event>
<event>
 4    5  0.8511149E-008  0.1257352E+04  0.7818608E-02  0.9103293E-01
         -2   -1    0    0    0  501 -0.00000000000E+00  0.00000000000E+00  0.98016770502E+03  0.98016770502E+03  0.25500000000E-02 0.  1.
          2   -1    0    0  501    0  0.00000000000E+00 -0.00000000000E+00 -0.14176966147E+04  0.14176966147E+04  0.25500000000E-02 0. -1.
    8880023    1    1    2    0    0  0.48266494964E+03 -0.95611608027E+03 -0.38381503808E+03  0.13146283134E+04  0.65864270000E+03 0.  0.
    8880022    1    1    2    0    0 -0.48266494964E+03  0.95611608027E+03 -0.53713871649E+02  0.10832360064E+04  0.15294330000E+03 0.  0.
<mgrwt>
<rscale>  0 0.12109877E+04</rscale>
<asrwt>0</asrwt>
<pdfrwt beam="1">  1        2 0.21810717E+00 0.12573518E+04</pdfrwt>
<pdfrwt beam="2">  1       -2 0.15079503E+00 0.12573518E+04</pdfrwt>
<totfact> 0.40389424E+00</totfact>
</mgrwt>
</event>
<event>
 4    5  0.8511149E-008  0.1165172E+04  0.7818608E-02  0.9191744E-01
          2   -1    0    0  501    0  0.00000000000E+00  0.00000000000E+00  0.21175132629E+04  0.21175132629E+04  0.25500000000E-02 0. -1.
         -2   -1    0    0    0  501 -0.00000000000E+00 -0.00000000000E+00 -0.63149883174E+03  0.63149883175E+03  0.25500000000E-02 0.  1.
    8880023    1    1    2    0    0 -0.93073531559E+03  0.23989163266E+03  0.27828789810E+03  0.11979443157E+04  0.65864270000E+03 0.  0.
    8880022    1    1    2    0    0  0.93073531559E+03 -0.23989163266E+03  0.12077265330E+04  0.15510677789E+04  0.15294330000E+03 0.  0.
<mgrwt>
<rscale>  0 0.11139053E+04</rscale>
<asrwt>0</asrwt>
<pdfrwt beam="1">  1        2 0.32577127E+00 0.11651723E+04</pdfrwt>
<pdfrwt beam="2">  1       -2 0.97153666E-01 0.11651723E+04</pdfrwt>
<totfact> 0.49969629E+00</totfact>
</mgrwt>
</event>
<event>
 4    5  0.8511149E-008  0.6928496E+03  0.7818608E-02  0.1002827E+00
          2   -1    0    0  501    0  0.00000000000E+00  0.00000000000E+00  0.95845777580E+03  0.95845777580E+03  0.25500000000E-02 0. -1.
         -2   -1    0    0    0  501 -0.00000000000E+00 -0.00000000000E+00 -0.77472225652E+03  0.77472225652E+03  0.25500000000E-02 0.  1.
    8880023    1    1    2    0    0  0.12814379657E+03  0.17265427790E+03 -0.59355133828E+03  0.91232873993E+03  0.65864270000E+03 0.  1.
    8880022    1    1    2    0    0 -0.12814379657E+03 -0.17265427790E+03  0.77728685756E+03  0.82085129239E+03  0.15294330000E+03 0.  0.
<mgrwt>
<rscale>  0 0.54428018E+03</rscale>
<asrwt>0</asrwt>
<pdfrwt beam="1">  1        2 0.14745504E+00 0.69284958E+03</pdfrwt>
<pdfrwt beam="2">  1       -2 0.11918804E+00 0.69284958E+03</pdfrwt>
<totfact> 0.14808765E+01</totfact>
</mgrwt>
</event>
<event>
 4    5  0.1161200E-007  0.8973971E+03  0.7818608E-02  0.9530223E-01
         -2   -1    0    0    0  501 -0.00000000000E+00  0.00000000000E+00  0.31200194203E+04  0.31200194203E+04  0.25500000000E-02 0.  1.
          2   -1    0    0  501    0  0.00000000000E+00 -0.00000000000E+00 -0.23252417820E+04  0.23252417820E+04  0.25500000000E-02 0. -1.
    8880023    1    1    2    0    0  0.55872660076E+03 -0.24358952149E+03  0.30108865896E+04  0.31417764929E+04  0.65864270000E+03 0.  1.
    8880022    1    1    2    0    0 -0.55872660076E+03  0.24358952149E+03 -0.22161089514E+04  0.23034847095E+04  0.15294330000E+03 0.  0.
<mgrwt>
<rscale>  0 0.82091799E+03</rscale>
<asrwt>0</asrwt>
<pdfrwt beam="1">  1        2 0.35772951E+00 0.89739706E+03</pdfrwt>
<pdfrwt beam="2">  1       -2 0.48000299E+00 0.89739706E+03</pdfrwt>
<totfact> 0.10189470E-02</totfact>
</mgrwt>
</event>
<event>
 4    5  0.8511149E-008  0.1526978E+04  0.7818608E-02  0.8890817E-01
         -2   -1    0    0    0  501 -0.00000000000E+00  0.00000000000E+00  0.24330900660E+04  0.24330900660E+04  0.25500000000E-02 0.  1.
          2   -1    0    0  501    0  0.00000000000E+00 -0.00000000000E+00 -0.94267684899E+03  0.94267684900E+03  0.25500000000E-02 0. -1.
    8880023    1    1    2    0    0 -0.13176757776E+04  0.40197115929E+03  0.31665336412E+03  0.15594645963E+04  0.65864270000E+03 0.  0.
    8880022    1    1    2    0    0  0.13176757776E+04 -0.40197115929E+03  0.11737598529E+04  0.18163023187E+04  0.15294330000E+03 0.  0.
<mgrwt>
<rscale>  0 0.14904666E+04</rscale>
<asrwt>0</asrwt>
<pdfrwt beam="1">  1        2 0.14502721E+00 0.15269776E+04</pdfrwt>
<pdfrwt beam="2">  1       -2 0.37432154E+00 0.15269776E+04</pdfrwt>
<totfact> 0.28353059E-01</totfact>
</mgrwt>
</event>
<event>
 4    5  0.8511149E-008  0.7484235E+03  0.7818608E-02  0.9836056E-01
         -2   -1    0    0    0  501 -0.00000000000E+00  0.00000000000E+00  0.48964228201E+03  0.48964228202E+03  0.25500000000E-02 0.  1.
          2   -1    0    0  501    0  0.00000000000E+00 -0.00000000000E+00 -0.10012381898E+04  0.10012381898E+04  0.25500000000E-02 0. -1.
    8880023    1    1    2    0    0 -0.24396563615E+03  0.25847312559E+03  0.11223588299E+03  0.75679236780E+03  0.65864270000E+03 0.  1.
    8880022    1    1    2    0    0  0.24396563615E+03 -0.25847312559E+03 -0.62383179082E+03  0.73408810406E+03  0.15294330000E+03 0.  0.
<mgrwt>
<rscale>  0 0.63462954E+03</rscale>
<asrwt>0</asrwt>
<pdfrwt beam="1">  1        2 0.15403664E+00 0.74842354E+03</pdfrwt>
<pdfrwt beam="2">  1       -2 0.75329582E-01 0.74842354E+03</pdfrwt>
<totfact> 0.40392977E+01</totfact>
</mgrwt>
</event>
<event>
 4    5  0.8511149E-008  0.7616536E+03  0.7818608E-02  0.9800845E-01
          2   -1    0    0  501    0  0.00000000000E+00  0.00000000000E+00  0.83197035805E+03  0.83197035806E+03  0.25500000000E-02 0. -1.
         -2   -1    0    0    0  501 -0.00000000000E+00 -0.00000000000E+00 -0.52846160677E+03  0.52846160677E+03  0.25500000000E-02 0.  1.
    8880023    1    1    2    0    0 -0.29396382692E+03 -0.24472703802E+03 -0.11836046754E+03  0.77079534327E+03  0.65864270000E+03 0.  1.
    8880022    1    1    2    0    0  0.29396382692E+03  0.24472703802E+03  0.42186921883E+03  0.58963662156E+03  0.15294330000E+03 0.  0.
<mgrwt>
<rscale>  0 0.65317212E+03</rscale>
<asrwt>0</asrwt>
<pdfrwt beam="1">  1        2 0.12799544E+00 0.76165364E+03</pdfrwt>
<pdfrwt beam="2">  1       -2 0.81301786E-01 0.76165364E+03</pdfrwt>
<totfact> 0.44127467E+01</totfact>
</mgrwt>
</event>
<event>
 4    5  0.8511149E-008  0.8092114E+03  0.7818608E-02  0.9691222E-01
         -2   -1    0    0    0  501 -0.00000000000E+00  0.00000000000E+00  0.11470574823E+04  0.11470574823E+04  0.25500000000E-02 0.  1.
          2   -1    0    0  501    0  0.00000000000E+00 -0.00000000000E+00 -0.21512258905E+04  0.21512258905E+04  0.25500000000E-02 0. -1.
    8880023    1    1    2    0    0  0.10065466305E+03  0.45921831547E+03  0.96996329409E+03  0.12631911259E+04  0.65864270000E+03 0.  0.
    8880022    1    1    2    0    0 -0.10065466305E+03 -0.45921831547E+03 -0.19741317023E+04  0.20350922469E+04  0.15294330000E+03 0.  0.
<mgrwt>
<rscale>  0 0.71541843E+03</rscale>
<asrwt>0</asrwt>
<pdfrwt beam="1">  1        2 0.33095783E+00 0.80921136E+03</pdfrwt>
<pdfrwt beam="2">  1       -2 0.17647038E+00 0.80921136E+03</pdfrwt>
<totfact> 0.10896423E+00</totfact>
</mgrwt>
</event>
<event>
 4    5  0.8511149E-008  0.7164801E+03  0.7818608E-02  0.9934681E-01
          2   -1    0    0  501    0  0.00000000000E+00  0.00000000000E+00  0.12297898536E+04  0.12297898536E+04  0.25500000000E-02 0. -1.
         -2   -1    0    0    0  501 -0.00000000000E+00 -0.00000000000E+00 -0.57996381473E+03  0.57996381473E+03  0.25500000000E-02 0.  1.
    8880023    1    1    2    0    0 -0.28199523816E+03  0.34866304880E+01 -0.32261118720E+03  0.78576183116E+03  0.65864270000E+03 0.  1.
    8880022    1    1    2    0    0  0.28199523816E+03 -0.34866304880E+01  0.97243722610E+03  0.10239918372E+04  0.15294330000E+03 0.  0.
<mgrwt>
<rscale>  0 0.58609532E+03</rscale>
<asrwt>0</asrwt>
<pdfrwt beam="1">  1        2 0.18919844E+00 0.71648006E+03</pdfrwt>
<pdfrwt beam="2">  1       -2 0.89225203E-01 0.71648006E+03</pdfrwt>
<totfact> 0.20062433E+01</totfact>
</mgrwt>
</event>
<event>
 4    5  0.8511149E-008  0.1052312E+04  0.7818608E-02  0.9316107E-01
         -2   -1    0    0    0  501 -0.00000000000E+00  0.00000000000E+00  0.13145269536E+04  0.13145269536E+04  0.25500000000E-02 0.  1.
          2   -1    0    0  501    0  0.00000000000E+00 -0.00000000000E+00 -0.77728389615E+03  0.77728389615E+03  0.25500000000E-02 0. -1.
    8880023    1    1    2    0    0  0.12241140502E+03 -0.81152131086E+03  0.66853909273E+03  0.12467181377E+04  0.65864270000E+03 0.  1.
    8880022    1    1    2    0    0 -0.12241140502E+03  0.81152131086E+03 -0.13129603529E+03  0.84509271205E+03  0.15294330000E+03 0.  0.
<mgrwt>
<rscale>  0 0.99313482E+03</rscale>
<asrwt>0</asrwt>
<pdfrwt beam="1">  1        2 0.11958214E+00 0.10523125E+04</pdfrwt>
<pdfrwt beam="2">  1       -2 0.20223491E+00 0.10523125E+04</pdfrwt>
<totfact> 0.45469503E+00</totfact>
</mgrwt>
</event>
<event>
 4    5  0.8511149E-008  0.1057065E+04  0.7818608E-02  0.9310436E-01
         -2   -1    0    0    0  501 -0.00000000000E+00  0.00000000000E+00  0.67179580243E+03  0.67179580244E+03  0.25500000000E-02 0.  1.
          2   -1    0    0  501    0  0.00000000000E+00 -0.00000000000E+00 -0.30210358259E+04  0.30210358259E+04  0.25500000000E-02 0. -1.
    8880023    1    1    2    0    0 -0.81764711616E+03 -0.12259618350E+03 -0.26071976310E+04  0.28133372219E+04  0.65864270000E+03 0. -1.
    8880022    1    1    2    0    0  0.81764711616E+03  0.12259618350E+03  0.25795760747E+03  0.87949440649E+03  0.15294330000E+03 0.  0.
<mgrwt>
<rscale>  0 0.99827759E+03</rscale>
<asrwt>0</asrwt>
<pdfrwt beam="1">  1        2 0.46477474E+00 0.10570652E+04</pdfrwt>
<pdfrwt beam="2">  1       -2 0.10335320E+00 0.10570652E+04</pdfrwt>
<totfact> 0.13032598E+00</totfact>
</mgrwt>
</event>
<event>
 4    5  0.8511149E-008  0.2092351E+04  0.7818608E-02  0.8576027E-01
         -2   -1    0    0    0  501 -0.00000000000E+00  0.00000000000E+00  0.17439864848E+04  0.17439864848E+04  0.25500000000E-02 0.  1.
          2   -1    0    0  501    0  0.00000000000E+00 -0.00000000000E+00 -0.34477205306E+04  0.34477205306E+04  0.25500000000E-02 0. -1.
    8880023    1    1    2    0    0 -0.22065654978E+03 -0.19736854620E+04  0.57029056456E+03  0.21686782035E+04  0.65864270000E+03 0.  0.
    8880022    1    1    2    0    0  0.22065654978E+03  0.19736854620E+04 -0.22740246104E+04  0.30230288119E+04  0.15294330000E+03 0.  0.
<mgrwt>
<rscale>  0 0.20667635E+04</rscale>
<asrwt>0</asrwt>
<pdfrwt beam="1">  1        2 0.53041854E+00 0.20923513E+04</pdfrwt>
<pdfrwt beam="2">  1       -2 0.26830561E+00 0.20923513E+04</pdfrwt>
<totfact> 0.38523754E-02</totfact>
</mgrwt>
</event>
<event>
 4    5  0.8511149E-008  0.8550531E+03  0.7818608E-02  0.9602424E-01
         -2   -1    0    0    0  501 -0.00000000000E+00  0.00000000000E+00  0.64266624601E+03  0.64266624602E+03  0.25500000000E-02 0.  1.
          2   -1    0    0  501    0  0.00000000000E+00 -0.00000000000E+00 -0.20581591149E+04  0.20581591149E+04  0.25500000000E-02 0. -1.
    8880023    1    1    2    0    0 -0.27067893633E+03  0.47332705018E+03  0.29069126861E+03  0.90311527665E+03  0.65864270000E+03 0.  1.
    8880022    1    1    2    0    0  0.27067893633E+03 -0.47332705018E+03 -0.17061841375E+04  0.17977100843E+04  0.15294330000E+03 0.  0.
<mgrwt>
<rscale>  0 0.77135929E+03</rscale>
<asrwt>0</asrwt>
<pdfrwt beam="1">  1        2 0.31663986E+00 0.85505309E+03</pdfrwt>
<pdfrwt beam="2">  1       -2 0.98871731E-01 0.85505309E+03</pdfrwt>
<totfact> 0.53704701E+00</totfact>
</mgrwt>
</event>
<event>
 4    5  0.8951712E-008  0.8329765E+03  0.7818608E-02  0.9643569E-01
          2   -1    0    0  501    0  0.00000000000E+00  0.00000000000E+00  0.17054591390E+04  0.17054591390E+04  0.25500000000E-02 0. -1.
         -2   -1    0    0    0  501 -0.00000000000E+00 -0.00000000000E+00 -0.18635320545E+04  0.18635320545E+04  0.25500000000E-02 0.  1.
    8880023    1    1    2    0    0 -0.40462975701E+03  0.31034549301E+03 -0.17241904716E+04  0.19148583639E+04  0.65864270000E+03 0.  1.
    8880022    1    1    2    0    0  0.40462975701E+03 -0.31034549301E+03  0.15661175561E+04  0.16541328296E+04  0.15294330000E+03 0.  0.
<mgrwt>
<rscale>  0 0.74478428E+03</rscale>
<asrwt>0</asrwt>
<pdfrwt beam="1">  1        2 0.26237833E+00 0.83297645E+03</pdfrwt>
<pdfrwt beam="2">  1       -2 0.28669724E+00 0.83297645E+03</pdfrwt>
<totfact> 0.38702236E-01</totfact>
</mgrwt>
</event>
<event>
 4    5  0.8511149E-008  0.8696063E+03  0.7818608E-02  0.9576699E-01
         -2   -1    0    0    0  501 -0.00000000000E+00  0.00000000000E+00  0.39917279820E+03  0.39917279821E+03  0.25500000000E-02 0.  1.
          2   -1    0    0  501    0  0.00000000000E+00 -0.00000000000E+00 -0.37885888710E+04  0.37885888710E+04  0.25500000000E-02 0. -1.
    8880023    1    1    2    0    0  0.34255453842E+03 -0.45283695569E+03 -0.13425131173E+03  0.87990825726E+03  0.65864270000E+03 0.  1.
    8880022    1    1    2    0    0 -0.34255453842E+03  0.45283695569E+03 -0.32551647610E+04  0.33078534119E+04  0.15294330000E+03 0.  0.
<mgrwt>
<rscale>  0 0.78857789E+03</rscale>
<asrwt>0</asrwt>
<pdfrwt beam="1">  1        2 0.58285980E+00 0.86960631E+03</pdfrwt>
<pdfrwt beam="2">  1       -2 0.61411202E-01 0.86960631E+03</pdfrwt>
<totfact> 0.13245995E+00</totfact>
</mgrwt>
</event>
<event>
 4    5  0.8511149E-008  0.1133968E+04  0.7818608E-02  0.9224147E-01
         -2   -1    0    0    0  501 -0.00000000000E+00  0.00000000000E+00  0.14481624930E+04  0.14481624930E+04  0.25500000000E-02 0.  1.
          2   -1    0    0  501    0  0.00000000000E+00 -0.00000000000E+00 -0.15618205784E+04  0.15618205784E+04  0.25500000000E-02 0. -1.
    8880023    1    1    2    0    0  0.90001441495E+03 -0.20505575594E+03  0.10302914982E+04  0.15321176808E+04  0.65864270000E+03 0.  0.
    8880022    1    1    2    0    0 -0.90001441495E+03  0.20505575594E+03 -0.11439495836E+04  0.14778653907E+04  0.15294330000E+03 0.  0.
<mgrwt>
<rscale>  0 0.10807632E+04</rscale>
<asrwt>0</asrwt>
<pdfrwt beam="1">  1        2 0.24028009E+00 0.11339683E+04</pdfrwt>
<pdfrwt beam="2">  1       -2 0.22279423E+00 0.11339683E+04</pdfrwt>
<totfact> 0.10874754E+00</totfact>
</mgrwt>
</event>
<event>
 4    5  0.8511149E-008  0.1082224E+04  0.7818608E-02  0.9281111E-01
          2   -1    0    0  501    0  0.00000000000E+00  0.00000000000E+00  0.83335369213E+03  0.83335369213E+03  0.25500000000E-02 0. -1.
         -2   -1    0    0    0  501 -0.00000000000E+00 -0.00000000000E+00 -0.12056765605E+04  0.12056765605E+04  0.25500000000E-02 0.  1.
    8880023    1    1    2    0    0  0.48818160604E+03  0.70645368775E+03 -0.43085338432E+03  0.11648360135E+04  0.65864270000E+03 0. -1.
    8880022    1    1    2    0    0 -0.48818160604E+03 -0.70645368775E+03  0.58530515910E+02  0.87419423912E+03  0.15294330000E+03 0.  1.
<mgrwt>
<rscale>  0 0.10254061E+04</rscale>
<asrwt>0</asrwt>
<pdfrwt beam="1">  1        2 0.12820826E+00 0.10822238E+04</pdfrwt>
<pdfrwt beam="2">  1       -2 0.18548870E+00 0.10822238E+04</pdfrwt>
<totfact> 0.53372682E+00</totfact>
</mgrwt>
</event>
<event>
 4    5  0.8511149E-008  0.1036247E+04  0.7818608E-02  0.9335600E-01
          2   -1    0    0  501    0  0.00000000000E+00  0.00000000000E+00  0.22087185203E+04  0.22087185203E+04  0.25500000000E-02 0. -1.
         -2   -1    0    0    0  501 -0.00000000000E+00 -0.00000000000E+00 -0.75915524205E+03  0.75915524206E+03  0.25500000000E-02 0.  1.
    8880023    1    1    2    0    0  0.76316716654E+03 -0.23994348130E+03 -0.26507977382E+03  0.10696141786E+04  0.65864270000E+03 0.  0.
    8880022    1    1    2    0    0 -0.76316716654E+03  0.23994348130E+03  0.17146430520E+04  0.18982595837E+04  0.15294330000E+03 0.  0.
<mgrwt>
<rscale>  0 0.97570464E+03</rscale>
<asrwt>0</asrwt>
<pdfrwt beam="1">  1        2 0.33980284E+00 0.10362467E+04</pdfrwt>
<pdfrwt beam="2">  1       -2 0.11679312E+00 0.10362467E+04</pdfrwt>
<totfact> 0.28913650E+00</totfact>
</mgrwt>
</event>
<event>
 4    5  0.8511149E-008  0.1051022E+04  0.7818608E-02  0.9317654E-01
         -2   -1    0    0    0  501 -0.00000000000E+00  0.00000000000E+00  0.45861034698E+03  0.45861034699E+03  0.25500000000E-02 0.  1.
          2   -1    0    0  501    0  0.00000000000E+00 -0.00000000000E+00 -0.42645684286E+04  0.42645684286E+04  0.25500000000E-02 0. -1.
    8880023    1    1    2    0    0  0.20169870727E+02 -0.81879757149E+03 -0.26281045966E+03  0.10833816644E+04  0.65864270000E+03 0.  0.
    8880022    1    1    2    0    0 -0.20169870727E+02  0.81879757149E+03 -0.35431476219E+04  0.36397971112E+04  0.15294330000E+03 0.  0.
<mgrwt>
<rscale>  0 0.99173697E+03</rscale>
<asrwt>0</asrwt>
<pdfrwt beam="1">  1        2 0.65608742E+00 0.10510216E+04</pdfrwt>
<pdfrwt beam="2">  1       -2 0.70555441E-01 0.10510216E+04</pdfrwt>
<totfact> 0.39283885E-01</totfact>
</mgrwt>
</event>
<event>
 4    5  0.8511149E-008  0.8086691E+03  0.7818608E-02  0.9692356E-01
         -2   -1    0    0    0  501 -0.00000000000E+00  0.00000000000E+00  0.24850174718E+04  0.24850174718E+04  0.25500000000E-02 0.  1.
          2   -1    0    0  501    0  0.00000000000E+00 -0.00000000000E+00 -0.56965119893E+03  0.56965119894E+03  0.25500000000E-02 0. -1.
    8880023    1    1    2    0    0 -0.38202067480E+02 -0.46762816081E+03  0.22941945842E+04  0.24325448590E+04  0.65864270000E+03 0.  1.
    8880022    1    1    2    0    0  0.38202067480E+02  0.46762816081E+03 -0.37882831127E+03  0.62212381178E+03  0.15294330000E+03 0.  0.
<mgrwt>
<rscale>  0 0.71473748E+03</rscale>
<asrwt>0</asrwt>
<pdfrwt beam="1">  1        2 0.87638647E-01 0.80866909E+03</pdfrwt>
<pdfrwt beam="2">  1       -2 0.38231037E+00 0.80866909E+03</pdfrwt>
<totfact> 0.53618143E-01</totfact>
</mgrwt>
</event>
<event>
 4    5  0.8511149E-008  0.8366306E+03  0.7818608E-02  0.9636566E-01
         -2   -1    0    0    0  501 -0.00000000000E+00  0.00000000000E+00  0.24553908924E+03  0.24553908926E+03  0.25500000000E-02 0.  1.
          2   -1    0    0  501    0  0.00000000000E+00 -0.00000000000E+00 -0.28246953283E+04  0.28246953283E+04  0.25500000000E-02 0. -1.
    8880023    1    1    2    0    0  0.51260483082E+03 -0.58111128946E+02 -0.62762071077E+03  0.10458769424E+04  0.65864270000E+03 0.  0.
    8880022    1    1    2    0    0 -0.51260483082E+03  0.58111128946E+02 -0.19515355283E+04  0.20243574751E+04  0.15294330000E+03 0.  0.
<mgrwt>
<rscale>  0 0.74922532E+03</rscale>
<asrwt>0</asrwt>
<pdfrwt beam="1">  1        2 0.43456849E+00 0.83663064E+03</pdfrwt>
<pdfrwt beam="2">  1       -2 0.37775246E-01 0.83663064E+03</pdfrwt>
<totfact> 0.15384097E+01</totfact>
</mgrwt>
</event>
<event>
 4    5  0.8511149E-008  0.7289271E+03  0.7818608E-02  0.9893462E-01
         -2   -1    0    0    0  501 -0.00000000000E+00  0.00000000000E+00  0.44828754784E+03  0.44828754784E+03  0.25500000000E-02 0.  1.
          2   -1    0    0  501    0  0.00000000000E+00 -0.00000000000E+00 -0.23817536681E+04  0.23817536681E+04  0.25500000000E-02 0. -1.
    8880023    1    1    2    0    0  0.21404679451E+03  0.22739501752E+03  0.12745874288E+03  0.73998679828E+03  0.65864270000E+03 0.  1.
    8880022    1    1    2    0    0 -0.21404679451E+03 -0.22739501752E+03 -0.20609248631E+04  0.20900544176E+04  0.15294330000E+03 0.  0.
<mgrwt>
<rscale>  0 0.60579213E+03</rscale>
<asrwt>0</asrwt>
<pdfrwt beam="1">  1        2 0.36642363E+00 0.72892711E+03</pdfrwt>
<pdfrwt beam="2">  1       -2 0.68967316E-01 0.72892711E+03</pdfrwt>
<totfact> 0.82059943E+00</totfact>
</mgrwt>
</event>
<event>
 4    5  0.8511149E-008  0.6671099E+03  0.7818608E-02  0.1017825E+00
         -2   -1    0    0    0  501 -0.00000000000E+00  0.00000000000E+00  0.42953446356E+03  0.42953446357E+03  0.25500000000E-02 0.  1.
          2   -1    0    0  501    0  0.00000000000E+00 -0.00000000000E+00 -0.29931636703E+04  0.29931636703E+04  0.25500000000E-02 0. -1.
    8880023    1    1    2    0    0 -0.10033300442E+03  0.34039336092E+02  0.16542064612E+03  0.68731330891E+03  0.65864270000E+03 0.  1.
    8880022    1    1    2    0    0  0.10033300442E+03 -0.34039336092E+02 -0.27290498528E+04  0.27353848249E+04  0.15294330000E+03 0.  0.
<mgrwt>
<rscale>  0 0.48479627E+03</rscale>
<asrwt>0</asrwt>
<pdfrwt beam="1">  1        2 0.46048671E+00 0.66710988E+03</pdfrwt>
<pdfrwt beam="2">  1       -2 0.66082227E-01 0.66710988E+03</pdfrwt>
<totfact> 0.40200601E+00</totfact>
</mgrwt>
</event>
<event>
 4    5  0.8511149E-008  0.9273395E+03  0.7818608E-02  0.9483496E-01
         -2   -1    0    0    0  501 -0.00000000000E+00  0.00000000000E+00  0.58377855728E+03  0.58377855728E+03  0.25500000000E-02 0.  1.
          2   -1    0    0  501    0  0.00000000000E+00 -0.00000000000E+00 -0.29026121031E+04  0.29026121031E+04  0.25500000000E-02 0. -1.
    8880023    1    1    2    0    0  0.47910407315E+03  0.44340453389E+03  0.13994159347E+03  0.93783908504E+03  0.65864270000E+03 0.  0.
    8880022    1    1    2    0    0 -0.47910407315E+03 -0.44340453389E+03 -0.24587751393E+04  0.25485515754E+04  0.15294330000E+03 0. -1.
<mgrwt>
<rscale>  0 0.85511613E+03</rscale>
<asrwt>0</asrwt>
<pdfrwt beam="1">  1        2 0.44655570E+00 0.92733947E+03</pdfrwt>
<pdfrwt beam="2">  1       -2 0.89812088E-01 0.92733947E+03</pdfrwt>
<totfact> 0.21889516E+00</totfact>
</mgrwt>
</event>
<event>
 4    5  0.8511149E-008  0.1002949E+04  0.7818608E-02  0.9377709E-01
         -2   -1    0    0    0  501 -0.00000000000E+00  0.00000000000E+00  0.84695636572E+03  0.84695636573E+03  0.25500000000E-02 0.  1.
          2   -1    0    0  501    0  0.00000000000E+00 -0.00000000000E+00 -0.12789779254E+04  0.12789779254E+04  0.25500000000E-02 0. -1.
    8880023    1    1    2    0    0  0.17806190341E+02 -0.75616120836E+03  0.31565957592E+03  0.10514504304E+04  0.65864270000E+03 0. -1.
    8880022    1    1    2    0    0 -0.17806190341E+02  0.75616120836E+03 -0.74768113561E+03  0.10744838607E+04  0.15294330000E+03 0.  1.
<mgrwt>
<rscale>  0 0.93933037E+03</rscale>
<asrwt>0</asrwt>
<pdfrwt beam="1">  1        2 0.19676583E+00 0.10029492E+04</pdfrwt>
<pdfrwt beam="2">  1       -2 0.13030098E+00 0.10029492E+04</pdfrwt>
<totfact> 0.72842277E+00</totfact>
</mgrwt>
</event>
<event>
 4    5  0.8511149E-008  0.1554515E+04  0.7818608E-02  0.8872070E-01
          2   -1    0    0  501    0  0.00000000000E+00  0.00000000000E+00  0.12465389059E+04  0.12465389059E+04  0.25500000000E-02 0. -1.
         -2   -1    0    0    0  501 -0.00000000000E+00 -0.00000000000E+00 -0.23286189888E+04  0.23286189888E+04  0.25500000000E-02 0.  1.
    8880023    1    1    2    0    0 -0.12570530864E+04  0.63444861411E+03 -0.14348778246E+04  0.21155122509E+04  0.65864270000E+03 0.  0.
    8880022    1    1    2    0    0  0.12570530864E+04 -0.63444861411E+03  0.35279774174E+03  0.14596456438E+04  0.15294330000E+03 0.  0.
<mgrwt>
<rscale>  0 0.15187640E+04</rscale>
<asrwt>0</asrwt>
<pdfrwt beam="1">  1        2 0.19177522E+00 0.15545153E+04</pdfrwt>
<pdfrwt beam="2">  1       -2 0.35824907E+00 0.15545153E+04</pdfrwt>
<totfact> 0.23040506E-01</totfact>
</mgrwt>
</event>
<event>
 4    5  0.8511149E-008  0.1347426E+04  0.7818608E-02  0.9025649E-01
         -2   -1    0    0    0  501 -0.00000000000E+00  0.00000000000E+00  0.62500100521E+03  0.62500100522E+03  0.25500000000E-02 0.  1.
          2   -1    0    0  501    0  0.00000000000E+00 -0.00000000000E+00 -0.30300322105E+04  0.30300322105E+04  0.25500000000E-02 0. -1.
    8880023    1    1    2    0    0 -0.33408350820E+03 -0.11270029492E+04 -0.55377313676E+03  0.14567849296E+04  0.65864270000E+03 0.  0.
    8880022    1    1    2    0    0  0.33408350820E+03  0.11270029492E+04 -0.18512580685E+04  0.21982482860E+04  0.15294330000E+03 0.  0.
<mgrwt>
<rscale>  0 0.13049494E+04</rscale>
<asrwt>0</asrwt>
<pdfrwt beam="1">  1        2 0.46615879E+00 0.13474263E+04</pdfrwt>
<pdfrwt beam="2">  1       -2 0.96154002E-01 0.13474263E+04</pdfrwt>
<totfact> 0.14707794E+00</totfact>
</mgrwt>
</event>
<event>
 4    5  0.8511149E-008  0.8611072E+03  0.7818608E-02  0.9591597E-01
         -2   -1    0    0    0  501 -0.00000000000E+00  0.00000000000E+00  0.14921135939E+04  0.14921135939E+04  0.25500000000E-02 0.  1.
          2   -1    0    0  501    0  0.00000000000E+00 -0.00000000000E+00 -0.91983353153E+03  0.91983353154E+03  0.25500000000E-02 0. -1.
    8880023    1    1    2    0    0 -0.29557199173E+03  0.46939601181E+03  0.12531586356E+04  0.15204973497E+04  0.65864270000E+03 0.  0.
    8880022    1    1    2    0    0  0.29557199173E+03 -0.46939601181E+03 -0.68087857323E+03  0.89144977575E+03  0.15294330000E+03 0.  0.
<mgrwt>
<rscale>  0 0.77854854E+03</rscale>
<asrwt>0</asrwt>
<pdfrwt beam="1">  1        2 0.14151285E+00 0.86110721E+03</pdfrwt>
<pdfrwt beam="2">  1       -2 0.22955594E+00 0.86110721E+03</pdfrwt>
<totfact> 0.24761976E+00</totfact>
</mgrwt>
</event>
<event>
 4    5  0.8511149E-008  0.7391039E+03  0.7818608E-02  0.9862565E-01
         -2   -1    0    0    0  501 -0.00000000000E+00  0.00000000000E+00  0.23884858578E+03  0.23884858580E+03  0.25500000000E-02 0.  1.
          2   -1    0    0  501    0  0.00000000000E+00 -0.00000000000E+00 -0.31821442767E+04  0.31821442767E+04  0.25500000000E-02 0. -1.
    8880023    1    1    2    0    0  0.29143297662E+03  0.16592545063E+03 -0.37950431435E+03  0.83084184169E+03  0.65864270000E+03 0.  1.
    8880022    1    1    2    0    0 -0.29143297662E+03 -0.16592545063E+03 -0.25637913766E+04  0.25901510208E+04  0.15294330000E+03 0.  0.
<mgrwt>
<rscale>  0 0.62110357E+03</rscale>
<asrwt>0</asrwt>
<pdfrwt beam="1">  1        2 0.48956063E+00 0.73910394E+03</pdfrwt>
<pdfrwt beam="2">  1       -2 0.36745939E-01 0.73910394E+03</pdfrwt>
<totfact> 0.99522527E+00</totfact>
</mgrwt>
</event>
<event>
 4    5  0.8511149E-008  0.1244930E+04  0.7818608E-02  0.9114638E-01
          2   -1    0    0  501    0  0.00000000000E+00  0.00000000000E+00  0.23347810571E+04  0.23347810571E+04  0.25500000000E-02 0. -1.
         -2   -1    0    0    0  501 -0.00000000000E+00 -0.00000000000E+00 -0.84311254548E+03  0.84311254549E+03  0.25500000000E-02 0.  1.
    8880023    1    1    2    0    0  0.73723831115E+03  0.75665023202E+03 -0.11361736246E+03  0.12501036006E+04  0.65864270000E+03 0.  0.
    8880022    1    1    2    0    0 -0.73723831115E+03 -0.75665023202E+03  0.16052858741E+04  0.19277900019E+04  0.15294330000E+03 0.  0.
<mgrwt>
<rscale>  0 0.11979665E+04</rscale>
<asrwt>0</asrwt>
<pdfrwt beam="1">  1        2 0.35919709E+00 0.12449298E+04</pdfrwt>
<pdfrwt beam="2">  1       -2 0.12970962E+00 0.12449298E+04</pdfrwt>
<totfact> 0.18404352E+00</totfact>
</mgrwt>
</event>
<event>
 4    5  0.8511149E-008  0.8980289E+03  0.7818608E-02  0.9529203E-01
          2   -1    0    0  501    0  0.00000000000E+00  0.00000000000E+00  0.13205438855E+04  0.13205438855E+04  0.25500000000E-02 0. -1.
         -2   -1    0    0    0  501 -0.00000000000E+00 -0.00000000000E+00 -0.13172117663E+04  0.13172117663E+04  0.25500000000E-02 0.  1.
    8880023    1    1    2    0    0 -0.55123287836E+03 -0.26227480019E+03 -0.10679288230E+04  0.13953235948E+04  0.65864270000E+03 0.  1.
    8880022    1    1    2    0    0  0.55123287836E+03  0.26227480019E+03  0.10712609421E+04  0.12424320570E+04  0.15294330000E+03 0.  0.
<mgrwt>
<rscale>  0 0.82164605E+03</rscale>
<asrwt>0</asrwt>
<pdfrwt beam="1">  1        2 0.20316060E+00 0.89802893E+03</pdfrwt>
<pdfrwt beam="2">  1       -2 0.20264796E+00 0.89802893E+03</pdfrwt>
<totfact> 0.20680681E+00</totfact>
</mgrwt>
</event>
<event>
 4    5  0.8511149E-008  0.6843720E+03  0.7818608E-02  0.1006951E+00
         -2   -1    0    0    0  501 -0.00000000000E+00  0.00000000000E+00  0.11344024888E+04  0.11344024888E+04  0.25500000000E-02 0.  1.
          2   -1    0    0  501    0  0.00000000000E+00 -0.00000000000E+00 -0.35057035041E+03  0.35057035042E+03  0.25500000000E-02 0. -1.
    8880023    1    1    2    0    0  0.23564173996E+02 -0.18438957569E+03  0.96546028357E+03  0.11834181642E+04  0.65864270000E+03 0.  1.
    8880022    1    1    2    0    0 -0.23564173996E+02  0.18438957569E+03 -0.18162814516E+03  0.30155467505E+03  0.15294330000E+03 0.  0.
<mgrwt>
<rscale>  0 0.52704476E+03</rscale>
<asrwt>0</asrwt>
<pdfrwt beam="1">  1        2 0.53933900E-01 0.68437197E+03</pdfrwt>
<pdfrwt beam="2">  1       -2 0.17452346E+00 0.68437197E+03</pdfrwt>
<totfact> 0.18639130E+01</totfact>
</mgrwt>
</event>
<event>
 4    5  0.8511149E-008  0.1495435E+04  0.7818608E-02  0.8912866E-01
         -2   -1    0    0    0  501 -0.00000000000E+00  0.00000000000E+00  0.71879407038E+03  0.71879407038E+03  0.25500000000E-02 0.  1.
          2   -1    0    0  501    0  0.00000000000E+00 -0.00000000000E+00 -0.39615872812E+04  0.39615872812E+04  0.25500000000E-02 0. -1.
    8880023    1    1    2    0    0 -0.91616109771E+03 -0.98140969915E+03 -0.42390563968E+03  0.15543559284E+04  0.65864270000E+03 0.  0.
    8880022    1    1    2    0    0  0.91616109771E+03  0.98140969915E+03 -0.28188875711E+04  0.31260254231E+04  0.15294330000E+03 0.  0.
<mgrwt>
<rscale>  0 0.14580102E+04</rscale>
<asrwt>0</asrwt>
<pdfrwt beam="1">  1        2 0.60947495E+00 0.14954352E+04</pdfrwt>
<pdfrwt beam="2">  1       -2 0.11058371E+00 0.14954352E+04</pdfrwt>
<totfact> 0.23060809E-01</totfact>
</mgrwt>
</event>
<event>
 4    5  0.8511149E-008  0.9079176E+03  0.7818608E-02  0.9513439E-01
         -2   -1    0    0    0  501 -0.00000000000E+00  0.00000000000E+00  0.40182855216E+03  0.40182855216E+03  0.25500000000E-02 0.  1.
          2   -1    0    0  501    0  0.00000000000E+00 -0.00000000000E+00 -0.27715613713E+04  0.27715613713E+04  0.25500000000E-02 0. -1.
    8880023    1    1    2    0    0  0.51030335052E+01 -0.62488253718E+03 -0.22658840557E+03  0.93576532209E+03  0.65864270000E+03 0.  0.
    8880022    1    1    2    0    0 -0.51030335052E+01  0.62488253718E+03 -0.21431444136E+04  0.22376246014E+04  0.15294330000E+03 0.  0.
<mgrwt>
<rscale>  0 0.83300235E+03</rscale>
<asrwt>0</asrwt>
<pdfrwt beam="1">  1        2 0.42639404E+00 0.90791764E+03</pdfrwt>
<pdfrwt beam="2">  1       -2 0.61819779E-01 0.90791764E+03</pdfrwt>
<totfact> 0.60269698E+00</totfact>
</mgrwt>
</event>
<event>
 4    5  0.8511149E-008  0.7415234E+03  0.7818608E-02  0.9855531E-01
         -2   -1    0    0    0  501 -0.00000000000E+00  0.00000000000E+00  0.24025022168E+03  0.24025022170E+03  0.25500000000E-02 0.  1.
          2   -1    0    0  501    0  0.00000000000E+00 -0.00000000000E+00 -0.14648320422E+04  0.14648320422E+04  0.25500000000E-02 0. -1.
    8880023    1    1    2    0    0 -0.33748854039E+03  0.46349688199E+02 -0.51365182879E+03  0.90205056176E+03  0.65864270000E+03 0.  0.
    8880022    1    1    2    0    0  0.33748854039E+03 -0.46349688199E+02 -0.71092999173E+03  0.80303170214E+03  0.15294330000E+03 0.  0.
<mgrwt>
<rscale>  0 0.62465682E+03</rscale>
<asrwt>0</asrwt>
<pdfrwt beam="1">  1        2 0.22535877E+00 0.74152344E+03</pdfrwt>
<pdfrwt beam="2">  1       -2 0.36961573E-01 0.74152344E+03</pdfrwt>
<totfact> 0.93407056E+01</totfact>
</mgrwt>
</event>
<event>
 4    5  0.8511149E-008  0.1103426E+04  0.7818608E-02  0.9257251E-01
          2   -1    0    0  501    0  0.00000000000E+00  0.00000000000E+00  0.20637733263E+04  0.20637733263E+04  0.25500000000E-02 0. -1.
         -2   -1    0    0    0  501 -0.00000000000E+00 -0.00000000000E+00 -0.10215111347E+04  0.10215111347E+04  0.25500000000E-02 0.  1.
    8880023    1    1    2    0    0 -0.87862109077E+03  0.10846398555E+03 -0.56823874416E+03  0.12411466206E+04  0.65864270000E+03 0.  1.
    8880022    1    1    2    0    0  0.87862109077E+03 -0.10846398555E+03  0.16105009358E+04  0.18441378404E+04  0.15294330000E+03 0.  0.
<mgrwt>
<rscale>  0 0.10481550E+04</rscale>
<asrwt>0</asrwt>
<pdfrwt beam="1">  1        2 0.31750359E+00 0.11034263E+04</pdfrwt>
<pdfrwt beam="2">  1       -2 0.15715556E+00 0.11034263E+04</pdfrwt>
<totfact> 0.16032804E+00</totfact>
</mgrwt>
</event>
<event>
 4    5  0.8511149E-008  0.1477128E+04  0.7818608E-02  0.8925958E-01
          2   -1    0    0  501    0  0.00000000000E+00  0.00000000000E+00  0.39929689538E+04  0.39929689538E+04  0.25500000000E-02 0. -1.
         -2   -1    0    0    0  501 -0.00000000000E+00 -0.00000000000E+00 -0.52802179464E+03  0.52802179464E+03  0.25500000000E-02 0.  1.
    8880023    1    1    2    0    0  0.68658166268E+03  0.11299119725E+04  0.23923159635E+04  0.28115976456E+04  0.65864270000E+03 0.  0.
    8880022    1    1    2    0    0 -0.68658166268E+03 -0.11299119725E+04  0.10726311956E+04  0.17093931028E+04  0.15294330000E+03 0.  0.
<mgrwt>
<rscale>  0 0.14391489E+04</rscale>
<asrwt>0</asrwt>
<pdfrwt beam="1">  1        2 0.61430293E+00 0.14771275E+04</pdfrwt>
<pdfrwt beam="2">  1       -2 0.81234120E-01 0.14771275E+04</pdfrwt>
<totfact> 0.45220379E-01</totfact>
</mgrwt>
</event>
<event>
 4    5  0.8511149E-008  0.9020054E+03  0.7818608E-02  0.9522820E-01
          2   -1    0    0  501    0  0.00000000000E+00  0.00000000000E+00  0.24038047419E+04  0.24038047419E+04  0.25500000000E-02 0. -1.
         -2   -1    0    0    0  501 -0.00000000000E+00 -0.00000000000E+00 -0.47999573792E+03  0.47999573792E+03  0.25500000000E-02 0.  1.
    8880023    1    1    2    0    0  0.59931483312E+03 -0.14361484785E+03  0.47830488097E+02  0.90327263634E+03  0.65864270000E+03 0.  1.
    8880022    1    1    2    0    0 -0.59931483312E+03  0.14361484785E+03  0.18759785159E+04  0.19805278435E+04  0.15294330000E+03 0.  0.
<mgrwt>
<rscale>  0 0.82622105E+03</rscale>
<asrwt>0</asrwt>
<pdfrwt beam="1">  1        2 0.36981612E+00 0.90200538E+03</pdfrwt>
<pdfrwt beam="2">  1       -2 0.73845498E-01 0.90200538E+03</pdfrwt>
<totfact> 0.66825468E+00</totfact>
</mgrwt>
</event>
<event>
 4    5  0.8511149E-008  0.7519394E+03  0.7818608E-02  0.9826441E-01
         -2   -1    0    0    0  501 -0.00000000000E+00  0.00000000000E+00  0.19215715892E+03  0.19215715894E+03  0.25500000000E-02 0.  1.
          2   -1    0    0  501    0  0.00000000000E+00 -0.00000000000E+00 -0.33467044898E+04  0.33467044898E+04  0.25500000000E-02 0. -1.
    8880023    1    1    2    0    0  0.25509374135E+03 -0.25793386173E+03 -0.62188740302E+03  0.97578524389E+03  0.65864270000E+03 0.  1.
    8880022    1    1    2    0    0 -0.25509374135E+03  0.25793386173E+03 -0.25326599279E+04  0.25630764049E+04  0.15294330000E+03 0.  0.
<mgrwt>
<rscale>  0 0.63962676E+03</rscale>
<asrwt>0</asrwt>
<pdfrwt beam="1">  1        2 0.51487757E+00 0.75193943E+03</pdfrwt>
<pdfrwt beam="2">  1       -2 0.29562642E-01 0.75193943E+03</pdfrwt>
<totfact> 0.11715907E+01</totfact>
</mgrwt>
</event>
<event>
 4    5  0.8511149E-008  0.7709200E+03  0.7818608E-02  0.9777615E-01
          2   -1    0    0  501    0  0.00000000000E+00  0.00000000000E+00  0.13536385141E+04  0.13536385141E+04  0.25500000000E-02 0. -1.
         -2   -1    0    0    0  501 -0.00000000000E+00 -0.00000000000E+00 -0.37314725499E+03  0.37314725500E+03  0.25500000000E-02 0.  1.
    8880023    1    1    2    0    0 -0.37871124648E+03  0.13071054568E+03  0.14044028970E+03  0.78360776936E+03  0.65864270000E+03 0.  1.
    8880022    1    1    2    0    0  0.37871124648E+03 -0.13071054568E+03  0.84005096941E+03  0.94317799974E+03  0.15294330000E+03 0. -1.
<mgrwt>
<rscale>  0 0.66577800E+03</rscale>
<asrwt>0</asrwt>
<pdfrwt beam="1">  1        2 0.20825208E+00 0.77092001E+03</pdfrwt>
<pdfrwt beam="2">  1       -2 0.57407271E-01 0.77092001E+03</pdfrwt>
<totfact> 0.44522833E+01</totfact>
</mgrwt>
</event>
<event>
 4    5  0.8511149E-008  0.7441852E+03  0.7818608E-02  0.9847919E-01
          2   -1    0    0  501    0  0.00000000000E+00  0.00000000000E+00  0.18305696468E+04  0.18305696468E+04  0.25500000000E-02 0. -1.
         -2   -1    0    0    0  501 -0.00000000000E+00 -0.00000000000E+00 -0.34800887173E+03  0.34800887174E+03  0.25500000000E-02 0.  1.
    8880023    1    1    2    0    0 -0.12619566653E+03 -0.32260815374E+03  0.10698820030E+03  0.75183645055E+03  0.65864270000E+03 0.  1.
    8880022    1    1    2    0    0  0.12619566653E+03  0.32260815374E+03  0.13755725747E+04  0.14267420680E+04  0.15294330000E+03 0.  0.
<mgrwt>
<rscale>  0 0.62853109E+03</rscale>
<asrwt>0</asrwt>
<pdfrwt beam="1">  1        2 0.28162610E+00 0.74418517E+03</pdfrwt>
<pdfrwt beam="2">  1       -2 0.53539826E-01 0.74418517E+03</pdfrwt>
<totfact> 0.28104570E+01</totfact>
</mgrwt>
</event>
<event>
 4    5  0.8511149E-008  0.1239745E+04  0.7818608E-02  0.9119424E-01
          2   -1    0    0  501    0  0.00000000000E+00  0.00000000000E+00  0.31345568227E+04  0.31345568227E+04  0.25500000000E-02 0. -1.
         -2   -1    0    0    0  501 -0.00000000000E+00 -0.00000000000E+00 -0.11567470024E+04  0.11567470024E+04  0.25500000000E-02 0.  1.
    8880023    1    1    2    0    0 -0.85257104847E+03  0.61341578568E+03 -0.69090671729E+03  0.14192669295E+04  0.65864270000E+03 0.  1.
    8880022    1    1    2    0    0  0.85257104847E+03 -0.61341578568E+03  0.26687165376E+04  0.28720368957E+04  0.15294330000E+03 0.  0.
<mgrwt>
<rscale>  0 0.11925260E+04</rscale>
<asrwt>0</asrwt>
<pdfrwt beam="1">  1        2 0.48223951E+00 0.12397445E+04</pdfrwt>
<pdfrwt beam="2">  1       -2 0.17796108E+00 0.12397445E+04</pdfrwt>
<totfact> 0.26241531E-01</totfact>
</mgrwt>
</event>
<event>
 4    5  0.8511149E-008  0.6721699E+03  0.7818608E-02  0.1014153E+00
          2   -1    0    0  501    0  0.00000000000E+00  0.00000000000E+00  0.80448306384E+03  0.80448306384E+03  0.25500000000E-02 0. -1.
         -2   -1    0    0    0  501 -0.00000000000E+00 -0.00000000000E+00 -0.59479930059E+03  0.59479930059E+03  0.25500000000E-02 0.  1.
    8880023    1    1    2    0    0  0.10873787364E+03  0.78601553623E+02 -0.38232076196E+03  0.77329263587E+03  0.65864270000E+03 0.  1.
    8880022    1    1    2    0    0 -0.10873787364E+03 -0.78601553623E+02  0.59200452521E+03  0.62598972857E+03  0.15294330000E+03 0.  0.
<mgrwt>
<rscale>  0 0.49857003E+03</rscale>
<asrwt>0</asrwt>
<pdfrwt beam="1">  1        2 0.12376662E+00 0.67216987E+03</pdfrwt>
<pdfrwt beam="2">  1       -2 0.91507585E-01 0.67216987E+03</pdfrwt>
<totfact> 0.35508802E+01</totfact>
</mgrwt>
</event>
<event>
 4    5  0.8511149E-008  0.8023313E+03  0.7818608E-02  0.9705778E-01
         -2   -1    0    0    0  501 -0.00000000000E+00  0.00000000000E+00  0.98674019651E+03  0.98674019651E+03  0.25500000000E-02 0.  1.
          2   -1    0    0  501    0  0.00000000000E+00 -0.00000000000E+00 -0.56450289098E+03  0.56450289098E+03  0.25500000000E-02 0. -1.
    8880023    1    1    2    0    0 -0.34530525490E+01  0.45816306307E+03  0.63521558311E+03  0.10233446923E+04  0.65864270000E+03 0.  0.
    8880022    1    1    2    0    0  0.34530525490E+01 -0.45816306307E+03 -0.21297827758E+03  0.52789839521E+03  0.15294330000E+03 0.  0.
<mgrwt>
<rscale>  0 0.70673825E+03</rscale>
<asrwt>0</asrwt>
<pdfrwt beam="1">  1        2 0.86846600E-01 0.80233130E+03</pdfrwt>
<pdfrwt beam="2">  1       -2 0.15180618E+00 0.80233130E+03</pdfrwt>
<totfact> 0.15636431E+01</totfact>
</mgrwt>
</event>
<event>
 4    5  0.8511149E-008  0.8473795E+03  0.7818608E-02  0.9616419E-01
         -2   -1    0    0    0  501 -0.00000000000E+00  0.00000000000E+00  0.31470181018E+03  0.31470181019E+03  0.25500000000E-02 0.  1.
          2   -1    0    0  501    0  0.00000000000E+00 -0.00000000000E+00 -0.21967186436E+04  0.21967186436E+04  0.25500000000E-02 0. -1.
    8880023    1    1    2    0    0  0.51190997801E+03  0.14896328319E+03 -0.17453555823E+04  0.19401850943E+04  0.65864270000E+03 0.  0.
    8880022    1    1    2    0    0 -0.51190997801E+03 -0.14896328319E+03 -0.13666125112E+03  0.57123535946E+03  0.15294330000E+03 0.  0.
<mgrwt>
<rscale>  0 0.76218903E+03</rscale>
<asrwt>0</asrwt>
<pdfrwt beam="1">  1        2 0.33795671E+00 0.84737954E+03</pdfrwt>
<pdfrwt beam="2">  1       -2 0.48415664E-01 0.84737954E+03</pdfrwt>
<totfact> 0.21472135E+01</totfact>
</mgrwt>
</event>
<event>
 4    5  0.8511149E-008  0.7197165E+03  0.7818608E-02  0.9923546E-01
          2   -1    0    0  501    0  0.00000000000E+00  0.00000000000E+00  0.13971922985E+04  0.13971922985E+04  0.25500000000E-02 0. -1.
         -2   -1    0    0    0  501 -0.00000000000E+00 -0.00000000000E+00 -0.30214216151E+03  0.30214216152E+03  0.25500000000E-02 0.  1.
    8880023    1    1    2    0    0 -0.38725812962E+02  0.28754463805E+03  0.20135065817E+03  0.74735125695E+03  0.65864270000E+03 0.  1.
    8880022    1    1    2    0    0  0.38725812962E+02 -0.28754463805E+03  0.89369947878E+03  0.95198320303E+03  0.15294330000E+03 0.  0.
<mgrwt>
<rscale>  0 0.59133574E+03</rscale>
<asrwt>0</asrwt>
<pdfrwt beam="1">  1        2 0.21495266E+00 0.71971648E+03</pdfrwt>
<pdfrwt beam="2">  1       -2 0.46483410E-01 0.71971648E+03</pdfrwt>
<totfact> 0.65147524E+01</totfact>
</mgrwt>
</event>
<event>
 4    5  0.8511149E-008  0.8838015E+03  0.7818608E-02  0.9552552E-01
          2   -1    0    0  501    0  0.00000000000E+00  0.00000000000E+00  0.21565919277E+04  0.21565919277E+04  0.25500000000E-02 0. -1.
         -2   -1    0    0    0  501 -0.00000000000E+00 -0.00000000000E+00 -0.66876663115E+03  0.66876663116E+03  0.25500000000E-02 0.  1.
    8880023    1    1    2    0    0  0.17217384926E+03 -0.56360539340E+03 -0.30266001314E+03  0.93418850542E+03  0.65864270000E+03 0.  1.
    8880022    1    1    2    0    0 -0.17217384926E+03  0.56360539340E+03  0.17904853097E+04  0.18911700534E+04  0.15294330000E+03 0.  0.
<mgrwt>
<rscale>  0 0.80517800E+03</rscale>
<asrwt>0</asrwt>
<pdfrwt beam="1">  1        2 0.33178337E+00 0.88380149E+03</pdfrwt>
<pdfrwt beam="2">  1       -2 0.10288717E+00 0.88380149E+03</pdfrwt>
<totfact> 0.42933922E+00</totfact>
</mgrwt>
</event>
<event>
 4    5  0.8511149E-008  0.9167513E+03  0.7818608E-02  0.9499658E-01
         -2   -1    0    0    0  501 -0.00000000000E+00  0.00000000000E+00  0.40492763820E+03  0.40492763820E+03  0.25500000000E-02 0.  1.
          2   -1    0    0  501    0  0.00000000000E+00 -0.00000000000E+00 -0.21575328233E+04  0.21575328233E+04  0.25500000000E-02 0. -1.
    8880023    1    1    2    0    0  0.93102648232E+02 -0.63083638941E+03 -0.29319610919E+03  0.96249510026E+03  0.65864270000E+03 0.  1.
    8880022    1    1    2    0    0 -0.93102648232E+02  0.63083638941E+03 -0.14594090759E+04  0.15999653612E+04  0.15294330000E+03 0.  0.
<mgrwt>
<rscale>  0 0.84309011E+03</rscale>
<asrwt>0</asrwt>
<pdfrwt beam="1">  1        2 0.33192812E+00 0.91675125E+03</pdfrwt>
<pdfrwt beam="2">  1       -2 0.62296561E-01 0.91675125E+03</pdfrwt>
<totfact> 0.13248381E+01</totfact>
</mgrwt>
</event>
<event>
 4    5  0.8511149E-008  0.6647355E+03  0.7818608E-02  0.1019756E+00
         -2   -1    0    0    0  501 -0.00000000000E+00  0.00000000000E+00  0.34380648675E+03  0.34380648676E+03  0.25500000000E-02 0.  1.
          2   -1    0    0  501    0  0.00000000000E+00 -0.00000000000E+00 -0.12915587763E+04  0.12915587763E+04  0.25500000000E-02 0. -1.
    8880023    1    1    2    0    0 -0.77287241738E+01  0.89461074943E+02  0.65043760204E+01  0.66476727528E+03  0.65864270000E+03 0.  1.
    8880022    1    1    2    0    0  0.77287241738E+01 -0.89461074943E+02 -0.95425666558E+03  0.97059798780E+03  0.15294330000E+03 0.  0.
<mgrwt>
<rscale>  0 0.47774624E+03</rscale>
<asrwt>0</asrwt>
<pdfrwt beam="1">  1        2 0.19870135E+00 0.66473545E+03</pdfrwt>
<pdfrwt beam="2">  1       -2 0.52893306E-01 0.66473545E+03</pdfrwt>
<totfact> 0.57901044E+01</totfact>
</mgrwt>
</event>
<event>
 4    5  0.8511149E-008  0.7739787E+03  0.7818608E-02  0.9770176E-01
         -2   -1    0    0    0  501 -0.00000000000E+00  0.00000000000E+00  0.13151432510E+04  0.13151432510E+04  0.25500000000E-02 0.  1.
          2   -1    0    0  501    0  0.00000000000E+00 -0.00000000000E+00 -0.14967507200E+04  0.14967507200E+04  0.25500000000E-02 0. -1.
    8880023    1    1    2    0    0 -0.30428860979E+03 -0.26952055451E+03  0.11640559636E+04  0.13978803168E+04  0.65864270000E+03 0.  1.
    8880022    1    1    2    0    0  0.30428860979E+03  0.26952055451E+03 -0.13456634326E+04  0.14140136542E+04  0.15294330000E+03 0.  0.
<mgrwt>
<rscale>  0 0.66987929E+03</rscale>
<asrwt>0</asrwt>
<pdfrwt beam="1">  1        2 0.23026934E+00 0.77397874E+03</pdfrwt>
<pdfrwt beam="2">  1       -2 0.20232973E+00 0.77397874E+03</pdfrwt>
<totfact> 0.16832620E+00</totfact>
</mgrwt>
</event>
<event>
 4    5  0.8511149E-008  0.6826974E+03  0.7818608E-02  0.1007837E+00
          2   -1    0    0  501    0  0.00000000000E+00  0.00000000000E+00  0.12052151569E+04  0.12052151569E+04  0.25500000000E-02 0. -1.
         -2   -1    0    0    0  501 -0.00000000000E+00 -0.00000000000E+00 -0.39774279291E+03  0.39774279292E+03  0.25500000000E-02 0.  1.
    8880023    1    1    2    0    0 -0.11433883197E+03  0.13853561994E+03 -0.77497558204E+02  0.68708191963E+03  0.65864270000E+03 0.  1.
    8880022    1    1    2    0    0  0.11433883197E+03 -0.13853561994E+03  0.88496992217E+03  0.91587603018E+03  0.15294330000E+03 0.  0.
<mgrwt>
<rscale>  0 0.52343322E+03</rscale>
<asrwt>0</asrwt>
<pdfrwt beam="1">  1        2 0.18541771E+00 0.68269737E+03</pdfrwt>
<pdfrwt beam="2">  1       -2 0.61191200E-01 0.68269737E+03</pdfrwt>
<totfact> 0.47872507E+01</totfact>
</mgrwt>
</event>
<event>
 4    5  0.8511149E-008  0.1471829E+04  0.7818608E-02  0.8929789E-01
         -2   -1    0    0    0  501 -0.00000000000E+00  0.00000000000E+00  0.13948993767E+04  0.13948993767E+04  0.25500000000E-02 0.  1.
          2   -1    0    0  501    0  0.00000000000E+00 -0.00000000000E+00 -0.15306046151E+04  0.15306046151E+04  0.25500000000E-02 0. -1.
    8880023    1    1    2    0    0  0.41688542605E+03  0.12484698505E+04 -0.49453376353E+03  0.15526893687E+04  0.65864270000E+03 0.  0.
    8880022    1    1    2    0    0 -0.41688542605E+03 -0.12484698505E+04  0.35882852506E+03  0.13728146231E+04  0.15294330000E+03 0.  0.
<mgrwt>
<rscale>  0 0.14336869E+04</rscale>
<asrwt>0</asrwt>
<pdfrwt beam="1">  1        2 0.23547763E+00 0.14718290E+04</pdfrwt>
<pdfrwt beam="2">  1       -2 0.21459990E+00 0.14718290E+04</pdfrwt>
<totfact> 0.12314422E+00</totfact>
</mgrwt>
</event>
<event>
 4    5  0.8511149E-008  0.9828401E+03  0.7818608E-02  0.9404360E-01
          2   -1    0    0  501    0  0.00000000000E+00  0.00000000000E+00  0.20052729878E+04  0.20052729878E+04  0.25500000000E-02 0. -1.
         -2   -1    0    0    0  501 -0.00000000000E+00 -0.00000000000E+00 -0.14690819951E+04  0.14690819951E+04  0.25500000000E-02 0.  1.
    8880023    1    1    2    0    0  0.56968152437E+03  0.45566162053E+03 -0.12199377748E+04  0.15665959697E+04  0.65864270000E+03 0.  0.
    8880022    1    1    2    0    0 -0.56968152437E+03 -0.45566162053E+03  0.17561287674E+04  0.19077590132E+04  0.15294330000E+03 0.  0.
<mgrwt>
<rscale>  0 0.91717702E+03</rscale>
<asrwt>0</asrwt>
<pdfrwt beam="1">  1        2 0.30850353E+00 0.98284015E+03</pdfrwt>
<pdfrwt beam="2">  1       -2 0.22601262E+00 0.98284015E+03</pdfrwt>
<totfact> 0.60314277E-01</totfact>
</mgrwt>
</event>
<event>
 4    5  0.8511149E-008  0.8854957E+03  0.7818608E-02  0.9549729E-01
         -2   -1    0    0    0  501 -0.00000000000E+00  0.00000000000E+00  0.23470758871E+03  0.23470758873E+03  0.25500000000E-02 0.  1.
          2   -1    0    0  501    0  0.00000000000E+00 -0.00000000000E+00 -0.24145116070E+04  0.24145116070E+04  0.25500000000E-02 0. -1.
    8880023    1    1    2    0    0  0.28417962863E+02  0.59117250196E+03 -0.11466013631E+04  0.14487226787E+04  0.65864270000E+03 0.  0.
    8880022    1    1    2    0    0 -0.28417962863E+02 -0.59117250196E+03 -0.10332026552E+04  0.12004965170E+04  0.15294330000E+03 0.  0.
<mgrwt>
<rscale>  0 0.80714757E+03</rscale>
<asrwt>0</asrwt>
<pdfrwt beam="1">  1        2 0.37146331E+00 0.88549574E+03</pdfrwt>
<pdfrwt beam="2">  1       -2 0.36108861E-01 0.88549574E+03</pdfrwt>
<totfact> 0.28795004E+01</totfact>
</mgrwt>
</event>
<event>
 4    5  0.8511149E-008  0.1236890E+04  0.7818608E-02  0.9122071E-01
          2   -1    0    0  501    0  0.00000000000E+00  0.00000000000E+00  0.14066149900E+04  0.14066149900E+04  0.25500000000E-02 0. -1.
         -2   -1    0    0    0  501 -0.00000000000E+00 -0.00000000000E+00 -0.14994591464E+04  0.14994591464E+04  0.25500000000E-02 0.  1.
    8880023    1    1    2    0    0  0.74790237512E+02  0.10442666133E+04 -0.93765309461E+03  0.15521243093E+04  0.65864270000E+03 0.  0.
    8880022    1    1    2    0    0 -0.74790237512E+02 -0.10442666133E+04  0.84480893820E+03  0.13539498271E+04  0.15294330000E+03 0.  0.
<mgrwt>
<rscale>  0 0.11895295E+04</rscale>
<asrwt>0</asrwt>
<pdfrwt beam="1">  1        2 0.21640231E+00 0.12368899E+04</pdfrwt>
<pdfrwt beam="2">  1       -2 0.23068602E+00 0.12368899E+04</pdfrwt>
<totfact> 0.11741075E+00</totfact>
</mgrwt>
</event>
<event>
 4    5  0.8511149E-008  0.7781094E+03  0.7818608E-02  0.9760297E-01
         -2   -1    0    0    0  501 -0.00000000000E+00  0.00000000000E+00  0.13541606409E+04  0.13541606409E+04  0.25500000000E-02 0.  1.
          2   -1    0    0  501    0  0.00000000000E+00 -0.00000000000E+00 -0.10233018088E+04  0.10233018088E+04  0.25500000000E-02 0. -1.
    8880023    1    1    2    0    0 -0.39783931701E+03 -0.11561995116E+03  0.11839984409E+04  0.14167944839E+04  0.65864270000E+03 0.  1.
    8880022    1    1    2    0    0  0.39783931701E+03  0.11561995116E+03 -0.85313960881E+03  0.96066796574E+03  0.15294330000E+03 0.  0.
<mgrwt>
<rscale>  0 0.67537471E+03</rscale>
<asrwt>0</asrwt>
<pdfrwt beam="1">  1        2 0.15743105E+00 0.77810944E+03</pdfrwt>
<pdfrwt beam="2">  1       -2 0.20833241E+00 0.77810944E+03</pdfrwt>
<totfact> 0.29183223E+00</totfact>
</mgrwt>
</event>
<event>
 4    5  0.8511149E-008  0.1364156E+04  0.7818608E-02  0.9012047E-01
         -2   -1    0    0    0  501 -0.00000000000E+00  0.00000000000E+00  0.12382424693E+04  0.12382424693E+04  0.25500000000E-02 0.  1.
          2   -1    0    0  501    0  0.00000000000E+00 -0.00000000000E+00 -0.41207348388E+04  0.41207348388E+04  0.25500000000E-02 0. -1.
    8880023    1    1    2    0    0 -0.11490421891E+04 -0.32682347291E+03  0.73268321597E+03  0.15484658330E+04  0.65864270000E+03 0.  0.
    8880022    1    1    2    0    0  0.11490421891E+04  0.32682347291E+03 -0.36151755855E+04  0.38105114750E+04  0.15294330000E+03 0.  0.
<mgrwt>
<rscale>  0 0.13223240E+04</rscale>
<asrwt>0</asrwt>
<pdfrwt beam="1">  1        2 0.63395920E+00 0.13641561E+04</pdfrwt>
<pdfrwt beam="2">  1       -2 0.19049884E+00 0.13641561E+04</pdfrwt>
<totfact> 0.40978599E-02</totfact>
</mgrwt>
</event>
<event>
 4    5  0.9688743E-008  0.1150066E+04  0.7818608E-02  0.9207260E-01
          2   -1    0    0  501    0  0.00000000000E+00  0.00000000000E+00  0.25528900634E+04  0.25528900634E+04  0.25500000000E-02 0. -1.
         -2   -1    0    0    0  501 -0.00000000000E+00 -0.00000000000E+00 -0.12460243426E+04  0.12460243426E+04  0.25500000000E-02 0.  1.
    8880023    1    1    2    0    0 -0.93993828668E+03 -0.73188727454E+02 -0.85658710706E+03  0.14340126397E+04  0.65864270000E+03 0.  0.
    8880022    1    1    2    0    0  0.93993828668E+03  0.73188727454E+02  0.21634528279E+04  0.23649017662E+04  0.15294330000E+03 0.  0.
<mgrwt>
<rscale>  0 0.10978806E+04</rscale>
<asrwt>0</asrwt>
<pdfrwt beam="1">  1        2 0.39275231E+00 0.11500656E+04</pdfrwt>
<pdfrwt beam="2">  1       -2 0.19169605E+00 0.11500656E+04</pdfrwt>
<totfact> 0.48162485E-01</totfact>
</mgrwt>
</event>
<event>
 4    5  0.1149755E-007  0.7016064E+03  0.7818608E-02  0.9990601E-01
         -2   -1    0    0    0  501 -0.00000000000E+00  0.00000000000E+00  0.19620247429E+04  0.19620247429E+04  0.25500000000E-02 0.  1.
          2   -1    0    0  501    0  0.00000000000E+00 -0.00000000000E+00 -0.18360431815E+04  0.18360431815E+04  0.25500000000E-02 0. -1.
    8880023    1    1    2    0    0 -0.40326088364E+02 -0.23835930141E+03  0.18873921785E+04  0.20135790999E+04  0.65864270000E+03 0.  1.
    8880022    1    1    2    0    0  0.40326088364E+02  0.23835930141E+03 -0.17614106170E+04  0.17844888245E+04  0.15294330000E+03 0.  0.
<mgrwt>
<rscale>  0 0.56064277E+03</rscale>
<asrwt>0</asrwt>
<pdfrwt beam="1">  1        2 0.28246818E+00 0.70160641E+03</pdfrwt>
<pdfrwt beam="2">  1       -2 0.30184996E+00 0.70160641E+03</pdfrwt>
<totfact> 0.27452768E-01</totfact>
</mgrwt>
</event>
<event>
 4    5  0.8511149E-008  0.1011393E+04  0.7818608E-02  0.9366801E-01
         -2   -1    0    0    0  501 -0.00000000000E+00  0.00000000000E+00  0.62180860797E+03  0.62180860797E+03  0.25500000000E-02 0.  1.
          2   -1    0    0  501    0  0.00000000000E+00 -0.00000000000E+00 -0.21540634834E+04  0.21540634834E+04  0.25500000000E-02 0. -1.
    8880023    1    1    2    0    0 -0.35355106608E+03  0.68125442418E+03  0.47899853548E+02  0.10125268140E+04  0.65864270000E+03 0.  1.
    8880022    1    1    2    0    0  0.35355106608E+03 -0.68125442418E+03 -0.15801547290E+04  0.17633452774E+04  0.15294330000E+03 0.  0.
<mgrwt>
<rscale>  0 0.94858895E+03</rscale>
<asrwt>0</asrwt>
<pdfrwt beam="1">  1        2 0.33139438E+00 0.10113932E+04</pdfrwt>
<pdfrwt beam="2">  1       -2 0.95662864E-01 0.10113932E+04</pdfrwt>
<totfact> 0.50331200E+00</totfact>
</mgrwt>
</event>
<event>
 4    5  0.1132143E-007  0.1514696E+04  0.7818608E-02  0.8899328E-01
          2   -1    0    0  501    0  0.00000000000E+00  0.00000000000E+00  0.28477742327E+04  0.28477742328E+04  0.25500000000E-02 0. -1.
         -2   -1    0    0    0  501 -0.00000000000E+00 -0.00000000000E+00 -0.17797248828E+04  0.17797248828E+04  0.25500000000E-02 0.  1.
    8880023    1    1    2    0    0  0.58462991056E+03 -0.12323558516E+04 -0.12297028107E+04  0.19510182690E+04  0.65864270000E+03 0.  1.
    8880022    1    1    2    0    0 -0.58462991056E+03  0.12323558516E+04  0.22977521606E+04  0.26764808465E+04  0.15294330000E+03 0.  0.
<mgrwt>
<rscale>  0 0.14778347E+04</rscale>
<asrwt>0</asrwt>
<pdfrwt beam="1">  1        2 0.43811910E+00 0.15146958E+04</pdfrwt>
<pdfrwt beam="2">  1       -2 0.27380383E+00 0.15146958E+04</pdfrwt>
<totfact> 0.93172625E-02</totfact>
</mgrwt>
</event>
<event>
 4    5  0.8511149E-008  0.8393489E+03  0.7818608E-02  0.9631409E-01
          2   -1    0    0  501    0  0.00000000000E+00  0.00000000000E+00  0.14202242368E+04  0.14202242368E+04  0.25500000000E-02 0. -1.
         -2   -1    0    0    0  501 -0.00000000000E+00 -0.00000000000E+00 -0.53123634992E+03  0.53123634993E+03  0.25500000000E-02 0.  1.
    8880023    1    1    2    0    0 -0.51997404185E+03  0.17980389834E+02 -0.77816834682E+02  0.84294837602E+03  0.65864270000E+03 0.  1.
    8880022    1    1    2    0    0  0.51997404185E+03 -0.17980389834E+02  0.96680472152E+03  0.11085122107E+04  0.15294330000E+03 0.  1.
<mgrwt>
<rscale>  0 0.75251737E+03</rscale>
<asrwt>0</asrwt>
<pdfrwt beam="1">  1        2 0.21849603E+00 0.83934886E+03</pdfrwt>
<pdfrwt beam="2">  1       -2 0.81728670E-01 0.83934886E+03</pdfrwt>
<totfact> 0.18787638E+01</totfact>
</mgrwt>
</event>
<event>
 4    5  0.8511149E-008  0.8899267E+03  0.7818608E-02  0.9542400E-01
          2   -1    0    0  501    0  0.00000000000E+00  0.00000000000E+00  0.77390147614E+03  0.77390147614E+03  0.25500000000E-02 0. -1.
         -2   -1    0    0    0  501 -0.00000000000E+00 -0.00000000000E+00 -0.96134558583E+03  0.96134558583E+03  0.25500000000E-02 0.  1.
    8880023    1    1    2    0    0  0.16656990264E+03 -0.57481628189E+03 -0.52306105784E+03  0.10322608037E+04  0.65864270000E+03 0.  1.
    8880022    1    1    2    0    0 -0.16656990264E+03  0.57481628189E+03  0.33561694815E+03  0.70298625825E+03  0.15294330000E+03 0.  0.
<mgrwt>
<rscale>  0 0.81228744E+03</rscale>
<asrwt>0</asrwt>
<pdfrwt beam="1">  1        2 0.11906177E+00 0.88992668E+03</pdfrwt>
<pdfrwt beam="2">  1       -2 0.14789932E+00 0.88992668E+03</pdfrwt>
<totfact> 0.11213027E+01</totfact>
</mgrwt>
</event>
<event>
 4    5  0.8511149E-008  0.8375777E+03  0.7818608E-02  0.9634765E-01
          2   -1    0    0  501    0  0.00000000000E+00  0.00000000000E+00  0.18467011577E+04  0.18467011577E+04  0.25500000000E-02 0. -1.
         -2   -1    0    0    0  501 -0.00000000000E+00 -0.00000000000E+00 -0.94169000126E+03  0.94169000127E+03  0.25500000000E-02 0.  1.
    8880023    1    1    2    0    0  0.30430597265E+03  0.41847828865E+03 -0.70222756761E+03  0.10930050165E+04  0.65864270000E+03 0.  0.
    8880022    1    1    2    0    0 -0.30430597265E+03 -0.41847828865E+03  0.16072387241E+04  0.16953861425E+04  0.15294330000E+03 0.  0.
<mgrwt>
<rscale>  0 0.75037341E+03</rscale>
<asrwt>0</asrwt>
<pdfrwt beam="1">  1        2 0.28410787E+00 0.83757770E+03</pdfrwt>
<pdfrwt beam="2">  1       -2 0.14487539E+00 0.83757770E+03</pdfrwt>
<totfact> 0.27204996E+00</totfact>
</mgrwt>
</event>
<event>
 4    5  0.8511149E-008  0.1141325E+04  0.7818608E-02  0.9216383E-01
          2   -1    0    0  501    0  0.00000000000E+00  0.00000000000E+00  0.19378314597E+04  0.19378314597E+04  0.25500000000E-02 0. -1.
         -2   -1    0    0    0  501 -0.00000000000E+00 -0.00000000000E+00 -0.11017003014E+04  0.11017003014E+04  0.25500000000E-02 0.  1.
    8880023    1    1    2    0    0 -0.59574462879E+03 -0.71686863626E+03  0.15001222007E+04  0.18849374334E+04  0.65864270000E+03 0. -1.
    8880022    1    1    2    0    0  0.59574462879E+03  0.71686863626E+03 -0.66399104232E+03  0.11545943278E+04  0.15294330000E+03 0.  1.
<mgrwt>
<rscale>  0 0.10885916E+04</rscale>
<asrwt>0</asrwt>
<pdfrwt beam="1">  1        2 0.29812791E+00 0.11413249E+04</pdfrwt>
<pdfrwt beam="2">  1       -2 0.16949236E+00 0.11413249E+04</pdfrwt>
<totfact> 0.15215920E+00</totfact>
</mgrwt>
</event>
<event>
 4    5  0.8511149E-008  0.8121278E+03  0.7818608E-02  0.9685162E-01
          2   -1    0    0  501    0  0.00000000000E+00  0.00000000000E+00  0.27523731569E+04  0.27523731569E+04  0.25500000000E-02 0. -1.
         -2   -1    0    0    0  501 -0.00000000000E+00 -0.00000000000E+00 -0.55544418644E+03  0.55544418644E+03  0.25500000000E-02 0.  1.
    8880023    1    1    2    0    0  0.31964860228E+03 -0.35151981654E+03 -0.21878131837E+03  0.84108078202E+03  0.65864270000E+03 0.  1.
    8880022    1    1    2    0    0 -0.31964860228E+03  0.35151981654E+03  0.24157102888E+04  0.24667365613E+04  0.15294330000E+03 0.  0.
<mgrwt>
<rscale>  0 0.71907173E+03</rscale>
<asrwt>0</asrwt>
<pdfrwt beam="1">  1        2 0.42344203E+00 0.81212783E+03</pdfrwt>
<pdfrwt beam="2">  1       -2 0.85452950E-01 0.81212783E+03</pdfrwt>
<totfact> 0.30766979E+00</totfact>
</mgrwt>
</event>
<event>
 4    5  0.8511149E-008  0.1035257E+04  0.7818608E-02  0.9336818E-01
         -2   -1    0    0    0  501 -0.00000000000E+00  0.00000000000E+00  0.43975920160E+03  0.43975920161E+03  0.25500000000E-02 0.  1.
          2   -1    0    0  501    0  0.00000000000E+00 -0.00000000000E+00 -0.24004835627E+04  0.24004835627E+04  0.25500000000E-02 0. -1.
    8880023    1    1    2    0    0  0.47317963976E+03  0.64346519763E+03 -0.45896907355E+03  0.11324350969E+04  0.65864270000E+03 0.  1.
    8880022    1    1    2    0    0 -0.47317963976E+03 -0.64346519763E+03 -0.15017552876E+04  0.17078076674E+04  0.15294330000E+03 0.  0.
<mgrwt>
<rscale>  0 0.97462828E+03</rscale>
<asrwt>0</asrwt>
<pdfrwt beam="1">  1        2 0.36930516E+00 0.10352568E+04</pdfrwt>
<pdfrwt beam="2">  1       -2 0.67655263E-01 0.10352568E+04</pdfrwt>
<totfact> 0.79947645E+00</totfact>
</mgrwt>
</event>
<event>
 4    5  0.8511149E-008  0.1124130E+04  0.7818608E-02  0.9234655E-01
         -2   -1    0    0    0  501 -0.00000000000E+00  0.00000000000E+00  0.11440484326E+04  0.11440484326E+04  0.25500000000E-02 0.  1.
          2   -1    0    0  501    0  0.00000000000E+00 -0.00000000000E+00 -0.11064581368E+04  0.11064581368E+04  0.25500000000E-02 0. -1.
    8880023    1    1    2    0    0  0.28037506089E+03 -0.86674509781E+03  0.48481887600E+03  0.12242208903E+04  0.65864270000E+03 0.  0.
    8880022    1    1    2    0    0 -0.28037506089E+03  0.86674509781E+03 -0.44722858016E+03  0.10262856792E+04  0.15294330000E+03 0.  0.
<mgrwt>
<rscale>  0 0.10702784E+04</rscale>
<asrwt>0</asrwt>
<pdfrwt beam="1">  1        2 0.17022433E+00 0.11241296E+04</pdfrwt>
<pdfrwt beam="2">  1       -2 0.17600745E+00 0.11241296E+04</pdfrwt>
<totfact> 0.40850673E+00</totfact>
</mgrwt>
</event>
<event>
 4    5  0.8511149E-008  0.1208369E+04  0.7818608E-02  0.9149030E-01
          2   -1    0    0  501    0  0.00000000000E+00  0.00000000000E+00  0.26993532984E+04  0.26993532984E+04  0.25500000000E-02 0. -1.
         -2   -1    0    0    0  501 -0.00000000000E+00 -0.00000000000E+00 -0.85081726205E+03  0.85081726205E+03  0.25500000000E-02 0.  1.
    8880023    1    1    2    0    0  0.40656414996E+03  0.92792803931E+03 -0.23255382450E+03  0.12305431084E+04  0.65864270000E+03 0.  0.
    8880022    1    1    2    0    0 -0.40656414996E+03 -0.92792803931E+03  0.20810898608E+04  0.23196274520E+04  0.15294330000E+03 0.  0.
<mgrwt>
<rscale>  0 0.11595371E+04</rscale>
<asrwt>0</asrwt>
<pdfrwt beam="1">  1        2 0.41528511E+00 0.12083688E+04</pdfrwt>
<pdfrwt beam="2">  1       -2 0.13089497E+00 0.12083688E+04</pdfrwt>
<totfact> 0.11128410E+00</totfact>
</mgrwt>
</event>
<event>
 4    5  0.8511149E-008  0.1217907E+04  0.7818608E-02  0.9139909E-01
          2   -1    0    0  501    0  0.00000000000E+00  0.00000000000E+00  0.19158963763E+04  0.19158963763E+04  0.25500000000E-02 0. -1.
         -2   -1    0    0    0  501 -0.00000000000E+00 -0.00000000000E+00 -0.15155268553E+04  0.15155268553E+04  0.25500000000E-02 0.  1.
    8880023    1    1    2    0    0  0.85116123052E+03  0.57009717096E+03 -0.10778932067E+04  0.16263917720E+04  0.65864270000E+03 0.  0.
    8880022    1    1    2    0    0 -0.85116123052E+03 -0.57009717096E+03  0.14782627278E+04  0.18050314596E+04  0.15294330000E+03 0.  0.
<mgrwt>
<rscale>  0 0.11695782E+04</rscale>
<asrwt>0</asrwt>
<pdfrwt beam="1">  1        2 0.29475329E+00 0.12179066E+04</pdfrwt>
<pdfrwt beam="2">  1       -2 0.23315798E+00 0.12179066E+04</pdfrwt>
<totfact> 0.58927491E-01</totfact>
</mgrwt>
</event>
<event>
 4    5  0.8511149E-008  0.1417194E+04  0.7818608E-02  0.8970437E-01
          2   -1    0    0  501    0  0.00000000000E+00  0.00000000000E+00  0.24554965989E+04  0.24554965989E+04  0.25500000000E-02 0. -1.
         -2   -1    0    0    0  501 -0.00000000000E+00 -0.00000000000E+00 -0.13574240941E+04  0.13574240941E+04  0.25500000000E-02 0.  1.
    8880023    1    1    2    0    0 -0.77812503381E+03 -0.98445379649E+03 -0.72701570819E+03  0.15927931102E+04  0.65864270000E+03 0.  1.
    8880022    1    1    2    0    0  0.77812503381E+03  0.98445379649E+03  0.18250882130E+04  0.22201275828E+04  0.15294330000E+03 0.  0.
<mgrwt>
<rscale>  0 0.13772719E+04</rscale>
<asrwt>0</asrwt>
<pdfrwt beam="1">  1        2 0.37776870E+00 0.14171937E+04</pdfrwt>
<pdfrwt beam="2">  1       -2 0.20883448E+00 0.14171937E+04</pdfrwt>
<totfact> 0.40801126E-01</totfact>
</mgrwt>
</event>
<event>
 4    5  0.8511149E-008  0.1101797E+04  0.7818608E-02  0.9259059E-01
          2   -1    0    0  501    0  0.00000000000E+00  0.00000000000E+00  0.24794649270E+04  0.24794649270E+04  0.25500000000E-02 0. -1.
         -2   -1    0    0    0  501 -0.00000000000E+00 -0.00000000000E+00 -0.87361055374E+03  0.87361055374E+03  0.25500000000E-02 0.  1.
    8880023    1    1    2    0    0  0.76752631433E+03 -0.43709116093E+03  0.20690105885E+04  0.23440905161E+04  0.65864270000E+03 0.  0.
    8880022    1    1    2    0    0 -0.76752631433E+03  0.43709116093E+03 -0.46315621523E+03  0.10089849646E+04  0.15294330000E+03 0.  0.
<mgrwt>
<rscale>  0 0.10464097E+04</rscale>
<asrwt>0</asrwt>
<pdfrwt beam="1">  1        2 0.38145614E+00 0.11017965E+04</pdfrwt>
<pdfrwt beam="2">  1       -2 0.13440162E+00 0.11017965E+04</pdfrwt>
<totfact> 0.14154036E+00</totfact>
</mgrwt>
</event>
<event>
 4    5  0.8511149E-008  0.7001958E+03  0.7818608E-02  0.9996390E-01
          2   -1    0    0  501    0  0.00000000000E+00  0.00000000000E+00  0.28187773801E+04  0.28187773801E+04  0.25500000000E-02 0. -1.
         -2   -1    0    0    0  501 -0.00000000000E+00 -0.00000000000E+00 -0.46070303413E+03  0.46070303414E+03  0.25500000000E-02 0.  1.
    8880023    1    1    2    0    0 -0.23619776372E+03  0.25972515974E+02 -0.18221888720E+03  0.72351771525E+03  0.65864270000E+03 0.  1.
    8880022    1    1    2    0    0  0.23619776372E+03 -0.25972515974E+02  0.25402932332E+04  0.25559626990E+04  0.15294330000E+03 0.  0.
<mgrwt>
<rscale>  0 0.55808815E+03</rscale>
<asrwt>0</asrwt>
<pdfrwt beam="1">  1        2 0.43365806E+00 0.70019580E+03</pdfrwt>
<pdfrwt beam="2">  1       -2 0.70877389E-01 0.70019580E+03</pdfrwt>
<totfact> 0.43628051E+00</totfact>
</mgrwt>
</event>
<event>
 4    5  0.8511149E-008  0.1213168E+04  0.7818608E-02  0.9144427E-01
         -2   -1    0    0    0  501 -0.00000000000E+00  0.00000000000E+00  0.89517082152E+03  0.89517082153E+03  0.25500000000E-02 0.  1.
          2   -1    0    0  501    0  0.00000000000E+00 -0.00000000000E+00 -0.17707300595E+04  0.17707300595E+04  0.25500000000E-02 0. -1.
    8880023    1    1    2    0    0  0.90017054782E+03 -0.47713620105E+03  0.13761887561E+03  0.12209484554E+04  0.65864270000E+03 0.  0.
    8880022    1    1    2    0    0 -0.90017054782E+03  0.47713620105E+03 -0.10131781136E+04  0.14449524256E+04  0.15294330000E+03 0.  0.
<mgrwt>
<rscale>  0 0.11645909E+04</rscale>
<asrwt>0</asrwt>
<pdfrwt beam="1">  1        2 0.27242001E+00 0.12131678E+04</pdfrwt>
<pdfrwt beam="2">  1       -2 0.13771859E+00 0.12131678E+04</pdfrwt>
<totfact> 0.32637185E+00</totfact>
</mgrwt>
</event>
<event>
 4    5  0.1353636E-007  0.1462076E+04  0.7818608E-02  0.8936890E-01
         -2   -1    0    0    0  501 -0.00000000000E+00  0.00000000000E+00  0.17849237029E+04  0.17849237029E+04  0.25500000000E-02 0.  1.
          2   -1    0    0  501    0  0.00000000000E+00 -0.00000000000E+00 -0.30985260681E+04  0.30985260681E+04  0.25500000000E-02 0. -1.
    8880023    1    1    2    0    0  0.12746258283E+04  0.28139730946E+03  0.13010099905E+04  0.19571133461E+04  0.65864270000E+03 0.  0.
    8880022    1    1    2    0    0 -0.12746258283E+04 -0.28139730946E+03 -0.26146123558E+04  0.29263364249E+04  0.15294330000E+03 0.  0.
<mgrwt>
<rscale>  0 0.14236287E+04</rscale>
<asrwt>0</asrwt>
<pdfrwt beam="1">  1        2 0.47669632E+00 0.14620758E+04</pdfrwt>
<pdfrwt beam="2">  1       -2 0.27460365E+00 0.14620758E+04</pdfrwt>
<totfact> 0.64867671E-02</totfact>
</mgrwt>
</event>
<event>
 4    5  0.8511149E-008  0.7239712E+03  0.7818608E-02  0.9909371E-01
         -2   -1    0    0    0  501 -0.00000000000E+00  0.00000000000E+00  0.83629938533E+03  0.83629938533E+03  0.25500000000E-02 0.  1.
          2   -1    0    0  501    0  0.00000000000E+00 -0.00000000000E+00 -0.61026157375E+03  0.61026157376E+03  0.25500000000E-02 0. -1.
    8880023    1    1    2    0    0 -0.16775927661E+03 -0.24936102770E+03  0.60197209978E+03  0.94154379197E+03  0.65864270000E+03 0.  1.
    8880022    1    1    2    0    0  0.16775927661E+03  0.24936102770E+03 -0.37593428820E+03  0.50501716712E+03  0.15294330000E+03 0.  0.
<mgrwt>
<rscale>  0 0.59809276E+03</rscale>
<asrwt>0</asrwt>
<pdfrwt beam="1">  1        2 0.93886396E-01 0.72397120E+03</pdfrwt>
<pdfrwt beam="2">  1       -2 0.12866144E+00 0.72397120E+03</pdfrwt>
<totfact> 0.22000848E+01</totfact>
</mgrwt>
</event>
<event>
 4    5  0.8511149E-008  0.8422874E+03  0.7818608E-02  0.9625882E-01
          2   -1    0    0  501    0  0.00000000000E+00  0.00000000000E+00  0.99094610836E+03  0.99094610836E+03  0.25500000000E-02 0. -1.
         -2   -1    0    0    0  501 -0.00000000000E+00 -0.00000000000E+00 -0.57149601674E+03  0.57149601675E+03  0.25500000000E-02 0.  1.
    8880023    1    1    2    0    0  0.16621453057E+03 -0.49800665279E+03 -0.47130324861E+02  0.84360498468E+03  0.65864270000E+03 0.  0.
    8880022    1    1    2    0    0 -0.16621453057E+03  0.49800665279E+03  0.46658041648E+03  0.71883714042E+03  0.15294330000E+03 0.  0.
<mgrwt>
<rscale>  0 0.75606564E+03</rscale>
<asrwt>0</asrwt>
<pdfrwt beam="1">  1        2 0.15245325E+00 0.84228742E+03</pdfrwt>
<pdfrwt beam="2">  1       -2 0.87922466E-01 0.84228742E+03</pdfrwt>
<totfact> 0.28685253E+01</totfact>
</mgrwt>
</event>
<event>
 4    5  0.8511149E-008  0.1630678E+04  0.7818608E-02  0.8822478E-01
         -2   -1    0    0    0  501 -0.00000000000E+00  0.00000000000E+00  0.13756771826E+04  0.13756771826E+04  0.25500000000E-02 0.  1.
          2   -1    0    0  501    0  0.00000000000E+00 -0.00000000000E+00 -0.18921948960E+04  0.18921948960E+04  0.25500000000E-02 0. -1.
    8880023    1    1    2    0    0  0.13683807624E+04 -0.59399923202E+03  0.12794120808E+03  0.16356895052E+04  0.65864270000E+03 0.  1.
    8880022    1    1    2    0    0 -0.13683807624E+04  0.59399923202E+03 -0.64445892142E+03  0.16321825734E+04  0.15294330000E+03 0.  0.
<mgrwt>
<rscale>  0 0.15968622E+04</rscale>
<asrwt>0</asrwt>
<pdfrwt beam="1">  1        2 0.29110691E+00 0.16306781E+04</pdfrwt>
<pdfrwt beam="2">  1       -2 0.21164264E+00 0.16306781E+04</pdfrwt>
<totfact> 0.79500880E-01</totfact>
</mgrwt>
</event>
<event>
 4    5  0.8511149E-008  0.7543348E+03  0.7818608E-02  0.9820001E-01
         -2   -1    0    0    0  501 -0.00000000000E+00  0.00000000000E+00  0.31450366402E+03  0.31450366403E+03  0.25500000000E-02 0.  1.
          2   -1    0    0  501    0  0.00000000000E+00 -0.00000000000E+00 -0.15674076469E+04  0.15674076469E+04  0.25500000000E-02 0. -1.
    8880023    1    1    2    0    0  0.35565887024E+03  0.93368032420E+02 -0.23692635584E+03  0.79066751914E+03  0.65864270000E+03 0.  0.
    8880022    1    1    2    0    0 -0.35565887024E+03 -0.93368032420E+02 -0.10159776270E+04  0.10912437918E+04  0.15294330000E+03 0. -1.
<mgrwt>
<rscale>  0 0.64300132E+03</rscale>
<asrwt>0</asrwt>
<pdfrwt beam="1">  1        2 0.24113963E+00 0.75433482E+03</pdfrwt>
<pdfrwt beam="2">  1       -2 0.48385180E-01 0.75433482E+03</pdfrwt>
<totfact> 0.48112811E+01</totfact>
</mgrwt>
</event>
<event>
 4    5  0.8511149E-008  0.7809341E+03  0.7818608E-02  0.9753647E-01
          2   -1    0    0  501    0  0.00000000000E+00  0.00000000000E+00  0.12979228591E+04  0.12979228591E+04  0.25500000000E-02 0. -1.
         -2   -1    0    0    0  501 -0.00000000000E+00 -0.00000000000E+00 -0.61626872568E+03  0.61626872568E+03  0.25500000000E-02 0.  1.
    8880023    1    1    2    0    0  0.15853151945E+03  0.38847865873E+03 -0.29933181197E+03  0.83633584813E+03  0.65864270000E+03 0.  1.
    8880022    1    1    2    0    0 -0.15853151945E+03 -0.38847865873E+03  0.98098594537E+03  0.10778557366E+04  0.15294330000E+03 0.  0.
<mgrwt>
<rscale>  0 0.67910545E+03</rscale>
<asrwt>0</asrwt>
<pdfrwt beam="1">  1        2 0.19968044E+00 0.78093413E+03</pdfrwt>
<pdfrwt beam="2">  1       -2 0.94810573E-01 0.78093413E+03</pdfrwt>
<totfact> 0.15788339E+01</totfact>
</mgrwt>
</event>
<event>
 4    5  0.8511149E-008  0.1049697E+04  0.7818608E-02  0.9319245E-01
          2   -1    0    0  501    0  0.00000000000E+00  0.00000000000E+00  0.98799888867E+03  0.98799888867E+03  0.25500000000E-02 0. -1.
         -2   -1    0    0    0  501 -0.00000000000E+00 -0.00000000000E+00 -0.10668138049E+04  0.10668138049E+04  0.25500000000E-02 0.  1.
    8880023    1    1    2    0    0  0.81344891705E+03 -0.79719252233E+02  0.36613444176E+03  0.11117189103E+04  0.65864270000E+03 0.  0.
    8880022    1    1    2    0    0 -0.81344891705E+03  0.79719252233E+02 -0.44494935800E+03  0.94309378326E+03  0.15294330000E+03 0.  0.
<mgrwt>
<rscale>  0 0.99030245E+03</rscale>
<asrwt>0</asrwt>
<pdfrwt beam="1">  1        2 0.15199983E+00 0.10496973E+04</pdfrwt>
<pdfrwt beam="2">  1       -2 0.16412520E+00 0.10496973E+04</pdfrwt>
<totfact> 0.59425524E+00</totfact>
</mgrwt>
</event>
<event>
 4    5  0.8511149E-008  0.1345780E+04  0.7818608E-02  0.9027001E-01
         -2   -1    0    0    0  501 -0.00000000000E+00  0.00000000000E+00  0.13201893809E+04  0.13201893809E+04  0.25500000000E-02 0.  1.
          2   -1    0    0  501    0  0.00000000000E+00 -0.00000000000E+00 -0.14542976161E+04  0.14542976161E+04  0.25500000000E-02 0. -1.
    8880023    1    1    2    0    0  0.47146260676E+03 -0.10747260692E+04  0.49528275264E+03  0.14340252176E+04  0.65864270000E+03 0.  0.
    8880022    1    1    2    0    0 -0.47146260676E+03  0.10747260692E+04 -0.62939098786E+03  0.13404617794E+04  0.15294330000E+03 0.  0.
<mgrwt>
<rscale>  0 0.13032383E+04</rscale>
<asrwt>0</asrwt>
<pdfrwt beam="1">  1        2 0.22373810E+00 0.13457798E+04</pdfrwt>
<pdfrwt beam="2">  1       -2 0.20310606E+00 0.13457798E+04</pdfrwt>
<totfact> 0.16345545E+00</totfact>
</mgrwt>
</event>
<event>
 4    5  0.8511149E-008  0.8395081E+03  0.7818608E-02  0.9631108E-01
         -2   -1    0    0    0  501 -0.00000000000E+00  0.00000000000E+00  0.27203314510E+03  0.27203314511E+03  0.25500000000E-02 0.  1.
          2   -1    0    0  501    0  0.00000000000E+00 -0.00000000000E+00 -0.25102443845E+04  0.25102443845E+04  0.25500000000E-02 0. -1.
    8880023    1    1    2    0    0  0.49155097185E+03  0.17129321000E+03 -0.53680237423E+03  0.99645908946E+03  0.65864270000E+03 0.  1.
    8880022    1    1    2    0    0 -0.49155097185E+03 -0.17129321000E+03 -0.17014088652E+04  0.17858184401E+04  0.15294330000E+03 0. -1.
<mgrwt>
<rscale>  0 0.75270999E+03</rscale>
<asrwt>0</asrwt>
<pdfrwt beam="1">  1        2 0.38619143E+00 0.83950815E+03</pdfrwt>
<pdfrwt beam="2">  1       -2 0.41851255E-01 0.83950815E+03</pdfrwt>
<totfact> 0.19185251E+01</totfact>
</mgrwt>
</event>
<event>
 4    5  0.8511149E-008  0.6864719E+03  0.7818608E-02  0.1005877E+00
          2   -1    0    0  501    0  0.00000000000E+00  0.00000000000E+00  0.15922539056E+04  0.15922539056E+04  0.25500000000E-02 0. -1.
         -2   -1    0    0    0  501 -0.00000000000E+00 -0.00000000000E+00 -0.23543104255E+03  0.23543104256E+03  0.25500000000E-02 0.  1.
    8880023    1    1    2    0    0 -0.11797832391E+03 -0.15334463856E+03  0.31181907682E+03  0.75397268254E+03  0.65864270000E+03 0.  1.
    8880022    1    1    2    0    0  0.11797832391E+03  0.15334463856E+03  0.10450037862E+04  0.10737122656E+04  0.15294330000E+03 0.  0.
<mgrwt>
<rscale>  0 0.53146839E+03</rscale>
<asrwt>0</asrwt>
<pdfrwt beam="1">  1        2 0.24496214E+00 0.68647190E+03</pdfrwt>
<pdfrwt beam="2">  1       -2 0.36220160E-01 0.68647190E+03</pdfrwt>
<totfact> 0.82983401E+01</totfact>
</mgrwt>
</event>
<event>
 4    5  0.8511149E-008  0.1101093E+04  0.7818608E-02  0.9259841E-01
          2   -1    0    0  501    0  0.00000000000E+00  0.00000000000E+00  0.36338331085E+04  0.36338331085E+04  0.25500000000E-02 0. -1.
         -2   -1    0    0    0  501 -0.00000000000E+00 -0.00000000000E+00 -0.71731328998E+03  0.71731328998E+03  0.25500000000E-02 0.  1.
    8880023    1    1    2    0    0 -0.75575237228E+03  0.45544832156E+03 -0.19066830513E+03  0.11174790516E+04  0.65864270000E+03 0.  0.
    8880022    1    1    2    0    0  0.75575237228E+03 -0.45544832156E+03  0.31071881237E+04  0.32336673470E+04  0.15294330000E+03 0.  0.
<mgrwt>
<rscale>  0 0.10456559E+04</rscale>
<asrwt>0</asrwt>
<pdfrwt beam="1">  1        2 0.55905126E+00 0.11010927E+04</pdfrwt>
<pdfrwt beam="2">  1       -2 0.11035589E+00 0.11010927E+04</pdfrwt>
<totfact> 0.43327996E-01</totfact>
</mgrwt>
</event>
<event>
 4    5  0.8511149E-008  0.6935813E+03  0.7818608E-02  0.1002495E+00
         -2   -1    0    0    0  501 -0.00000000000E+00  0.00000000000E+00  0.18934678264E+03  0.18934678266E+03  0.25500000000E-02 0.  1.
          2   -1    0    0  501    0  0.00000000000E+00 -0.00000000000E+00 -0.33456178289E+04  0.33456178289E+04  0.25500000000E-02 0. -1.
    8880023    1    1    2    0    0 -0.21122473690E+03  0.51272847072E+02 -0.47520708036E+03  0.84075963855E+03  0.65864270000E+03 0.  1.
    8880022    1    1    2    0    0  0.21122473690E+03 -0.51272847072E+02 -0.26810639659E+04  0.26942049730E+04  0.15294330000E+03 0.  0.
<mgrwt>
<rscale>  0 0.54569708E+03</rscale>
<asrwt>0</asrwt>
<pdfrwt beam="1">  1        2 0.51471039E+00 0.69358129E+03</pdfrwt>
<pdfrwt beam="2">  1       -2 0.29130277E-01 0.69358129E+03</pdfrwt>
<totfact> 0.12194836E+01</totfact>
</mgrwt>
</event>
<event>
 4    5  0.8511149E-008  0.1186474E+04  0.7818608E-02  0.9170384E-01
         -2   -1    0    0    0  501 -0.00000000000E+00  0.00000000000E+00  0.11161514598E+04  0.11161514598E+04  0.25500000000E-02 0.  1.
          2   -1    0    0  501    0  0.00000000000E+00 -0.00000000000E+00 -0.13128846222E+04  0.13128846222E+04  0.25500000000E-02 0. -1.
    8880023    1    1    2    0    0  0.16157798111E+03 -0.97355172634E+03  0.41612309282E+03  0.12573301247E+04  0.65864270000E+03 0.  0.
    8880022    1    1    2    0    0 -0.16157798111E+03  0.97355172634E+03 -0.61285625516E+03  0.11717059573E+04  0.15294330000E+03 0.  0.
<mgrwt>
<rscale>  0 0.11364413E+04</rscale>
<asrwt>0</asrwt>
<pdfrwt beam="1">  1        2 0.20198225E+00 0.11864740E+04</pdfrwt>
<pdfrwt beam="2">  1       -2 0.17171561E+00 0.11864740E+04</pdfrwt>
<totfact> 0.32743537E+00</totfact>
</mgrwt>
</event>
<event>
 4    5  0.8511149E-008  0.1045613E+04  0.7818608E-02  0.9324174E-01
          2   -1    0    0  501    0  0.00000000000E+00  0.00000000000E+00  0.18093109934E+04  0.18093109934E+04  0.25500000000E-02 0. -1.
         -2   -1    0    0    0  501 -0.00000000000E+00 -0.00000000000E+00 -0.64415627552E+03  0.64415627552E+03  0.25500000000E-02 0.  1.
    8880023    1    1    2    0    0 -0.69210462797E+03  0.42483769548E+03  0.25735937819E+02  0.10459294567E+04  0.65864270000E+03 0.  0.
    8880022    1    1    2    0    0  0.69210462797E+03 -0.42483769548E+03  0.11394187800E+04  0.14075378122E+04  0.15294330000E+03 0.  0.
<mgrwt>
<rscale>  0 0.98587490E+03</rscale>
<asrwt>0</asrwt>
<pdfrwt beam="1">  1        2 0.27835554E+00 0.10456128E+04</pdfrwt>
<pdfrwt beam="2">  1       -2 0.99100965E-01 0.10456128E+04</pdfrwt>
<totfact> 0.71468105E+00</totfact>
</mgrwt>
</event>
<event>
 4    5  0.8511149E-008  0.7407192E+03  0.7818608E-02  0.9857857E-01
          2   -1    0    0  501    0  0.00000000000E+00  0.00000000000E+00  0.18884332940E+04  0.18884332940E+04  0.25500000000E-02 0. -1.
         -2   -1    0    0    0  501 -0.00000000000E+00 -0.00000000000E+00 -0.45588437396E+03  0.45588437397E+03  0.25500000000E-02 0.  1.
    8880023    1    1    2    0    0 -0.23528495985E+03 -0.24391743716E+03 -0.11778108272E+03  0.75002487838E+03  0.65864270000E+03 0.  0.
    8880022    1    1    2    0    0  0.23528495985E+03  0.24391743716E+03  0.15503300028E+04  0.15942927896E+04  0.15294330000E+03 0.  0.
<mgrwt>
<rscale>  0 0.62347913E+03</rscale>
<asrwt>0</asrwt>
<pdfrwt beam="1">  1        2 0.29052820E+00 0.74071920E+03</pdfrwt>
<pdfrwt beam="2">  1       -2 0.70136057E-01 0.74071920E+03</pdfrwt>
<totfact> 0.14744461E+01</totfact>
</mgrwt>
</event>
<event>
 4    5  0.8511149E-008  0.1396096E+04  0.7818608E-02  0.8986722E-01
          2   -1    0    0  501    0  0.00000000000E+00  0.00000000000E+00  0.24575922581E+04  0.24575922581E+04  0.25500000000E-02 0. -1.
         -2   -1    0    0    0  501 -0.00000000000E+00 -0.00000000000E+00 -0.11795946853E+04  0.11795946853E+04  0.25500000000E-02 0.  1.
    8880023    1    1    2    0    0 -0.93393476007E+03  0.80189710130E+03  0.18113657516E+04  0.22869475704E+04  0.65864270000E+03 0. -1.
    8880022    1    1    2    0    0  0.93393476007E+03 -0.80189710130E+03 -0.53336817884E+03  0.13502393730E+04  0.15294330000E+03 0.  0.
<mgrwt>
<rscale>  0 0.13554372E+04</rscale>
<asrwt>0</asrwt>
<pdfrwt beam="1">  1        2 0.37809111E+00 0.13960957E+04</pdfrwt>
<pdfrwt beam="2">  1       -2 0.18147611E+00 0.13960957E+04</pdfrwt>
<totfact> 0.62113115E-01</totfact>
</mgrwt>
</event>
<event>
 4    5  0.8511149E-008  0.9852722E+03  0.7818608E-02  0.9401085E-01
          2   -1    0    0  501    0  0.00000000000E+00  0.00000000000E+00  0.13261422398E+04  0.13261422398E+04  0.25500000000E-02 0. -1.
         -2   -1    0    0    0  501 -0.00000000000E+00 -0.00000000000E+00 -0.82278859932E+03  0.82278859933E+03  0.25500000000E-02 0.  1.
    8880023    1    1    2    0    0  0.10386901444E+03  0.72537041364E+03 -0.32021671760E+03  0.10360019120E+04  0.65864270000E+03 0.  1.
    8880022    1    1    2    0    0 -0.10386901444E+03 -0.72537041364E+03  0.82357035810E+03  0.11129289272E+04  0.15294330000E+03 0.  0.
<mgrwt>
<rscale>  0 0.91986452E+03</rscale>
<asrwt>0</asrwt>
<pdfrwt beam="1">  1        2 0.20402188E+00 0.98527215E+03</pdfrwt>
<pdfrwt beam="2">  1       -2 0.12658286E+00 0.98527215E+03</pdfrwt>
<totfact> 0.73719174E+00</totfact>
</mgrwt>
</event>
<event>
 4    5  0.8511149E-008  0.7173096E+03  0.7818608E-02  0.9931797E-01
         -2   -1    0    0    0  501 -0.00000000000E+00  0.00000000000E+00  0.48530734126E+03  0.48530734127E+03  0.25500000000E-02 0.  1.
          2   -1    0    0  501    0  0.00000000000E+00 -0.00000000000E+00 -0.19478801143E+04  0.19478801143E+04  0.25500000000E-02 0. -1.
    8880023    1    1    2    0    0 -0.26683160387E+03  0.97589650894E+02  0.19593089786E+03  0.74358722944E+03  0.65864270000E+03 0.  1.
    8880022    1    1    2    0    0  0.26683160387E+03 -0.97589650894E+02 -0.16585036709E+04  0.16896002261E+04  0.15294330000E+03 0.  0.
<mgrwt>
<rscale>  0 0.58744726E+03</rscale>
<asrwt>0</asrwt>
<pdfrwt beam="1">  1        2 0.29967386E+00 0.71730959E+03</pdfrwt>
<pdfrwt beam="2">  1       -2 0.74662669E-01 0.71730959E+03</pdfrwt>
<totfact> 0.11968680E+01</totfact>
</mgrwt>
</event>
<event>
 4    5  0.8511149E-008  0.7417735E+03  0.7818608E-02  0.9854811E-01
          2   -1    0    0  501    0  0.00000000000E+00  0.00000000000E+00  0.22669116881E+04  0.22669116881E+04  0.25500000000E-02 0. -1.
         -2   -1    0    0    0  501 -0.00000000000E+00 -0.00000000000E+00 -0.72085590851E+03  0.72085590852E+03  0.25500000000E-02 0.  1.
    8880023    1    1    2    0    0 -0.49958184497E+02 -0.33752312971E+03 -0.50858493180E+03  0.89938118860E+03  0.65864270000E+03 0.  1.
    8880022    1    1    2    0    0  0.49958184497E+02  0.33752312971E+03  0.20546407114E+04  0.20883864080E+04  0.15294330000E+03 0.  0.
<mgrwt>
<rscale>  0 0.62502228E+03</rscale>
<asrwt>0</asrwt>
<pdfrwt beam="1">  1        2 0.34875564E+00 0.74177348E+03</pdfrwt>
<pdfrwt beam="2">  1       -2 0.11090091E+00 0.74177348E+03</pdfrwt>
<totfact> 0.31866862E+00</totfact>
</mgrwt>
</event>
<event>
 4    5  0.8637852E-008  0.1090867E+04  0.7818608E-02  0.9271294E-01
         -2   -1    0    0    0  501 -0.00000000000E+00  0.00000000000E+00  0.13719133250E+04  0.13719133250E+04  0.25500000000E-02 0.  1.
          2   -1    0    0  501    0  0.00000000000E+00 -0.00000000000E+00 -0.24928092226E+04  0.24928092226E+04  0.25500000000E-02 0. -1.
    8880023    1    1    2    0    0 -0.22536504717E+03  0.83987506654E+03  0.10543482162E+04  0.15171156512E+04  0.65864270000E+03 0.  1.
    8880022    1    1    2    0    0  0.22536504717E+03 -0.83987506654E+03 -0.21752441138E+04  0.23476068963E+04  0.15294330000E+03 0.  0.
<mgrwt>
<rscale>  0 0.10346910E+04</rscale>
<asrwt>0</asrwt>
<pdfrwt beam="1">  1        2 0.38350911E+00 0.10908665E+04</pdfrwt>
<pdfrwt beam="2">  1       -2 0.21106359E+00 0.10908665E+04</pdfrwt>
<totfact> 0.39303488E-01</totfact>
</mgrwt>
</event>
<event>
 4    5  0.8511149E-008  0.1537196E+04  0.7818608E-02  0.8883807E-01
         -2   -1    0    0    0  501 -0.00000000000E+00  0.00000000000E+00  0.13961163424E+04  0.13961163424E+04  0.25500000000E-02 0.  1.
          2   -1    0    0  501    0  0.00000000000E+00 -0.00000000000E+00 -0.27441286038E+04  0.27441286038E+04  0.25500000000E-02 0. -1.
    8880023    1    1    2    0    0  0.13866562378E+04 -0.79663026397E+02  0.67719671222E+03  0.16797521582E+04  0.65864270000E+03 0.  1.
    8880022    1    1    2    0    0 -0.13866562378E+04  0.79663026397E+02 -0.20252089737E+04  0.24604927880E+04  0.15294330000E+03 0.  0.
<mgrwt>
<rscale>  0 0.15009711E+04</rscale>
<asrwt>0</asrwt>
<pdfrwt beam="1">  1        2 0.42217363E+00 0.15371961E+04</pdfrwt>
<pdfrwt beam="2">  1       -2 0.21478713E+00 0.15371961E+04</pdfrwt>
<totfact> 0.24945758E-01</totfact>
</mgrwt>
</event>
<event>
 4    5  0.8511149E-008  0.7384702E+03  0.7818608E-02  0.9864426E-01
          2   -1    0    0  501    0  0.00000000000E+00  0.00000000000E+00  0.16082514962E+04  0.16082514962E+04  0.25500000000E-02 0. -1.
         -2   -1    0    0    0  501 -0.00000000000E+00 -0.00000000000E+00 -0.83238908188E+03  0.83238908188E+03  0.25500000000E-02 0.  1.
    8880023    1    1    2    0    0 -0.57966819605E+01 -0.33390779107E+03 -0.64043054574E+03  0.97749143456E+03  0.65864270000E+03 0.  1.
    8880022    1    1    2    0    0  0.57966819605E+01  0.33390779107E+03  0.14162929600E+04  0.14631491435E+04  0.15294330000E+03 0.  0.
<mgrwt>
<rscale>  0 0.62016769E+03</rscale>
<asrwt>0</asrwt>
<pdfrwt beam="1">  1        2 0.24742330E+00 0.73847019E+03</pdfrwt>
<pdfrwt beam="2">  1       -2 0.12805986E+00 0.73847019E+03</pdfrwt>
<totfact> 0.51242534E+00</totfact>
</mgrwt>
</event>
<event>
 4    5  0.8511149E-008  0.6681334E+03  0.7818608E-02  0.1017038E+00
          2   -1    0    0  501    0  0.00000000000E+00  0.00000000000E+00  0.10220871121E+04  0.10220871121E+04  0.25500000000E-02 0. -1.
         -2   -1    0    0    0  501 -0.00000000000E+00 -0.00000000000E+00 -0.13584644175E+04  0.13584644175E+04  0.25500000000E-02 0.  1.
    8880023    1    1    2    0    0  0.10845058850E+03  0.28817539306E+02 -0.12661524596E+04  0.14316229385E+04  0.65864270000E+03 0.  1.
    8880022    1    1    2    0    0 -0.10845058850E+03 -0.28817539306E+02  0.92977515415E+03  0.94892859110E+03  0.15294330000E+03 0.  0.
<mgrwt>
<rscale>  0 0.48770869E+03</rscale>
<asrwt>0</asrwt>
<pdfrwt beam="1">  1        2 0.15724417E+00 0.66813336E+03</pdfrwt>
<pdfrwt beam="2">  1       -2 0.20899453E+00 0.66813336E+03</pdfrwt>
<totfact> 0.29465056E+00</totfact>
</mgrwt>
</event>
<event>
 4    5  0.8511149E-008  0.6959316E+03  0.7818608E-02  0.1001452E+00
          2   -1    0    0  501    0  0.00000000000E+00  0.00000000000E+00  0.14373469378E+04  0.14373469378E+04  0.25500000000E-02 0. -1.
         -2   -1    0    0    0  501 -0.00000000000E+00 -0.00000000000E+00 -0.32741191691E+03  0.32741191692E+03  0.25500000000E-02 0.  1.
    8880023    1    1    2    0    0  0.21214991959E+03 -0.74182166598E+02  0.81131586905E+02  0.70064479080E+03  0.65864270000E+03 0.  1.
    8880022    1    1    2    0    0 -0.21214991959E+03  0.74182166598E+02  0.10288034340E+04  0.10641140639E+04  0.15294330000E+03 0.  0.
<mgrwt>
<rscale>  0 0.55018293E+03</rscale>
<asrwt>0</asrwt>
<pdfrwt beam="1">  1        2 0.22113030E+00 0.69593160E+03</pdfrwt>
<pdfrwt beam="2">  1       -2 0.50371064E-01 0.69593160E+03</pdfrwt>
<totfact> 0.52711910E+01</totfact>
</mgrwt>
</event>
<event>
 4    5  0.8511149E-008  0.1721457E+04  0.7818608E-02  0.8767274E-01
          2   -1    0    0  501    0  0.00000000000E+00  0.00000000000E+00  0.24602117823E+04  0.24602117823E+04  0.25500000000E-02 0. -1.
         -2   -1    0    0    0  501 -0.00000000000E+00 -0.00000000000E+00 -0.13681104315E+04  0.13681104315E+04  0.25500000000E-02 0.  1.
    8880023    1    1    2    0    0 -0.54313000985E+03  0.14948628137E+04  0.13780916616E+04  0.22051194692E+04  0.65864270000E+03 0.  0.
    8880022    1    1    2    0    0  0.54313000985E+03 -0.14948628137E+04 -0.28599031080E+03  0.16232027446E+04  0.15294330000E+03 0.  0.
<mgrwt>
<rscale>  0 0.16896761E+04</rscale>
<asrwt>0</asrwt>
<pdfrwt beam="1">  1        2 0.37849412E+00 0.17214573E+04</pdfrwt>
<pdfrwt beam="2">  1       -2 0.21047853E+00 0.17214573E+04</pdfrwt>
<totfact> 0.38288231E-01</totfact>
</mgrwt>
</event>
<event>
 4    5  0.8511149E-008  0.6722421E+03  0.7818608E-02  0.1014104E+00
         -2   -1    0    0    0  501 -0.00000000000E+00  0.00000000000E+00  0.27690441723E+03  0.27690441724E+03  0.25500000000E-02 0.  1.
          2   -1    0    0  501    0  0.00000000000E+00 -0.00000000000E+00 -0.15834655196E+04  0.15834655196E+04  0.25500000000E-02 0. -1.
    8880023    1    1    2    0    0 -0.10544219319E+03 -0.83553717386E+02 -0.15361702497E+03  0.68957064643E+03  0.65864270000E+03 0.  1.
    8880022    1    1    2    0    0  0.10544219319E+03  0.83553717386E+02 -0.11529440774E+04  0.11707992904E+04  0.15294330000E+03 0.  0.
<mgrwt>
<rscale>  0 0.49875636E+03</rscale>
<asrwt>0</asrwt>
<pdfrwt beam="1">  1        2 0.24361008E+00 0.67224213E+03</pdfrwt>
<pdfrwt beam="2">  1       -2 0.42600680E-01 0.67224213E+03</pdfrwt>
<totfact> 0.61338566E+01</totfact>
</mgrwt>
</event>
<event>
 4    5  0.8511149E-008  0.8846933E+03  0.7818608E-02  0.9551064E-01
         -2   -1    0    0    0  501 -0.00000000000E+00  0.00000000000E+00  0.17881064849E+04  0.17881064849E+04  0.25500000000E-02 0.  1.
          2   -1    0    0  501    0  0.00000000000E+00 -0.00000000000E+00 -0.62010318723E+03  0.62010318723E+03  0.25500000000E-02 0. -1.
    8880023    1    1    2    0    0  0.16986835877E+03  0.56570020921E+03  0.14789863620E+04  0.17233928314E+04  0.65864270000E+03 0.  0.
    8880022    1    1    2    0    0 -0.16986835877E+03 -0.56570020921E+03 -0.31098306435E+03  0.68481684073E+03  0.15294330000E+03 0.  0.
<mgrwt>
<rscale>  0 0.80621500E+03</rscale>
<asrwt>0</asrwt>
<pdfrwt beam="1">  1        2 0.95400491E-01 0.88469328E+03</pdfrwt>
<pdfrwt beam="2">  1       -2 0.27509330E+00 0.88469328E+03</pdfrwt>
<totfact> 0.21849505E+00</totfact>
</mgrwt>
</event>
<event>
 4    5  0.8511149E-008  0.1254216E+04  0.7818608E-02  0.9106142E-01
          2   -1    0    0  501    0  0.00000000000E+00  0.00000000000E+00  0.29162483454E+04  0.29162483454E+04  0.25500000000E-02 0. -1.
         -2   -1    0    0    0  501 -0.00000000000E+00 -0.00000000000E+00 -0.82557861001E+03  0.82557861001E+03  0.25500000000E-02 0.  1.
    8880023    1    1    2    0    0  0.81910234239E+03  0.68433797907E+03  0.23219580510E+04  0.26390427268E+04  0.65864270000E+03 0. -1.
    8880022    1    1    2    0    0 -0.81910234239E+03 -0.68433797907E+03 -0.23128831564E+03  0.11027842286E+04  0.15294330000E+03 0.  0.
<mgrwt>
<rscale>  0 0.12077021E+04</rscale>
<asrwt>0</asrwt>
<pdfrwt beam="1">  1        2 0.44865360E+00 0.12542158E+04</pdfrwt>
<pdfrwt beam="2">  1       -2 0.12701209E+00 0.12542158E+04</pdfrwt>
<totfact> 0.88489064E-01</totfact>
</mgrwt>
</event>
<event>
 4    5  0.8511149E-008  0.1154166E+04  0.7818608E-02  0.9203017E-01
          2   -1    0    0  501    0  0.00000000000E+00  0.00000000000E+00  0.49139092743E+04  0.49139092743E+04  0.25500000000E-02 0. -1.
         -2   -1    0    0    0  501 -0.00000000000E+00 -0.00000000000E+00 -0.13184839472E+04  0.13184839472E+04  0.25500000000E-02 0.  1.
    8880023    1    1    2    0    0  0.10843309680E+03 -0.94155783429E+03 -0.10065050025E+04  0.15313887221E+04  0.65864270000E+03 0.  1.
    8880022    1    1    2    0    0 -0.10843309680E+03  0.94155783429E+03  0.46019303296E+04  0.47010044994E+04  0.15294330000E+03 0.  0.
<mgrwt>
<rscale>  0 0.11022339E+04</rscale>
<asrwt>0</asrwt>
<pdfrwt beam="1">  1        2 0.75598604E+00 0.11541660E+04</pdfrwt>
<pdfrwt beam="2">  1       -2 0.20284368E+00 0.11541660E+04</pdfrwt>
<totfact> 0.58693790E-03</totfact>
</mgrwt>
</event>
<event>
 4    5  0.8511149E-008  0.1230536E+04  0.7818608E-02  0.9127996E-01
         -2   -1    0    0    0  501 -0.00000000000E+00  0.00000000000E+00  0.16106287753E+04  0.16106287753E+04  0.25500000000E-02 0.  1.
          2   -1    0    0  501    0  0.00000000000E+00 -0.00000000000E+00 -0.10186397821E+04  0.10186397821E+04  0.25500000000E-02 0. -1.
    8880023    1    1    2    0    0 -0.31401089418E+03 -0.99086111246E+03  0.91125566021E+03  0.15312105245E+04  0.65864270000E+03 0.  0.
    8880022    1    1    2    0    0  0.31401089418E+03  0.99086111246E+03 -0.31926666696E+03  0.10980580328E+04  0.15294330000E+03 0.  0.
<mgrwt>
<rscale>  0 0.11828565E+04</rscale>
<asrwt>0</asrwt>
<pdfrwt beam="1">  1        2 0.15671381E+00 0.12305360E+04</pdfrwt>
<pdfrwt beam="2">  1       -2 0.24778904E+00 0.12305360E+04</pdfrwt>
<totfact> 0.15775214E+00</totfact>
</mgrwt>
</event>
<event>
 4    5  0.8511149E-008  0.7319756E+03  0.7818608E-02  0.9883970E-01
         -2   -1    0    0    0  501 -0.00000000000E+00  0.00000000000E+00  0.10904607625E+04  0.10904607625E+04  0.25500000000E-02 0.  1.
          2   -1    0    0  501    0  0.00000000000E+00 -0.00000000000E+00 -0.85696932653E+03  0.85696932654E+03  0.25500000000E-02 0. -1.
    8880023    1    1    2    0    0 -0.30196453795E+03 -0.10390161032E+03  0.91959601724E+03  0.11753489558E+04  0.65864270000E+03 0.  1.
    8880022    1    1    2    0    0  0.30196453795E+03  0.10390161032E+03 -0.68610458127E+03  0.77208113321E+03  0.15294330000E+03 0.  0.
<mgrwt>
<rscale>  0 0.61044505E+03</rscale>
<asrwt>0</asrwt>
<pdfrwt beam="1">  1        2 0.13184144E+00 0.73197564E+03</pdfrwt>
<pdfrwt beam="2">  1       -2 0.16776319E+00 0.73197564E+03</pdfrwt>
<totfact> 0.70832207E+00</totfact>
</mgrwt>
</event>
<event>
 4    5  0.8511149E-008  0.6849837E+03  0.7818608E-02  0.1006634E+00
         -2   -1    0    0    0  501 -0.00000000000E+00  0.00000000000E+00  0.47461860964E+03  0.47461860964E+03  0.25500000000E-02 0.  1.
          2   -1    0    0  501    0  0.00000000000E+00 -0.00000000000E+00 -0.11250767671E+04  0.11250767671E+04  0.25500000000E-02 0. -1.
    8880023    1    1    2    0    0 -0.86750580046E+02 -0.16693363350E+03  0.20142209899E+03  0.71398429209E+03  0.65864270000E+03 0.  1.
    8880022    1    1    2    0    0  0.86750580046E+02  0.16693363350E+03 -0.85188025650E+03  0.88571108470E+03  0.15294330000E+03 0.  0.
<mgrwt>
<rscale>  0 0.52834515E+03</rscale>
<asrwt>0</asrwt>
<pdfrwt beam="1">  1        2 0.17308873E+00 0.68498373E+03</pdfrwt>
<pdfrwt beam="2">  1       -2 0.73018248E-01 0.68498373E+03</pdfrwt>
<totfact> 0.36486289E+01</totfact>
</mgrwt>
</event>
<event>
 4    5  0.8511149E-008  0.6646625E+03  0.7818608E-02  0.1019818E+00
         -2   -1    0    0    0  501 -0.00000000000E+00  0.00000000000E+00  0.31566227618E+03  0.31566227619E+03  0.25500000000E-02 0.  1.
          2   -1    0    0  501    0  0.00000000000E+00 -0.00000000000E+00 -0.17042544537E+04  0.17042544537E+04  0.25500000000E-02 0. -1.
    8880023    1    1    2    0    0  0.48154647754E+02 -0.75147732452E+02 -0.46602591809E+02  0.66629427404E+03  0.65864270000E+03 0.  1.
    8880022    1    1    2    0    0 -0.48154647754E+02  0.75147732452E+02 -0.13419895857E+04  0.13536224558E+04  0.15294330000E+03 0.  0.
<mgrwt>
<rscale>  0 0.47752259E+03</rscale>
<asrwt>0</asrwt>
<pdfrwt beam="1">  1        2 0.26219299E+00 0.66466251E+03</pdfrwt>
<pdfrwt beam="2">  1       -2 0.48563428E-01 0.66466251E+03</pdfrwt>
<totfact> 0.40603090E+01</totfact>
</mgrwt>
</event>
<event>
 4    5  0.8511149E-008  0.1490625E+04  0.7818608E-02  0.8916284E-01
          2   -1    0    0  501    0  0.00000000000E+00  0.00000000000E+00  0.10758186818E+04  0.10758186818E+04  0.25500000000E-02 0. -1.
         -2   -1    0    0    0  501 -0.00000000000E+00 -0.00000000000E+00 -0.28929997588E+04  0.28929997588E+04  0.25500000000E-02 0.  1.
    8880023    1    1    2    0    0  0.12548838451E+04 -0.46197406257E+03 -0.21177256038E+04  0.25897346271E+04  0.65864270000E+03 0.  0.
    8880022    1    1    2    0    0 -0.12548838451E+04  0.46197406257E+03  0.30054452687E+03  0.13790838136E+04  0.15294330000E+03 0.  0.
<mgrwt>
<rscale>  0 0.14530565E+04</rscale>
<asrwt>0</asrwt>
<pdfrwt beam="1">  1        2 0.16551057E+00 0.14906253E+04</pdfrwt>
<pdfrwt beam="2">  1       -2 0.44507688E+00 0.14906253E+04</pdfrwt>
<totfact> 0.79960543E-02</totfact>
</mgrwt>
</event>
<event>
 4    5  0.8511149E-008  0.1171937E+04  0.7818608E-02  0.9184896E-01
          2   -1    0    0  501    0  0.00000000000E+00  0.00000000000E+00  0.16260177915E+04  0.16260177915E+04  0.25500000000E-02 0. -1.
         -2   -1    0    0    0  501 -0.00000000000E+00 -0.00000000000E+00 -0.76634584002E+03  0.76634584003E+03  0.25500000000E-02 0.  1.
    8880023    1    1    2    0    0  0.92676351590E+03 -0.28414122742E+03  0.15041107097E+03  0.11815500616E+04  0.65864270000E+03 0.  0.
    8880022    1    1    2    0    0 -0.92676351590E+03  0.28414122742E+03  0.70926088055E+03  0.12108135700E+04  0.15294330000E+03 0.  0.
<mgrwt>
<rscale>  0 0.11210697E+04</rscale>
<asrwt>0</asrwt>
<pdfrwt beam="1">  1        2 0.25015658E+00 0.11719373E+04</pdfrwt>
<pdfrwt beam="2">  1       -2 0.11789936E+00 0.11719373E+04</pdfrwt>
<totfact> 0.58499431E+00</totfact>
</mgrwt>
</event>
<event>
 4    5  0.8511149E-008  0.9464853E+03  0.7818608E-02  0.9455189E-01
         -2   -1    0    0    0  501 -0.00000000000E+00  0.00000000000E+00  0.10982159249E+04  0.10982159249E+04  0.25500000000E-02 0.  1.
          2   -1    0    0  501    0  0.00000000000E+00 -0.00000000000E+00 -0.11210049355E+04  0.11210049355E+04  0.25500000000E-02 0. -1.
    8880023    1    1    2    0    0  0.53893004862E+02  0.67758369784E+03 -0.75335006770E+03  0.12096985799E+04  0.65864270000E+03 0. -1.
    8880022    1    1    2    0    0 -0.53893004862E+02 -0.67758369784E+03  0.73056105712E+03  0.10095222805E+04  0.15294330000E+03 0.  0.
<mgrwt>
<rscale>  0 0.87669721E+03</rscale>
<asrwt>0</asrwt>
<pdfrwt beam="1">  1        2 0.17246230E+00 0.94648525E+03</pdfrwt>
<pdfrwt beam="2">  1       -2 0.16895630E+00 0.94648525E+03</pdfrwt>
<totfact> 0.45708824E+00</totfact>
</mgrwt>
</event>
<event>
 4    5  0.8511149E-008  0.6784882E+03  0.7818608E-02  0.1010192E+00
          2   -1    0    0  501    0  0.00000000000E+00  0.00000000000E+00  0.98680702957E+03  0.98680702957E+03  0.25500000000E-02 0. -1.
         -2   -1    0    0    0  501 -0.00000000000E+00 -0.00000000000E+00 -0.20748886845E+03  0.20748886846E+03  0.25500000000E-02 0.  1.
    8880023    1    1    2    0    0 -0.16067974005E+03  0.26795851212E+02  0.54253862089E+03  0.86873146480E+03  0.65864270000E+03 0.  0.
    8880022    1    1    2    0    0  0.16067974005E+03 -0.26795851212E+02  0.23677954023E+03  0.32556443324E+03  0.15294330000E+03 0. -1.
<mgrwt>
<rscale>  0 0.51398371E+03</rscale>
<asrwt>0</asrwt>
<pdfrwt beam="1">  1        2 0.15181646E+00 0.67848817E+03</pdfrwt>
<pdfrwt beam="2">  1       -2 0.31921365E-01 0.67848817E+03</pdfrwt>
<totfact> 0.23750296E+02</totfact>
</mgrwt>
</event>
<event>
 4    5  0.8511149E-008  0.1225745E+04  0.7818608E-02  0.9132494E-01
          2   -1    0    0  501    0  0.00000000000E+00  0.00000000000E+00  0.31344615075E+04  0.31344615075E+04  0.25500000000E-02 0. -1.
         -2   -1    0    0    0  501 -0.00000000000E+00 -0.00000000000E+00 -0.56456075304E+03  0.56456075304E+03  0.25500000000E-02 0.  1.
    8880023    1    1    2    0    0 -0.73414148323E+03  0.72778871102E+03  0.23210031097E+04  0.26247868041E+04  0.65864270000E+03 0.  0.
    8880022    1    1    2    0    0  0.73414148323E+03 -0.72778871102E+03  0.24889764471E+03  0.10742354564E+04  0.15294330000E+03 0.  0.
<mgrwt>
<rscale>  0 0.11778214E+04</rscale>
<asrwt>0</asrwt>
<pdfrwt beam="1">  1        2 0.48222484E+00 0.12257448E+04</pdfrwt>
<pdfrwt beam="2">  1       -2 0.86855501E-01 0.12257448E+04</pdfrwt>
<totfact> 0.16262627E+00</totfact>
</mgrwt>
</event>
<event>
 4    5  0.8511149E-008  0.7344643E+03  0.7818608E-02  0.9876376E-01
          2   -1    0    0  501    0  0.00000000000E+00  0.00000000000E+00  0.15146940348E+04  0.15146940348E+04  0.25500000000E-02 0. -1.
         -2   -1    0    0    0  501 -0.00000000000E+00 -0.00000000000E+00 -0.21530337670E+03  0.21530337671E+03  0.25500000000E-02 0.  1.
    8880023    1    1    2    0    0 -0.45468809150E+02 -0.32180775099E+03  0.61860857326E+03  0.96026788678E+03  0.65864270000E+03 0.  1.
    8880022    1    1    2    0    0  0.45468809150E+02  0.32180775099E+03  0.68078208489E+03  0.76972952478E+03  0.15294330000E+03 0. -1.
<mgrwt>
<rscale>  0 0.61420007E+03</rscale>
<asrwt>0</asrwt>
<pdfrwt beam="1">  1        2 0.23302986E+00 0.73446433E+03</pdfrwt>
<pdfrwt beam="2">  1       -2 0.33123595E-01 0.73446433E+03</pdfrwt>
<totfact> 0.10802291E+02</totfact>
</mgrwt>
</event>
<event>
 4    5  0.8511149E-008  0.9204083E+03  0.7818608E-02  0.9494033E-01
         -2   -1    0    0    0  501 -0.00000000000E+00  0.00000000000E+00  0.21573854468E+04  0.21573854468E+04  0.25500000000E-02 0.  1.
          2   -1    0    0  501    0  0.00000000000E+00 -0.00000000000E+00 -0.51812580478E+03  0.51812580478E+03  0.25500000000E-02 0. -1.
    8880023    1    1    2    0    0  0.70588957945E+02 -0.63902928456E+03  0.17762963998E+04  0.20005949950E+04  0.65864270000E+03 0. -1.
    8880022    1    1    2    0    0 -0.70588957945E+02  0.63902928456E+03 -0.13703675778E+03  0.67491625666E+03  0.15294330000E+03 0.  0.
<mgrwt>
<rscale>  0 0.84725157E+03</rscale>
<asrwt>0</asrwt>
<pdfrwt beam="1">  1        2 0.79711663E-01 0.92040830E+03</pdfrwt>
<pdfrwt beam="2">  1       -2 0.33190545E+00 0.92040830E+03</pdfrwt>
<totfact> 0.12200887E+00</totfact>
</mgrwt>
</event>
<event>
 4    5  0.8511149E-008  0.7795216E+03  0.7818608E-02  0.9756962E-01
          2   -1    0    0  501    0  0.00000000000E+00  0.00000000000E+00  0.66588866947E+03  0.66588866947E+03  0.25500000000E-02 0. -1.
         -2   -1    0    0    0  501 -0.00000000000E+00 -0.00000000000E+00 -0.21075720670E+04  0.21075720670E+04  0.25500000000E-02 0.  1.
    8880023    1    1    2    0    0 -0.29954137855E+03 -0.29003222777E+03 -0.19490643700E+04  0.20991678959E+04  0.65864270000E+03 0.  1.
    8880022    1    1    2    0    0  0.29954137855E+03  0.29003222777E+03  0.50738097246E+03  0.67429284056E+03  0.15294330000E+03 0.  0.
<mgrwt>
<rscale>  0 0.67724253E+03</rscale>
<asrwt>0</asrwt>
<pdfrwt beam="1">  1        2 0.10244441E+00 0.77952161E+03</pdfrwt>
<pdfrwt beam="2">  1       -2 0.32424185E+00 0.77952161E+03</pdfrwt>
<totfact> 0.10263296E+00</totfact>
</mgrwt>
</event>
<event>
 4    5  0.8511149E-008  0.7027037E+03  0.7818608E-02  0.9986165E-01
         -2   -1    0    0    0  501 -0.00000000000E+00  0.00000000000E+00  0.69727568262E+03  0.69727568263E+03  0.25500000000E-02 0.  1.
          2   -1    0    0  501    0  0.00000000000E+00 -0.00000000000E+00 -0.77308484163E+03  0.77308484163E+03  0.25500000000E-02 0. -1.
    8880023    1    1    2    0    0 -0.11395712062E+03  0.21678562510E+03  0.47518792898E+03  0.84829004869E+03  0.65864270000E+03 0.  1.
    8880022    1    1    2    0    0  0.11395712062E+03 -0.21678562510E+03 -0.55099708799E+03  0.62207047557E+03  0.15294330000E+03 0.  0.
<mgrwt>
<rscale>  0 0.56261061E+03</rscale>
<asrwt>0</asrwt>
<pdfrwt beam="1">  1        2 0.11893613E+00 0.70270366E+03</pdfrwt>
<pdfrwt beam="2">  1       -2 0.10727318E+00 0.70270366E+03</pdfrwt>
<totfact> 0.25632129E+01</totfact>
</mgrwt>
</event>
<event>
 4    5  0.8511149E-008  0.7018703E+03  0.7818608E-02  0.9989529E-01
         -2   -1    0    0    0  501 -0.00000000000E+00  0.00000000000E+00  0.36254187001E+03  0.36254187002E+03  0.25500000000E-02 0.  1.
          2   -1    0    0  501    0  0.00000000000E+00 -0.00000000000E+00 -0.11451423795E+04  0.11451423795E+04  0.25500000000E-02 0. -1.
    8880023    1    1    2    0    0  0.24081982188E+03 -0.28592343342E+02 -0.30213908632E+02  0.70252031661E+03  0.65864270000E+03 0.  1.
    8880022    1    1    2    0    0 -0.24081982188E+03  0.28592343342E+02 -0.75238660086E+03  0.80516393292E+03  0.15294330000E+03 0.  0.
<mgrwt>
<rscale>  0 0.56111754E+03</rscale>
<asrwt>0</asrwt>
<pdfrwt beam="1">  1        2 0.17617575E+00 0.70187030E+03</pdfrwt>
<pdfrwt beam="2">  1       -2 0.55775673E-01 0.70187030E+03</pdfrwt>
<totfact> 0.63011737E+01</totfact>
</mgrwt>
</event>
<event>
 4    5  0.8511149E-008  0.7651337E+03  0.7818608E-02  0.9791994E-01
          2   -1    0    0  501    0  0.00000000000E+00  0.00000000000E+00  0.26562250546E+04  0.26562250546E+04  0.25500000000E-02 0. -1.
         -2   -1    0    0    0  501 -0.00000000000E+00 -0.00000000000E+00 -0.46986392262E+03  0.46986392263E+03  0.25500000000E-02 0.  1.
    8880023    1    1    2    0    0 -0.21827694371E+03 -0.32245085924E+03 -0.12665485343E+03  0.77554563949E+03  0.65864270000E+03 0.  1.
    8880022    1    1    2    0    0  0.21827694371E+03  0.32245085924E+03  0.23130159854E+04  0.23505433378E+04  0.15294330000E+03 0.  0.
<mgrwt>
<rscale>  0 0.65793983E+03</rscale>
<asrwt>0</asrwt>
<pdfrwt beam="1">  1        2 0.40865001E+00 0.76513371E+03</pdfrwt>
<pdfrwt beam="2">  1       -2 0.72286756E-01 0.76513371E+03</pdfrwt>
<totfact> 0.51369731E+00</totfact>
</mgrwt>
</event>
<event>
 4    5  0.8511149E-008  0.1139522E+04  0.7818608E-02  0.9218278E-01
         -2   -1    0    0    0  501 -0.00000000000E+00  0.00000000000E+00  0.17573018305E+04  0.17573018305E+04  0.25500000000E-02 0.  1.
          2   -1    0    0  501    0  0.00000000000E+00 -0.00000000000E+00 -0.12813602073E+04  0.12813602073E+04  0.25500000000E-02 0. -1.
    8880023    1    1    2    0    0  0.86549707355E+03 -0.34002246564E+03  0.13407678352E+04  0.17595934348E+04  0.65864270000E+03 0.  0.
    8880022    1    1    2    0    0 -0.86549707355E+03  0.34002246564E+03 -0.86482621203E+03  0.12790686031E+04  0.15294330000E+03 0.  0.
<mgrwt>
<rscale>  0 0.10866741E+04</rscale>
<asrwt>0</asrwt>
<pdfrwt beam="1">  1        2 0.19713234E+00 0.11395221E+04</pdfrwt>
<pdfrwt beam="2">  1       -2 0.27035413E+00 0.11395221E+04</pdfrwt>
<totfact> 0.80199715E-01</totfact>
</mgrwt>
</event>
<event>
 4    5  0.8511149E-008  0.1400290E+04  0.7818608E-02  0.8983458E-01
          2   -1    0    0  501    0  0.00000000000E+00  0.00000000000E+00  0.20815535014E+04  0.20815535014E+04  0.25500000000E-02 0. -1.
         -2   -1    0    0    0  501 -0.00000000000E+00 -0.00000000000E+00 -0.12122105568E+04  0.12122105568E+04  0.25500000000E-02 0.  1.
    8880023    1    1    2    0    0  0.12356322318E+04  0.14648146046E+02 -0.45850235693E+03  0.14734436528E+04  0.65864270000E+03 0.  0.
    8880022    1    1    2    0    0 -0.12356322318E+04 -0.14648146046E+02  0.13278453015E+04  0.18203204054E+04  0.15294330000E+03 0.  0.
<mgrwt>
<rscale>  0 0.13597802E+04</rscale>
<asrwt>0</asrwt>
<pdfrwt beam="1">  1        2 0.32023900E+00 0.14002899E+04</pdfrwt>
<pdfrwt beam="2">  1       -2 0.18649393E+00 0.14002899E+04</pdfrwt>
<totfact> 0.93559601E-01</totfact>
</mgrwt>
</event>
<event>
 4    5  0.8511149E-008  0.1494163E+04  0.7818608E-02  0.8913769E-01
          2   -1    0    0  501    0  0.00000000000E+00  0.00000000000E+00  0.12752843214E+04  0.12752843214E+04  0.25500000000E-02 0. -1.
         -2   -1    0    0    0  501 -0.00000000000E+00 -0.00000000000E+00 -0.30570614567E+04  0.30570614567E+04  0.25500000000E-02 0.  1.
    8880023    1    1    2    0    0 -0.12422822114E+03 -0.13353952889E+04 -0.24161739606E+04  0.28408484723E+04  0.65864270000E+03 0.  1.
    8880022    1    1    2    0    0  0.12422822114E+03  0.13353952889E+04  0.63439682520E+03  0.14914973058E+04  0.15294330000E+03 0.  0.
<mgrwt>
<rscale>  0 0.14567002E+04</rscale>
<asrwt>0</asrwt>
<pdfrwt beam="1">  1        2 0.19619759E+00 0.14941631E+04</pdfrwt>
<pdfrwt beam="2">  1       -2 0.47031715E+00 0.14941631E+04</pdfrwt>
<totfact> 0.41073532E-02</totfact>
</mgrwt>
</event>
<event>
 4    5  0.8511149E-008  0.7901187E+03  0.7818608E-02  0.9732583E-01
          2   -1    0    0  501    0  0.00000000000E+00  0.00000000000E+00  0.18062517281E+04  0.18062517281E+04  0.25500000000E-02 0. -1.
         -2   -1    0    0    0  501 -0.00000000000E+00 -0.00000000000E+00 -0.61820477985E+03  0.61820477986E+03  0.25500000000E-02 0.  1.
    8880023    1    1    2    0    0  0.26355156487E+03 -0.34787621367E+03 -0.31596302005E+03  0.85095248027E+03  0.65864270000E+03 0.  0.
    8880022    1    1    2    0    0 -0.26355156487E+03  0.34787621367E+03  0.15040099683E+04  0.15735040277E+04  0.15294330000E+03 0.  0.
<mgrwt>
<rscale>  0 0.69109492E+03</rscale>
<asrwt>0</asrwt>
<pdfrwt beam="1">  1        2 0.27788488E+00 0.79011866E+03</pdfrwt>
<pdfrwt beam="2">  1       -2 0.95108429E-01 0.79011866E+03</pdfrwt>
<totfact> 0.81565848E+00</totfact>
</mgrwt>
</event>
<event>
 4    5  0.8511149E-008  0.9747777E+03  0.7818608E-02  0.9415326E-01
         -2   -1    0    0    0  501 -0.00000000000E+00  0.00000000000E+00  0.67293720366E+03  0.67293720366E+03  0.25500000000E-02 0.  1.
          2   -1    0    0  501    0  0.00000000000E+00 -0.00000000000E+00 -0.15714898080E+04  0.15714898080E+04  0.25500000000E-02 0. -1.
    8880023    1    1    2    0    0 -0.57381686185E+03  0.43256857850E+03  0.12684281817E+03  0.98299576440E+03  0.65864270000E+03 0.  1.
    8880022    1    1    2    0    0  0.57381686185E+03 -0.43256857850E+03 -0.10253954225E+04  0.12614312473E+04  0.15294330000E+03 0.  0.
<mgrwt>
<rscale>  0 0.90825038E+03</rscale>
<asrwt>0</asrwt>
<pdfrwt beam="1">  1        2 0.24176766E+00 0.97477770E+03</pdfrwt>
<pdfrwt beam="2">  1       -2 0.10352880E+00 0.97477770E+03</pdfrwt>
<totfact> 0.87835214E+00</totfact>
</mgrwt>
</event>
<event>
 4    5  0.8511149E-008  0.8345348E+03  0.7818608E-02  0.9640573E-01
          2   -1    0    0  501    0  0.00000000000E+00  0.00000000000E+00  0.16024663981E+04  0.16024663981E+04  0.25500000000E-02 0. -1.
         -2   -1    0    0    0  501 -0.00000000000E+00 -0.00000000000E+00 -0.68821801563E+03  0.68821801563E+03  0.25500000000E-02 0.  1.
    8880023    1    1    2    0    0 -0.13482317845E+03  0.49442979592E+03 -0.35990854452E+03  0.90883578232E+03  0.65864270000E+03 0.  1.
    8880022    1    1    2    0    0  0.13482317845E+03 -0.49442979592E+03  0.12741569270E+04  0.13818486314E+04  0.15294330000E+03 0.  0.
<mgrwt>
<rscale>  0 0.74668038E+03</rscale>
<asrwt>0</asrwt>
<pdfrwt beam="1">  1        2 0.24653329E+00 0.83453479E+03</pdfrwt>
<pdfrwt beam="2">  1       -2 0.10587969E+00 0.83453479E+03</pdfrwt>
<totfact> 0.81305665E+00</totfact>
</mgrwt>
</event>
<event>
 4    5  0.8511149E-008  0.1269530E+04  0.7818608E-02  0.9092329E-01
         -2   -1    0    0    0  501 -0.00000000000E+00  0.00000000000E+00  0.78881362446E+03  0.78881362447E+03  0.25500000000E-02 0.  1.
          2   -1    0    0  501    0  0.00000000000E+00 -0.00000000000E+00 -0.21821356829E+04  0.21821356829E+04  0.25500000000E-02 0. -1.
    8880023    1    1    2    0    0 -0.11157665500E+03  0.10795589951E+04 -0.13795945578E+04  0.18748302121E+04  0.65864270000E+03 0.  0.
    8880022    1    1    2    0    0  0.11157665500E+03 -0.10795589951E+04 -0.13727500574E+02  0.10961190953E+04  0.15294330000E+03 0.  0.
<mgrwt>
<rscale>  0 0.12237374E+04</rscale>
<asrwt>0</asrwt>
<pdfrwt beam="1">  1        2 0.33571318E+00 0.12695303E+04</pdfrwt>
<pdfrwt beam="2">  1       -2 0.12135594E+00 0.12695303E+04</pdfrwt>
<totfact> 0.26471019E+00</totfact>
</mgrwt>
</event>
<event>
 4    5  0.8511149E-008  0.1133024E+04  0.7818608E-02  0.9225149E-01
          2   -1    0    0  501    0  0.00000000000E+00  0.00000000000E+00  0.12209853352E+04  0.12209853352E+04  0.25500000000E-02 0. -1.
         -2   -1    0    0    0  501 -0.00000000000E+00 -0.00000000000E+00 -0.10936810543E+04  0.10936810543E+04  0.25500000000E-02 0.  1.
    8880023    1    1    2    0    0  0.38375462548E+03  0.83825095517E+03 -0.44674558034E+03  0.12179179349E+04  0.65864270000E+03 0.  1.
    8880022    1    1    2    0    0 -0.38375462548E+03 -0.83825095517E+03  0.57404986121E+03  0.10967484546E+04  0.15294330000E+03 0.  0.
<mgrwt>
<rscale>  0 0.10797573E+04</rscale>
<asrwt>0</asrwt>
<pdfrwt beam="1">  1        2 0.18784390E+00 0.11330236E+04</pdfrwt>
<pdfrwt beam="2">  1       -2 0.16825862E+00 0.11330236E+04</pdfrwt>
<totfact> 0.39467888E+00</totfact>
</mgrwt>
</event>
<event>
 4    5  0.8511149E-008  0.1230136E+04  0.7818608E-02  0.9128370E-01
         -2   -1    0    0    0  501 -0.00000000000E+00  0.00000000000E+00  0.58771325555E+03  0.58771325556E+03  0.25500000000E-02 0.  1.
          2   -1    0    0  501    0  0.00000000000E+00 -0.00000000000E+00 -0.34126873884E+04  0.34126873884E+04  0.25500000000E-02 0. -1.
    8880023    1    1    2    0    0  0.82264779524E+03  0.63456707506E+03 -0.30063914304E+03  0.12663407394E+04  0.65864270000E+03 0.  1.
    8880022    1    1    2    0    0 -0.82264779524E+03 -0.63456707506E+03 -0.25243349898E+04  0.27340599045E+04  0.15294330000E+03 0.  0.
<mgrwt>
<rscale>  0 0.11824364E+04</rscale>
<asrwt>0</asrwt>
<pdfrwt beam="1">  1        2 0.52502882E+00 0.12301362E+04</pdfrwt>
<pdfrwt beam="2">  1       -2 0.90417426E-01 0.12301362E+04</pdfrwt>
<totfact> 0.97289906E-01</totfact>
</mgrwt>
</event>
<event>
 4    5  0.8511149E-008  0.1147855E+04  0.7818608E-02  0.9209557E-01
         -2   -1    0    0    0  501 -0.00000000000E+00  0.00000000000E+00  0.50896504605E+03  0.50896504606E+03  0.25500000000E-02 0.  1.
          2   -1    0    0  501    0  0.00000000000E+00 -0.00000000000E+00 -0.34803412098E+04  0.34803412098E+04  0.25500000000E-02 0. -1.
    8880023    1    1    2    0    0  0.92689953845E+03  0.15690439519E+03 -0.27938478900E+04  0.30204565851E+04  0.65864270000E+03 0. -1.
    8880022    1    1    2    0    0 -0.92689953845E+03 -0.15690439519E+03 -0.17752827375E+03  0.96884967079E+03  0.15294330000E+03 0.  0.
<mgrwt>
<rscale>  0 0.10955330E+04</rscale>
<asrwt>0</asrwt>
<pdfrwt beam="1">  1        2 0.53543709E+00 0.11478554E+04</pdfrwt>
<pdfrwt beam="2">  1       -2 0.78302317E-01 0.11478554E+04</pdfrwt>
<totfact> 0.12303564E+00</totfact>
</mgrwt>
</event>
<event>
 4    5  0.8511149E-008  0.7526671E+03  0.7818608E-02  0.9824475E-01
         -2   -1    0    0    0  501 -0.00000000000E+00  0.00000000000E+00  0.35941111104E+03  0.35941111105E+03  0.25500000000E-02 0.  1.
          2   -1    0    0  501    0  0.00000000000E+00 -0.00000000000E+00 -0.15277565034E+04  0.15277565034E+04  0.25500000000E-02 0. -1.
    8880023    1    1    2    0    0  0.10517678399E+03 -0.34876277383E+03 -0.11402617896E+03  0.76125541315E+03  0.65864270000E+03 0.  1.
    8880022    1    1    2    0    0 -0.10517678399E+03  0.34876277383E+03 -0.10543192134E+04  0.11259122013E+04  0.15294330000E+03 0.  0.
<mgrwt>
<rscale>  0 0.64065446E+03</rscale>
<asrwt>0</asrwt>
<pdfrwt beam="1">  1        2 0.23503946E+00 0.75266715E+03</pdfrwt>
<pdfrwt beam="2">  1       -2 0.55294018E-01 0.75266715E+03</pdfrwt>
<totfact> 0.38502755E+01</totfact>
</mgrwt>
</event>
<event>
 4    5  0.8511149E-008  0.9338417E+03  0.7818608E-02  0.9473754E-01
          2   -1    0    0  501    0  0.00000000000E+00  0.00000000000E+00  0.33935989397E+04  0.33935989397E+04  0.25500000000E-02 0. -1.
         -2   -1    0    0    0  501 -0.00000000000E+00 -0.00000000000E+00 -0.33688116107E+03  0.33688116108E+03  0.25500000000E-02 0.  1.
    8880023    1    1    2    0    0  0.60781376457E+03 -0.26232134093E+03  0.44988976915E+03  0.10365621395E+04  0.65864270000E+03 0.  1.
    8880022    1    1    2    0    0 -0.60781376457E+03  0.26232134093E+03  0.26068280094E+04  0.26939179613E+04  0.15294330000E+03 0.  0.
<mgrwt>
<rscale>  0 0.86246815E+03</rscale>
<asrwt>0</asrwt>
<pdfrwt beam="1">  1        2 0.52209212E+00 0.93384167E+03</pdfrwt>
<pdfrwt beam="2">  1       -2 0.51827873E-01 0.93384167E+03</pdfrwt>
<totfact> 0.35377578E+00</totfact>
</mgrwt>
</event>
<event>
 4    5  0.8511149E-008  0.1123902E+04  0.7818608E-02  0.9234899E-01
          2   -1    0    0  501    0  0.00000000000E+00  0.00000000000E+00  0.11418674330E+04  0.11418674330E+04  0.25500000000E-02 0. -1.
         -2   -1    0    0    0  501 -0.00000000000E+00 -0.00000000000E+00 -0.10747908040E+04  0.10747908040E+04  0.25500000000E-02 0.  1.
    8880023    1    1    2    0    0 -0.58151888929E+03 -0.70084352079E+03 -0.38563291268E+03  0.11882208586E+04  0.65864270000E+03 0.  0.
    8880022    1    1    2    0    0  0.58151888929E+03  0.70084352079E+03  0.45270954161E+03  0.10284373784E+04  0.15294330000E+03 0.  0.
<mgrwt>
<rscale>  0 0.10700358E+04</rscale>
<asrwt>0</asrwt>
<pdfrwt beam="1">  1        2 0.17567191E+00 0.11239022E+04</pdfrwt>
<pdfrwt beam="2">  1       -2 0.16535243E+00 0.11239022E+04</pdfrwt>
<totfact> 0.46274861E+00</totfact>
</mgrwt>
</event>
<event>
 4    5  0.8511149E-008  0.7089889E+03  0.7818608E-02  0.9961775E-01
         -2   -1    0    0    0  501 -0.00000000000E+00  0.00000000000E+00  0.26535010036E+03  0.26535010037E+03  0.25500000000E-02 0.  1.
          2   -1    0    0  501    0  0.00000000000E+00 -0.00000000000E+00 -0.14571010574E+04  0.14571010574E+04  0.25500000000E-02 0. -1.
    8880023    1    1    2    0    0 -0.19822653406E+03 -0.17193391035E+03 -0.28143531685E+03  0.76280474053E+03  0.65864270000E+03 0.  0.
    8880022    1    1    2    0    0  0.19822653406E+03  0.17193391035E+03 -0.91031564020E+03  0.95964641725E+03  0.15294330000E+03 0.  0.
<mgrwt>
<rscale>  0 0.57358583E+03</rscale>
<asrwt>0</asrwt>
<pdfrwt beam="1">  1        2 0.22416939E+00 0.70898888E+03</pdfrwt>
<pdfrwt beam="2">  1       -2 0.40823093E-01 0.70898888E+03</pdfrwt>
<totfact> 0.78050895E+01</totfact>
</mgrwt>
</event>
<event>
 4    5  0.8511149E-008  0.7398002E+03  0.7818608E-02  0.9860529E-01
          2   -1    0    0  501    0  0.00000000000E+00  0.00000000000E+00  0.81933915733E+03  0.81933915733E+03  0.25500000000E-02 0. -1.
         -2   -1    0    0    0  501 -0.00000000000E+00 -0.00000000000E+00 -0.99653033169E+03  0.99653033169E+03  0.25500000000E-02 0.  1.
    8880023    1    1    2    0    0  0.21932973797E+03  0.25571205562E+03 -0.80114138166E+03  0.10904732500E+04  0.65864270000E+03 0.  1.
    8880022    1    1    2    0    0 -0.21932973797E+03 -0.25571205562E+03  0.62395020730E+03  0.72539623900E+03  0.15294330000E+03 0.  0.
<mgrwt>
<rscale>  0 0.62212932E+03</rscale>
<asrwt>0</asrwt>
<pdfrwt beam="1">  1        2 0.12605218E+00 0.73980024E+03</pdfrwt>
<pdfrwt beam="2">  1       -2 0.15331236E+00 0.73980024E+03</pdfrwt>
<totfact> 0.95988208E+00</totfact>
</mgrwt>
</event>
<event>
 4    5  0.8511149E-008  0.6969604E+03  0.7818608E-02  0.1001005E+00
         -2   -1    0    0    0  501 -0.00000000000E+00  0.00000000000E+00  0.82425057575E+03  0.82425057576E+03  0.25500000000E-02 0.  1.
          2   -1    0    0  501    0  0.00000000000E+00 -0.00000000000E+00 -0.14014244824E+04  0.14014244824E+04  0.25500000000E-02 0. -1.
    8880023    1    1    2    0    0  0.17916429900E+03  0.14086807777E+03  0.65912750320E+03  0.95927208502E+03  0.65864270000E+03 0.  1.
    8880022    1    1    2    0    0 -0.17916429900E+03 -0.14086807777E+03 -0.12363014099E+04  0.12664029732E+04  0.15294330000E+03 0.  0.
<mgrwt>
<rscale>  0 0.55211675E+03</rscale>
<asrwt>0</asrwt>
<pdfrwt beam="1">  1        2 0.21560377E+00 0.69696045E+03</pdfrwt>
<pdfrwt beam="2">  1       -2 0.12680778E+00 0.69696045E+03</pdfrwt>
<totfact> 0.68895332E+00</totfact>
</mgrwt>
</event>
<event>
 4    5  0.8511149E-008  0.1005453E+04  0.7818608E-02  0.9374458E-01
          2   -1    0    0  501    0  0.00000000000E+00  0.00000000000E+00  0.78380276770E+03  0.78380276770E+03  0.25500000000E-02 0. -1.
         -2   -1    0    0    0  501 -0.00000000000E+00 -0.00000000000E+00 -0.22332864554E+04  0.22332864554E+04  0.25500000000E-02 0.  1.
    8880023    1    1    2    0    0  0.71561944258E+03 -0.25497863319E+03  0.34454525968E+03  0.10628484992E+04  0.65864270000E+03 0. -1.
    8880022    1    1    2    0    0 -0.71561944258E+03  0.25497863319E+03 -0.17940289474E+04  0.19542407239E+04  0.15294330000E+03 0.  0.
<mgrwt>
<rscale>  0 0.94207819E+03</rscale>
<asrwt>0</asrwt>
<pdfrwt beam="1">  1        2 0.12058504E+00 0.10054529E+04</pdfrwt>
<pdfrwt beam="2">  1       -2 0.34358253E+00 0.10054529E+04</pdfrwt>
<totfact> 0.61064894E-01</totfact>
</mgrwt>
</event>
<event>
 4    5  0.8511149E-008  0.9095471E+03  0.7818608E-02  0.9510876E-01
          2   -1    0    0  501    0  0.00000000000E+00  0.00000000000E+00  0.18889579982E+04  0.18889579982E+04  0.25500000000E-02 0. -1.
         -2   -1    0    0    0  501 -0.00000000000E+00 -0.00000000000E+00 -0.80514091922E+03  0.80514091923E+03  0.25500000000E-02 0.  1.
    8880023    1    1    2    0    0 -0.58057680931E+03  0.23747905857E+03 -0.46106082157E+03  0.10197318384E+04  0.65864270000E+03 0.  1.
    8880022    1    1    2    0    0  0.58057680931E+03 -0.23747905857E+03  0.15448779005E+04  0.16743670790E+04  0.15294330000E+03 0.  0.
<mgrwt>
<rscale>  0 0.83486708E+03</rscale>
<asrwt>0</asrwt>
<pdfrwt beam="1">  1        2 0.29060892E+00 0.90954711E+03</pdfrwt>
<pdfrwt beam="2">  1       -2 0.12386783E+00 0.90954711E+03</pdfrwt>
<totfact> 0.38127340E+00</totfact>
</mgrwt>
</event>
<event>
 4    5  0.8511149E-008  0.7168613E+03  0.7818608E-02  0.9933353E-01
         -2   -1    0    0    0  501 -0.00000000000E+00  0.00000000000E+00  0.43773477449E+03  0.43773477449E+03  0.25500000000E-02 0.  1.
          2   -1    0    0  501    0  0.00000000000E+00 -0.00000000000E+00 -0.14559567518E+04  0.14559567518E+04  0.25500000000E-02 0. -1.
    8880023    1    1    2    0    0 -0.93378161021E+02 -0.26713382872E+03  0.10572878934E+03  0.72461627539E+03  0.65864270000E+03 0.  1.
    8880022    1    1    2    0    0  0.93378161021E+02  0.26713382872E+03 -0.11239507666E+04  0.11690752509E+04  0.15294330000E+03 0.  0.
<mgrwt>
<rscale>  0 0.58671747E+03</rscale>
<asrwt>0</asrwt>
<pdfrwt beam="1">  1        2 0.22399334E+00 0.71686133E+03</pdfrwt>
<pdfrwt beam="2">  1       -2 0.67343812E-01 0.71686133E+03</pdfrwt>
<totfact> 0.27914060E+01</totfact>
</mgrwt>
</event>
<event>
 4    5  0.8511149E-008  0.1198137E+04  0.7818608E-02  0.9158935E-01
          2   -1    0    0  501    0  0.00000000000E+00  0.00000000000E+00  0.17860182119E+04  0.17860182119E+04  0.25500000000E-02 0. -1.
         -2   -1    0    0    0  501 -0.00000000000E+00 -0.00000000000E+00 -0.82855660983E+03  0.82855660983E+03  0.25500000000E-02 0.  1.
    8880023    1    1    2    0    0 -0.69453420459E+03 -0.72065602216E+03  0.10563036389E+04  0.15972822066E+04  0.65864270000E+03 0. -1.
    8880022    1    1    2    0    0  0.69453420459E+03  0.72065602216E+03 -0.98842036819E+02  0.10172926152E+04  0.15294330000E+03 0.  0.
<mgrwt>
<rscale>  0 0.11487526E+04</rscale>
<asrwt>0</asrwt>
<pdfrwt beam="1">  1        2 0.27477203E+00 0.11981373E+04</pdfrwt>
<pdfrwt beam="2">  1       -2 0.12747025E+00 0.11981373E+04</pdfrwt>
<totfact> 0.39079571E+00</totfact>
</mgrwt>
</event>
<event>
 4    5  0.8511149E-008  0.1037845E+04  0.7818608E-02  0.9333638E-01
         -2   -1    0    0    0  501 -0.00000000000E+00  0.00000000000E+00  0.79981759626E+03  0.79981759627E+03  0.25500000000E-02 0.  1.
          2   -1    0    0  501    0  0.00000000000E+00 -0.00000000000E+00 -0.21104364310E+04  0.21104364310E+04  0.25500000000E-02 0. -1.
    8880023    1    1    2    0    0  0.30243699006E+03  0.74286242812E+03  0.32047664692E+03  0.10861989724E+04  0.65864270000E+03 0.  0.
    8880022    1    1    2    0    0 -0.30243699006E+03 -0.74286242812E+03 -0.16310954817E+04  0.18240550549E+04  0.15294330000E+03 0.  0.
<mgrwt>
<rscale>  0 0.97744232E+03</rscale>
<asrwt>0</asrwt>
<pdfrwt beam="1">  1        2 0.32468253E+00 0.10378453E+04</pdfrwt>
<pdfrwt beam="2">  1       -2 0.12304886E+00 0.10378453E+04</pdfrwt>
<totfact> 0.28784357E+00</totfact>
</mgrwt>
</event>
<event>
 4    5  0.8511149E-008  0.6589753E+03  0.7818608E-02  0.1025232E+00
         -2   -1    0    0    0  501 -0.00000000000E+00  0.00000000000E+00  0.12973501277E+03  0.12973501279E+03  0.25500000000E-02 0.  1.
          2   -1    0    0  501    0  0.00000000000E+00 -0.00000000000E+00 -0.25234379405E+04  0.25234379405E+04  0.25500000000E-02 0. -1.
    8880023    1    1    2    0    0  0.20931800449E+02 -0.39806290628E+00 -0.73441115307E+03  0.98671588957E+03  0.65864270000E+03 0.  1.
    8880022    1    1    2    0    0 -0.20931800449E+02  0.39806290628E+00 -0.16592917747E+04  0.16664570637E+04  0.15294330000E+03 0.  0.
<mgrwt>
<rscale>  0 0.45845031E+03</rscale>
<asrwt>0</asrwt>
<pdfrwt beam="1">  1        2 0.38822118E+00 0.65897534E+03</pdfrwt>
<pdfrwt beam="2">  1       -2 0.19959235E-01 0.65897534E+03</pdfrwt>
<totfact> 0.76040681E+01</totfact>
</mgrwt>
</event>
<event>
 4    5  0.8511149E-008  0.1040526E+04  0.7818608E-02  0.9330358E-01
         -2   -1    0    0    0  501 -0.00000000000E+00  0.00000000000E+00  0.50524715315E+03  0.50524715316E+03  0.25500000000E-02 0.  1.
          2   -1    0    0  501    0  0.00000000000E+00 -0.00000000000E+00 -0.19660155703E+04  0.19660155703E+04  0.25500000000E-02 0. -1.
    8880023    1    1    2    0    0 -0.50394855969E+03 -0.62842701069E+03 -0.12466676933E+04  0.16238458062E+04  0.65864270000E+03 0.  1.
    8880022    1    1    2    0    0  0.50394855969E+03  0.62842701069E+03 -0.21410072376E+03  0.84741691717E+03  0.15294330000E+03 0.  0.
<mgrwt>
<rscale>  0 0.98035474E+03</rscale>
<asrwt>0</asrwt>
<pdfrwt beam="1">  1        2 0.30246393E+00 0.10405262E+04</pdfrwt>
<pdfrwt beam="2">  1       -2 0.77730332E-01 0.10405262E+04</pdfrwt>
<totfact> 0.10263977E+01</totfact>
</mgrwt>
</event>
<event>
 4    5  0.8511149E-008  0.7604004E+03  0.7818608E-02  0.9804072E-01
         -2   -1    0    0    0  501 -0.00000000000E+00  0.00000000000E+00  0.76790998587E+03  0.76790998587E+03  0.25500000000E-02 0.  1.
          2   -1    0    0  501    0  0.00000000000E+00 -0.00000000000E+00 -0.70239731280E+03  0.70239731280E+03  0.25500000000E-02 0. -1.
    8880023    1    1    2    0    0  0.35826482992E+03 -0.12666829819E+03  0.47057351096E+03  0.89423049691E+03  0.65864270000E+03 0.  1.
    8880022    1    1    2    0    0 -0.35826482992E+03  0.12666829819E+03 -0.40506083789E+03  0.57607680176E+03  0.15294330000E+03 0.  0.
<mgrwt>
<rscale>  0 0.65144472E+03</rscale>
<asrwt>0</asrwt>
<pdfrwt beam="1">  1        2 0.10806112E+00 0.76040039E+03</pdfrwt>
<pdfrwt beam="2">  1       -2 0.11814000E+00 0.76040039E+03</pdfrwt>
<totfact> 0.22805683E+01</totfact>
</mgrwt>
</event>
<event>
 4    5  0.8511149E-008  0.1086431E+04  0.7818608E-02  0.9276316E-01
         -2   -1    0    0    0  501 -0.00000000000E+00  0.00000000000E+00  0.37428462438E+03  0.37428462439E+03  0.25500000000E-02 0.  1.
          2   -1    0    0  501    0  0.00000000000E+00 -0.00000000000E+00 -0.25974167610E+04  0.25974167610E+04  0.25500000000E-02 0. -1.
    8880023    1    1    2    0    0 -0.84846988578E+03 -0.16315905020E+03 -0.13626485029E+04  0.17427401331E+04  0.65864270000E+03 0. -1.
    8880022    1    1    2    0    0  0.84846988578E+03  0.16315905020E+03 -0.86048363368E+03  0.12289612523E+04  0.15294330000E+03 0.  0.
<mgrwt>
<rscale>  0 0.10299280E+04</rscale>
<asrwt>0</asrwt>
<pdfrwt beam="1">  1        2 0.39960257E+00 0.10864310E+04</pdfrwt>
<pdfrwt beam="2">  1       -2 0.57582251E-01 0.10864310E+04</pdfrwt>
<totfact> 0.86540893E+00</totfact>
</mgrwt>
</event>
<event>
 4    5  0.8511149E-008  0.1071249E+04  0.7818608E-02  0.9293763E-01
          2   -1    0    0  501    0  0.00000000000E+00  0.00000000000E+00  0.23788587798E+04  0.23788587798E+04  0.25500000000E-02 0. -1.
         -2   -1    0    0    0  501 -0.00000000000E+00 -0.00000000000E+00 -0.64447818819E+03  0.64447818819E+03  0.25500000000E-02 0.  1.
    8880023    1    1    2    0    0 -0.48445282793E+03  0.69214793225E+03 -0.18578406253E+02  0.10714096630E+04  0.65864270000E+03 0.  0.
    8880022    1    1    2    0    0  0.48445282793E+03 -0.69214793225E+03  0.17529589978E+04  0.19519273049E+04  0.15294330000E+03 0.  0.
<mgrwt>
<rscale>  0 0.10135905E+04</rscale>
<asrwt>0</asrwt>
<pdfrwt beam="1">  1        2 0.36597828E+00 0.10712486E+04</pdfrwt>
<pdfrwt beam="2">  1       -2 0.99150489E-01 0.10712486E+04</pdfrwt>
<totfact> 0.34356843E+00</totfact>
</mgrwt>
</event>
<event>
 4    5  0.8511149E-008  0.7793219E+03  0.7818608E-02  0.9757432E-01
         -2   -1    0    0    0  501 -0.00000000000E+00  0.00000000000E+00  0.50945906068E+03  0.50945906069E+03  0.25500000000E-02 0.  1.
          2   -1    0    0  501    0  0.00000000000E+00 -0.00000000000E+00 -0.24076511078E+04  0.24076511078E+04  0.25500000000E-02 0. -1.
    8880023    1    1    2    0    0  0.40309515813E+03 -0.10510331854E+03  0.17351868814E+03  0.79840550817E+03  0.65864270000E+03 0.  0.
    8880022    1    1    2    0    0 -0.40309515813E+03  0.10510331854E+03 -0.20717107353E+04  0.21187046604E+04  0.15294330000E+03 0.  0.
<mgrwt>
<rscale>  0 0.67697871E+03</rscale>
<asrwt>0</asrwt>
<pdfrwt beam="1">  1        2 0.37040786E+00 0.77932190E+03</pdfrwt>
<pdfrwt beam="2">  1       -2 0.78378319E-01 0.77932190E+03</pdfrwt>
<totfact> 0.59336761E+00</totfact>
</mgrwt>
</event>
<event>
 4    5  0.8511149E-008  0.1231119E+04  0.7818608E-02  0.9127450E-01
         -2   -1    0    0    0  501 -0.00000000000E+00  0.00000000000E+00  0.72057536993E+03  0.72057536993E+03  0.25500000000E-02 0.  1.
          2   -1    0    0  501    0  0.00000000000E+00 -0.00000000000E+00 -0.37608995750E+04  0.37608995750E+04  0.25500000000E-02 0. -1.
    8880023    1    1    2    0    0  0.10145023386E+04  0.22941197264E+03  0.34798282818E+02  0.12316111298E+04  0.65864270000E+03 0.  0.
    8880022    1    1    2    0    0 -0.10145023386E+04 -0.22941197264E+03 -0.30751224879E+04  0.32498638151E+04  0.15294330000E+03 0.  0.
<mgrwt>
<rscale>  0 0.11834694E+04</rscale>
<asrwt>0</asrwt>
<pdfrwt beam="1">  1        2 0.57859992E+00 0.12311194E+04</pdfrwt>
<pdfrwt beam="2">  1       -2 0.11085775E+00 0.12311194E+04</pdfrwt>
<totfact> 0.33912701E-01</totfact>
</mgrwt>
</event>
<event>
 4    5  0.8511149E-008  0.1029871E+04  0.7818608E-02  0.9343480E-01
         -2   -1    0    0    0  501 -0.00000000000E+00  0.00000000000E+00  0.23273783330E+04  0.23273783330E+04  0.25500000000E-02 0.  1.
          2   -1    0    0  501    0  0.00000000000E+00 -0.00000000000E+00 -0.83801733487E+03  0.83801733487E+03  0.25500000000E-02 0. -1.
    8880023    1    1    2    0    0 -0.50436429421E+03  0.61027863842E+03  0.19726452581E+04  0.22253006265E+04  0.65864270000E+03 0.  0.
    8880022    1    1    2    0    0  0.50436429421E+03 -0.61027863842E+03 -0.48328425999E+03  0.94009504134E+03  0.15294330000E+03 0.  0.
<mgrwt>
<rscale>  0 0.96876655E+03</rscale>
<asrwt>0</asrwt>
<pdfrwt beam="1">  1        2 0.12892574E+00 0.10298707E+04</pdfrwt>
<pdfrwt beam="2">  1       -2 0.35805821E+00 0.10298707E+04</pdfrwt>
<totfact> 0.45144569E-01</totfact>
</mgrwt>
</event>
<event>
 4    5  0.8511149E-008  0.6893020E+03  0.7818608E-02  0.1004486E+00
          2   -1    0    0  501    0  0.00000000000E+00  0.00000000000E+00  0.43374227943E+03  0.43374227943E+03  0.25500000000E-02 0. -1.
         -2   -1    0    0    0  501 -0.00000000000E+00 -0.00000000000E+00 -0.20861075126E+04  0.20861075126E+04  0.25500000000E-02 0.  1.
    8880023    1    1    2    0    0 -0.18341641528E+03 -0.87667038742E+02 -0.19848894939E+04  0.21011719587E+04  0.65864270000E+03 0.  1.
    8880022    1    1    2    0    0  0.18341641528E+03  0.87667038742E+02  0.33252426073E+03  0.41867783326E+03  0.15294330000E+03 0.  0.
<mgrwt>
<rscale>  0 0.53726176E+03</rscale>
<asrwt>0</asrwt>
<pdfrwt beam="1">  1        2 0.66729582E-01 0.68930204E+03</pdfrwt>
<pdfrwt beam="2">  1       -2 0.32093961E+00 0.68930204E+03</pdfrwt>
<totfact> 0.18114678E+00</totfact>
</mgrwt>
</event>
<event>
 4    5  0.8511149E-008  0.7031365E+03  0.7818608E-02  0.9984430E-01
         -2   -1    0    0    0  501 -0.00000000000E+00  0.00000000000E+00  0.30810045463E+03  0.30810045464E+03  0.25500000000E-02 0.  1.
          2   -1    0    0  501    0  0.00000000000E+00 -0.00000000000E+00 -0.31787386532E+04  0.31787386532E+04  0.25500000000E-02 0. -1.
    8880023    1    1    2    0    0 -0.33239841120E+02  0.24389711697E+03 -0.11078249686E+03  0.71181012818E+03  0.65864270000E+03 0.  0.
    8880022    1    1    2    0    0  0.33239841120E+02 -0.24389711697E+03 -0.27598557017E+04  0.27750289796E+04  0.15294330000E+03 0.  0.
<mgrwt>
<rscale>  0 0.56338232E+03</rscale>
<asrwt>0</asrwt>
<pdfrwt beam="1">  1        2 0.48903669E+00 0.70313647E+03</pdfrwt>
<pdfrwt beam="2">  1       -2 0.47400072E-01 0.70313647E+03</pdfrwt>
<totfact> 0.61077999E+00</totfact>
</mgrwt>
</event>
<event>
 4    5  0.8511149E-008  0.8932791E+03  0.7818608E-02  0.9536908E-01
         -2   -1    0    0    0  501 -0.00000000000E+00  0.00000000000E+00  0.83396055929E+03  0.83396055930E+03  0.25500000000E-02 0.  1.
          2   -1    0    0  501    0  0.00000000000E+00 -0.00000000000E+00 -0.80246838176E+03  0.80246838177E+03  0.25500000000E-02 0. -1.
    8880023    1    1    2    0    0 -0.35336134623E+03  0.48915558195E+03  0.32189359558E+03  0.94950677591E+03  0.65864270000E+03 0.  0.
    8880022    1    1    2    0    0  0.35336134623E+03 -0.48915558195E+03 -0.29040141805E+03  0.68692216515E+03  0.15294330000E+03 0.  0.
<mgrwt>
<rscale>  0 0.81616588E+03</rscale>
<asrwt>0</asrwt>
<pdfrwt beam="1">  1        2 0.12345667E+00 0.89327914E+03</pdfrwt>
<pdfrwt beam="2">  1       -2 0.12830162E+00 0.89327914E+03</pdfrwt>
<totfact> 0.15424869E+01</totfact>
</mgrwt>
</event>
<event>
 4    5  0.8511149E-008  0.1664253E+04  0.7818608E-02  0.8801594E-01
          2   -1    0    0  501    0  0.00000000000E+00  0.00000000000E+00  0.32448608693E+04  0.32448608693E+04  0.25500000000E-02 0. -1.
         -2   -1    0    0    0  501 -0.00000000000E+00 -0.00000000000E+00 -0.16358909846E+04  0.16358909846E+04  0.25500000000E-02 0.  1.
    8880023    1    1    2    0    0  0.94188913940E+03 -0.12036502608E+04  0.25751575049E+04  0.30661336374E+04  0.65864270000E+03 0.  0.
    8880022    1    1    2    0    0 -0.94188913940E+03  0.12036502608E+04 -0.96618762015E+03  0.18146182165E+04  0.15294330000E+03 0.  0.
<mgrwt>
<rscale>  0 0.16312216E+04</rscale>
<asrwt>0</asrwt>
<pdfrwt beam="1">  1        2 0.49920936E+00 0.16642534E+04</pdfrwt>
<pdfrwt beam="2">  1       -2 0.25167554E+00 0.16642534E+04</pdfrwt>
<totfact> 0.70157622E-02</totfact>
</mgrwt>
</event>
<event>
 4    5  0.8511149E-008  0.6881856E+03  0.7818608E-02  0.1005027E+00
          2   -1    0    0  501    0  0.00000000000E+00  0.00000000000E+00  0.32923788751E+04  0.32923788751E+04  0.25500000000E-02 0. -1.
         -2   -1    0    0    0  501 -0.00000000000E+00 -0.00000000000E+00 -0.19385587967E+03  0.19385587969E+03  0.25500000000E-02 0.  1.
    8880023    1    1    2    0    0 -0.15994688226E+02  0.19883020366E+03  0.44212147634E+03  0.81796753361E+03  0.65864270000E+03 0.  1.
    8880022    1    1    2    0    0  0.15994688226E+02 -0.19883020366E+03  0.26564015191E+04  0.26682672212E+04  0.15294330000E+03 0.  0.
<mgrwt>
<rscale>  0 0.53499837E+03</rscale>
<asrwt>0</asrwt>
<pdfrwt beam="1">  1        2 0.50651985E+00 0.68818565E+03</pdfrwt>
<pdfrwt beam="2">  1       -2 0.29823980E-01 0.68818565E+03</pdfrwt>
<totfact> 0.12660763E+01</totfact>
</mgrwt>
</event>
<event>
 4    5  0.8511149E-008  0.8470013E+03  0.7818608E-02  0.9617117E-01
         -2   -1    0    0    0  501 -0.00000000000E+00  0.00000000000E+00  0.80423376206E+03  0.80423376207E+03  0.25500000000E-02 0.  1.
          2   -1    0    0  501    0  0.00000000000E+00 -0.00000000000E+00 -0.13004439817E+04  0.13004439817E+04  0.25500000000E-02 0. -1.
    8880023    1    1    2    0    0  0.26515595335E+03  0.46183682973E+03  0.48632128990E+03  0.97668804650E+03  0.65864270000E+03 0.  1.
    8880022    1    1    2    0    0 -0.26515595335E+03 -0.46183682973E+03 -0.98253150954E+03  0.11279896973E+04  0.15294330000E+03 0.  0.
<mgrwt>
<rscale>  0 0.76173521E+03</rscale>
<asrwt>0</asrwt>
<pdfrwt beam="1">  1        2 0.20006831E+00 0.84700127E+03</pdfrwt>
<pdfrwt beam="2">  1       -2 0.12372827E+00 0.84700127E+03</pdfrwt>
<totfact> 0.82027442E+00</totfact>
</mgrwt>
</event>
<event>
 4    5  0.8511149E-008  0.6746764E+03  0.7818608E-02  0.1012511E+00
          2   -1    0    0  501    0  0.00000000000E+00  0.00000000000E+00  0.24497481654E+04  0.24497481654E+04  0.25500000000E-02 0. -1.
         -2   -1    0    0    0  501 -0.00000000000E+00 -0.00000000000E+00 -0.14454481846E+03  0.14454481849E+03  0.25500000000E-02 0.  1.
    8880023    1    1    2    0    0  0.66387089246E+02  0.13027211210E+03  0.68907158774E+03  0.96436918662E+03  0.65864270000E+03 0.  1.
    8880022    1    1    2    0    0 -0.66387089246E+02 -0.13027211210E+03  0.16161317592E+04  0.16299237972E+04  0.15294330000E+03 0.  0.
<mgrwt>
<rscale>  0 0.50488759E+03</rscale>
<asrwt>0</asrwt>
<pdfrwt beam="1">  1        2 0.37688435E+00 0.67467642E+03</pdfrwt>
<pdfrwt beam="2">  1       -2 0.22237663E-01 0.67467642E+03</pdfrwt>
<totfact> 0.69037492E+01</totfact>
</mgrwt>
</event>
<event>
 4    5  0.8511149E-008  0.1487102E+04  0.7818608E-02  0.8918798E-01
         -2   -1    0    0    0  501 -0.00000000000E+00  0.00000000000E+00  0.20155314765E+04  0.20155314765E+04  0.25500000000E-02 0.  1.
          2   -1    0    0  501    0  0.00000000000E+00 -0.00000000000E+00 -0.16408240826E+04  0.16408240826E+04  0.25500000000E-02 0. -1.
    8880023    1    1    2    0    0  0.32176375295E+02  0.13329015586E+04  0.13411620952E+04  0.20025453443E+04  0.65864270000E+03 0.  0.
    8880022    1    1    2    0    0 -0.32176375295E+02 -0.13329015586E+04 -0.96645470132E+03  0.16538102148E+04  0.15294330000E+03 0.  0.
<mgrwt>
<rscale>  0 0.14494271E+04</rscale>
<asrwt>0</asrwt>
<pdfrwt beam="1">  1        2 0.25243448E+00 0.14871019E+04</pdfrwt>
<pdfrwt beam="2">  1       -2 0.31008176E+00 0.14871019E+04</pdfrwt>
<totfact> 0.27454089E-01</totfact>
</mgrwt>
</event>
<event>
 4    5  0.8511149E-008  0.7057169E+03  0.7818608E-02  0.9974263E-01
         -2   -1    0    0    0  501 -0.00000000000E+00  0.00000000000E+00  0.24632406757E+03  0.24632406758E+03  0.25500000000E-02 0.  1.
          2   -1    0    0  501    0  0.00000000000E+00 -0.00000000000E+00 -0.41345249310E+04  0.41345249310E+04  0.25500000000E-02 0. -1.
    8880023    1    1    2    0    0 -0.85404140337E+02  0.23860490593E+03 -0.27794455506E+03  0.75847844417E+03  0.65864270000E+03 0.  0.
    8880022    1    1    2    0    0  0.85404140337E+02 -0.23860490593E+03 -0.36102563084E+04  0.36223705544E+04  0.15294330000E+03 0. -1.
<mgrwt>
<rscale>  0 0.56793280E+03</rscale>
<asrwt>0</asrwt>
<pdfrwt beam="1">  1        2 0.63608071E+00 0.70571692E+03</pdfrwt>
<pdfrwt beam="2">  1       -2 0.37896013E-01 0.70571692E+03</pdfrwt>
<totfact> 0.19625389E+00</totfact>
</mgrwt>
</event>
<event>
 4    5  0.8511149E-008  0.1108643E+04  0.7818608E-02  0.9251494E-01
          2   -1    0    0  501    0  0.00000000000E+00  0.00000000000E+00  0.35101404490E+04  0.35101404490E+04  0.25500000000E-02 0. -1.
         -2   -1    0    0    0  501 -0.00000000000E+00 -0.00000000000E+00 -0.67191143346E+03  0.67191143346E+03  0.25500000000E-02 0.  1.
    8880023    1    1    2    0    0 -0.28806260370E+02 -0.89131862489E+03 -0.94746995512E+02  0.11126840931E+04  0.65864270000E+03 0.  0.
    8880022    1    1    2    0    0  0.28806260370E+02  0.89131862489E+03  0.29329760110E+04  0.30693677893E+04  0.15294330000E+03 0.  0.
<mgrwt>
<rscale>  0 0.10537373E+04</rscale>
<asrwt>0</asrwt>
<pdfrwt beam="1">  1        2 0.54002160E+00 0.11086428E+04</pdfrwt>
<pdfrwt beam="2">  1       -2 0.10337099E+00 0.11086428E+04</pdfrwt>
<totfact> 0.61924374E-01</totfact>
</mgrwt>
</event>
<event>
 4    5  0.8511149E-008  0.1090832E+04  0.7818608E-02  0.9271333E-01
         -2   -1    0    0    0  501 -0.00000000000E+00  0.00000000000E+00  0.62132618915E+03  0.62132618915E+03  0.25500000000E-02 0.  1.
          2   -1    0    0  501    0  0.00000000000E+00 -0.00000000000E+00 -0.19898704391E+04  0.19898704391E+04  0.25500000000E-02 0. -1.
    8880023    1    1    2    0    0  0.34024353851E+03  0.80021100816E+03 -0.14214400777E+03  0.11000538388E+04  0.65864270000E+03 0.  0.
    8880022    1    1    2    0    0 -0.34024353851E+03 -0.80021100816E+03 -0.12264002422E+04  0.15111427895E+04  0.15294330000E+03 0.  0.
<mgrwt>
<rscale>  0 0.10346535E+04</rscale>
<asrwt>0</asrwt>
<pdfrwt beam="1">  1        2 0.30613391E+00 0.10908316E+04</pdfrwt>
<pdfrwt beam="2">  1       -2 0.95588645E-01 0.10908316E+04</pdfrwt>
<totfact> 0.61587546E+00</totfact>
</mgrwt>
</event>
<event>
 4    5  0.8511149E-008  0.7419501E+03  0.7818608E-02  0.9854303E-01
         -2   -1    0    0    0  501 -0.00000000000E+00  0.00000000000E+00  0.88158639411E+03  0.88158639412E+03  0.25500000000E-02 0.  1.
          2   -1    0    0  501    0  0.00000000000E+00 -0.00000000000E+00 -0.11529573731E+04  0.11529573731E+04  0.25500000000E-02 0. -1.
    8880023    1    1    2    0    0  0.15498207677E+03  0.30440146207E+03  0.68359572885E+03  0.10088572848E+04  0.65864270000E+03 0.  0.
    8880022    1    1    2    0    0 -0.15498207677E+03 -0.30440146207E+03 -0.95496670787E+03  0.10256864825E+04  0.15294330000E+03 0.  0.
<mgrwt>
<rscale>  0 0.62528019E+03</rscale>
<asrwt>0</asrwt>
<pdfrwt beam="1">  1        2 0.17737806E+00 0.74195007E+03</pdfrwt>
<pdfrwt beam="2">  1       -2 0.13562868E+00 0.74195007E+03</pdfrwt>
<totfact> 0.80458736E+00</totfact>
</mgrwt>
</event>
<event>
 4    5  0.8511149E-008  0.1724097E+04  0.7818608E-02  0.8765727E-01
          2   -1    0    0  501    0  0.00000000000E+00  0.00000000000E+00  0.14487660442E+04  0.14487660442E+04  0.25500000000E-02 0. -1.
         -2   -1    0    0    0  501 -0.00000000000E+00 -0.00000000000E+00 -0.24479109143E+04  0.24479109143E+04  0.25500000000E-02 0.  1.
    8880023    1    1    2    0    0 -0.15600378216E+04  0.32401229195E+03 -0.14289877939E+04  0.22393120130E+04  0.65864270000E+03 0.  0.
    8880022    1    1    2    0    0  0.15600378216E+04 -0.32401229195E+03  0.42984292383E+03  0.16573649454E+04  0.15294330000E+03 0.  0.
<mgrwt>
<rscale>  0 0.16923716E+04</rscale>
<asrwt>0</asrwt>
<pdfrwt beam="1">  1        2 0.22288708E+00 0.17240975E+04</pdfrwt>
<pdfrwt beam="2">  1       -2 0.37660168E+00 0.17240975E+04</pdfrwt>
<totfact> 0.13148693E-01</totfact>
</mgrwt>
</event>
<event>
 4    5  0.8511149E-008  0.1341535E+04  0.7818608E-02  0.9030497E-01
         -2   -1    0    0    0  501 -0.00000000000E+00  0.00000000000E+00  0.31005130522E+04  0.31005130522E+04  0.25500000000E-02 0.  1.
          2   -1    0    0  501    0  0.00000000000E+00 -0.00000000000E+00 -0.11105503891E+04  0.11105503891E+04  0.25500000000E-02 0. -1.
    8880023    1    1    2    0    0  0.58188549003E+03 -0.10135650044E+04  0.25687329876E+04  0.28979482586E+04  0.65864270000E+03 0.  1.
    8880022    1    1    2    0    0 -0.58188549003E+03  0.10135650044E+04 -0.57877032448E+03  0.13131151827E+04  0.15294330000E+03 0.  0.
<mgrwt>
<rscale>  0 0.12988254E+04</rscale>
<asrwt>0</asrwt>
<pdfrwt beam="1">  1        2 0.17085391E+00 0.13415345E+04</pdfrwt>
<pdfrwt beam="2">  1       -2 0.47700201E+00 0.13415345E+04</pdfrwt>
<totfact> 0.47654752E-02</totfact>
</mgrwt>
</event>
<event>
 4    5  0.8511149E-008  0.6858508E+03  0.7818608E-02  0.1006190E+00
         -2   -1    0    0    0  501 -0.00000000000E+00  0.00000000000E+00  0.12771723434E+04  0.12771723434E+04  0.25500000000E-02 0.  1.
          2   -1    0    0  501    0  0.00000000000E+00 -0.00000000000E+00 -0.11524785094E+04  0.11524785094E+04  0.25500000000E-02 0. -1.
    8880023    1    1    2    0    0 -0.74013214890E+02  0.17636095494E+03  0.11699109088E+04  0.13561279007E+04  0.65864270000E+03 0.  1.
    8880022    1    1    2    0    0  0.74013214890E+02 -0.17636095494E+03 -0.10452170748E+04  0.10735229521E+04  0.15294330000E+03 0.  0.
<mgrwt>
<rscale>  0 0.53017169E+03</rscale>
<asrwt>0</asrwt>
<pdfrwt beam="1">  1        2 0.17730439E+00 0.68585082E+03</pdfrwt>
<pdfrwt beam="2">  1       -2 0.19648805E+00 0.68585082E+03</pdfrwt>
<totfact> 0.29422813E+00</totfact>
</mgrwt>
</event>
<event>
 4    5  0.8511149E-008  0.8862315E+03  0.7818608E-02  0.9548506E-01
          2   -1    0    0  501    0  0.00000000000E+00  0.00000000000E+00  0.13952211443E+04  0.13952211443E+04  0.25500000000E-02 0. -1.
         -2   -1    0    0    0  501 -0.00000000000E+00 -0.00000000000E+00 -0.76891052132E+03  0.76891052132E+03  0.25500000000E-02 0.  1.
    8880023    1    1    2    0    0  0.68477332404E+02  0.58898799849E+03 -0.39739592998E+03  0.97125163518E+03  0.65864270000E+03 0.  0.
    8880022    1    1    2    0    0 -0.68477332404E+02 -0.58898799849E+03  0.10237065529E+04  0.11928800304E+04  0.15294330000E+03 0.  0.
<mgrwt>
<rscale>  0 0.80800211E+03</rscale>
<asrwt>0</asrwt>
<pdfrwt beam="1">  1        2 0.21464940E+00 0.88623147E+03</pdfrwt>
<pdfrwt beam="2">  1       -2 0.11829393E+00 0.88623147E+03</pdfrwt>
<totfact> 0.80584120E+00</totfact>
</mgrwt>
</event>
<event>
 4    5  0.8511149E-008  0.7070668E+03  0.7818608E-02  0.9969059E-01
         -2   -1    0    0    0  501 -0.00000000000E+00  0.00000000000E+00  0.11063438985E+04  0.11063438985E+04  0.25500000000E-02 0.  1.
          2   -1    0    0  501    0  0.00000000000E+00 -0.00000000000E+00 -0.15264562582E+04  0.15264562582E+04  0.25500000000E-02 0. -1.
    8880023    1    1    2    0    0  0.13338892014E+03  0.21986517741E+03  0.97587711714E+03  0.12051056610E+04  0.65864270000E+03 0.  1.
    8880022    1    1    2    0    0 -0.13338892014E+03 -0.21986517741E+03 -0.13959894768E+04  0.14276944956E+04  0.15294330000E+03 0.  0.
<mgrwt>
<rscale>  0 0.57028029E+03</rscale>
<asrwt>0</asrwt>
<pdfrwt beam="1">  1        2 0.23483943E+00 0.70706683E+03</pdfrwt>
<pdfrwt beam="2">  1       -2 0.17020675E+00 0.70706683E+03</pdfrwt>
<totfact> 0.27004251E+00</totfact>
</mgrwt>
</event>
<event>
 4    5  0.8511149E-008  0.8331651E+03  0.7818608E-02  0.9643205E-01
         -2   -1    0    0    0  501 -0.00000000000E+00  0.00000000000E+00  0.11520663249E+04  0.11520663249E+04  0.25500000000E-02 0.  1.
          2   -1    0    0  501    0  0.00000000000E+00 -0.00000000000E+00 -0.15699611797E+04  0.15699611797E+04  0.25500000000E-02 0. -1.
    8880023    1    1    2    0    0 -0.92942218958E+02 -0.50171274549E+03  0.94434398716E+03  0.12593449517E+04  0.65864270000E+03 0.  1.
    8880022    1    1    2    0    0  0.92942218958E+02  0.50171274549E+03 -0.13622388419E+04  0.14626825529E+04  0.15294330000E+03 0. -1.
<mgrwt>
<rscale>  0 0.74501404E+03</rscale>
<asrwt>0</asrwt>
<pdfrwt beam="1">  1        2 0.24153249E+00 0.83316513E+03</pdfrwt>
<pdfrwt beam="2">  1       -2 0.17724097E+00 0.83316513E+03</pdfrwt>
<totfact> 0.22336602E+00</totfact>
</mgrwt>
</event>
<event>
 4    5  0.8511149E-008  0.1404815E+04  0.7818608E-02  0.8979950E-01
         -2   -1    0    0    0  501 -0.00000000000E+00  0.00000000000E+00  0.23098989400E+04  0.23098989400E+04  0.25500000000E-02 0.  1.
          2   -1    0    0  501    0  0.00000000000E+00 -0.00000000000E+00 -0.12873539889E+04  0.12873539889E+04  0.25500000000E-02 0. -1.
    8880023    1    1    2    0    0  0.42281363999E+03  0.11665866807E+04  0.16757221628E+04  0.21866757489E+04  0.65864270000E+03 0.  0.
    8880022    1    1    2    0    0 -0.42281363999E+03 -0.11665866807E+04 -0.65317721174E+03  0.14105771800E+04  0.15294330000E+03 0.  0.
<mgrwt>
<rscale>  0 0.13644648E+04</rscale>
<asrwt>0</asrwt>
<pdfrwt beam="1">  1        2 0.19805446E+00 0.14048153E+04</pdfrwt>
<pdfrwt beam="2">  1       -2 0.35536906E+00 0.14048153E+04</pdfrwt>
<totfact> 0.23114023E-01</totfact>
</mgrwt>
</event>
<event>
 4    5  0.8511149E-008  0.1049686E+04  0.7818608E-02  0.9319260E-01
          2   -1    0    0  501    0  0.00000000000E+00  0.00000000000E+00  0.18091449439E+04  0.18091449439E+04  0.25500000000E-02 0. -1.
         -2   -1    0    0    0  501 -0.00000000000E+00 -0.00000000000E+00 -0.74472550600E+03  0.74472550600E+03  0.25500000000E-02 0.  1.
    8880023    1    1    2    0    0 -0.17097069246E+03 -0.79924869567E+03  0.13176498150E+04  0.16846485380E+04  0.65864270000E+03 0. -1.
    8880022    1    1    2    0    0  0.17097069246E+03  0.79924869567E+03 -0.25323037713E+03  0.86922191191E+03  0.15294330000E+03 0.  0.
<mgrwt>
<rscale>  0 0.99028963E+03</rscale>
<asrwt>0</asrwt>
<pdfrwt beam="1">  1        2 0.27832999E+00 0.10496855E+04</pdfrwt>
<pdfrwt beam="2">  1       -2 0.11457316E+00 0.10496855E+04</pdfrwt>
<totfact> 0.50311741E+00</totfact>
</mgrwt>
</event>
<event>
 4    5  0.8511149E-008  0.1414596E+04  0.7818608E-02  0.8972424E-01
          2   -1    0    0  501    0  0.00000000000E+00  0.00000000000E+00  0.27883230897E+04  0.27883230897E+04  0.25500000000E-02 0. -1.
         -2   -1    0    0    0  501 -0.00000000000E+00 -0.00000000000E+00 -0.71035249297E+03  0.71035249297E+03  0.25500000000E-02 0.  1.
    8880023    1    1    2    0    0 -0.89018556719E+03 -0.88025048513E+03  0.16348037413E+04  0.21618660318E+04  0.65864270000E+03 0.  0.
    8880022    1    1    2    0    0  0.89018556719E+03  0.88025048513E+03  0.44316685547E+03  0.13368095509E+04  0.15294330000E+03 0.  0.
<mgrwt>
<rscale>  0 0.13745849E+04</rscale>
<asrwt>0</asrwt>
<pdfrwt beam="1">  1        2 0.42897279E+00 0.14145959E+04</pdfrwt>
<pdfrwt beam="2">  1       -2 0.10928500E+00 0.14145959E+04</pdfrwt>
<totfact> 0.15086698E+00</totfact>
</mgrwt>
</event>
<event>
 4    5  0.8511149E-008  0.6648958E+03  0.7818608E-02  0.1019621E+00
         -2   -1    0    0    0  501 -0.00000000000E+00  0.00000000000E+00  0.58037554833E+03  0.58037554834E+03  0.25500000000E-02 0.  1.
          2   -1    0    0  501    0  0.00000000000E+00 -0.00000000000E+00 -0.16702419631E+04  0.16702419631E+04  0.25500000000E-02 0. -1.
    8880023    1    1    2    0    0 -0.72396542241E+02 -0.55089992658E+02  0.38281408432E+03  0.76722421497E+03  0.65864270000E+03 0.  1.
    8880022    1    1    2    0    0  0.72396542241E+02  0.55089992658E+02 -0.14726804991E+04  0.14833932965E+04  0.15294330000E+03 0.  0.
<mgrwt>
<rscale>  0 0.47823620E+03</rscale>
<asrwt>0</asrwt>
<pdfrwt beam="1">  1        2 0.25696030E+00 0.66489576E+03</pdfrwt>
<pdfrwt beam="2">  1       -2 0.89288547E-01 0.66489576E+03</pdfrwt>
<totfact> 0.11414977E+01</totfact>
</mgrwt>
</event>
<event>
 4    5  0.8511149E-008  0.1369175E+04  0.7818608E-02  0.9008012E-01
         -2   -1    0    0    0  501 -0.00000000000E+00  0.00000000000E+00  0.56300989262E+03  0.56300989262E+03  0.25500000000E-02 0.  1.
          2   -1    0    0  501    0  0.00000000000E+00 -0.00000000000E+00 -0.42702318469E+04  0.42702318469E+04  0.25500000000E-02 0. -1.
    8880023    1    1    2    0    0 -0.11751635571E+04 -0.24458525393E+03 -0.59277955873E+03  0.14919883189E+04  0.65864270000E+03 0.  0.
    8880022    1    1    2    0    0  0.11751635571E+04  0.24458525393E+03 -0.31144423956E+04  0.33412534206E+04  0.15294330000E+03 0.  0.
<mgrwt>
<rscale>  0 0.13275327E+04</rscale>
<asrwt>0</asrwt>
<pdfrwt beam="1">  1        2 0.65695873E+00 0.13691755E+04</pdfrwt>
<pdfrwt beam="2">  1       -2 0.86616909E-01 0.13691755E+04</pdfrwt>
<totfact> 0.23201326E-01</totfact>
</mgrwt>
</event>
<event>
 4    5  0.8511149E-008  0.1022067E+04  0.7818608E-02  0.9353239E-01
          2   -1    0    0  501    0  0.00000000000E+00  0.00000000000E+00  0.23326403121E+04  0.23326403121E+04  0.25500000000E-02 0. -1.
         -2   -1    0    0    0  501 -0.00000000000E+00 -0.00000000000E+00 -0.70413030494E+03  0.70413030495E+03  0.25500000000E-02 0.  1.
    8880023    1    1    2    0    0  0.77894938448E+03  0.63636140548E+02 -0.20082357093E+03  0.10416102989E+04  0.65864270000E+03 0.  1.
    8880022    1    1    2    0    0 -0.77894938448E+03 -0.63636140548E+02  0.18293335781E+04  0.19951603181E+04  0.15294330000E+03 0.  0.
<mgrwt>
<rscale>  0 0.96025868E+03</rscale>
<asrwt>0</asrwt>
<pdfrwt beam="1">  1        2 0.35886775E+00 0.10220675E+04</pdfrwt>
<pdfrwt beam="2">  1       -2 0.10832774E+00 0.10220675E+04</pdfrwt>
<totfact> 0.29675842E+00</totfact>
</mgrwt>
</event>
<event>
 4    5  0.8511149E-008  0.9419968E+03  0.7818608E-02  0.9461724E-01
         -2   -1    0    0    0  501 -0.00000000000E+00  0.00000000000E+00  0.74749625778E+03  0.74749625779E+03  0.25500000000E-02 0.  1.
          2   -1    0    0  501    0  0.00000000000E+00 -0.00000000000E+00 -0.15754877664E+04  0.15754877664E+04  0.25500000000E-02 0. -1.
    8880023    1    1    2    0    0  0.66869733767E+03  0.79947242382E+02  0.31011834874E+03  0.99173145935E+03  0.65864270000E+03 0.  0.
    8880022    1    1    2    0    0 -0.66869733767E+03 -0.79947242382E+02 -0.11381098574E+04  0.13312525649E+04  0.15294330000E+03 0.  0.
<mgrwt>
<rscale>  0 0.87165565E+03</rscale>
<asrwt>0</asrwt>
<pdfrwt beam="1">  1        2 0.24238273E+00 0.94199676E+03</pdfrwt>
<pdfrwt beam="2">  1       -2 0.11499942E+00 0.94199676E+03</pdfrwt>
<totfact> 0.67963824E+00</totfact>
</mgrwt>
</event>
<event>
 4    5  0.8511149E-008  0.9561266E+03  0.7818608E-02  0.9441353E-01
          2   -1    0    0  501    0  0.00000000000E+00  0.00000000000E+00  0.32243406267E+04  0.32243406267E+04  0.25500000000E-02 0. -1.
         -2   -1    0    0    0  501 -0.00000000000E+00 -0.00000000000E+00 -0.49613344035E+03  0.49613344036E+03  0.25500000000E-02 0.  1.
    8880023    1    1    2    0    0  0.68875204167E+03 -0.77385216283E+02  0.58372248868E+02  0.95790676598E+03  0.65864270000E+03 0.  1.
    8880022    1    1    2    0    0 -0.68875204167E+03  0.77385216283E+02  0.26698349375E+04  0.27625673011E+04  0.15294330000E+03 0.  0.
<mgrwt>
<rscale>  0 0.88749201E+03</rscale>
<asrwt>0</asrwt>
<pdfrwt beam="1">  1        2 0.49605240E+00 0.95612659E+03</pdfrwt>
<pdfrwt beam="2">  1       -2 0.76328222E-01 0.95612659E+03</pdfrwt>
<totfact> 0.19865098E+00</totfact>
</mgrwt>
</event>
<event>
 4    5  0.8511149E-008  0.6739455E+03  0.7818608E-02  0.1012979E+00
          2   -1    0    0  501    0  0.00000000000E+00  0.00000000000E+00  0.22367910475E+04  0.22367910475E+04  0.25500000000E-02 0. -1.
         -2   -1    0    0    0  501 -0.00000000000E+00 -0.00000000000E+00 -0.33080813378E+03  0.33080813379E+03  0.25500000000E-02 0.  1.
    8880023    1    1    2    0    0 -0.13673258894E+03  0.41188643518E+02  0.24368558612E+02  0.67438589705E+03  0.65864270000E+03 0.  1.
    8880022    1    1    2    0    0  0.13673258894E+03 -0.41188643518E+02  0.18816143551E+04  0.18932132843E+04  0.15294330000E+03 0.  0.
<mgrwt>
<rscale>  0 0.50307525E+03</rscale>
<asrwt>0</asrwt>
<pdfrwt beam="1">  1        2 0.34412170E+00 0.67394548E+03</pdfrwt>
<pdfrwt beam="2">  1       -2 0.50893560E-01 0.67394548E+03</pdfrwt>
<totfact> 0.18900952E+01</totfact>
</mgrwt>
</event>
<event>
 4    5  0.8511149E-008  0.7322849E+03  0.7818608E-02  0.9883019E-01
          2   -1    0    0  501    0  0.00000000000E+00  0.00000000000E+00  0.24401944228E+04  0.24401944228E+04  0.25500000000E-02 0. -1.
         -2   -1    0    0    0  501 -0.00000000000E+00 -0.00000000000E+00 -0.12162376010E+03  0.12162376012E+03  0.25500000000E-02 0.  1.
    8880023    1    1    2    0    0  0.24031221214E+03 -0.21137880955E+03  0.14777402203E+04  0.16492293126E+04  0.65864270000E+03 0.  0.
    8880022    1    1    2    0    0 -0.24031221214E+03  0.21137880955E+03  0.84083044239E+03  0.91258887035E+03  0.15294330000E+03 0. -1.
<mgrwt>
<rscale>  0 0.61091374E+03</rscale>
<asrwt>0</asrwt>
<pdfrwt beam="1">  1        2 0.37541452E+00 0.73228489E+03</pdfrwt>
<pdfrwt beam="2">  1       -2 0.18711348E-01 0.73228489E+03</pdfrwt>
<totfact> 0.93896616E+01</totfact>
</mgrwt>
</event>
<event>
 4    5  0.8511149E-008  0.9236950E+03  0.7818608E-02  0.9489017E-01
          2   -1    0    0  501    0  0.00000000000E+00  0.00000000000E+00  0.23543628763E+04  0.23543628763E+04  0.25500000000E-02 0. -1.
         -2   -1    0    0    0  501 -0.00000000000E+00 -0.00000000000E+00 -0.38125596906E+03  0.38125596907E+03  0.25500000000E-02 0.  1.
    8880023    1    1    2    0    0  0.64542124849E+03  0.53232055768E+02  0.36127797490E+03  0.99183376691E+03  0.65864270000E+03 0.  1.
    8880022    1    1    2    0    0 -0.64542124849E+03 -0.53232055768E+02  0.16118289323E+04  0.17437850785E+04  0.15294330000E+03 0.  0.
<mgrwt>
<rscale>  0 0.85098449E+03</rscale>
<asrwt>0</asrwt>
<pdfrwt beam="1">  1        2 0.36220967E+00 0.92369500E+03</pdfrwt>
<pdfrwt beam="2">  1       -2 0.58654765E-01 0.92369500E+03</pdfrwt>
<totfact> 0.11684516E+01</totfact>
</mgrwt>
</event>
<event>
 4    5  0.8511149E-008  0.7338058E+03  0.7818608E-02  0.9878372E-01
         -2   -1    0    0    0  501 -0.00000000000E+00  0.00000000000E+00  0.61088502858E+03  0.61088502859E+03  0.25500000000E-02 0.  1.
          2   -1    0    0  501    0  0.00000000000E+00 -0.00000000000E+00 -0.12699395156E+04  0.12699395156E+04  0.25500000000E-02 0. -1.
    8880023    1    1    2    0    0  0.27289121692E+03 -0.17375577645E+03  0.34795595504E+03  0.81212329054E+03  0.65864270000E+03 0.  1.
    8880022    1    1    2    0    0 -0.27289121692E+03  0.17375577645E+03 -0.10070104420E+04  0.10687012536E+04  0.15294330000E+03 0.  0.
<mgrwt>
<rscale>  0 0.61321007E+03</rscale>
<asrwt>0</asrwt>
<pdfrwt beam="1">  1        2 0.19537531E+00 0.73380576E+03</pdfrwt>
<pdfrwt beam="2">  1       -2 0.93982312E-01 0.73380576E+03</pdfrwt>
<totfact> 0.16820329E+01</totfact>
</mgrwt>
</event>
<event>
 4    5  0.8511149E-008  0.9187379E+03  0.7818608E-02  0.9496597E-01
         -2   -1    0    0    0  501 -0.00000000000E+00  0.00000000000E+00  0.10199219352E+04  0.10199219352E+04  0.25500000000E-02 0.  1.
          2   -1    0    0  501    0  0.00000000000E+00 -0.00000000000E+00 -0.80855399831E+03  0.80855399832E+03  0.25500000000E-02 0. -1.
    8880023    1    1    2    0    0  0.56692517146E+03 -0.29810228190E+03  0.56743908113E+03  0.10798455619E+04  0.65864270000E+03 0.  0.
    8880022    1    1    2    0    0 -0.56692517146E+03  0.29810228190E+03 -0.35607114425E+03  0.74863037161E+03  0.15294330000E+03 0.  0.
<mgrwt>
<rscale>  0 0.84535182E+03</rscale>
<asrwt>0</asrwt>
<pdfrwt beam="1">  1        2 0.12439292E+00 0.91873790E+03</pdfrwt>
<pdfrwt beam="2">  1       -2 0.15691107E+00 0.91873790E+03</pdfrwt>
<totfact> 0.90112433E+00</totfact>
</mgrwt>
</event>
<event>
 4    5  0.8511149E-008  0.1054405E+04  0.7818608E-02  0.9313605E-01
         -2   -1    0    0    0  501 -0.00000000000E+00  0.00000000000E+00  0.14419393300E+04  0.14419393300E+04  0.25500000000E-02 0.  1.
          2   -1    0    0  501    0  0.00000000000E+00 -0.00000000000E+00 -0.15613740189E+04  0.15613740189E+04  0.25500000000E-02 0. -1.
    8880023    1    1    2    0    0 -0.71936952810E+03  0.40058365101E+03  0.11001700684E+04  0.15238583153E+04  0.65864270000E+03 0.  1.
    8880022    1    1    2    0    0  0.71936952810E+03 -0.40058365101E+03 -0.12196047573E+04  0.14794550336E+04  0.15294330000E+03 0.  0.
<mgrwt>
<rscale>  0 0.99539984E+03</rscale>
<asrwt>0</asrwt>
<pdfrwt beam="1">  1        2 0.24021139E+00 0.10544050E+04</pdfrwt>
<pdfrwt beam="2">  1       -2 0.22183682E+00 0.10544050E+04</pdfrwt>
<totfact> 0.11146256E+00</totfact>
</mgrwt>
</event>
<event>
 4    5  0.8511149E-008  0.8850109E+03  0.7818608E-02  0.9550535E-01
          2   -1    0    0  501    0  0.00000000000E+00  0.00000000000E+00  0.38151429678E+03  0.38151429679E+03  0.25500000000E-02 0. -1.
         -2   -1    0    0    0  501 -0.00000000000E+00 -0.00000000000E+00 -0.17348027937E+04  0.17348027937E+04  0.25500000000E-02 0.  1.
    8880023    1    1    2    0    0  0.54468872253E+03 -0.22967004611E+03 -0.11922838819E+04  0.14848519104E+04  0.65864270000E+03 0.  0.
    8880022    1    1    2    0    0 -0.54468872253E+03  0.22967004611E+03 -0.16100461494E+03  0.63146518002E+03  0.15294330000E+03 0.  0.
<mgrwt>
<rscale>  0 0.80658421E+03</rscale>
<asrwt>0</asrwt>
<pdfrwt beam="1">  1        2 0.58694508E-01 0.88501093E+03</pdfrwt>
<pdfrwt beam="2">  1       -2 0.26689273E+00 0.88501093E+03</pdfrwt>
<totfact> 0.43133707E+00</totfact>
</mgrwt>
</event>
<event>
 4    5  0.8511149E-008  0.9154832E+03  0.7818608E-02  0.9501620E-01
          2   -1    0    0  501    0  0.00000000000E+00  0.00000000000E+00  0.71963409917E+03  0.71963409917E+03  0.25500000000E-02 0. -1.
         -2   -1    0    0    0  501 -0.00000000000E+00 -0.00000000000E+00 -0.93661542410E+03  0.93661542410E+03  0.25500000000E-02 0.  1.
    8880023    1    1    2    0    0  0.58141913850E+03  0.25739286354E+03 -0.36527719691E+03  0.98566573323E+03  0.65864270000E+03 0.  0.
    8880022    1    1    2    0    0 -0.58141913850E+03 -0.25739286354E+03  0.14829587198E+03  0.67058379005E+03  0.15294330000E+03 0.  0.
<mgrwt>
<rscale>  0 0.84164519E+03</rscale>
<asrwt>0</asrwt>
<pdfrwt beam="1">  1        2 0.11071294E+00 0.91548321E+03</pdfrwt>
<pdfrwt beam="2">  1       -2 0.14409468E+00 0.91548321E+03</pdfrwt>
<totfact> 0.13168315E+01</totfact>
</mgrwt>
</event>
<event>
 4    5  0.8511149E-008  0.7659788E+03  0.7818608E-02  0.9789868E-01
         -2   -1    0    0    0  501 -0.00000000000E+00  0.00000000000E+00  0.40433460550E+03  0.40433460551E+03  0.25500000000E-02 0.  1.
          2   -1    0    0  501    0  0.00000000000E+00 -0.00000000000E+00 -0.24578270262E+04  0.24578270262E+04  0.25500000000E-02 0. -1.
    8880023    1    1    2    0    0 -0.87603802675E+02 -0.38110221462E+03  0.20603511255E+00  0.76597883322E+03  0.65864270000E+03 0.  0.
    8880022    1    1    2    0    0  0.87603802675E+02  0.38110221462E+03 -0.20536984558E+04  0.20961827985E+04  0.15294330000E+03 0.  0.
<mgrwt>
<rscale>  0 0.65909139E+03</rscale>
<asrwt>0</asrwt>
<pdfrwt beam="1">  1        2 0.37812722E+00 0.76597881E+03</pdfrwt>
<pdfrwt beam="2">  1       -2 0.62205326E-01 0.76597881E+03</pdfrwt>
<totfact> 0.92287277E+00</totfact>
</mgrwt>
</event>
<event>
 4    5  0.8511149E-008  0.7118039E+03  0.7818608E-02  0.9951362E-01
          2   -1    0    0  501    0  0.00000000000E+00  0.00000000000E+00  0.35387789424E+04  0.35387789424E+04  0.25500000000E-02 0. -1.
         -2   -1    0    0    0  501 -0.00000000000E+00 -0.00000000000E+00 -0.70341692657E+03  0.70341692658E+03  0.25500000000E-02 0.  1.
    8880023    1    1    2    0    0 -0.40446891973E+01  0.26988561048E+03 -0.51432245646E+03  0.87817560757E+03  0.65864270000E+03 0.  0.
    8880022    1    1    2    0    0  0.40446891973E+01 -0.26988561048E+03  0.33496844722E+04  0.33640202614E+04  0.15294330000E+03 0.  0.
<mgrwt>
<rscale>  0 0.57835335E+03</rscale>
<asrwt>0</asrwt>
<pdfrwt beam="1">  1        2 0.54442752E+00 0.71180391E+03</pdfrwt>
<pdfrwt beam="2">  1       -2 0.10821799E+00 0.71180391E+03</pdfrwt>
<totfact> 0.57476647E-01</totfact>
</mgrwt>
</event>
<event>
 4    5  0.8511149E-008  0.6836072E+03  0.7818608E-02  0.1007353E+00
          2   -1    0    0  501    0  0.00000000000E+00  0.00000000000E+00  0.37251857967E+04  0.37251857967E+04  0.25500000000E-02 0. -1.
         -2   -1    0    0    0  501 -0.00000000000E+00 -0.00000000000E+00 -0.26731925158E+03  0.26731925159E+03  0.25500000000E-02 0.  1.
    8880023    1    1    2    0    0  0.17897571536E+03 -0.38422903342E+02  0.18126357622E+03  0.70723073782E+03  0.65864270000E+03 0.  0.
    8880022    1    1    2    0    0 -0.17897571536E+03  0.38422903342E+02  0.32766029689E+04  0.32852743105E+04  0.15294330000E+03 0. -1.
<mgrwt>
<rscale>  0 0.52540510E+03</rscale>
<asrwt>0</asrwt>
<pdfrwt beam="1">  1        2 0.57310548E+00 0.68360722E+03</pdfrwt>
<pdfrwt beam="2">  1       -2 0.41126041E-01 0.68360722E+03</pdfrwt>
<totfact> 0.34807044E+00</totfact>
</mgrwt>
</event>
<event>
 4    5  0.8511149E-008  0.7612847E+03  0.7818608E-02  0.9801793E-01
          2   -1    0    0  501    0  0.00000000000E+00  0.00000000000E+00  0.21371299741E+04  0.21371299741E+04  0.25500000000E-02 0. -1.
         -2   -1    0    0    0  501 -0.00000000000E+00 -0.00000000000E+00 -0.36378418694E+03  0.36378418695E+03  0.25500000000E-02 0.  1.
    8880023    1    1    2    0    0 -0.27867580459E+03 -0.26092897191E+03  0.88278315077E+02  0.76638593386E+03  0.65864270000E+03 0.  1.
    8880022    1    1    2    0    0  0.27867580459E+03  0.26092897191E+03  0.16850674721E+04  0.17345282272E+04  0.15294330000E+03 0.  0.
<mgrwt>
<rscale>  0 0.65266414E+03</rscale>
<asrwt>0</asrwt>
<pdfrwt beam="1">  1        2 0.32878923E+00 0.76128466E+03</pdfrwt>
<pdfrwt beam="2">  1       -2 0.55966798E-01 0.76128466E+03</pdfrwt>
<totfact> 0.17395186E+01</totfact>
</mgrwt>
</event>
<event>
 4    5  0.8511149E-008  0.1612842E+04  0.7818608E-02  0.8833808E-01
          2   -1    0    0  501    0  0.00000000000E+00  0.00000000000E+00  0.16788577680E+04  0.16788577680E+04  0.25500000000E-02 0. -1.
         -2   -1    0    0    0  501 -0.00000000000E+00 -0.00000000000E+00 -0.17903870218E+04  0.17903870218E+04  0.25500000000E-02 0.  1.
    8880023    1    1    2    0    0  0.13490179621E+03  0.14660325213E+04 -0.84118033298E+03  0.18190229264E+04  0.65864270000E+03 0.  0.
    8880022    1    1    2    0    0 -0.13490179621E+03 -0.14660325213E+04  0.72965107921E+03  0.16502218634E+04  0.15294330000E+03 0.  0.
<mgrwt>
<rscale>  0 0.15785934E+04</rscale>
<asrwt>0</asrwt>
<pdfrwt beam="1">  1        2 0.25828581E+00 0.16128422E+04</pdfrwt>
<pdfrwt beam="2">  1       -2 0.27544416E+00 0.16128422E+04</pdfrwt>
<totfact> 0.41992844E-01</totfact>
</mgrwt>
</event>
<event>
 4    5  0.8511149E-008  0.7079965E+03  0.7818608E-02  0.9965517E-01
          2   -1    0    0  501    0  0.00000000000E+00  0.00000000000E+00  0.20438630771E+03  0.20438630772E+03  0.25500000000E-02 0. -1.
         -2   -1    0    0    0  501 -0.00000000000E+00 -0.00000000000E+00 -0.28411753647E+04  0.28411753647E+04  0.25500000000E-02 0.  1.
    8880023    1    1    2    0    0  0.31100126101E+02  0.25784029479E+03 -0.26509170899E+04  0.27438331690E+04  0.65864270000E+03 0.  1.
    8880022    1    1    2    0    0 -0.31100126101E+02 -0.25784029479E+03  0.14128032904E+02  0.30172850344E+03  0.15294330000E+03 0.  0.
<mgrwt>
<rscale>  0 0.57188442E+03</rscale>
<asrwt>0</asrwt>
<pdfrwt beam="1">  1        2 0.31444049E-01 0.70799650E+03</pdfrwt>
<pdfrwt beam="2">  1       -2 0.43710387E+00 0.70799650E+03</pdfrwt>
<totfact> 0.76412021E-01</totfact>
</mgrwt>
</event>
<event>
 4    5  0.8511149E-008  0.8116340E+03  0.7818608E-02  0.9686183E-01
          2   -1    0    0  501    0  0.00000000000E+00  0.00000000000E+00  0.46202677522E+04  0.46202677522E+04  0.25500000000E-02 0. -1.
         -2   -1    0    0    0  501 -0.00000000000E+00 -0.00000000000E+00 -0.64056459275E+03  0.64056459276E+03  0.25500000000E-02 0.  1.
    8880023    1    1    2    0    0  0.47427056588E+03  0.26321791708E+01 -0.36337072810E+03  0.88926261044E+03  0.65864270000E+03 0.  1.
    8880022    1    1    2    0    0 -0.47427056588E+03 -0.26321791708E+01  0.43430738875E+04  0.43715697345E+04  0.15294330000E+03 0.  0.
<mgrwt>
<rscale>  0 0.71845416E+03</rscale>
<asrwt>0</asrwt>
<pdfrwt beam="1">  1        2 0.71081043E+00 0.81163397E+03</pdfrwt>
<pdfrwt beam="2">  1       -2 0.98548398E-01 0.81163397E+03</pdfrwt>
<totfact> 0.90206079E-02</totfact>
</mgrwt>
</event>
<event>
 4    5  0.8511149E-008  0.6719767E+03  0.7818608E-02  0.1014284E+00
         -2   -1    0    0    0  501 -0.00000000000E+00  0.00000000000E+00  0.86003622987E+03  0.86003622987E+03  0.25500000000E-02 0.  1.
          2   -1    0    0  501    0  0.00000000000E+00 -0.00000000000E+00 -0.83886671820E+03  0.83886671820E+03  0.25500000000E-02 0. -1.
    8880023    1    1    2    0    0 -0.28073235618E+02 -0.13020909342E+03  0.71193344117E+03  0.97898005367E+03  0.65864270000E+03 0.  1.
    8880022    1    1    2    0    0  0.28073235618E+02  0.13020909342E+03 -0.69076392950E+03  0.71992289440E+03  0.15294330000E+03 0.  0.
<mgrwt>
<rscale>  0 0.49807072E+03</rscale>
<asrwt>0</asrwt>
<pdfrwt beam="1">  1        2 0.12905642E+00 0.67197673E+03</pdfrwt>
<pdfrwt beam="2">  1       -2 0.13231327E+00 0.67197673E+03</pdfrwt>
<totfact> 0.13749071E+01</totfact>
</mgrwt>
</event>
<event>
 4    5  0.8511149E-008  0.7077613E+03  0.7818608E-02  0.9966410E-01
          2   -1    0    0  501    0  0.00000000000E+00  0.00000000000E+00  0.22699869828E+04  0.22699869828E+04  0.25500000000E-02 0. -1.
         -2   -1    0    0    0  501 -0.00000000000E+00 -0.00000000000E+00 -0.21986011545E+03  0.21986011546E+03  0.25500000000E-02 0.  1.
    8880023    1    1    2    0    0  0.22388292093E+03 -0.13035461826E+03  0.40092326176E+03  0.81342827395E+03  0.65864270000E+03 0.  1.
    8880022    1    1    2    0    0 -0.22388292093E+03  0.13035461826E+03  0.16492036056E+04  0.16764188243E+04  0.15294330000E+03 0.  0.
<mgrwt>
<rscale>  0 0.57147958E+03</rscale>
<asrwt>0</asrwt>
<pdfrwt beam="1">  1        2 0.34922876E+00 0.70776133E+03</pdfrwt>
<pdfrwt beam="2">  1       -2 0.33824633E-01 0.70776133E+03</pdfrwt>
<totfact> 0.40190554E+01</totfact>
</mgrwt>
</event>
<event>
 4    5  0.8511149E-008  0.6657905E+03  0.7818608E-02  0.1018879E+00
          2   -1    0    0  501    0  0.00000000000E+00  0.00000000000E+00  0.91246488944E+03  0.91246488944E+03  0.25500000000E-02 0. -1.
         -2   -1    0    0    0  501 -0.00000000000E+00 -0.00000000000E+00 -0.87466897903E+03  0.87466897903E+03  0.25500000000E-02 0.  1.
    8880023    1    1    2    0    0  0.30632820721E+01  0.97249210689E+02 -0.73596004912E+03  0.99242843210E+03  0.65864270000E+03 0.  1.
    8880022    1    1    2    0    0 -0.30632820721E+01 -0.97249210689E+02  0.77375595953E+03  0.79470543637E+03  0.15294330000E+03 0.  0.
<mgrwt>
<rscale>  0 0.48093244E+03</rscale>
<asrwt>0</asrwt>
<pdfrwt beam="1">  1        2 0.14037921E+00 0.66579051E+03</pdfrwt>
<pdfrwt beam="2">  1       -2 0.13456446E+00 0.66579051E+03</pdfrwt>
<totfact> 0.11746400E+01</totfact>
</mgrwt>
</event>
<event>
 4    5  0.8511149E-008  0.6604422E+03  0.7818608E-02  0.1023708E+00
          2   -1    0    0  501    0  0.00000000000E+00  0.00000000000E+00  0.82296801651E+03  0.82296801651E+03  0.25500000000E-02 0. -1.
         -2   -1    0    0    0  501 -0.00000000000E+00 -0.00000000000E+00 -0.36069806055E+03  0.36069806056E+03  0.25500000000E-02 0.  1.
    8880023    1    1    2    0    0  0.38897389959E+02 -0.29337233649E+02 -0.34763243104E+02  0.66135646180E+03  0.65864270000E+03 0.  1.
    8880022    1    1    2    0    0 -0.38897389959E+02  0.29337233649E+02  0.49703319906E+03  0.52230961528E+03  0.15294330000E+03 0.  0.
<mgrwt>
<rscale>  0 0.46371973E+03</rscale>
<asrwt>0</asrwt>
<pdfrwt beam="1">  1        2 0.12661046E+00 0.66044219E+03</pdfrwt>
<pdfrwt beam="2">  1       -2 0.55492010E-01 0.66044219E+03</pdfrwt>
<totfact> 0.10310770E+02</totfact>
</mgrwt>
</event>
<event>
 4    5  0.8511149E-008  0.8036125E+03  0.7818608E-02  0.9703039E-01
          2   -1    0    0  501    0  0.00000000000E+00  0.00000000000E+00  0.75014953279E+03  0.75014953279E+03  0.25500000000E-02 0. -1.
         -2   -1    0    0    0  501 -0.00000000000E+00 -0.00000000000E+00 -0.86576800884E+03  0.86576800884E+03  0.25500000000E-02 0.  1.
    8880023    1    1    2    0    0  0.40687335053E+03  0.21549222397E+03  0.40870463964E+03  0.90157224374E+03  0.65864270000E+03 0. -1.
    8880022    1    1    2    0    0 -0.40687335053E+03 -0.21549222397E+03 -0.52432311569E+03  0.71434529789E+03  0.15294330000E+03 0.  0.
<mgrwt>
<rscale>  0 0.70836147E+03</rscale>
<asrwt>0</asrwt>
<pdfrwt beam="1">  1        2 0.11540762E+00 0.80361249E+03</pdfrwt>
<pdfrwt beam="2">  1       -2 0.13319508E+00 0.80361249E+03</pdfrwt>
<totfact> 0.15451721E+01</totfact>
</mgrwt>
</event>
<event>
 4    5  0.8511149E-008  0.7704300E+03  0.7818608E-02  0.9778817E-01
         -2   -1    0    0    0  501 -0.00000000000E+00  0.00000000000E+00  0.21548435941E+04  0.21548435941E+04  0.25500000000E-02 0.  1.
          2   -1    0    0  501    0  0.00000000000E+00 -0.00000000000E+00 -0.37257805770E+03  0.37257805771E+03  0.25500000000E-02 0. -1.
    8880023    1    1    2    0    0 -0.20936977253E+03 -0.34046516114E+03  0.19272810945E+04  0.20755661519E+04  0.65864270000E+03 0.  0.
    8880022    1    1    2    0    0  0.20936977253E+03  0.34046516114E+03 -0.14501555815E+03  0.45185549982E+03  0.15294330000E+03 0.  0.
<mgrwt>
<rscale>  0 0.66511839E+03</rscale>
<asrwt>0</asrwt>
<pdfrwt beam="1">  1        2 0.57319701E-01 0.77043003E+03</pdfrwt>
<pdfrwt beam="2">  1       -2 0.33151440E+00 0.77043003E+03</pdfrwt>
<totfact> 0.18288562E+00</totfact>
</mgrwt>
</event>
<event>
 4    5  0.8511149E-008  0.9305638E+03  0.7818608E-02  0.9478648E-01
         -2   -1    0    0    0  501 -0.00000000000E+00  0.00000000000E+00  0.19833798274E+03  0.19833798275E+03  0.25500000000E-02 0.  1.
          2   -1    0    0  501    0  0.00000000000E+00 -0.00000000000E+00 -0.38301343811E+04  0.38301343811E+04  0.25500000000E-02 0. -1.
    8880023    1    1    2    0    0 -0.55483241461E+03 -0.35256177090E+03 -0.12850676641E+04  0.15866152395E+04  0.65864270000E+03 0.  1.
    8880022    1    1    2    0    0  0.55483241461E+03  0.35256177090E+03 -0.23467287342E+04  0.24418571243E+04  0.15294330000E+03 0. -1.
<mgrwt>
<rscale>  0 0.85876493E+03</rscale>
<asrwt>0</asrwt>
<pdfrwt beam="1">  1        2 0.58925139E+00 0.93056382E+03</pdfrwt>
<pdfrwt beam="2">  1       -2 0.30513539E-01 0.93056382E+03</pdfrwt>
<totfact> 0.49019082E+00</totfact>
</mgrwt>
</event>
<event>
 4    5  0.8511149E-008  0.7462069E+03  0.7818608E-02  0.9842222E-01
          2   -1    0    0  501    0  0.00000000000E+00  0.00000000000E+00  0.17443324864E+04  0.17443324864E+04  0.25500000000E-02 0. -1.
         -2   -1    0    0    0  501 -0.00000000000E+00 -0.00000000000E+00 -0.42118212321E+03  0.42118212322E+03  0.25500000000E-02 0.  1.
    8880023    1    1    2    0    0 -0.33660389975E+03  0.98550969809E+02 -0.42360357587E+02  0.74740824529E+03  0.65864270000E+03 0.  1.
    8880022    1    1    2    0    0  0.33660389975E+03 -0.98550969809E+02  0.13655107207E+04  0.14181063643E+04  0.15294330000E+03 0.  0.
<mgrwt>
<rscale>  0 0.63145054E+03</rscale>
<asrwt>0</asrwt>
<pdfrwt beam="1">  1        2 0.26835884E+00 0.74620686E+03</pdfrwt>
<pdfrwt beam="2">  1       -2 0.64797250E-01 0.74620686E+03</pdfrwt>
<totfact> 0.20955930E+01</totfact>
</mgrwt>
</event>
<event>
 4    5  0.8511149E-008  0.6816227E+03  0.7818608E-02  0.1008420E+00
          2   -1    0    0  501    0  0.00000000000E+00  0.00000000000E+00  0.12644794598E+04  0.12644794598E+04  0.25500000000E-02 0. -1.
         -2   -1    0    0    0  501 -0.00000000000E+00 -0.00000000000E+00 -0.32912568519E+03  0.32912568520E+03  0.25500000000E-02 0.  1.
    8880023    1    1    2    0    0  0.74723068197E+02 -0.15879460530E+03  0.55953694843E+02  0.68391540838E+03  0.65864270000E+03 0.  1.
    8880022    1    1    2    0    0 -0.74723068197E+02  0.15879460530E+03  0.87940007979E+03  0.90968973664E+03  0.15294330000E+03 0.  0.
<mgrwt>
<rscale>  0 0.52107332E+03</rscale>
<asrwt>0</asrwt>
<pdfrwt beam="1">  1        2 0.19453530E+00 0.68162267E+03</pdfrwt>
<pdfrwt beam="2">  1       -2 0.50634721E-01 0.68162267E+03</pdfrwt>
<totfact> 0.65515854E+01</totfact>
</mgrwt>
</event>
<event>
 4    5  0.8511149E-008  0.1756122E+04  0.7818608E-02  0.8747205E-01
          2   -1    0    0  501    0  0.00000000000E+00  0.00000000000E+00  0.18869476010E+04  0.18869476010E+04  0.25500000000E-02 0. -1.
         -2   -1    0    0    0  501 -0.00000000000E+00 -0.00000000000E+00 -0.23626044389E+04  0.23626044389E+04  0.25500000000E-02 0.  1.
    8880023    1    1    2    0    0 -0.30591190906E+03 -0.15989280382E+04 -0.15089191219E+04  0.23153401673E+04  0.65864270000E+03 0.  1.
    8880022    1    1    2    0    0  0.30591190906E+03  0.15989280382E+04  0.10332622840E+04  0.19342118726E+04  0.15294330000E+03 0.  0.
<mgrwt>
<rscale>  0 0.17250507E+04</rscale>
<asrwt>0</asrwt>
<pdfrwt beam="1">  1        2 0.29029963E+00 0.17561216E+04</pdfrwt>
<pdfrwt beam="2">  1       -2 0.36347761E+00 0.17561216E+04</pdfrwt>
<totfact> 0.89968421E-02</totfact>
</mgrwt>
</event>
<event>
 4    5  0.8511149E-008  0.7619865E+03  0.7818608E-02  0.9799992E-01
         -2   -1    0    0    0  501 -0.00000000000E+00  0.00000000000E+00  0.67901954470E+03  0.67901954471E+03  0.25500000000E-02 0.  1.
          2   -1    0    0  501    0  0.00000000000E+00 -0.00000000000E+00 -0.13709408620E+04  0.13709408620E+04  0.25500000000E-02 0. -1.
    8880023    1    1    2    0    0  0.74294419840E+02 -0.37589032767E+03  0.41569777147E+03  0.86800232875E+03  0.65864270000E+03 0.  0.
    8880022    1    1    2    0    0 -0.74294419840E+02  0.37589032767E+03 -0.11076190888E+04  0.11819580780E+04  0.15294330000E+03 0.  0.
<mgrwt>
<rscale>  0 0.65362995E+03</rscale>
<asrwt>0</asrwt>
<pdfrwt beam="1">  1        2 0.21091398E+00 0.76198649E+03</pdfrwt>
<pdfrwt beam="2">  1       -2 0.10446455E+00 0.76198649E+03</pdfrwt>
<totfact> 0.11422532E+01</totfact>
</mgrwt>
</event>
<event>
 4    5  0.8511149E-008  0.1910275E+04  0.7818608E-02  0.8663870E-01
          2   -1    0    0  501    0  0.00000000000E+00  0.00000000000E+00  0.26194974056E+04  0.26194974056E+04  0.25500000000E-02 0. -1.
         -2   -1    0    0    0  501 -0.00000000000E+00 -0.00000000000E+00 -0.19161221729E+04  0.19161221729E+04  0.25500000000E-02 0.  1.
    8880023    1    1    2    0    0 -0.15958360762E+04 -0.81770946670E+03 -0.91246214284E+03  0.21170117908E+04  0.65864270000E+03 0.  0.
    8880022    1    1    2    0    0  0.15958360762E+04  0.81770946670E+03  0.16158373755E+04  0.24186077878E+04  0.15294330000E+03 0.  0.
<mgrwt>
<rscale>  0 0.18819967E+04</rscale>
<asrwt>0</asrwt>
<pdfrwt beam="1">  1        2 0.40299960E+00 0.19102753E+04</pdfrwt>
<pdfrwt beam="2">  1       -2 0.29478803E+00 0.19102753E+04</pdfrwt>
<totfact> 0.90660565E-02</totfact>
</mgrwt>
</event>
<event>
 4    5  0.8511149E-008  0.7988130E+03  0.7818608E-02  0.9713368E-01
         -2   -1    0    0    0  501 -0.00000000000E+00  0.00000000000E+00  0.47203644813E+03  0.47203644813E+03  0.25500000000E-02 0.  1.
          2   -1    0    0  501    0  0.00000000000E+00 -0.00000000000E+00 -0.14833683599E+04  0.14833683599E+04  0.25500000000E-02 0. -1.
    8880023    1    1    2    0    0  0.41761509094E+03 -0.17288626710E+03  0.41084221785E+02  0.79986882992E+03  0.65864270000E+03 0.  0.
    8880022    1    1    2    0    0 -0.41761509094E+03  0.17288626710E+03 -0.10524161336E+04  0.11555359781E+04  0.15294330000E+03 0.  0.
<mgrwt>
<rscale>  0 0.70226389E+03</rscale>
<asrwt>0</asrwt>
<pdfrwt beam="1">  1        2 0.22821051E+00 0.79881301E+03</pdfrwt>
<pdfrwt beam="2">  1       -2 0.72620993E-01 0.79881301E+03</pdfrwt>
<totfact> 0.22639165E+01</totfact>
</mgrwt>
</event>
<event>
 4    5  0.8511149E-008  0.6637569E+03  0.7818608E-02  0.1020600E+00
          2   -1    0    0  501    0  0.00000000000E+00  0.00000000000E+00  0.55227532453E+03  0.55227532454E+03  0.25500000000E-02 0. -1.
         -2   -1    0    0    0  501 -0.00000000000E+00 -0.00000000000E+00 -0.10432786460E+04  0.10432786460E+04  0.25500000000E-02 0.  1.
    8880023    1    1    2    0    0  0.80315348062E+02  0.17677297061E+02 -0.91901923156E+03  0.11336532081E+04  0.65864270000E+03 0.  1.
    8880022    1    1    2    0    0 -0.80315348062E+02 -0.17677297061E+02  0.42801591014E+03  0.46190076241E+03  0.15294330000E+03 0.  0.
<mgrwt>
<rscale>  0 0.47470758E+03</rscale>
<asrwt>0</asrwt>
<pdfrwt beam="1">  1        2 0.84965435E-01 0.66375692E+03</pdfrwt>
<pdfrwt beam="2">  1       -2 0.16050441E+00 0.66375692E+03</pdfrwt>
<totfact> 0.14009929E+01</totfact>
</mgrwt>
</event>
<event>
 4    5  0.8511149E-008  0.8066292E+03  0.7818608E-02  0.9696641E-01
         -2   -1    0    0    0  501 -0.00000000000E+00  0.00000000000E+00  0.15083859894E+04  0.15083859894E+04  0.25500000000E-02 0.  1.
          2   -1    0    0  501    0  0.00000000000E+00 -0.00000000000E+00 -0.45447287291E+03  0.45447287292E+03  0.25500000000E-02 0. -1.
    8880023    1    1    2    0    0 -0.37050633290E+03  0.28207359409E+03  0.12049157424E+04  0.14499905544E+04  0.65864270000E+03 0.  1.
    8880022    1    1    2    0    0  0.37050633290E+03 -0.28207359409E+03 -0.15100262595E+03  0.51286830791E+03  0.15294330000E+03 0.  0.
<mgrwt>
<rscale>  0 0.71217108E+03</rscale>
<asrwt>0</asrwt>
<pdfrwt beam="1">  1        2 0.69918904E-01 0.80662920E+03</pdfrwt>
<pdfrwt beam="2">  1       -2 0.23205938E+00 0.80662920E+03</pdfrwt>
<totfact> 0.58110582E+00</totfact>
</mgrwt>
</event>
<event>
 4    5  0.8511149E-008  0.8370830E+03  0.7818608E-02  0.9635705E-01
         -2   -1    0    0    0  501 -0.00000000000E+00  0.00000000000E+00  0.15172793384E+04  0.15172793384E+04  0.25500000000E-02 0.  1.
          2   -1    0    0  501    0  0.00000000000E+00 -0.00000000000E+00 -0.11089520316E+04  0.11089520316E+04  0.25500000000E-02 0. -1.
    8880023    1    1    2    0    0  0.22045940650E+03 -0.46722094814E+03  0.13224666404E+04  0.15651281052E+04  0.65864270000E+03 0.  1.
    8880022    1    1    2    0    0 -0.22045940650E+03  0.46722094814E+03 -0.91413933361E+03  0.10611032648E+04  0.15294330000E+03 0.  0.
<mgrwt>
<rscale>  0 0.74977386E+03</rscale>
<asrwt>0</asrwt>
<pdfrwt beam="1">  1        2 0.17060801E+00 0.83708301E+03</pdfrwt>
<pdfrwt beam="2">  1       -2 0.23342759E+00 0.83708301E+03</pdfrwt>
<totfact> 0.17813187E+00</totfact>
</mgrwt>
</event>
<event>
 4    5  0.8511149E-008  0.6700525E+03  0.7818608E-02  0.1015625E+00
         -2   -1    0    0    0  501 -0.00000000000E+00  0.00000000000E+00  0.27370703529E+03  0.27370703530E+03  0.25500000000E-02 0.  1.
          2   -1    0    0  501    0  0.00000000000E+00 -0.00000000000E+00 -0.20717543873E+04  0.20717543873E+04  0.25500000000E-02 0. -1.
    8880023    1    1    2    0    0 -0.10511099320E+03  0.64123147203E+02 -0.15113458262E+03  0.68688570172E+03  0.65864270000E+03 0.  1.
    8880022    1    1    2    0    0  0.10511099320E+03 -0.64123147203E+02 -0.16469127694E+04  0.16585757209E+04  0.15294330000E+03 0.  0.
<mgrwt>
<rscale>  0 0.49298888E+03</rscale>
<asrwt>0</asrwt>
<pdfrwt beam="1">  1        2 0.31873143E+00 0.67005246E+03</pdfrwt>
<pdfrwt beam="2">  1       -2 0.42108776E-01 0.67005246E+03</pdfrwt>
<totfact> 0.34031661E+01</totfact>
</mgrwt>
</event>
<event>
 4    5  0.8511149E-008  0.6703463E+03  0.7818608E-02  0.1015416E+00
          2   -1    0    0  501    0  0.00000000000E+00  0.00000000000E+00  0.31720131956E+04  0.31720131956E+04  0.25500000000E-02 0. -1.
         -2   -1    0    0    0  501 -0.00000000000E+00 -0.00000000000E+00 -0.38963512596E+03  0.38963512597E+03  0.25500000000E-02 0.  1.
    8880023    1    1    2    0    0  0.65895902151E+01 -0.12454144103E+03 -0.95409547189E+02  0.67710204637E+03  0.65864270000E+03 0.  1.
    8880022    1    1    2    0    0 -0.65895902151E+01  0.12454144103E+03  0.28777876169E+04  0.28845462752E+04  0.15294330000E+03 0.  0.
<mgrwt>
<rscale>  0 0.49377806E+03</rscale>
<asrwt>0</asrwt>
<pdfrwt beam="1">  1        2 0.48800203E+00 0.67034633E+03</pdfrwt>
<pdfrwt beam="2">  1       -2 0.59943865E-01 0.67034633E+03</pdfrwt>
<totfact> 0.38306714E+00</totfact>
</mgrwt>
</event>
<event>
 4    5  0.8511149E-008  0.1418832E+04  0.7818608E-02  0.8969186E-01
         -2   -1    0    0    0  501 -0.00000000000E+00  0.00000000000E+00  0.12176852078E+04  0.12176852078E+04  0.25500000000E-02 0.  1.
          2   -1    0    0  501    0  0.00000000000E+00 -0.00000000000E+00 -0.20722466601E+04  0.20722466601E+04  0.25500000000E-02 0. -1.
    8880023    1    1    2    0    0 -0.64704122925E+03  0.10773171708E+04 -0.13231240405E+04  0.19400366161E+04  0.65864270000E+03 0.  0.
    8880022    1    1    2    0    0  0.64704122925E+03 -0.10773171708E+04  0.46856258822E+03  0.13498952518E+04  0.15294330000E+03 0.  0.
<mgrwt>
<rscale>  0 0.13789663E+04</rscale>
<asrwt>0</asrwt>
<pdfrwt beam="1">  1        2 0.31880718E+00 0.14188322E+04</pdfrwt>
<pdfrwt beam="2">  1       -2 0.18733619E+00 0.14188322E+04</pdfrwt>
<totfact> 0.93261641E-01</totfact>
</mgrwt>
</event>
<event>
 4    5  0.8511149E-008  0.8429349E+03  0.7818608E-02  0.9624671E-01
         -2   -1    0    0    0  501 -0.00000000000E+00  0.00000000000E+00  0.92557286074E+03  0.92557286075E+03  0.25500000000E-02 0.  1.
          2   -1    0    0  501    0  0.00000000000E+00 -0.00000000000E+00 -0.17657041463E+04  0.17657041463E+04  0.25500000000E-02 0. -1.
    8880023    1    1    2    0    0  0.22902186241E+03 -0.47358005781E+03  0.67516288239E+03  0.10799926892E+04  0.65864270000E+03 0.  1.
    8880022    1    1    2    0    0 -0.22902186241E+03  0.47358005781E+03 -0.15152941679E+04  0.16112843179E+04  0.15294330000E+03 0.  0.
<mgrwt>
<rscale>  0 0.75684603E+03</rscale>
<asrwt>0</asrwt>
<pdfrwt beam="1">  1        2 0.27164679E+00 0.84293493E+03</pdfrwt>
<pdfrwt beam="2">  1       -2 0.14239583E+00 0.84293493E+03</pdfrwt>
<totfact> 0.31495637E+00</totfact>
</mgrwt>
</event>
<event>
 4    5  0.8511149E-008  0.9233000E+03  0.7818608E-02  0.9489618E-01
         -2   -1    0    0    0  501 -0.00000000000E+00  0.00000000000E+00  0.81356466193E+03  0.81356466193E+03  0.25500000000E-02 0.  1.
          2   -1    0    0  501    0  0.00000000000E+00 -0.00000000000E+00 -0.94198642837E+03  0.94198642837E+03  0.25500000000E-02 0. -1.
    8880023    1    1    2    0    0  0.57390539417E+03 -0.29883982516E+03  0.29263049561E+03  0.96856360441E+03  0.65864270000E+03 0.  1.
    8880022    1    1    2    0    0 -0.57390539417E+03  0.29883982516E+03 -0.42105226206E+03  0.78698748590E+03  0.15294330000E+03 0.  0.
<mgrwt>
<rscale>  0 0.85053619E+03</rscale>
<asrwt>0</asrwt>
<pdfrwt beam="1">  1        2 0.14492099E+00 0.92329998E+03</pdfrwt>
<pdfrwt beam="2">  1       -2 0.12516379E+00 0.92329998E+03</pdfrwt>
<totfact> 0.13121148E+01</totfact>
</mgrwt>
</event>
<event>
 4    5  0.8511149E-008  0.9639939E+03  0.7818608E-02  0.9430260E-01
          2   -1    0    0  501    0  0.00000000000E+00  0.00000000000E+00  0.15688902275E+04  0.15688902275E+04  0.25500000000E-02 0. -1.
         -2   -1    0    0    0  501 -0.00000000000E+00 -0.00000000000E+00 -0.13676130777E+04  0.13676130777E+04  0.25500000000E-02 0.  1.
    8880023    1    1    2    0    0  0.36410364727E+03  0.60241389783E+03 -0.10917121299E+04  0.14564063825E+04  0.65864270000E+03 0.  0.
    8880022    1    1    2    0    0 -0.36410364727E+03 -0.60241389783E+03  0.12929892797E+04  0.14800969227E+04  0.15294330000E+03 0.  0.
<mgrwt>
<rscale>  0 0.89626733E+03</rscale>
<asrwt>0</asrwt>
<pdfrwt beam="1">  1        2 0.24136773E+00 0.96399387E+03</pdfrwt>
<pdfrwt beam="2">  1       -2 0.21040201E+00 0.96399387E+03</pdfrwt>
<totfact> 0.13212584E+00</totfact>
</mgrwt>
</event>
<event>
 4    5  0.8511149E-008  0.1640784E+04  0.7818608E-02  0.8816132E-01
          2   -1    0    0  501    0  0.00000000000E+00  0.00000000000E+00  0.26548502903E+04  0.26548502903E+04  0.25500000000E-02 0. -1.
         -2   -1    0    0    0  501 -0.00000000000E+00 -0.00000000000E+00 -0.16566732496E+04  0.16566732496E+04  0.25500000000E-02 0.  1.
    8880023    1    1    2    0    0 -0.94102501981E+03  0.11716806100E+04  0.19327113597E+04  0.25352607254E+04  0.65864270000E+03 0.  0.
    8880022    1    1    2    0    0  0.94102501981E+03 -0.11716806100E+04 -0.93453431900E+03  0.17762628145E+04  0.15294330000E+03 0.  0.
<mgrwt>
<rscale>  0 0.16072087E+04</rscale>
<asrwt>0</asrwt>
<pdfrwt beam="1">  1        2 0.40843850E+00 0.16407845E+04</pdfrwt>
<pdfrwt beam="2">  1       -2 0.25487281E+00 0.16407845E+04</pdfrwt>
<totfact> 0.15631310E-01</totfact>
</mgrwt>
</event>
<event>
 4    5  0.8511149E-008  0.1128226E+04  0.7818608E-02  0.9230262E-01
          2   -1    0    0  501    0  0.00000000000E+00  0.00000000000E+00  0.93645536598E+03  0.93645536598E+03  0.25500000000E-02 0. -1.
         -2   -1    0    0    0  501 -0.00000000000E+00 -0.00000000000E+00 -0.12763942013E+04  0.12763942013E+04  0.25500000000E-02 0.  1.
    8880023    1    1    2    0    0  0.84896254389E+03 -0.34401509291E+03 -0.55833260817E+03  0.12588205959E+04  0.65864270000E+03 0.  0.
    8880022    1    1    2    0    0 -0.84896254389E+03  0.34401509291E+03  0.21839377290E+03  0.95402897133E+03  0.15294330000E+03 0.  0.
<mgrwt>
<rscale>  0 0.10746460E+04</rscale>
<asrwt>0</asrwt>
<pdfrwt beam="1">  1        2 0.14407006E+00 0.11282260E+04</pdfrwt>
<pdfrwt beam="2">  1       -2 0.19636834E+00 0.11282260E+04</pdfrwt>
<totfact> 0.38160287E+00</totfact>
</mgrwt>
</event>
<event>
 4    5  0.1179156E-007  0.8896515E+03  0.7818608E-02  0.9542853E-01
          2   -1    0    0  501    0  0.00000000000E+00  0.00000000000E+00  0.31480865597E+04  0.31480865597E+04  0.25500000000E-02 0. -1.
         -2   -1    0    0    0  501 -0.00000000000E+00 -0.00000000000E+00 -0.94669751003E+03  0.94669751003E+03  0.25500000000E-02 0.  1.
    8880023    1    1    2    0    0  0.11056246124E+03 -0.58774614946E+03 -0.69776193952E+03  0.11306420851E+04  0.65864270000E+03 0.  1.
    8880022    1    1    2    0    0 -0.11056246124E+03  0.58774614946E+03  0.28991509892E+04  0.29641419846E+04  0.15294330000E+03 0.  0.
<mgrwt>
<rscale>  0 0.81196870E+03</rscale>
<asrwt>0</asrwt>
<pdfrwt beam="1">  1        2 0.48432101E+00 0.88965150E+03</pdfrwt>
<pdfrwt beam="2">  1       -2 0.14564577E+00 0.88965150E+03</pdfrwt>
<totfact> 0.47312218E-01</totfact>
</mgrwt>
</event>
<event>
 4    5  0.8511149E-008  0.7657782E+03  0.7818608E-02  0.9790372E-01
          2   -1    0    0  501    0  0.00000000000E+00  0.00000000000E+00  0.81098546922E+03  0.81098546922E+03  0.25500000000E-02 0. -1.
         -2   -1    0    0    0  501 -0.00000000000E+00 -0.00000000000E+00 -0.15067019158E+04  0.15067019158E+04  0.25500000000E-02 0.  1.
    8880023    1    1    2    0    0  0.10852380565E+03 -0.37527147367E+03 -0.13432098272E+04  0.15461658842E+04  0.65864270000E+03 0.  1.
    8880022    1    1    2    0    0 -0.10852380565E+03  0.37527147367E+03  0.64749338058E+03  0.77152150084E+03  0.15294330000E+03 0.  0.
<mgrwt>
<rscale>  0 0.65881830E+03</rscale>
<asrwt>0</asrwt>
<pdfrwt beam="1">  1        2 0.12476700E+00 0.76577823E+03</pdfrwt>
<pdfrwt beam="2">  1       -2 0.23180029E+00 0.76577823E+03</pdfrwt>
<totfact> 0.28896210E+00</totfact>
</mgrwt>
</event>
<event>
 4    5  0.8511149E-008  0.1186290E+04  0.7818608E-02  0.9170566E-01
          2   -1    0    0  501    0  0.00000000000E+00  0.00000000000E+00  0.18802584101E+04  0.18802584101E+04  0.25500000000E-02 0. -1.
         -2   -1    0    0    0  501 -0.00000000000E+00 -0.00000000000E+00 -0.88113065237E+03  0.88113065238E+03  0.25500000000E-02 0.  1.
    8880023    1    1    2    0    0  0.54375598326E+03 -0.82328788743E+03 -0.19783867073E+03  0.12026736302E+04  0.65864270000E+03 0.  0.
    8880022    1    1    2    0    0 -0.54375598326E+03  0.82328788743E+03  0.11969664285E+04  0.15587154323E+04  0.15294330000E+03 0.  0.
<mgrwt>
<rscale>  0 0.11362468E+04</rscale>
<asrwt>0</asrwt>
<pdfrwt beam="1">  1        2 0.28927053E+00 0.11862899E+04</pdfrwt>
<pdfrwt beam="2">  1       -2 0.13555856E+00 0.11862899E+04</pdfrwt>
<totfact> 0.29652584E+00</totfact>
</mgrwt>
</event>
<event>
 4    5  0.8511149E-008  0.1390853E+04  0.7818608E-02  0.8990823E-01
          2   -1    0    0  501    0  0.00000000000E+00  0.00000000000E+00  0.42204812150E+04  0.42204812150E+04  0.25500000000E-02 0. -1.
         -2   -1    0    0    0  501 -0.00000000000E+00 -0.00000000000E+00 -0.71754331867E+03  0.71754331867E+03  0.25500000000E-02 0.  1.
    8880023    1    1    2    0    0  0.50362637550E+03 -0.11167013181E+04  0.19152877911E+03  0.14039782190E+04  0.65864270000E+03 0.  0.
    8880022    1    1    2    0    0 -0.50362637550E+03  0.11167013181E+04  0.33114091172E+04  0.35340463147E+04  0.15294330000E+03 0.  0.
<mgrwt>
<rscale>  0 0.13500066E+04</rscale>
<asrwt>0</asrwt>
<pdfrwt beam="1">  1        2 0.64930478E+00 0.13908528E+04</pdfrwt>
<pdfrwt beam="2">  1       -2 0.11039128E+00 0.13908528E+04</pdfrwt>
<totfact> 0.14358636E-01</totfact>
</mgrwt>
</event>
<event>
 4    5  0.8511149E-008  0.7035536E+03  0.7818608E-02  0.9982767E-01
         -2   -1    0    0    0  501 -0.00000000000E+00  0.00000000000E+00  0.53706535074E+03  0.53706535075E+03  0.25500000000E-02 0.  1.
          2   -1    0    0  501    0  0.00000000000E+00 -0.00000000000E+00 -0.70785336861E+03  0.70785336861E+03  0.25500000000E-02 0. -1.
    8880023    1    1    2    0    0  0.24585133260E+03 -0.27103159013E+02  0.23846284330E+03  0.74286754732E+03  0.65864270000E+03 0.  1.
    8880022    1    1    2    0    0 -0.24585133260E+03  0.27103159013E+02 -0.40925086117E+03  0.50205117204E+03  0.15294330000E+03 0.  0.
<mgrwt>
<rscale>  0 0.56412372E+03</rscale>
<asrwt>0</asrwt>
<pdfrwt beam="1">  1        2 0.10890052E+00 0.70355360E+03</pdfrwt>
<pdfrwt beam="2">  1       -2 0.82625438E-01 0.70355360E+03</pdfrwt>
<totfact> 0.52769546E+01</totfact>
</mgrwt>
</event>
<event>
 4    5  0.8635109E-008  0.1180811E+04  0.7818608E-02  0.9176005E-01
         -2   -1    0    0    0  501 -0.00000000000E+00  0.00000000000E+00  0.15347287477E+04  0.15347287477E+04  0.25500000000E-02 0.  1.
          2   -1    0    0  501    0  0.00000000000E+00 -0.00000000000E+00 -0.29153097991E+04  0.29153097991E+04  0.25500000000E-02 0. -1.
    8880023    1    1    2    0    0 -0.67803474681E+03 -0.70765375347E+03  0.12011206928E+04  0.16843414373E+04  0.65864270000E+03 0.  0.
    8880022    1    1    2    0    0  0.67803474681E+03  0.70765375347E+03 -0.25817017441E+04  0.27656971095E+04  0.15294330000E+03 0. -1.
<mgrwt>
<rscale>  0 0.11304570E+04</rscale>
<asrwt>0</asrwt>
<pdfrwt beam="1">  1        2 0.44850920E+00 0.11808112E+04</pdfrwt>
<pdfrwt beam="2">  1       -2 0.23611212E+00 0.11808112E+04</pdfrwt>
<totfact> 0.15171990E-01</totfact>
</mgrwt>
</event>
<event>
 4    5  0.8511149E-008  0.9345955E+03  0.7818608E-02  0.9472633E-01
         -2   -1    0    0    0  501 -0.00000000000E+00  0.00000000000E+00  0.22619498736E+03  0.22619498737E+03  0.25500000000E-02 0.  1.
          2   -1    0    0  501    0  0.00000000000E+00 -0.00000000000E+00 -0.31625818619E+04  0.31625818619E+04  0.25500000000E-02 0. -1.
    8880023    1    1    2    0    0 -0.25449325437E+03 -0.61228409941E+03 -0.11806902055E+04  0.15058214378E+04  0.65864270000E+03 0.  0.
    8880022    1    1    2    0    0  0.25449325437E+03  0.61228409941E+03 -0.17556966690E+04  0.18829554114E+04  0.15294330000E+03 0.  0.
<mgrwt>
<rscale>  0 0.86331900E+03</rscale>
<asrwt>0</asrwt>
<pdfrwt beam="1">  1        2 0.48655102E+00 0.93459555E+03</pdfrwt>
<pdfrwt beam="2">  1       -2 0.34799231E-01 0.93459555E+03</pdfrwt>
<totfact> 0.11008724E+01</totfact>
</mgrwt>
</event>
<event>
 4    5  0.8511149E-008  0.1177516E+04  0.7818608E-02  0.9179294E-01
         -2   -1    0    0    0  501 -0.00000000000E+00  0.00000000000E+00  0.73429476574E+03  0.73429476575E+03  0.25500000000E-02 0.  1.
          2   -1    0    0  501    0  0.00000000000E+00 -0.00000000000E+00 -0.27977888160E+04  0.27977888160E+04  0.25500000000E-02 0. -1.
    8880023    1    1    2    0    0 -0.91895366184E+03 -0.32902652646E+03  0.71380008116E+02  0.11796777524E+04  0.65864270000E+03 0.  0.
    8880022    1    1    2    0    0  0.91895366184E+03  0.32902652646E+03 -0.21348740584E+04  0.23524058293E+04  0.15294330000E+03 0.  0.
<mgrwt>
<rscale>  0 0.11269727E+04</rscale>
<asrwt>0</asrwt>
<pdfrwt beam="1">  1        2 0.43042904E+00 0.11775162E+04</pdfrwt>
<pdfrwt beam="2">  1       -2 0.11296843E+00 0.11775162E+04</pdfrwt>
<totfact> 0.14120526E+00</totfact>
</mgrwt>
</event>
<event>
 4    5  0.8511149E-008  0.7461427E+03  0.7818608E-02  0.9842402E-01
          2   -1    0    0  501    0  0.00000000000E+00  0.00000000000E+00  0.23932926709E+04  0.23932926709E+04  0.25500000000E-02 0. -1.
         -2   -1    0    0    0  501 -0.00000000000E+00 -0.00000000000E+00 -0.40853350761E+03  0.40853350762E+03  0.25500000000E-02 0.  1.
    8880023    1    1    2    0    0 -0.29287596008E+03 -0.19272342971E+03 -0.34225605811E+02  0.74692720308E+03  0.65864270000E+03 0.  0.
    8880022    1    1    2    0    0  0.29287596008E+03  0.19272342971E+03  0.20189847691E+04  0.20548989754E+04  0.15294330000E+03 0.  0.
<mgrwt>
<rscale>  0 0.63135811E+03</rscale>
<asrwt>0</asrwt>
<pdfrwt beam="1">  1        2 0.36819887E+00 0.74614265E+03</pdfrwt>
<pdfrwt beam="2">  1       -2 0.62851310E-01 0.74614265E+03</pdfrwt>
<totfact> 0.98464676E+00</totfact>
</mgrwt>
</event>
<event>
 4    5  0.8511149E-008  0.7424088E+03  0.7818608E-02  0.9852985E-01
         -2   -1    0    0    0  501 -0.00000000000E+00  0.00000000000E+00  0.86726112101E+03  0.86726112101E+03  0.25500000000E-02 0.  1.
          2   -1    0    0  501    0  0.00000000000E+00 -0.00000000000E+00 -0.70477027552E+03  0.70477027553E+03  0.25500000000E-02 0. -1.
    8880023    1    1    2    0    0  0.33656281099E+03 -0.63922519419E+02  0.62923691675E+03  0.97319572435E+03  0.65864270000E+03 0.  1.
    8880022    1    1    2    0    0 -0.33656281099E+03  0.63922519419E+02 -0.46674607126E+03  0.59883567219E+03  0.15294330000E+03 0.  0.
<mgrwt>
<rscale>  0 0.62594944E+03</rscale>
<asrwt>0</asrwt>
<pdfrwt beam="1">  1        2 0.10842620E+00 0.74240880E+03</pdfrwt>
<pdfrwt beam="2">  1       -2 0.13342479E+00 0.74240880E+03</pdfrwt>
<totfact> 0.16762087E+01</totfact>
</mgrwt>
</event>
<event>
 4    5  0.8511149E-008  0.7838903E+03  0.7818608E-02  0.9746777E-01
          2   -1    0    0  501    0  0.00000000000E+00  0.00000000000E+00  0.13871557483E+04  0.13871557483E+04  0.25500000000E-02 0. -1.
         -2   -1    0    0    0  501 -0.00000000000E+00 -0.00000000000E+00 -0.14904350055E+04  0.14904350055E+04  0.25500000000E-02 0.  1.
    8880023    1    1    2    0    0 -0.18416573732E+03  0.38308837665E+03 -0.13447171339E+04  0.15565179406E+04  0.65864270000E+03 0.  0.
    8880022    1    1    2    0    0  0.18416573732E+03 -0.38308837665E+03  0.12414378766E+04  0.13210728132E+04  0.15294330000E+03 0.  0.
<mgrwt>
<rscale>  0 0.68298728E+03</rscale>
<asrwt>0</asrwt>
<pdfrwt beam="1">  1        2 0.21340858E+00 0.78389025E+03</pdfrwt>
<pdfrwt beam="2">  1       -2 0.22929769E+00 0.78389025E+03</pdfrwt>
<totfact> 0.13084467E+00</totfact>
</mgrwt>
</event>
<event>
 4    5  0.8511149E-008  0.6627228E+03  0.7818608E-02  0.1021525E+00
         -2   -1    0    0    0  501 -0.00000000000E+00  0.00000000000E+00  0.50008873320E+03  0.50008873321E+03  0.25500000000E-02 0.  1.
          2   -1    0    0  501    0  0.00000000000E+00 -0.00000000000E+00 -0.18180007672E+04  0.18180007672E+04  0.25500000000E-02 0. -1.
    8880023    1    1    2    0    0 -0.49797371261E+02  0.53958113191E+02  0.27402268229E+03  0.71714007895E+03  0.65864270000E+03 0.  1.
    8880022    1    1    2    0    0  0.49797371261E+02 -0.53958113191E+02 -0.15919347163E+04  0.16009494215E+04  0.15294330000E+03 0.  0.
<mgrwt>
<rscale>  0 0.47140127E+03</rscale>
<asrwt>0</asrwt>
<pdfrwt beam="1">  1        2 0.27969242E+00 0.66272276E+03</pdfrwt>
<pdfrwt beam="2">  1       -2 0.76936729E-01 0.66272276E+03</pdfrwt>
<totfact> 0.13288032E+01</totfact>
</mgrwt>
</event>
<event>
 4    5  0.8511149E-008  0.1046932E+04  0.7818608E-02  0.9322579E-01
          2   -1    0    0  501    0  0.00000000000E+00  0.00000000000E+00  0.87138084766E+03  0.87138084766E+03  0.25500000000E-02 0. -1.
         -2   -1    0    0    0  501 -0.00000000000E+00 -0.00000000000E+00 -0.12486475590E+04  0.12486475590E+04  0.25500000000E-02 0.  1.
    8880023    1    1    2    0    0 -0.34574468751E+03  0.73669303502E+03 -0.66862474910E+03  0.12422259368E+04  0.65864270000E+03 0.  1.
    8880022    1    1    2    0    0  0.34574468751E+03 -0.73669303502E+03  0.29135803778E+03  0.87780246980E+03  0.15294330000E+03 0.  0.
<mgrwt>
<rscale>  0 0.98730520E+03</rscale>
<asrwt>0</asrwt>
<pdfrwt beam="1">  1        2 0.13405859E+00 0.10469318E+04</pdfrwt>
<pdfrwt beam="2">  1       -2 0.19209962E+00 0.10469318E+04</pdfrwt>
<totfact> 0.45452790E+00</totfact>
</mgrwt>
</event>
<event>
 4    5  0.8511149E-008  0.8333928E+03  0.7818608E-02  0.9642767E-01
         -2   -1    0    0    0  501 -0.00000000000E+00  0.00000000000E+00  0.17446179859E+03  0.17446179861E+03  0.25500000000E-02 0.  1.
          2   -1    0    0  501    0  0.00000000000E+00 -0.00000000000E+00 -0.38029339729E+04  0.38029339729E+04  0.25500000000E-02 0. -1.
    8880023    1    1    2    0    0  0.41718474973E+03  0.29443197652E+03 -0.10305744615E+04  0.13253781465E+04  0.65864270000E+03 0.  1.
    8880022    1    1    2    0    0 -0.41718474973E+03 -0.29443197652E+03 -0.25978977129E+04  0.26520176251E+04  0.15294330000E+03 0.  0.
<mgrwt>
<rscale>  0 0.74529116E+03</rscale>
<asrwt>0</asrwt>
<pdfrwt beam="1">  1        2 0.58506670E+00 0.83339277E+03</pdfrwt>
<pdfrwt beam="2">  1       -2 0.26840280E-01 0.83339277E+03</pdfrwt>
<totfact> 0.66230479E+00</totfact>
</mgrwt>
</event>
<event>
 4    5  0.8511149E-008  0.7290434E+03  0.7818608E-02  0.9893096E-01
          2   -1    0    0  501    0  0.00000000000E+00  0.00000000000E+00  0.25203502695E+04  0.25203502695E+04  0.25500000000E-02 0. -1.
         -2   -1    0    0    0  501 -0.00000000000E+00 -0.00000000000E+00 -0.20960689239E+03  0.20960689240E+03  0.25500000000E-02 0.  1.
    8880023    1    1    2    0    0 -0.57336096009E+02 -0.30725661548E+03  0.49508998903E+03  0.88125952997E+03  0.65864270000E+03 0.  0.
    8880022    1    1    2    0    0  0.57336096009E+02  0.30725661548E+03  0.18156533880E+04  0.18486976319E+04  0.15294330000E+03 0.  0.
<mgrwt>
<rscale>  0 0.60597072E+03</rscale>
<asrwt>0</asrwt>
<pdfrwt beam="1">  1        2 0.38774622E+00 0.72904339E+03</pdfrwt>
<pdfrwt beam="2">  1       -2 0.32247212E-01 0.72904339E+03</pdfrwt>
<totfact> 0.31744727E+01</totfact>
</mgrwt>
</event>
<event>
 4    5  0.8511149E-008  0.6929167E+03  0.7818608E-02  0.1002796E+00
         -2   -1    0    0    0  501 -0.00000000000E+00  0.00000000000E+00  0.65159481819E+03  0.65159481820E+03  0.25500000000E-02 0.  1.
          2   -1    0    0  501    0  0.00000000000E+00 -0.00000000000E+00 -0.45521817745E+03  0.45521817745E+03  0.25500000000E-02 0. -1.
    8880023    1    1    2    0    0 -0.10957683577E+03 -0.18524663728E+03  0.37514432127E+03  0.78795105660E+03  0.65864270000E+03 0.  1.
    8880022    1    1    2    0    0  0.10957683577E+03  0.18524663728E+03 -0.17876768052E+03  0.31886193905E+03  0.15294330000E+03 0.  0.
<mgrwt>
<rscale>  0 0.54441065E+03</rscale>
<asrwt>0</asrwt>
<pdfrwt beam="1">  1        2 0.70033566E-01 0.69291674E+03</pdfrwt>
<pdfrwt beam="2">  1       -2 0.10024536E+00 0.69291674E+03</pdfrwt>
<totfact> 0.57214919E+01</totfact>
</mgrwt>
</event>
<event>
 4    5  0.8511149E-008  0.9574513E+03  0.7818608E-02  0.9439473E-01
         -2   -1    0    0    0  501 -0.00000000000E+00  0.00000000000E+00  0.46549915536E+03  0.46549915537E+03  0.25500000000E-02 0.  1.
          2   -1    0    0  501    0  0.00000000000E+00 -0.00000000000E+00 -0.16642821402E+04  0.16642821402E+04  0.25500000000E-02 0. -1.
    8880023    1    1    2    0    0 -0.68858914208E+03 -0.93529104997E+02 -0.34347538346E+03  0.10171962669E+04  0.65864270000E+03 0.  0.
    8880022    1    1    2    0    0  0.68858914208E+03  0.93529104997E+02 -0.85530760137E+03  0.11125850287E+04  0.15294330000E+03 0.  0.
<mgrwt>
<rscale>  0 0.88897161E+03</rscale>
<asrwt>0</asrwt>
<pdfrwt beam="1">  1        2 0.25604340E+00 0.95745126E+03</pdfrwt>
<pdfrwt beam="2">  1       -2 0.71615256E-01 0.95745126E+03</pdfrwt>
<totfact> 0.18213628E+01</totfact>
</mgrwt>
</event>
<event>
 4    5  0.8511149E-008  0.1023479E+04  0.7818608E-02  0.9351464E-01
          2   -1    0    0  501    0  0.00000000000E+00  0.00000000000E+00  0.15717710849E+04  0.15717710849E+04  0.25500000000E-02 0. -1.
         -2   -1    0    0    0  501 -0.00000000000E+00 -0.00000000000E+00 -0.87901102745E+03  0.87901102745E+03  0.25500000000E-02 0.  1.
    8880023    1    1    2    0    0  0.51914188678E+03  0.58667840112E+03 -0.39888140035E+03  0.10984609337E+04  0.65864270000E+03 0.  0.
    8880022    1    1    2    0    0 -0.51914188678E+03 -0.58667840112E+03  0.10916414578E+04  0.13523211787E+04  0.15294330000E+03 0.  0.
<mgrwt>
<rscale>  0 0.96179951E+03</rscale>
<asrwt>0</asrwt>
<pdfrwt beam="1">  1        2 0.24181094E+00 0.10234794E+04</pdfrwt>
<pdfrwt beam="2">  1       -2 0.13523247E+00 0.10234794E+04</pdfrwt>
<totfact> 0.45022223E+00</totfact>
</mgrwt>
</event>
<event>
 4    5  0.8511149E-008  0.1120959E+04  0.7818608E-02  0.9238072E-01
          2   -1    0    0  501    0  0.00000000000E+00  0.00000000000E+00  0.18181623091E+04  0.18181623091E+04  0.25500000000E-02 0. -1.
         -2   -1    0    0    0  501 -0.00000000000E+00 -0.00000000000E+00 -0.11830315070E+04  0.11830315070E+04  0.25500000000E-02 0.  1.
    8880023    1    1    2    0    0 -0.90694252926E+03  0.13930329642E+02 -0.74259196714E+03  0.13446158713E+04  0.65864270000E+03 0.  1.
    8880022    1    1    2    0    0  0.90694252926E+03 -0.13930329642E+02  0.13777227693E+04  0.16565779449E+04  0.15294330000E+03 0.  0.
<mgrwt>
<rscale>  0 0.10668957E+04</rscale>
<asrwt>0</asrwt>
<pdfrwt beam="1">  1        2 0.27971728E+00 0.11209590E+04</pdfrwt>
<pdfrwt beam="2">  1       -2 0.18200485E+00 0.11209590E+04</pdfrwt>
<totfact> 0.14512104E+00</totfact>
</mgrwt>
</event>
<event>
 4    5  0.8511149E-008  0.1114639E+04  0.7818608E-02  0.9244930E-01
         -2   -1    0    0    0  501 -0.00000000000E+00  0.00000000000E+00  0.12604371072E+04  0.12604371072E+04  0.25500000000E-02 0.  1.
          2   -1    0    0  501    0  0.00000000000E+00 -0.00000000000E+00 -0.18256302311E+04  0.18256302311E+04  0.25500000000E-02 0. -1.
    8880023    1    1    2    0    0  0.85175594976E+03 -0.28830925858E+03  0.85043706857E+03  0.14020213409E+04  0.65864270000E+03 0.  0.
    8880022    1    1    2    0    0 -0.85175594976E+03  0.28830925858E+03 -0.14156301925E+04  0.16840459974E+04  0.15294330000E+03 0.  0.
<mgrwt>
<rscale>  0 0.10601475E+04</rscale>
<asrwt>0</asrwt>
<pdfrwt beam="1">  1        2 0.28086619E+00 0.11146392E+04</pdfrwt>
<pdfrwt beam="2">  1       -2 0.19391340E+00 0.11146392E+04</pdfrwt>
<totfact> 0.11952640E+00</totfact>
</mgrwt>
</event>
<event>
 4    5  0.8511149E-008  0.6916427E+03  0.7818608E-02  0.1003381E+00
          2   -1    0    0  501    0  0.00000000000E+00  0.00000000000E+00  0.19146517469E+04  0.19146517469E+04  0.25500000000E-02 0. -1.
         -2   -1    0    0    0  501 -0.00000000000E+00 -0.00000000000E+00 -0.21546893839E+03  0.21546893840E+03  0.25500000000E-02 0.  1.
    8880023    1    1    2    0    0  0.16139565566E+03 -0.13605437401E+03  0.38751975716E+03  0.79280585190E+03  0.65864270000E+03 0.  1.
    8880022    1    1    2    0    0 -0.16139565566E+03  0.13605437401E+03  0.13116630514E+04  0.13373148334E+04  0.15294330000E+03 0.  0.
<mgrwt>
<rscale>  0 0.54192079E+03</rscale>
<asrwt>0</asrwt>
<pdfrwt beam="1">  1        2 0.29456180E+00 0.69164265E+03</pdfrwt>
<pdfrwt beam="2">  1       -2 0.33149068E-01 0.69164265E+03</pdfrwt>
<totfact> 0.65464360E+01</totfact>
</mgrwt>
</event>
<event>
 4    5  0.8511149E-008  0.8395950E+03  0.7818608E-02  0.9630944E-01
          2   -1    0    0  501    0  0.00000000000E+00  0.00000000000E+00  0.29252147337E+04  0.29252147337E+04  0.25500000000E-02 0. -1.
         -2   -1    0    0    0  501 -0.00000000000E+00 -0.00000000000E+00 -0.20955610100E+03  0.20955610101E+03  0.25500000000E-02 0.  1.
    8880023    1    1    2    0    0 -0.46867477100E+03 -0.22683353499E+03  0.86202611721E+03  0.12033323425E+04  0.65864270000E+03 0.  0.
    8880022    1    1    2    0    0  0.46867477100E+03  0.22683353499E+03  0.18536325155E+04  0.19314384922E+04  0.15294330000E+03 0.  0.
<mgrwt>
<rscale>  0 0.75281496E+03</rscale>
<asrwt>0</asrwt>
<pdfrwt beam="1">  1        2 0.45003298E+00 0.83959496E+03</pdfrwt>
<pdfrwt beam="2">  1       -2 0.32239404E-01 0.83959496E+03</pdfrwt>
<totfact> 0.18103841E+01</totfact>
</mgrwt>
</event>
<event>
 4    5  0.8511149E-008  0.8484196E+03  0.7818608E-02  0.9614504E-01
         -2   -1    0    0    0  501 -0.00000000000E+00  0.00000000000E+00  0.80919283347E+03  0.80919283347E+03  0.25500000000E-02 0.  1.
          2   -1    0    0  501    0  0.00000000000E+00 -0.00000000000E+00 -0.77790119304E+03  0.77790119304E+03  0.25500000000E-02 0. -1.
    8880023    1    1    2    0    0  0.51424682074E+03  0.14681879635E+03  0.38102034910E+03  0.93004960314E+03  0.65864270000E+03 0.  1.
    8880022    1    1    2    0    0 -0.51424682074E+03 -0.14681879635E+03 -0.34972870867E+03  0.65704442338E+03  0.15294330000E+03 0. -1.
<mgrwt>
<rscale>  0 0.76343586E+03</rscale>
<asrwt>0</asrwt>
<pdfrwt beam="1">  1        2 0.11967711E+00 0.84841956E+03</pdfrwt>
<pdfrwt beam="2">  1       -2 0.12449120E+00 0.84841956E+03</pdfrwt>
<totfact> 0.17410087E+01</totfact>
</mgrwt>
</event>
<event>
 4    5  0.8511149E-008  0.1306296E+04  0.7818608E-02  0.9060142E-01
          2   -1    0    0  501    0  0.00000000000E+00  0.00000000000E+00  0.22127376682E+04  0.22127376682E+04  0.25500000000E-02 0. -1.
         -2   -1    0    0    0  501 -0.00000000000E+00 -0.00000000000E+00 -0.79705701733E+03  0.79705701734E+03  0.25500000000E-02 0.  1.
    8880023    1    1    2    0    0  0.10967521203E+04  0.26407147919E+03  0.16190010968E+03  0.13162905497E+04  0.65864270000E+03 0.  0.
    8880022    1    1    2    0    0 -0.10967521203E+04 -0.26407147919E+03  0.12537805412E+04  0.16935041358E+04  0.15294330000E+03 0.  0.
<mgrwt>
<rscale>  0 0.12621368E+04</rscale>
<asrwt>0</asrwt>
<pdfrwt beam="1">  1        2 0.34042118E+00 0.13062960E+04</pdfrwt>
<pdfrwt beam="2">  1       -2 0.12262416E+00 0.13062960E+04</pdfrwt>
<totfact> 0.24696198E+00</totfact>
</mgrwt>
</event>
<event>
 4    5  0.8511149E-008  0.8473512E+03  0.7818608E-02  0.9616472E-01
          2   -1    0    0  501    0  0.00000000000E+00  0.00000000000E+00  0.12031870565E+04  0.12031870565E+04  0.25500000000E-02 0. -1.
         -2   -1    0    0    0  501 -0.00000000000E+00 -0.00000000000E+00 -0.70077755713E+03  0.70077755714E+03  0.25500000000E-02 0.  1.
    8880023    1    1    2    0    0  0.50291280080E+03  0.17684073330E+03 -0.32528266612E+03  0.90764142111E+03  0.65864270000E+03 0.  0.
    8880022    1    1    2    0    0 -0.50291280080E+03 -0.17684073330E+03  0.82769216552E+03  0.99632319257E+03  0.15294330000E+03 0.  0.
<mgrwt>
<rscale>  0 0.76215509E+03</rscale>
<asrwt>0</asrwt>
<pdfrwt beam="1">  1        2 0.18510570E+00 0.84735125E+03</pdfrwt>
<pdfrwt beam="2">  1       -2 0.10781193E+00 0.84735125E+03</pdfrwt>
<totfact> 0.13116563E+01</totfact>
</mgrwt>
</event>
<event>
 4    5  0.8511149E-008  0.6787583E+03  0.7818608E-02  0.1010035E+00
          2   -1    0    0  501    0  0.00000000000E+00  0.00000000000E+00  0.84505331868E+03  0.84505331868E+03  0.25500000000E-02 0. -1.
         -2   -1    0    0    0  501 -0.00000000000E+00 -0.00000000000E+00 -0.11922677244E+04  0.11922677244E+04  0.25500000000E-02 0.  1.
    8880023    1    1    2    0    0 -0.16253317836E+03 -0.22034795553E+02 -0.10774495989E+04  0.12734246780E+04  0.65864270000E+03 0.  1.
    8880022    1    1    2    0    0  0.16253317836E+03  0.22034795553E+02  0.73023519312E+03  0.76389636507E+03  0.15294330000E+03 0.  0.
<mgrwt>
<rscale>  0 0.51460749E+03</rscale>
<asrwt>0</asrwt>
<pdfrwt beam="1">  1        2 0.13000820E+00 0.67875826E+03</pdfrwt>
<pdfrwt beam="2">  1       -2 0.18342580E+00 0.67875826E+03</pdfrwt>
<totfact> 0.56595465E+00</totfact>
</mgrwt>
</event>
<event>
 4    5  0.8511149E-008  0.1010518E+04  0.7818608E-02  0.9367924E-01
         -2   -1    0    0    0  501 -0.00000000000E+00  0.00000000000E+00  0.31173132343E+03  0.31173132344E+03  0.25500000000E-02 0.  1.
          2   -1    0    0  501    0  0.00000000000E+00 -0.00000000000E+00 -0.26966057590E+04  0.26966057590E+04  0.25500000000E-02 0. -1.
    8880023    1    1    2    0    0 -0.71374899808E+03 -0.27910421034E+03 -0.10215500781E+04  0.14369104220E+04  0.65864270000E+03 0.  0.
    8880022    1    1    2    0    0  0.71374899808E+03  0.27910421034E+03 -0.13633243575E+04  0.15714266604E+04  0.15294330000E+03 0.  0.
<mgrwt>
<rscale>  0 0.94763069E+03</rscale>
<asrwt>0</asrwt>
<pdfrwt beam="1">  1        2 0.41486241E+00 0.10105182E+04</pdfrwt>
<pdfrwt beam="2">  1       -2 0.47958667E-01 0.10105182E+04</pdfrwt>
<totfact> 0.11152866E+01</totfact>
</mgrwt>
</event>
<event>
 4    5  0.8511149E-008  0.1285165E+04  0.7818608E-02  0.9078478E-01
          2   -1    0    0  501    0  0.00000000000E+00  0.00000000000E+00  0.11359682566E+04  0.11359682566E+04  0.25500000000E-02 0. -1.
         -2   -1    0    0    0  501 -0.00000000000E+00 -0.00000000000E+00 -0.26144118987E+04  0.26144118987E+04  0.25500000000E-02 0.  1.
    8880023    1    1    2    0    0 -0.93267285298E+03  0.58988062845E+03 -0.21093634535E+04  0.24700328321E+04  0.65864270000E+03 0.  0.
    8880022    1    1    2    0    0  0.93267285298E+03 -0.58988062845E+03  0.63091981141E+03  0.12803473232E+04  0.15294330000E+03 0.  0.
<mgrwt>
<rscale>  0 0.12400825E+04</rscale>
<asrwt>0</asrwt>
<pdfrwt beam="1">  1        2 0.17476435E+00 0.12851646E+04</pdfrwt>
<pdfrwt beam="2">  1       -2 0.40221721E+00 0.12851646E+04</pdfrwt>
<totfact> 0.14463081E-01</totfact>
</mgrwt>
</event>
<event>
 4    5  0.8511149E-008  0.8779389E+03  0.7818608E-02  0.9562417E-01
         -2   -1    0    0    0  501 -0.00000000000E+00  0.00000000000E+00  0.91997722808E+03  0.91997722808E+03  0.25500000000E-02 0.  1.
          2   -1    0    0  501    0  0.00000000000E+00 -0.00000000000E+00 -0.10415627851E+04  0.10415627851E+04  0.25500000000E-02 0. -1.
    8880023    1    1    2    0    0 -0.52209299904E+03 -0.25374265179E+03  0.56924316679E+03  0.10463338006E+04  0.65864270000E+03 0.  1.
    8880022    1    1    2    0    0  0.52209299904E+03  0.25374265179E+03 -0.69082872382E+03  0.91520621264E+03  0.15294330000E+03 0.  0.
<mgrwt>
<rscale>  0 0.79834386E+03</rscale>
<asrwt>0</asrwt>
<pdfrwt beam="1">  1        2 0.16024043E+00 0.87793886E+03</pdfrwt>
<pdfrwt beam="2">  1       -2 0.14153496E+00 0.87793886E+03</pdfrwt>
<totfact> 0.83020650E+00</totfact>
</mgrwt>
</event>
<event>
 4    5  0.8511149E-008  0.8467815E+03  0.7818608E-02  0.9617523E-01
         -2   -1    0    0    0  501 -0.00000000000E+00  0.00000000000E+00  0.11527942221E+04  0.11527942221E+04  0.25500000000E-02 0.  1.
          2   -1    0    0  501    0  0.00000000000E+00 -0.00000000000E+00 -0.19221603252E+04  0.19221603252E+04  0.25500000000E-02 0. -1.
    8880023    1    1    2    0    0  0.47396313318E+03  0.24204899958E+03  0.94765006897E+03  0.12708578321E+04  0.65864270000E+03 0.  1.
    8880022    1    1    2    0    0 -0.47396313318E+03 -0.24204899958E+03 -0.17170161721E+04  0.18040967153E+04  0.15294330000E+03 0.  0.
<mgrwt>
<rscale>  0 0.76147153E+03</rscale>
<asrwt>0</asrwt>
<pdfrwt beam="1">  1        2 0.29571697E+00 0.84678154E+03</pdfrwt>
<pdfrwt beam="2">  1       -2 0.17735296E+00 0.84678154E+03</pdfrwt>
<totfact> 0.14251351E+00</totfact>
</mgrwt>
</event>
<event>
 4    5  0.8511149E-008  0.2463451E+04  0.7818608E-02  0.8423951E-01
          2   -1    0    0  501    0  0.00000000000E+00  0.00000000000E+00  0.27318576449E+04  0.27318576449E+04  0.25500000000E-02 0. -1.
         -2   -1    0    0    0  501 -0.00000000000E+00 -0.00000000000E+00 -0.25190692701E+04  0.25190692701E+04  0.25500000000E-02 0.  1.
    8880023    1    1    2    0    0 -0.23605733858E+04  0.24994689401E+03 -0.90274447704E+03  0.26236497397E+04  0.65864270000E+03 0.  0.
    8880022    1    1    2    0    0  0.23605733858E+04 -0.24994689401E+03  0.11155328519E+04  0.26272771753E+04  0.15294330000E+03 0.  0.
<mgrwt>
<rscale>  0 0.24419820E+04</rscale>
<asrwt>0</asrwt>
<pdfrwt beam="1">  1        2 0.42028579E+00 0.24634509E+04</pdfrwt>
<pdfrwt beam="2">  1       -2 0.38754912E+00 0.24634509E+04</pdfrwt>
<totfact> 0.19123930E-02</totfact>
</mgrwt>
</event>
<event>
 4    5  0.1002323E-007  0.9322514E+03  0.7818608E-02  0.9476124E-01
         -2   -1    0    0    0  501 -0.00000000000E+00  0.00000000000E+00  0.21752350622E+04  0.21752350622E+04  0.25500000000E-02 0.  1.
          2   -1    0    0  501    0  0.00000000000E+00 -0.00000000000E+00 -0.14367010712E+04  0.14367010712E+04  0.25500000000E-02 0. -1.
    8880023    1    1    2    0    0  0.65975912701E+03 -0.66658659475E+00  0.19851943139E+04  0.21931915603E+04  0.65864270000E+03 0.  1.
    8880022    1    1    2    0    0 -0.65975912701E+03  0.66658659475E+00 -0.12466603229E+04  0.14187445731E+04  0.15294330000E+03 0.  0.
<mgrwt>
<rscale>  0 0.86067232E+03</rscale>
<asrwt>0</asrwt>
<pdfrwt beam="1">  1        2 0.22103093E+00 0.93225144E+03</pdfrwt>
<pdfrwt beam="2">  1       -2 0.33465155E+00 0.93225144E+03</pdfrwt>
<totfact> 0.27382193E-01</totfact>
</mgrwt>
</event>
<event>
 4    5  0.8511149E-008  0.8934561E+03  0.7818608E-02  0.9536619E-01
          2   -1    0    0  501    0  0.00000000000E+00  0.00000000000E+00  0.40126020854E+04  0.40126020854E+04  0.25500000000E-02 0. -1.
         -2   -1    0    0    0  501 -0.00000000000E+00 -0.00000000000E+00 -0.20557275466E+03  0.20557275467E+03  0.25500000000E-02 0.  1.
    8880023    1    1    2    0    0  0.37339908609E+03 -0.47436985631E+03  0.99182192835E+03  0.13349062072E+04  0.65864270000E+03 0.  0.
    8880022    1    1    2    0    0 -0.37339908609E+03  0.47436985631E+03  0.28152074024E+04  0.28832686330E+04  0.15294330000E+03 0.  0.
<mgrwt>
<rscale>  0 0.81637038E+03</rscale>
<asrwt>0</asrwt>
<pdfrwt beam="1">  1        2 0.61732342E+00 0.89345612E+03</pdfrwt>
<pdfrwt beam="2">  1       -2 0.31626577E-01 0.89345612E+03</pdfrwt>
<totfact> 0.33348405E+00</totfact>
</mgrwt>
</event>
<event>
 4    5  0.8511149E-008  0.6719673E+03  0.7818608E-02  0.1014290E+00
          2   -1    0    0  501    0  0.00000000000E+00  0.00000000000E+00  0.28423728050E+04  0.28423728050E+04  0.25500000000E-02 0. -1.
         -2   -1    0    0    0  501 -0.00000000000E+00 -0.00000000000E+00 -0.79190278714E+03  0.79190278714E+03  0.25500000000E-02 0.  1.
    8880023    1    1    2    0    0 -0.11000286068E+03 -0.75027779534E+02 -0.64485603911E+03  0.93133201089E+03  0.65864270000E+03 0.  1.
    8880022    1    1    2    0    0  0.11000286068E+03  0.75027779534E+02  0.26953260569E+04  0.27029435812E+04  0.15294330000E+03 0.  0.
<mgrwt>
<rscale>  0 0.49804621E+03</rscale>
<asrwt>0</asrwt>
<pdfrwt beam="1">  1        2 0.43728812E+00 0.67196726E+03</pdfrwt>
<pdfrwt beam="2">  1       -2 0.12183120E+00 0.67196726E+03</pdfrwt>
<totfact> 0.12055485E+00</totfact>
</mgrwt>
</event>
<event>
 4    5  0.8511149E-008  0.1232852E+04  0.7818608E-02  0.9125831E-01
          2   -1    0    0  501    0  0.00000000000E+00  0.00000000000E+00  0.31141668140E+04  0.31141668140E+04  0.25500000000E-02 0. -1.
         -2   -1    0    0    0  501 -0.00000000000E+00 -0.00000000000E+00 -0.94930700718E+03  0.94930700718E+03  0.25500000000E-02 0.  1.
    8880023    1    1    2    0    0  0.73579287637E+03 -0.73805391154E+03  0.26356355862E+04  0.29097250527E+04  0.65864270000E+03 0. -1.
    8880022    1    1    2    0    0 -0.73579287637E+03  0.73805391154E+03 -0.47077577933E+03  0.11537487684E+04  0.15294330000E+03 0.  0.
<mgrwt>
<rscale>  0 0.11852897E+04</rscale>
<asrwt>0</asrwt>
<pdfrwt beam="1">  1        2 0.47910259E+00 0.12328524E+04</pdfrwt>
<pdfrwt beam="2">  1       -2 0.14604723E+00 0.12328524E+04</pdfrwt>
<totfact> 0.46556313E-01</totfact>
</mgrwt>
</event>
<event>
 4    5  0.8511149E-008  0.7820802E+03  0.7818608E-02  0.9750973E-01
          2   -1    0    0  501    0  0.00000000000E+00  0.00000000000E+00  0.10721923833E+04  0.10721923833E+04  0.25500000000E-02 0. -1.
         -2   -1    0    0    0  501 -0.00000000000E+00 -0.00000000000E+00 -0.86314056088E+03  0.86314056088E+03  0.25500000000E-02 0.  1.
    8880023    1    1    2    0    0 -0.31236444367E+03  0.28331539602E+03 -0.61644934142E+03  0.99582084538E+03  0.65864270000E+03 0.  0.
    8880022    1    1    2    0    0  0.31236444367E+03 -0.28331539602E+03  0.82550116379E+03  0.93951209877E+03  0.15294330000E+03 0.  0.
<mgrwt>
<rscale>  0 0.68061303E+03</rscale>
<asrwt>0</asrwt>
<pdfrwt beam="1">  1        2 0.16495267E+00 0.78208015E+03</pdfrwt>
<pdfrwt beam="2">  1       -2 0.13279086E+00 0.78208015E+03</pdfrwt>
<totfact> 0.94635145E+00</totfact>
</mgrwt>
</event>
<event>
 4    5  0.8511149E-008  0.8825694E+03  0.7818608E-02  0.9554613E-01
          2   -1    0    0  501    0  0.00000000000E+00  0.00000000000E+00  0.11060650182E+04  0.11060650182E+04  0.25500000000E-02 0. -1.
         -2   -1    0    0    0  501 -0.00000000000E+00 -0.00000000000E+00 -0.74051178452E+03  0.74051178453E+03  0.25500000000E-02 0.  1.
    8880023    1    1    2    0    0 -0.17769115479E+03 -0.55995029001E+03 -0.31270786784E+03  0.93633054561E+03  0.65864270000E+03 0.  1.
    8880022    1    1    2    0    0  0.17769115479E+03  0.55995029001E+03  0.67826110156E+03  0.91024625716E+03  0.15294330000E+03 0.  0.
<mgrwt>
<rscale>  0 0.80374413E+03</rscale>
<asrwt>0</asrwt>
<pdfrwt beam="1">  1        2 0.17016385E+00 0.88256936E+03</pdfrwt>
<pdfrwt beam="2">  1       -2 0.11392489E+00 0.88256936E+03</pdfrwt>
<totfact> 0.13081306E+01</totfact>
</mgrwt>
</event>
<event>
 4    5  0.8511149E-008  0.6924561E+03  0.7818608E-02  0.1003006E+00
          2   -1    0    0  501    0  0.00000000000E+00  0.00000000000E+00  0.12905530347E+04  0.12905530347E+04  0.25500000000E-02 0. -1.
         -2   -1    0    0    0  501 -0.00000000000E+00 -0.00000000000E+00 -0.23580685349E+03  0.23580685350E+03  0.25500000000E-02 0.  1.
    8880023    1    1    2    0    0  0.65016006055E+02  0.20361289493E+03  0.35347962964E+03  0.77745954677E+03  0.65864270000E+03 0.  1.
    8880022    1    1    2    0    0 -0.65016006055E+02 -0.20361289493E+03  0.70126655155E+03  0.74890034141E+03  0.15294330000E+03 0.  1.
<mgrwt>
<rscale>  0 0.54351413E+03</rscale>
<asrwt>0</asrwt>
<pdfrwt beam="1">  1        2 0.19854662E+00 0.69245613E+03</pdfrwt>
<pdfrwt beam="2">  1       -2 0.36277977E-01 0.69245613E+03</pdfrwt>
<totfact> 0.12208396E+02</totfact>
</mgrwt>
</event>
<event>
 4    5  0.8511149E-008  0.7092887E+03  0.7818608E-02  0.9960652E-01
         -2   -1    0    0    0  501 -0.00000000000E+00  0.00000000000E+00  0.27728832437E+03  0.27728832438E+03  0.25500000000E-02 0.  1.
          2   -1    0    0  501    0  0.00000000000E+00 -0.00000000000E+00 -0.24636304046E+04  0.24636304046E+04  0.25500000000E-02 0. -1.
    8880023    1    1    2    0    0 -0.33747288907E+02  0.26103908957E+03 -0.20781035142E+03  0.73910461655E+03  0.65864270000E+03 0.  1.
    8880022    1    1    2    0    0  0.33747288907E+02 -0.26103908957E+03 -0.19785317288E+04  0.20018141124E+04  0.15294330000E+03 0.  0.
<mgrwt>
<rscale>  0 0.57409772E+03</rscale>
<asrwt>0</asrwt>
<pdfrwt beam="1">  1        2 0.37902005E+00 0.70928872E+03</pdfrwt>
<pdfrwt beam="2">  1       -2 0.42659744E-01 0.70928872E+03</pdfrwt>
<totfact> 0.20014947E+01</totfact>
</mgrwt>
</event>
<event>
 4    5  0.8511149E-008  0.1302081E+04  0.7818608E-02  0.9063765E-01
          2   -1    0    0  501    0  0.00000000000E+00  0.00000000000E+00  0.29464504593E+04  0.29464504593E+04  0.25500000000E-02 0. -1.
         -2   -1    0    0    0  501 -0.00000000000E+00 -0.00000000000E+00 -0.69007184087E+03  0.69007184088E+03  0.25500000000E-02 0.  1.
    8880023    1    1    2    0    0 -0.10667532533E+04 -0.35162957159E+03  0.24096835990E+03  0.13241910042E+04  0.65864270000E+03 0.  0.
    8880022    1    1    2    0    0  0.10667532533E+04  0.35162957159E+03  0.20154102585E+04  0.23123312959E+04  0.15294330000E+03 0.  0.
<mgrwt>
<rscale>  0 0.12577415E+04</rscale>
<asrwt>0</asrwt>
<pdfrwt beam="1">  1        2 0.45330008E+00 0.13020814E+04</pdfrwt>
<pdfrwt beam="2">  1       -2 0.10616490E+00 0.13020814E+04</pdfrwt>
<totfact> 0.13140442E+00</totfact>
</mgrwt>
</event>
<event>
 4    5  0.8511149E-008  0.1142838E+04  0.7818608E-02  0.9214796E-01
         -2   -1    0    0    0  501 -0.00000000000E+00  0.00000000000E+00  0.71975303756E+03  0.71975303756E+03  0.25500000000E-02 0.  1.
          2   -1    0    0  501    0  0.00000000000E+00 -0.00000000000E+00 -0.21405584315E+04  0.21405584315E+04  0.25500000000E-02 0. -1.
    8880023    1    1    2    0    0 -0.62389664288E+03  0.69499667493E+03  0.12313530161E+02  0.11429038579E+04  0.65864270000E+03 0.  1.
    8880022    1    1    2    0    0  0.62389664288E+03 -0.69499667493E+03 -0.14331189241E+04  0.17174076111E+04  0.15294330000E+03 0.  0.
<mgrwt>
<rscale>  0 0.10902001E+04</rscale>
<asrwt>0</asrwt>
<pdfrwt beam="1">  1        2 0.32931668E+00 0.11428375E+04</pdfrwt>
<pdfrwt beam="2">  1       -2 0.11073124E+00 0.11428375E+04</pdfrwt>
<totfact> 0.35499375E+00</totfact>
</mgrwt>
</event>
<event>
 4    5  0.8511149E-008  0.7365312E+03  0.7818608E-02  0.9870169E-01
          2   -1    0    0  501    0  0.00000000000E+00  0.00000000000E+00  0.21884161568E+04  0.21884161568E+04  0.25500000000E-02 0. -1.
         -2   -1    0    0    0  501 -0.00000000000E+00 -0.00000000000E+00 -0.72900639800E+03  0.72900639800E+03  0.25500000000E-02 0.  1.
    8880023    1    1    2    0    0 -0.32851136257E+03  0.27354347091E+02 -0.52213521894E+03  0.90283075311E+03  0.65864270000E+03 0.  1.
    8880022    1    1    2    0    0  0.32851136257E+03 -0.27354347091E+02  0.19815449778E+04  0.20145918017E+04  0.15294330000E+03 0.  0.
<mgrwt>
<rscale>  0 0.61729053E+03</rscale>
<asrwt>0</asrwt>
<pdfrwt beam="1">  1        2 0.33667940E+00 0.73653118E+03</pdfrwt>
<pdfrwt beam="2">  1       -2 0.11215483E+00 0.73653118E+03</pdfrwt>
<totfact> 0.34295496E+00</totfact>
</mgrwt>
</event>
<event>
 4    5  0.8511149E-008  0.8766680E+03  0.7818608E-02  0.9564575E-01
         -2   -1    0    0    0  501 -0.00000000000E+00  0.00000000000E+00  0.35216871137E+03  0.35216871138E+03  0.25500000000E-02 0.  1.
          2   -1    0    0  501    0  0.00000000000E+00 -0.00000000000E+00 -0.29992802522E+04  0.29992802522E+04  0.25500000000E-02 0. -1.
    8880023    1    1    2    0    0  0.28783279560E+03 -0.50188536896E+03 -0.29587613206E+03  0.92525106517E+03  0.65864270000E+03 0.  1.
    8880022    1    1    2    0    0 -0.28783279560E+03  0.50188536896E+03 -0.23512354088E+04  0.24261978984E+04  0.15294330000E+03 0.  0.
<mgrwt>
<rscale>  0 0.79685850E+03</rscale>
<asrwt>0</asrwt>
<pdfrwt beam="1">  1        2 0.46142772E+00 0.87666804E+03</pdfrwt>
<pdfrwt beam="2">  1       -2 0.54179804E-01 0.87666804E+03</pdfrwt>
<totfact> 0.58258420E+00</totfact>
</mgrwt>
</event>
<event>
 4    5  0.8511149E-008  0.7379815E+03  0.7818608E-02  0.9865866E-01
         -2   -1    0    0    0  501 -0.00000000000E+00  0.00000000000E+00  0.18951560483E+03  0.18951560485E+03  0.25500000000E-02 0.  1.
          2   -1    0    0  501    0  0.00000000000E+00 -0.00000000000E+00 -0.26254733965E+04  0.26254733965E+04  0.25500000000E-02 0. -1.
    8880023    1    1    2    0    0  0.21705415732E+03 -0.25237668091E+03 -0.62418586703E+03  0.96655299862E+03  0.65864270000E+03 0.  1.
    8880022    1    1    2    0    0 -0.21705415732E+03  0.25237668091E+03 -0.18117719247E+04  0.18484360027E+04  0.15294330000E+03 0.  0.
<mgrwt>
<rscale>  0 0.61944453E+03</rscale>
<asrwt>0</asrwt>
<pdfrwt beam="1">  1        2 0.40391896E+00 0.73798151E+03</pdfrwt>
<pdfrwt beam="2">  1       -2 0.29156249E-01 0.73798151E+03</pdfrwt>
<totfact> 0.33303711E+01</totfact>
</mgrwt>
</event>
<event>
 4    5  0.8511149E-008  0.1656708E+04  0.7818608E-02  0.8806238E-01
         -2   -1    0    0    0  501 -0.00000000000E+00  0.00000000000E+00  0.13280046703E+04  0.13280046703E+04  0.25500000000E-02 0.  1.
          2   -1    0    0  501    0  0.00000000000E+00 -0.00000000000E+00 -0.27899718050E+04  0.27899718050E+04  0.25500000000E-02 0. -1.
    8880023    1    1    2    0    0 -0.15193280303E+04  0.50141588459E+02 -0.19075035318E+04  0.25265098006E+04  0.65864270000E+03 0.  0.
    8880022    1    1    2    0    0  0.15193280303E+04 -0.50141588459E+02  0.44553639708E+03  0.15914666747E+04  0.15294330000E+03 0.  0.
<mgrwt>
<rscale>  0 0.16235036E+04</rscale>
<asrwt>0</asrwt>
<pdfrwt beam="1">  1        2 0.42922643E+00 0.16567082E+04</pdfrwt>
<pdfrwt beam="2">  1       -2 0.20430841E+00 0.16567082E+04</pdfrwt>
<totfact> 0.27013984E-01</totfact>
</mgrwt>
</event>
<event>
 4    5  0.8511149E-008  0.8468145E+03  0.7818608E-02  0.9617462E-01
          2   -1    0    0  501    0  0.00000000000E+00  0.00000000000E+00  0.11117065951E+04  0.11117065951E+04  0.25500000000E-02 0. -1.
         -2   -1    0    0    0  501 -0.00000000000E+00 -0.00000000000E+00 -0.59748539306E+03  0.59748539307E+03  0.25500000000E-02 0.  1.
    8880023    1    1    2    0    0  0.11351567844E+03  0.51999884008E+03 -0.13320958304E+03  0.85722785898E+03  0.65864270000E+03 0.  1.
    8880022    1    1    2    0    0 -0.11351567844E+03 -0.51999884008E+03  0.64743078506E+03  0.85196412917E+03  0.15294330000E+03 0.  0.
<mgrwt>
<rscale>  0 0.76151110E+03</rscale>
<asrwt>0</asrwt>
<pdfrwt beam="1">  1        2 0.17103178E+00 0.84681451E+03</pdfrwt>
<pdfrwt beam="2">  1       -2 0.91920831E-01 0.84681451E+03</pdfrwt>
<totfact> 0.21735324E+01</totfact>
</mgrwt>
</event>
<event>
 4    5  0.1176496E-007  0.7719027E+03  0.7818608E-02  0.9775213E-01
         -2   -1    0    0    0  501 -0.00000000000E+00  0.00000000000E+00  0.21179669547E+04  0.21179669547E+04  0.25500000000E-02 0.  1.
          2   -1    0    0  501    0  0.00000000000E+00 -0.00000000000E+00 -0.18690911736E+04  0.18690911736E+04  0.25500000000E-02 0. -1.
    8880023    1    1    2    0    0  0.23843600237E+03  0.32430198818E+03  0.20209871261E+04  0.21633822309E+04  0.65864270000E+03 0.  1.
    8880022    1    1    2    0    0 -0.23843600237E+03 -0.32430198818E+03 -0.17721113450E+04  0.18236758974E+04  0.15294330000E+03 0.  0.
<mgrwt>
<rscale>  0 0.66709864E+03</rscale>
<asrwt>0</asrwt>
<pdfrwt beam="1">  1        2 0.28755249E+00 0.77190266E+03</pdfrwt>
<pdfrwt beam="2">  1       -2 0.32584107E+00 0.77190266E+03</pdfrwt>
<totfact> 0.18517102E-01</totfact>
</mgrwt>
</event>
<event>
 4    5  0.8511149E-008  0.9542301E+03  0.7818608E-02  0.9444054E-01
          2   -1    0    0  501    0  0.00000000000E+00  0.00000000000E+00  0.34758229198E+04  0.34758229198E+04  0.25500000000E-02 0. -1.
         -2   -1    0    0    0  501 -0.00000000000E+00 -0.00000000000E+00 -0.23669822745E+03  0.23669822747E+03  0.25500000000E-02 0.  1.
    8880023    1    1    2    0    0  0.67187628169E+03  0.15914501926E+03  0.10831798643E+04  0.14435489946E+04  0.65864270000E+03 0.  1.
    8880022    1    1    2    0    0 -0.67187628169E+03 -0.15914501926E+03  0.21559448280E+04  0.22689721527E+04  0.15294330000E+03 0.  0.
<mgrwt>
<rscale>  0 0.88537225E+03</rscale>
<asrwt>0</asrwt>
<pdfrwt beam="1">  1        2 0.53474201E+00 0.95423010E+03</pdfrwt>
<pdfrwt beam="2">  1       -2 0.36415110E-01 0.95423010E+03</pdfrwt>
<totfact> 0.62599771E+00</totfact>
</mgrwt>
</event>
<event>
 4    5  0.8511149E-008  0.6882416E+03  0.7818608E-02  0.1005000E+00
         -2   -1    0    0    0  501 -0.00000000000E+00  0.00000000000E+00  0.91831482575E+02  0.91831482610E+02  0.25500000000E-02 0.  1.
          2   -1    0    0  501    0  0.00000000000E+00 -0.00000000000E+00 -0.39984856940E+04  0.39984856940E+04  0.25500000000E-02 0. -1.
    8880023    1    1    2    0    0  0.19966512481E+03 -0.43486921250E+00 -0.12945270132E+04  0.14661093906E+04  0.65864270000E+03 0.  1.
    8880022    1    1    2    0    0 -0.19966512481E+03  0.43486921250E+00 -0.26121271982E+04  0.26242077860E+04  0.15294330000E+03 0.  0.
<mgrwt>
<rscale>  0 0.53511256E+03</rscale>
<asrwt>0</asrwt>
<pdfrwt beam="1">  1        2 0.61515151E+00 0.68824164E+03</pdfrwt>
<pdfrwt beam="2">  1       -2 0.14127924E-01 0.68824164E+03</pdfrwt>
<totfact> 0.14825941E+01</totfact>
</mgrwt>
</event>
<event>
 4    5  0.8511149E-008  0.1283385E+04  0.7818608E-02  0.9080043E-01
          2   -1    0    0  501    0  0.00000000000E+00  0.00000000000E+00  0.37323366685E+04  0.37323366685E+04  0.25500000000E-02 0. -1.
         -2   -1    0    0    0  501 -0.00000000000E+00 -0.00000000000E+00 -0.72911464459E+03  0.72911464460E+03  0.25500000000E-02 0.  1.
    8880023    1    1    2    0    0  0.26609546559E+02 -0.11011621969E+04  0.26356368104E+02  0.12836553729E+04  0.65864270000E+03 0.  0.
    8880022    1    1    2    0    0 -0.26609546559E+02  0.11011621969E+04  0.29768656558E+04  0.31777959402E+04  0.15294330000E+03 0.  0.
<mgrwt>
<rscale>  0 0.12382230E+04</rscale>
<asrwt>0</asrwt>
<pdfrwt beam="1">  1        2 0.57420565E+00 0.12833848E+04</pdfrwt>
<pdfrwt beam="2">  1       -2 0.11217148E+00 0.12833848E+04</pdfrwt>
<totfact> 0.34315709E-01</totfact>
</mgrwt>
</event>
<event>
 4    5  0.8511149E-008  0.1270492E+04  0.7818608E-02  0.9091470E-01
          2   -1    0    0  501    0  0.00000000000E+00  0.00000000000E+00  0.21487646298E+04  0.21487646298E+04  0.25500000000E-02 0. -1.
         -2   -1    0    0    0  501 -0.00000000000E+00 -0.00000000000E+00 -0.86653087019E+03  0.86653087020E+03  0.25500000000E-02 0.  1.
    8880023    1    1    2    0    0 -0.32814524460E+03 -0.10356936188E+04 -0.71844182507E+02  0.12725220495E+04  0.65864270000E+03 0.  0.
    8880022    1    1    2    0    0  0.32814524460E+03  0.10356936188E+04  0.13540779421E+04  0.17427734505E+04  0.15294330000E+03 0.  0.
<mgrwt>
<rscale>  0 0.12247439E+04</rscale>
<asrwt>0</asrwt>
<pdfrwt beam="1">  1        2 0.33057917E+00 0.12704923E+04</pdfrwt>
<pdfrwt beam="2">  1       -2 0.13331244E+00 0.12704923E+04</pdfrwt>
<totfact> 0.21766031E+00</totfact>
</mgrwt>
</event>
<event>
 4    5  0.8511149E-008  0.6592451E+03  0.7818608E-02  0.1024943E+00
         -2   -1    0    0    0  501 -0.00000000000E+00  0.00000000000E+00  0.73930896552E+03  0.73930896553E+03  0.25500000000E-02 0.  1.
          2   -1    0    0  501    0  0.00000000000E+00 -0.00000000000E+00 -0.11715162002E+04  0.11715162002E+04  0.25500000000E-02 0. -1.
    8880023    1    1    2    0    0  0.36850867749E+01  0.27935258183E+02  0.58525372176E+03  0.88154755040E+03  0.65864270000E+03 0.  1.
    8880022    1    1    2    0    0 -0.36850867749E+01 -0.27935258183E+02 -0.10174609564E+04  0.10292776153E+04  0.15294330000E+03 0.  0.
<mgrwt>
<rscale>  0 0.45944110E+03</rscale>
<asrwt>0</asrwt>
<pdfrwt beam="1">  1        2 0.18023326E+00 0.65924515E+03</pdfrwt>
<pdfrwt beam="2">  1       -2 0.11373984E+00 0.65924515E+03</pdfrwt>
<totfact> 0.12306818E+01</totfact>
</mgrwt>
</event>
<event>
 4    5  0.8511149E-008  0.6710460E+03  0.7818608E-02  0.1014924E+00
         -2   -1    0    0    0  501 -0.00000000000E+00  0.00000000000E+00  0.36521639252E+03  0.36521639253E+03  0.25500000000E-02 0.  1.
          2   -1    0    0  501    0  0.00000000000E+00 -0.00000000000E+00 -0.30229249153E+04  0.30229249153E+04  0.25500000000E-02 0. -1.
    8880023    1    1    2    0    0  0.49982143541E+01  0.12832619408E+03  0.50160112584E+02  0.67291815059E+03  0.65864270000E+03 0.  1.
    8880022    1    1    2    0    0 -0.49982143541E+01 -0.12832619408E+03 -0.27078686354E+04  0.27152231573E+04  0.15294330000E+03 0.  0.
<mgrwt>
<rscale>  0 0.49563780E+03</rscale>
<asrwt>0</asrwt>
<pdfrwt beam="1">  1        2 0.46506535E+00 0.67104605E+03</pdfrwt>
<pdfrwt beam="2">  1       -2 0.56187139E-01 0.67104605E+03</pdfrwt>
<totfact> 0.54289587E+00</totfact>
</mgrwt>
</event>
<event>
 4    5  0.8511149E-008  0.9041901E+03  0.7818608E-02  0.9519338E-01
         -2   -1    0    0    0  501 -0.00000000000E+00  0.00000000000E+00  0.54757943596E+03  0.54757943596E+03  0.25500000000E-02 0.  1.
          2   -1    0    0  501    0  0.00000000000E+00 -0.00000000000E+00 -0.13945680316E+04  0.13945680316E+04  0.25500000000E-02 0. -1.
    8880023    1    1    2    0    0 -0.15883787842E+02 -0.61927151577E+03 -0.28908214821E+02  0.90465208567E+03  0.65864270000E+03 0.  0.
    8880022    1    1    2    0    0  0.15883787842E+02  0.61927151577E+03 -0.81808038083E+03  0.10374953819E+04  0.15294330000E+03 0.  0.
<mgrwt>
<rscale>  0 0.82872975E+03</rscale>
<asrwt>0</asrwt>
<pdfrwt beam="1">  1        2 0.21454893E+00 0.90419009E+03</pdfrwt>
<pdfrwt beam="2">  1       -2 0.84242991E-01 0.90419009E+03</pdfrwt>
<totfact> 0.18015369E+01</totfact>
</mgrwt>
</event>
<event>
 4    5  0.8511149E-008  0.1155230E+04  0.7818608E-02  0.9201921E-01
         -2   -1    0    0    0  501 -0.00000000000E+00  0.00000000000E+00  0.20012384395E+04  0.20012384395E+04  0.25500000000E-02 0.  1.
          2   -1    0    0  501    0  0.00000000000E+00 -0.00000000000E+00 -0.71842238538E+03  0.71842238539E+03  0.25500000000E-02 0. -1.
    8880023    1    1    2    0    0 -0.77327361958E+03  0.55026640134E+03  0.13244034856E+04  0.17574413225E+04  0.65864270000E+03 0.  0.
    8880022    1    1    2    0    0  0.77327361958E+03 -0.55026640134E+03 -0.41587431517E+02  0.96221950233E+03  0.15294330000E+03 0.  0.
<mgrwt>
<rscale>  0 0.11033626E+04</rscale>
<asrwt>0</asrwt>
<pdfrwt beam="1">  1        2 0.11052652E+00 0.11552296E+04</pdfrwt>
<pdfrwt beam="2">  1       -2 0.30788283E+00 0.11552296E+04</pdfrwt>
<totfact> 0.11130268E+00</totfact>
</mgrwt>
</event>
<event>
 4    5  0.8511149E-008  0.1492067E+04  0.7818608E-02  0.8915258E-01
          2   -1    0    0  501    0  0.00000000000E+00  0.00000000000E+00  0.17555860966E+04  0.17555860966E+04  0.25500000000E-02 0. -1.
         -2   -1    0    0    0  501 -0.00000000000E+00 -0.00000000000E+00 -0.18914930752E+04  0.18914930752E+04  0.25500000000E-02 0.  1.
    8880023    1    1    2    0    0 -0.45131817620E+03  0.12604630191E+04  0.10721398530E+04  0.18373211993E+04  0.65864270000E+03 0.  0.
    8880022    1    1    2    0    0  0.45131817620E+03 -0.12604630191E+04 -0.12080468315E+04  0.18097579725E+04  0.15294330000E+03 0.  0.
<mgrwt>
<rscale>  0 0.14545419E+04</rscale>
<asrwt>0</asrwt>
<pdfrwt beam="1">  1        2 0.27009017E+00 0.14920675E+04</pdfrwt>
<pdfrwt beam="2">  1       -2 0.29099893E+00 0.14920675E+04</pdfrwt>
<totfact> 0.30962406E-01</totfact>
</mgrwt>
</event>
<event>
 4    5  0.8511149E-008  0.9426817E+03  0.7818608E-02  0.9460723E-01
         -2   -1    0    0    0  501 -0.00000000000E+00  0.00000000000E+00  0.66543782261E+03  0.66543782261E+03  0.25500000000E-02 0.  1.
          2   -1    0    0  501    0  0.00000000000E+00 -0.00000000000E+00 -0.21629194015E+04  0.21629194015E+04  0.25500000000E-02 0. -1.
    8880023    1    1    2    0    0 -0.55216902180E+03  0.38723123914E+03  0.22764994170E+03  0.96978005930E+03  0.65864270000E+03 0.  1.
    8880022    1    1    2    0    0  0.55216902180E+03 -0.38723123914E+03 -0.17251315206E+04  0.18585771648E+04  0.15294330000E+03 0.  0.
<mgrwt>
<rscale>  0 0.87242572E+03</rscale>
<asrwt>0</asrwt>
<pdfrwt beam="1">  1        2 0.33275683E+00 0.94268174E+03</pdfrwt>
<pdfrwt beam="2">  1       -2 0.10237505E+00 0.94268174E+03</pdfrwt>
<totfact> 0.42749125E+00</totfact>
</mgrwt>
</event>
<event>
 4    5  0.8511149E-008  0.8271850E+03  0.7818608E-02  0.9654834E-01
          2   -1    0    0  501    0  0.00000000000E+00  0.00000000000E+00  0.86380049939E+03  0.86380049939E+03  0.25500000000E-02 0. -1.
         -2   -1    0    0    0  501 -0.00000000000E+00 -0.00000000000E+00 -0.79898165718E+03  0.79898165718E+03  0.25500000000E-02 0.  1.
    8880023    1    1    2    0    0  0.15704110553E+02  0.50017819869E+03 -0.43893777814E+03  0.93643015163E+03  0.65864270000E+03 0.  1.
    8880022    1    1    2    0    0 -0.15704110553E+02 -0.50017819869E+03  0.50375662035E+03  0.72635200495E+03  0.15294330000E+03 0.  0.
<mgrwt>
<rscale>  0 0.73770792E+03</rscale>
<asrwt>0</asrwt>
<pdfrwt beam="1">  1        2 0.13289238E+00 0.82718502E+03</pdfrwt>
<pdfrwt beam="2">  1       -2 0.12292025E+00 0.82718502E+03</pdfrwt>
<totfact> 0.15643757E+01</totfact>
</mgrwt>
</event>
<event>
 4    5  0.8511149E-008  0.1723814E+04  0.7818608E-02  0.8765893E-01
         -2   -1    0    0    0  501 -0.00000000000E+00  0.00000000000E+00  0.22447208219E+04  0.22447208219E+04  0.25500000000E-02 0.  1.
          2   -1    0    0  501    0  0.00000000000E+00 -0.00000000000E+00 -0.17633381095E+04  0.17633381095E+04  0.25500000000E-02 0. -1.
    8880023    1    1    2    0    0 -0.14175878074E+04 -0.72675263815E+03  0.13478480138E+04  0.21882022446E+04  0.65864270000E+03 0.  1.
    8880022    1    1    2    0    0  0.14175878074E+04  0.72675263815E+03 -0.86646530134E+03  0.18198566867E+04  0.15294330000E+03 0.  0.
<mgrwt>
<rscale>  0 0.16920822E+04</rscale>
<asrwt>0</asrwt>
<pdfrwt beam="1">  1        2 0.27128279E+00 0.17238140E+04</pdfrwt>
<pdfrwt beam="2">  1       -2 0.34534167E+00 0.17238140E+04</pdfrwt>
<totfact> 0.13794835E-01</totfact>
</mgrwt>
</event>
<event>
 4    5  0.8511149E-008  0.1194451E+04  0.7818608E-02  0.9162536E-01
         -2   -1    0    0    0  501 -0.00000000000E+00  0.00000000000E+00  0.59215642525E+03  0.59215642525E+03  0.25500000000E-02 0.  1.
          2   -1    0    0  501    0  0.00000000000E+00 -0.00000000000E+00 -0.27351197207E+04  0.27351197207E+04  0.25500000000E-02 0. -1.
    8880023    1    1    2    0    0  0.99642459566E+03 -0.63256272460E+01 -0.19708835681E+04  0.23045811407E+04  0.65864270000E+03 0. -1.
    8880022    1    1    2    0    0 -0.99642459566E+03  0.63256272460E+01 -0.17207972735E+03  0.10226950053E+04  0.15294330000E+03 0.  0.
<mgrwt>
<rscale>  0 0.11448631E+04</rscale>
<asrwt>0</asrwt>
<pdfrwt beam="1">  1        2 0.42078764E+00 0.11944506E+04</pdfrwt>
<pdfrwt beam="2">  1       -2 0.91100990E-01 0.11944506E+04</pdfrwt>
<totfact> 0.25695346E+00</totfact>
</mgrwt>
</event>
<event>
 4    5  0.8511149E-008  0.7484066E+03  0.7818608E-02  0.9836103E-01
          2   -1    0    0  501    0  0.00000000000E+00  0.00000000000E+00  0.44519171399E+03  0.44519171400E+03  0.25500000000E-02 0. -1.
         -2   -1    0    0    0  501 -0.00000000000E+00 -0.00000000000E+00 -0.16603195424E+04  0.16603195424E+04  0.25500000000E-02 0.  1.
    8880023    1    1    2    0    0  0.16777894328E+03 -0.31329294442E+03 -0.14648887371E+04  0.16449958849E+04  0.65864270000E+03 0.  0.
    8880022    1    1    2    0    0 -0.16777894328E+03  0.31329294442E+03  0.24976090875E+03  0.46051537150E+03  0.15294330000E+03 0.  0.
<mgrwt>
<rscale>  0 0.63460534E+03</rscale>
<asrwt>0</asrwt>
<pdfrwt beam="1">  1        2 0.68491034E-01 0.74840661E+03</pdfrwt>
<pdfrwt beam="2">  1       -2 0.25543377E+00 0.74840661E+03</pdfrwt>
<totfact> 0.43163621E+00</totfact>
</mgrwt>
</event>
<event>
 4    5  0.8511149E-008  0.9076892E+03  0.7818608E-02  0.9513799E-01
         -2   -1    0    0    0  501 -0.00000000000E+00  0.00000000000E+00  0.44090589432E+03  0.44090589433E+03  0.25500000000E-02 0.  1.
          2   -1    0    0  501    0  0.00000000000E+00 -0.00000000000E+00 -0.20883577684E+04  0.20883577684E+04  0.25500000000E-02 0. -1.
    8880023    1    1    2    0    0  0.10679000003E+03  0.61537423523E+03 -0.17758519318E+03  0.92489797307E+03  0.65864270000E+03 0.  0.
    8880022    1    1    2    0    0 -0.10679000003E+03 -0.61537423523E+03 -0.14698666809E+04  0.16043656896E+04  0.15294330000E+03 0.  0.
<mgrwt>
<rscale>  0 0.83274084E+03</rscale>
<asrwt>0</asrwt>
<pdfrwt beam="1">  1        2 0.32128580E+00 0.90768924E+03</pdfrwt>
<pdfrwt beam="2">  1       -2 0.67831678E-01 0.90768924E+03</pdfrwt>
<totfact> 0.12055705E+01</totfact>
</mgrwt>
</event>
<event>
 4    5  0.8511149E-008  0.1278421E+04  0.7818608E-02  0.9084422E-01
         -2   -1    0    0    0  501 -0.00000000000E+00  0.00000000000E+00  0.94015214427E+03  0.94015214427E+03  0.25500000000E-02 0.  1.
          2   -1    0    0  501    0  0.00000000000E+00 -0.00000000000E+00 -0.31707923104E+04  0.31707923104E+04  0.25500000000E-02 0. -1.
    8880023    1    1    2    0    0  0.38844695957E+03  0.10245284332E+04  0.33103296775E+03  0.13205841824E+04  0.65864270000E+03 0.  0.
    8880022    1    1    2    0    0 -0.38844695957E+03 -0.10245284332E+04 -0.25616731339E+04  0.27903602722E+04  0.15294330000E+03 0.  0.
<mgrwt>
<rscale>  0 0.12330351E+04</rscale>
<asrwt>0</asrwt>
<pdfrwt beam="1">  1        2 0.48781420E+00 0.12784208E+04</pdfrwt>
<pdfrwt beam="2">  1       -2 0.14463879E+00 0.12784208E+04</pdfrwt>
<totfact> 0.43669681E-01</totfact>
</mgrwt>
</event>
<event>
 4    5  0.8511149E-008  0.8795644E+03  0.7818608E-02  0.9559667E-01
         -2   -1    0    0    0  501 -0.00000000000E+00  0.00000000000E+00  0.45627424205E+03  0.45627424206E+03  0.25500000000E-02 0.  1.
          2   -1    0    0  501    0  0.00000000000E+00 -0.00000000000E+00 -0.14181979217E+04  0.14181979217E+04  0.25500000000E-02 0. -1.
    8880023    1    1    2    0    0  0.56746259392E+03 -0.13345238336E+03 -0.19824139852E+03  0.90162807879E+03  0.65864270000E+03 0.  0.
    8880022    1    1    2    0    0 -0.56746259392E+03  0.13345238336E+03 -0.76368228111E+03  0.97284408495E+03  0.15294330000E+03 0.  0.
<mgrwt>
<rscale>  0 0.80024175E+03</rscale>
<asrwt>0</asrwt>
<pdfrwt beam="1">  1        2 0.21818429E+00 0.87956440E+03</pdfrwt>
<pdfrwt beam="2">  1       -2 0.70196038E-01 0.87956440E+03</pdfrwt>
<totfact> 0.26319612E+01</totfact>
</mgrwt>
</event>
<event>
 4    5  0.8511149E-008  0.7013130E+03  0.7818608E-02  0.9991797E-01
          2   -1    0    0  501    0  0.00000000000E+00  0.00000000000E+00  0.54715710240E+03  0.54715710240E+03  0.25500000000E-02 0. -1.
         -2   -1    0    0    0  501 -0.00000000000E+00 -0.00000000000E+00 -0.78942094142E+03  0.78942094142E+03  0.25500000000E-02 0.  1.
    8880023    1    1    2    0    0 -0.13742657399E+03 -0.19784749625E+03 -0.56876650537E+03  0.90295915683E+03  0.65864270000E+03 0.  1.
    8880022    1    1    2    0    0  0.13742657399E+03  0.19784749625E+03  0.32650266635E+03  0.43361888699E+03  0.15294330000E+03 0.  0.
<mgrwt>
<rscale>  0 0.56011370E+03</rscale>
<asrwt>0</asrwt>
<pdfrwt beam="1">  1        2 0.84178016E-01 0.70131298E+03</pdfrwt>
<pdfrwt beam="2">  1       -2 0.12144938E+00 0.70131298E+03</pdfrwt>
<totfact> 0.29021291E+01</totfact>
</mgrwt>
</event>
<event>
 4    5  0.8511149E-008  0.7638756E+03  0.7818608E-02  0.9795175E-01
          2   -1    0    0  501    0  0.00000000000E+00  0.00000000000E+00  0.29583631981E+04  0.29583631981E+04  0.25500000000E-02 0. -1.
         -2   -1    0    0    0  501 -0.00000000000E+00 -0.00000000000E+00 -0.28717837688E+03  0.28717837689E+03  0.25500000000E-02 0.  1.
    8880023    1    1    2    0    0 -0.38120535089E+03 -0.66168022347E+02  0.27247064551E+03  0.81101552738E+03  0.65864270000E+03 0.  1.
    8880022    1    1    2    0    0  0.38120535089E+03  0.66168022347E+02  0.23987141757E+04  0.24345260476E+04  0.15294330000E+03 0.  0.
<mgrwt>
<rscale>  0 0.65622104E+03</rscale>
<asrwt>0</asrwt>
<pdfrwt beam="1">  1        2 0.45513279E+00 0.76387560E+03</pdfrwt>
<pdfrwt beam="2">  1       -2 0.44181289E-01 0.76387560E+03</pdfrwt>
<totfact> 0.95164192E+00</totfact>
</mgrwt>
</event>
<event>
 4    5  0.8511149E-008  0.1092183E+04  0.7818608E-02  0.9269810E-01
         -2   -1    0    0    0  501 -0.00000000000E+00  0.00000000000E+00  0.69453971890E+03  0.69453971891E+03  0.25500000000E-02 0.  1.
          2   -1    0    0  501    0  0.00000000000E+00 -0.00000000000E+00 -0.16172557280E+04  0.16172557280E+04  0.25500000000E-02 0. -1.
    8880023    1    1    2    0    0 -0.85823307948E+03 -0.14996324092E+03 -0.91875750894E+03  0.14272275778E+04  0.65864270000E+03 0. -1.
    8880022    1    1    2    0    0  0.85823307948E+03  0.14996324092E+03 -0.39585001684E+01  0.88456786912E+03  0.15294330000E+03 0.  0.
<mgrwt>
<rscale>  0 0.10361036E+04</rscale>
<asrwt>0</asrwt>
<pdfrwt beam="1">  1        2 0.24880857E+00 0.10921828E+04</pdfrwt>
<pdfrwt beam="2">  1       -2 0.10685226E+00 0.10921828E+04</pdfrwt>
<totfact> 0.75831955E+00</totfact>
</mgrwt>
</event>
<event>
 4    5  0.8511149E-008  0.7479637E+03  0.7818608E-02  0.9837328E-01
          2   -1    0    0  501    0  0.00000000000E+00  0.00000000000E+00  0.16004663779E+04  0.16004663779E+04  0.25500000000E-02 0. -1.
         -2   -1    0    0    0  501 -0.00000000000E+00 -0.00000000000E+00 -0.31044338581E+03  0.31044338582E+03  0.25500000000E-02 0.  1.
    8880023    1    1    2    0    0  0.16513648327E+03 -0.31363894838E+03  0.22961158204E+03  0.78241365844E+03  0.65864270000E+03 0.  0.
    8880022    1    1    2    0    0 -0.16513648327E+03  0.31363894838E+03  0.10604114100E+04  0.11284961053E+04  0.15294330000E+03 0.  0.
<mgrwt>
<rscale>  0 0.63397188E+03</rscale>
<asrwt>0</asrwt>
<pdfrwt beam="1">  1        2 0.24622559E+00 0.74796367E+03</pdfrwt>
<pdfrwt beam="2">  1       -2 0.47760522E-01 0.74796367E+03</pdfrwt>
<totfact> 0.47392423E+01</totfact>
</mgrwt>
</event>
<event>
 4    5  0.8511149E-008  0.9039944E+03  0.7818608E-02  0.9519650E-01
         -2   -1    0    0    0  501 -0.00000000000E+00  0.00000000000E+00  0.34268828808E+03  0.34268828809E+03  0.25500000000E-02 0.  1.
          2   -1    0    0  501    0  0.00000000000E+00 -0.00000000000E+00 -0.20635962012E+04  0.20635962012E+04  0.25500000000E-02 0. -1.
    8880023    1    1    2    0    0  0.60338958363E+03  0.13898434216E+03 -0.51065122439E+03  0.10382535896E+04  0.65864270000E+03 0.  0.
    8880022    1    1    2    0    0 -0.60338958363E+03 -0.13898434216E+03 -0.12102566888E+04  0.13680308998E+04  0.15294330000E+03 0.  0.
<mgrwt>
<rscale>  0 0.82850517E+03</rscale>
<asrwt>0</asrwt>
<pdfrwt beam="1">  1        2 0.31747633E+00 0.90399438E+03</pdfrwt>
<pdfrwt beam="2">  1       -2 0.52721276E-01 0.90399438E+03</pdfrwt>
<totfact> 0.21219089E+01</totfact>
</mgrwt>
</event>
<event>
 4    5  0.8511149E-008  0.7154446E+03  0.7818608E-02  0.9938313E-01
          2   -1    0    0  501    0  0.00000000000E+00  0.00000000000E+00  0.73116478805E+03  0.73116478806E+03  0.25500000000E-02 0. -1.
         -2   -1    0    0    0  501 -0.00000000000E+00 -0.00000000000E+00 -0.40132986750E+03  0.40132986751E+03  0.25500000000E-02 0.  1.
    8880023    1    1    2    0    0  0.69304879428E+02 -0.27064286976E+03  0.65216235854E+02  0.71841081071E+03  0.65864270000E+03 0.  0.
    8880022    1    1    2    0    0 -0.69304879428E+02  0.27064286976E+03  0.26461868470E+03  0.41408384486E+03  0.15294330000E+03 0.  0.
<mgrwt>
<rscale>  0 0.58439895E+03</rscale>
<asrwt>0</asrwt>
<pdfrwt beam="1">  1        2 0.11248689E+00 0.71544457E+03</pdfrwt>
<pdfrwt beam="2">  1       -2 0.61743058E-01 0.71544457E+03</pdfrwt>
<totfact> 0.95809839E+01</totfact>
</mgrwt>
</event>
<event>
 4    5  0.8511149E-008  0.1621037E+04  0.7818608E-02  0.8828582E-01
          2   -1    0    0  501    0  0.00000000000E+00  0.00000000000E+00  0.22298293186E+04  0.22298293186E+04  0.25500000000E-02 0. -1.
         -2   -1    0    0    0  501 -0.00000000000E+00 -0.00000000000E+00 -0.14060750027E+04  0.14060750027E+04  0.25500000000E-02 0.  1.
    8880023    1    1    2    0    0  0.14251518093E+04 -0.40359924307E+03 -0.44347133722E+03  0.16806031839E+04  0.65864270000E+03 0.  0.
    8880022    1    1    2    0    0 -0.14251518093E+04  0.40359924307E+03  0.12672256531E+04  0.19553011373E+04  0.15294330000E+03 0.  0.
<mgrwt>
<rscale>  0 0.15869883E+04</rscale>
<asrwt>0</asrwt>
<pdfrwt beam="1">  1        2 0.34305066E+00 0.16210368E+04</pdfrwt>
<pdfrwt beam="2">  1       -2 0.21631923E+00 0.16210368E+04</pdfrwt>
<totfact> 0.48010689E-01</totfact>
</mgrwt>
</event>
<event>
 4    5  0.8511149E-008  0.1305726E+04  0.7818608E-02  0.9060631E-01
         -2   -1    0    0    0  501 -0.00000000000E+00  0.00000000000E+00  0.12596535636E+04  0.12596535636E+04  0.25500000000E-02 0.  1.
          2   -1    0    0  501    0  0.00000000000E+00 -0.00000000000E+00 -0.24629917282E+04  0.24629917282E+04  0.25500000000E-02 0. -1.
    8880023    1    1    2    0    0  0.14839573064E+03 -0.11176265405E+04 -0.19608249952E+04  0.23557918510E+04  0.65864270000E+03 0.  0.
    8880022    1    1    2    0    0 -0.14839573064E+03  0.11176265405E+04  0.75748683069E+03  0.13668534408E+04  0.15294330000E+03 0.  0.
<mgrwt>
<rscale>  0 0.12615425E+04</rscale>
<asrwt>0</asrwt>
<pdfrwt beam="1">  1        2 0.37892180E+00 0.13057261E+04</pdfrwt>
<pdfrwt beam="2">  1       -2 0.19379286E+00 0.13057261E+04</pdfrwt>
<totfact> 0.51423998E-01</totfact>
</mgrwt>
</event>
<event>
 4    5  0.8511149E-008  0.8666871E+03  0.7818608E-02  0.9581777E-01
          2   -1    0    0  501    0  0.00000000000E+00  0.00000000000E+00  0.14945460830E+04  0.14945460830E+04  0.25500000000E-02 0. -1.
         -2   -1    0    0    0  501 -0.00000000000E+00 -0.00000000000E+00 -0.43039427916E+03  0.43039427917E+03  0.25500000000E-02 0.  1.
    8880023    1    1    2    0    0  0.23212040534E+03 -0.51328013345E+03  0.10215506380E+04  0.13396687241E+04  0.65864270000E+03 0.  0.
    8880022    1    1    2    0    0 -0.23212040534E+03  0.51328013345E+03  0.42601165771E+02  0.58527163805E+03  0.15294330000E+03 0.  0.
<mgrwt>
<rscale>  0 0.78514116E+03</rscale>
<asrwt>0</asrwt>
<pdfrwt beam="1">  1        2 0.22993017E+00 0.86668713E+03</pdfrwt>
<pdfrwt beam="2">  1       -2 0.66214504E-01 0.86668713E+03</pdfrwt>
<totfact> 0.27101024E+01</totfact>
</mgrwt>
</event>
<event>
 4    5  0.8511149E-008  0.7995023E+03  0.7818608E-02  0.9711873E-01
          2   -1    0    0  501    0  0.00000000000E+00  0.00000000000E+00  0.93978129153E+03  0.93978129154E+03  0.25500000000E-02 0. -1.
         -2   -1    0    0    0  501 -0.00000000000E+00 -0.00000000000E+00 -0.49412700651E+03  0.49412700652E+03  0.25500000000E-02 0.  1.
    8880023    1    1    2    0    0 -0.20037046109E+03 -0.40650383719E+03  0.29740408182E+02  0.80005524151E+03  0.65864270000E+03 0.  0.
    8880022    1    1    2    0    0  0.20037046109E+03  0.40650383719E+03  0.41591387684E+03  0.63385305654E+03  0.15294330000E+03 0.  0.
<mgrwt>
<rscale>  0 0.70314243E+03</rscale>
<asrwt>0</asrwt>
<pdfrwt beam="1">  1        2 0.14458174E+00 0.79950228E+03</pdfrwt>
<pdfrwt beam="2">  1       -2 0.76019540E-01 0.79950228E+03</pdfrwt>
<totfact> 0.43194525E+01</totfact>
</mgrwt>
</event>
<event>
 4    5  0.8511149E-008  0.7575627E+03  0.7818608E-02  0.9811459E-01
          2   -1    0    0  501    0  0.00000000000E+00  0.00000000000E+00  0.49177108035E+03  0.49177108036E+03  0.25500000000E-02 0. -1.
         -2   -1    0    0    0  501 -0.00000000000E+00 -0.00000000000E+00 -0.91211294796E+03  0.91211294796E+03  0.25500000000E-02 0.  1.
    8880023    1    1    2    0    0  0.35669816201E+03 -0.11339090303E+03 -0.59515163190E+03  0.96338297000E+03  0.65864270000E+03 0.  1.
    8880022    1    1    2    0    0 -0.35669816201E+03  0.11339090303E+03  0.17480976429E+03  0.44050105832E+03  0.15294330000E+03 0.  0.
<mgrwt>
<rscale>  0 0.64751217E+03</rscale>
<asrwt>0</asrwt>
<pdfrwt beam="1">  1        2 0.75657089E-01 0.75756272E+03</pdfrwt>
<pdfrwt beam="2">  1       -2 0.14032507E+00 0.75756272E+03</pdfrwt>
<totfact> 0.22689166E+01</totfact>
</mgrwt>
</event>
<event>
 4    5  0.8511149E-008  0.8573944E+03  0.7818608E-02  0.9598215E-01
          2   -1    0    0  501    0  0.00000000000E+00  0.00000000000E+00  0.56750069465E+03  0.56750069465E+03  0.25500000000E-02 0. -1.
         -2   -1    0    0    0  501 -0.00000000000E+00 -0.00000000000E+00 -0.99038631358E+03  0.99038631358E+03  0.25500000000E-02 0.  1.
    8880023    1    1    2    0    0  0.14311968060E+03  0.52993558554E+03 -0.48436280621E+03  0.98474996933E+03  0.65864270000E+03 0.  1.
    8880022    1    1    2    0    0 -0.14311968060E+03 -0.52993558554E+03  0.61477187276E+02  0.57313703891E+03  0.15294330000E+03 0.  0.
<mgrwt>
<rscale>  0 0.77414423E+03</rscale>
<asrwt>0</asrwt>
<pdfrwt beam="1">  1        2 0.87307799E-01 0.85739441E+03</pdfrwt>
<pdfrwt beam="2">  1       -2 0.15236712E+00 0.85739441E+03</pdfrwt>
<totfact> 0.15313439E+01</totfact>
</mgrwt>
</event>
<event>
 4    5  0.8511149E-008  0.1189561E+04  0.7818608E-02  0.9167337E-01
         -2   -1    0    0    0  501 -0.00000000000E+00  0.00000000000E+00  0.17557960435E+04  0.17557960435E+04  0.25500000000E-02 0.  1.
          2   -1    0    0  501    0  0.00000000000E+00 -0.00000000000E+00 -0.83641720394E+03  0.83641720394E+03  0.25500000000E-02 0. -1.
    8880023    1    1    2    0    0  0.69972679311E+03  0.70116214880E+03 -0.59700850572E+02  0.11910584964E+04  0.65864270000E+03 0.  0.
    8880022    1    1    2    0    0 -0.69972679311E+03 -0.70116214880E+03  0.97907969017E+03  0.14011547511E+04  0.15294330000E+03 0.  0.
<mgrwt>
<rscale>  0 0.11397020E+04</rscale>
<asrwt>0</asrwt>
<pdfrwt beam="1">  1        2 0.12867957E+00 0.11895613E+04</pdfrwt>
<pdfrwt beam="2">  1       -2 0.27012247E+00 0.11895613E+04</pdfrwt>
<totfact> 0.15361354E+00</totfact>
</mgrwt>
</event>
<event>
 4    5  0.8511149E-008  0.6912346E+03  0.7818608E-02  0.1003571E+00
          2   -1    0    0  501    0  0.00000000000E+00  0.00000000000E+00  0.51777038848E+03  0.51777038849E+03  0.25500000000E-02 0. -1.
         -2   -1    0    0    0  501 -0.00000000000E+00 -0.00000000000E+00 -0.10713901165E+04  0.10713901166E+04  0.25500000000E-02 0.  1.
    8880023    1    1    2    0    0  0.10051324542E+03 -0.18409804463E+03 -0.91342207630E+03  0.11454890215E+04  0.65864270000E+03 0.  1.
    8880022    1    1    2    0    0 -0.10051324542E+03  0.18409804463E+03  0.35980234823E+03  0.44367148359E+03  0.15294330000E+03 0.  0.
<mgrwt>
<rscale>  0 0.54111655E+03</rscale>
<asrwt>0</asrwt>
<pdfrwt beam="1">  1        2 0.79656983E-01 0.69123455E+03</pdfrwt>
<pdfrwt beam="2">  1       -2 0.16482925E+00 0.69123455E+03</pdfrwt>
<totfact> 0.14014802E+01</totfact>
</mgrwt>
</event>
<event>
 4    5  0.8511149E-008  0.7619155E+03  0.7818608E-02  0.9800174E-01
          2   -1    0    0  501    0  0.00000000000E+00  0.00000000000E+00  0.11215929011E+04  0.11215929012E+04  0.25500000000E-02 0. -1.
         -2   -1    0    0    0  501 -0.00000000000E+00 -0.00000000000E+00 -0.10478913474E+04  0.10478913474E+04  0.25500000000E-02 0.  1.
    8880023    1    1    2    0    0 -0.28948419184E+03  0.25080645724E+03 -0.85987307949E+03  0.11488676579E+04  0.65864270000E+03 0.  0.
    8880022    1    1    2    0    0  0.28948419184E+03 -0.25080645724E+03  0.93357463322E+03  0.10206165907E+04  0.15294330000E+03 0.  0.
<mgrwt>
<rscale>  0 0.65353230E+03</rscale>
<asrwt>0</asrwt>
<pdfrwt beam="1">  1        2 0.17255275E+00 0.76191547E+03</pdfrwt>
<pdfrwt beam="2">  1       -2 0.16121405E+00 0.76191547E+03</pdfrwt>
<totfact> 0.53146291E+00</totfact>
</mgrwt>
</event>
<event>
 4    5  0.8511149E-008  0.7490658E+03  0.7818608E-02  0.9834285E-01
          2   -1    0    0  501    0  0.00000000000E+00  0.00000000000E+00  0.13184619657E+04  0.13184619657E+04  0.25500000000E-02 0. -1.
         -2   -1    0    0    0  501 -0.00000000000E+00 -0.00000000000E+00 -0.42130947231E+03  0.42130947232E+03  0.25500000000E-02 0.  1.
    8880023    1    1    2    0    0  0.18616436368E+03  0.30435528694E+03 -0.14192881945E+02  0.74920021033E+03  0.65864270000E+03 0.  1.
    8880022    1    1    2    0    0 -0.18616436368E+03 -0.30435528694E+03  0.91134537538E+03  0.99057122774E+03  0.15294330000E+03 0.  0.
<mgrwt>
<rscale>  0 0.63554639E+03</rscale>
<asrwt>0</asrwt>
<pdfrwt beam="1">  1        2 0.20284030E+00 0.74906576E+03</pdfrwt>
<pdfrwt beam="2">  1       -2 0.64816842E-01 0.74906576E+03</pdfrwt>
<totfact> 0.36135186E+01</totfact>
</mgrwt>
</event>
<event>
 4    5  0.8511149E-008  0.1191918E+04  0.7818608E-02  0.9165019E-01
         -2   -1    0    0    0  501 -0.00000000000E+00  0.00000000000E+00  0.90765838888E+03  0.90765838888E+03  0.25500000000E-02 0.  1.
          2   -1    0    0  501    0  0.00000000000E+00 -0.00000000000E+00 -0.26190860103E+04  0.26190860103E+04  0.25500000000E-02 0. -1.
    8880023    1    1    2    0    0 -0.95223266564E+03 -0.28303927044E+03  0.34243303293E+03  0.12401326003E+04  0.65864270000E+03 0.  1.
    8880022    1    1    2    0    0  0.95223266564E+03  0.28303927044E+03 -0.20538606544E+04  0.22866117989E+04  0.15294330000E+03 0.  0.
<mgrwt>
<rscale>  0 0.11421901E+04</rscale>
<asrwt>0</asrwt>
<pdfrwt beam="1">  1        2 0.40293631E+00 0.11919180E+04</pdfrwt>
<pdfrwt beam="2">  1       -2 0.13963975E+00 0.11919180E+04</pdfrwt>
<totfact> 0.10520527E+00</totfact>
</mgrwt>
</event>
<event>
 4    5  0.8511149E-008  0.8510325E+03  0.7818608E-02  0.9609718E-01
         -2   -1    0    0    0  501 -0.00000000000E+00  0.00000000000E+00  0.58057186081E+03  0.58057186082E+03  0.25500000000E-02 0.  1.
          2   -1    0    0  501    0  0.00000000000E+00 -0.00000000000E+00 -0.34025630471E+04  0.34025630471E+04  0.25500000000E-02 0. -1.
    8880023    1    1    2    0    0  0.15415116287E+03  0.51641415335E+03  0.22886617457E+03  0.88126959038E+03  0.65864270000E+03 0.  1.
    8880022    1    1    2    0    0 -0.15415116287E+03 -0.51641415335E+03 -0.30508573608E+04  0.31018653175E+04  0.15294330000E+03 0.  0.
<mgrwt>
<rscale>  0 0.76656287E+03</rscale>
<asrwt>0</asrwt>
<pdfrwt beam="1">  1        2 0.52347123E+00 0.85103253E+03</pdfrwt>
<pdfrwt beam="2">  1       -2 0.89318749E-01 0.85103253E+03</pdfrwt>
<totfact> 0.10830106E+00</totfact>
</mgrwt>
</event>
<event>
 4    5  0.8511149E-008  0.1010160E+04  0.7818608E-02  0.9368385E-01
         -2   -1    0    0    0  501 -0.00000000000E+00  0.00000000000E+00  0.65415188154E+03  0.65415188154E+03  0.25500000000E-02 0.  1.
          2   -1    0    0  501    0  0.00000000000E+00 -0.00000000000E+00 -0.14885850810E+04  0.14885850810E+04  0.25500000000E-02 0. -1.
    8880023    1    1    2    0    0  0.75582517840E+03 -0.12385653320E+03 -0.14374592281E+02  0.10102618355E+04  0.65864270000E+03 0.  0.
    8880022    1    1    2    0    0 -0.75582517840E+03  0.12385653320E+03 -0.82005860716E+03  0.11324751270E+04  0.15294330000E+03 0.  0.
<mgrwt>
<rscale>  0 0.94723787E+03</rscale>
<asrwt>0</asrwt>
<pdfrwt beam="1">  1        2 0.22901309E+00 0.10101596E+04</pdfrwt>
<pdfrwt beam="2">  1       -2 0.10063875E+00 0.10101596E+04</pdfrwt>
<totfact> 0.10423109E+01</totfact>
</mgrwt>
</event>
<event>
 4    5  0.8511149E-008  0.7920505E+03  0.7818608E-02  0.9728256E-01
          2   -1    0    0  501    0  0.00000000000E+00  0.00000000000E+00  0.17663942221E+04  0.17663942221E+04  0.25500000000E-02 0. -1.
         -2   -1    0    0    0  501 -0.00000000000E+00 -0.00000000000E+00 -0.45869271574E+03  0.45869271574E+03  0.25500000000E-02 0.  1.
    8880023    1    1    2    0    0 -0.43432338872E+03  0.69978675504E+02 -0.46117167840E+02  0.79339197150E+03  0.65864270000E+03 0.  1.
    8880022    1    1    2    0    0  0.43432338872E+03 -0.69978675504E+02  0.13538186742E+04  0.14316949664E+04  0.15294330000E+03 0.  0.
<mgrwt>
<rscale>  0 0.69359105E+03</rscale>
<asrwt>0</asrwt>
<pdfrwt beam="1">  1        2 0.27175296E+00 0.79205052E+03</pdfrwt>
<pdfrwt beam="2">  1       -2 0.70568110E-01 0.79205052E+03</pdfrwt>
<totfact> 0.16841934E+01</totfact>
</mgrwt>
</event>
<event>
 4    5  0.8511149E-008  0.1076143E+04  0.7818608E-02  0.9288095E-01
         -2   -1    0    0    0  501 -0.00000000000E+00  0.00000000000E+00  0.67706505621E+03  0.67706505621E+03  0.25500000000E-02 0.  1.
          2   -1    0    0  501    0  0.00000000000E+00 -0.00000000000E+00 -0.23813920607E+04  0.23813920607E+04  0.25500000000E-02 0. -1.
    8880023    1    1    2    0    0 -0.61732799455E+03 -0.58581541494E+03  0.76447952891E+02  0.10788549713E+04  0.65864270000E+03 0.  0.
    8880022    1    1    2    0    0  0.61732799455E+03  0.58581541494E+03 -0.17807749574E+04  0.19796021457E+04  0.15294330000E+03 0.  0.
<mgrwt>
<rscale>  0 0.10188632E+04</rscale>
<asrwt>0</asrwt>
<pdfrwt beam="1">  1        2 0.36636800E+00 0.10761430E+04</pdfrwt>
<pdfrwt beam="2">  1       -2 0.10416386E+00 0.10761430E+04</pdfrwt>
<totfact> 0.30409700E+00</totfact>
</mgrwt>
</event>
<event>
 4    5  0.8511149E-008  0.9452833E+03  0.7818608E-02  0.9456933E-01
         -2   -1    0    0    0  501 -0.00000000000E+00  0.00000000000E+00  0.12215765456E+04  0.12215765456E+04  0.25500000000E-02 0.  1.
          2   -1    0    0  501    0  0.00000000000E+00 -0.00000000000E+00 -0.96046941529E+03  0.96046941530E+03  0.25500000000E-02 0. -1.
    8880023    1    1    2    0    0 -0.61260997227E+03  0.29061892385E+03  0.84984302970E+03  0.12711387487E+04  0.65864270000E+03 0.  0.
    8880022    1    1    2    0    0  0.61260997227E+03 -0.29061892385E+03 -0.58873589939E+03  0.91090721222E+03  0.15294330000E+03 0.  0.
<mgrwt>
<rscale>  0 0.87534820E+03</rscale>
<asrwt>0</asrwt>
<pdfrwt beam="1">  1        2 0.14776452E+00 0.94528331E+03</pdfrwt>
<pdfrwt beam="2">  1       -2 0.18793485E+00 0.94528331E+03</pdfrwt>
<totfact> 0.42662046E+00</totfact>
</mgrwt>
</event>
<event>
 4    5  0.8511149E-008  0.6686202E+03  0.7818608E-02  0.1016672E+00
          2   -1    0    0  501    0  0.00000000000E+00  0.00000000000E+00  0.13156986537E+04  0.13156986538E+04  0.25500000000E-02 0. -1.
         -2   -1    0    0    0  501 -0.00000000000E+00 -0.00000000000E+00 -0.25686747546E+03  0.25686747547E+03  0.25500000000E-02 0.  1.
    8880023    1    1    2    0    0  0.43366015058E+02  0.10659339429E+03  0.20763809919E+03  0.70011895380E+03  0.65864270000E+03 0.  1.
    8880022    1    1    2    0    0 -0.43366015058E+02 -0.10659339429E+03  0.85119307911E+03  0.87244717542E+03  0.15294330000E+03 0.  0.
<mgrwt>
<rscale>  0 0.48906972E+03</rscale>
<asrwt>0</asrwt>
<pdfrwt beam="1">  1        2 0.20241518E+00 0.66862020E+03</pdfrwt>
<pdfrwt beam="2">  1       -2 0.39518073E-01 0.66862020E+03</pdfrwt>
<totfact> 0.10035120E+02</totfact>
</mgrwt>
</event>
<event>
 4    5  0.8511149E-008  0.8620908E+03  0.7818608E-02  0.9589855E-01
         -2   -1    0    0    0  501 -0.00000000000E+00  0.00000000000E+00  0.52844762473E+03  0.52844762474E+03  0.25500000000E-02 0.  1.
          2   -1    0    0  501    0  0.00000000000E+00 -0.00000000000E+00 -0.15481496403E+04  0.15481496403E+04  0.25500000000E-02 0. -1.
    8880023    1    1    2    0    0  0.32836827736E+03  0.44895953150E+03  0.47565801204E+02  0.86340204900E+03  0.65864270000E+03 0.  1.
    8880022    1    1    2    0    0 -0.32836827736E+03 -0.44895953150E+03 -0.10672678168E+04  0.12131952160E+04  0.15294330000E+03 0.  0.
<mgrwt>
<rscale>  0 0.77971296E+03</rscale>
<asrwt>0</asrwt>
<pdfrwt beam="1">  1        2 0.23817687E+00 0.86209083E+03</pdfrwt>
<pdfrwt beam="2">  1       -2 0.81299635E-01 0.86209083E+03</pdfrwt>
<totfact> 0.16078069E+01</totfact>
</mgrwt>
</event>
<event>
 4    5  0.8511149E-008  0.7591157E+03  0.7818608E-02  0.9807402E-01
         -2   -1    0    0    0  501 -0.00000000000E+00  0.00000000000E+00  0.34003746410E+03  0.34003746410E+03  0.25500000000E-02 0.  1.
          2   -1    0    0  501    0  0.00000000000E+00 -0.00000000000E+00 -0.39100747472E+04  0.39100747472E+04  0.25500000000E-02 0. -1.
    8880023    1    1    2    0    0 -0.29549020793E+03 -0.23480199522E+03 -0.11100286805E+03  0.76718855761E+03  0.65864270000E+03 0.  1.
    8880022    1    1    2    0    0  0.29549020793E+03  0.23480199522E+03 -0.34590344150E+04  0.34829236537E+04  0.15294330000E+03 0.  0.
<mgrwt>
<rscale>  0 0.64966806E+03</rscale>
<asrwt>0</asrwt>
<pdfrwt beam="1">  1        2 0.60154993E+00 0.75911570E+03</pdfrwt>
<pdfrwt beam="2">  1       -2 0.52313459E-01 0.75911570E+03</pdfrwt>
<totfact> 0.15372380E+00</totfact>
</mgrwt>
</event>
<event>
 4    5  0.8511149E-008  0.1015274E+04  0.7818608E-02  0.9361842E-01
          2   -1    0    0  501    0  0.00000000000E+00  0.00000000000E+00  0.21229725891E+04  0.21229725891E+04  0.25500000000E-02 0. -1.
         -2   -1    0    0    0  501 -0.00000000000E+00 -0.00000000000E+00 -0.89043400747E+03  0.89043400747E+03  0.25500000000E-02 0.  1.
    8880023    1    1    2    0    0 -0.40659685724E+03  0.65700076931E+03 -0.48403932323E+03  0.11247556570E+04  0.65864270000E+03 0.  0.
    8880022    1    1    2    0    0  0.40659685724E+03 -0.65700076931E+03  0.17165779049E+04  0.18886509396E+04  0.15294330000E+03 0.  0.
<mgrwt>
<rscale>  0 0.95283597E+03</rscale>
<asrwt>0</asrwt>
<pdfrwt beam="1">  1        2 0.32661117E+00 0.10152740E+04</pdfrwt>
<pdfrwt beam="2">  1       -2 0.13698985E+00 0.10152740E+04</pdfrwt>
<totfact> 0.21627355E+00</totfact>
</mgrwt>
</event>
<event>
 4    5  0.8511149E-008  0.7107742E+03  0.7818608E-02  0.9955137E-01
          2   -1    0    0  501    0  0.00000000000E+00  0.00000000000E+00  0.39015413717E+04  0.39015413718E+04  0.25500000000E-02 0. -1.
         -2   -1    0    0    0  501 -0.00000000000E+00 -0.00000000000E+00 -0.97504312572E+02  0.97504312606E+02  0.25500000000E-02 0.  1.
    8880023    1    1    2    0    0 -0.12063079804E+03  0.23840706897E+03  0.13491385800E+04  0.15249179763E+04  0.65864270000E+03 0.  1.
    8880022    1    1    2    0    0  0.12063079804E+03 -0.23840706897E+03  0.24548984791E+04  0.24741277081E+04  0.15294330000E+03 0.  0.
<mgrwt>
<rscale>  0 0.57661921E+03</rscale>
<asrwt>0</asrwt>
<pdfrwt beam="1">  1        2 0.60023708E+00 0.71077417E+03</pdfrwt>
<pdfrwt beam="2">  1       -2 0.15000665E-01 0.71077417E+03</pdfrwt>
<totfact> 0.15855844E+01</totfact>
</mgrwt>
</event>
<event>
 4    5  0.8511149E-008  0.1073492E+04  0.7818608E-02  0.9291160E-01
          2   -1    0    0  501    0  0.00000000000E+00  0.00000000000E+00  0.12317580459E+04  0.12317580459E+04  0.25500000000E-02 0. -1.
         -2   -1    0    0    0  501 -0.00000000000E+00 -0.00000000000E+00 -0.16434328916E+04  0.16434328916E+04  0.25500000000E-02 0.  1.
    8880023    1    1    2    0    0  0.46731028445E+03 -0.70724523424E+03 -0.12674556232E+04  0.16609722112E+04  0.65864270000E+03 0.  0.
    8880022    1    1    2    0    0 -0.46731028445E+03  0.70724523424E+03  0.85578077750E+03  0.12142187264E+04  0.15294330000E+03 0.  0.
<mgrwt>
<rscale>  0 0.10160080E+04</rscale>
<asrwt>0</asrwt>
<pdfrwt beam="1">  1        2 0.18950124E+00 0.10734919E+04</pdfrwt>
<pdfrwt beam="2">  1       -2 0.25283583E+00 0.10734919E+04</pdfrwt>
<totfact> 0.11055429E+00</totfact>
</mgrwt>
</event>
<event>
 4    5  0.8511149E-008  0.9304285E+03  0.7818608E-02  0.9478851E-01
         -2   -1    0    0    0  501 -0.00000000000E+00  0.00000000000E+00  0.59626894231E+03  0.59626894231E+03  0.25500000000E-02 0.  1.
          2   -1    0    0  501    0  0.00000000000E+00 -0.00000000000E+00 -0.22267367879E+04  0.22267367879E+04  0.25500000000E-02 0. -1.
    8880023    1    1    2    0    0 -0.59130456092E+03  0.28678546352E+03  0.12831433971E+03  0.93923466817E+03  0.65864270000E+03 0.  1.
    8880022    1    1    2    0    0  0.59130456092E+03 -0.28678546352E+03 -0.17587821853E+04  0.18837710620E+04  0.15294330000E+03 0.  0.
<mgrwt>
<rscale>  0 0.85861192E+03</rscale>
<asrwt>0</asrwt>
<pdfrwt beam="1">  1        2 0.34257489E+00 0.93042850E+03</pdfrwt>
<pdfrwt beam="2">  1       -2 0.91733685E-01 0.93042850E+03</pdfrwt>
<totfact> 0.51124563E+00</totfact>
</mgrwt>
</event>
<event>
 4    5  0.8511149E-008  0.1497810E+04  0.7818608E-02  0.8911184E-01
          2   -1    0    0  501    0  0.00000000000E+00  0.00000000000E+00  0.24603683364E+04  0.24603683364E+04  0.25500000000E-02 0. -1.
         -2   -1    0    0    0  501 -0.00000000000E+00 -0.00000000000E+00 -0.94571724901E+03  0.94571724901E+03  0.25500000000E-02 0.  1.
    8880023    1    1    2    0    0  0.12608151663E+04  0.46900949844E+03  0.18626974936E+03  0.15093480112E+04  0.65864270000E+03 0.  0.
    8880022    1    1    2    0    0 -0.12608151663E+04 -0.46900949844E+03  0.13283813380E+04  0.18967375742E+04  0.15294330000E+03 0.  0.
<mgrwt>
<rscale>  0 0.14604556E+04</rscale>
<asrwt>0</asrwt>
<pdfrwt beam="1">  1        2 0.37851819E+00 0.14978101E+04</pdfrwt>
<pdfrwt beam="2">  1       -2 0.14549497E+00 0.14978101E+04</pdfrwt>
<totfact> 0.11269880E+00</totfact>
</mgrwt>
</event>
<event>
 4    5  0.8511149E-008  0.7632517E+03  0.7818608E-02  0.9796761E-01
         -2   -1    0    0    0  501 -0.00000000000E+00  0.00000000000E+00  0.60113615559E+03  0.60113615560E+03  0.25500000000E-02 0.  1.
          2   -1    0    0  501    0  0.00000000000E+00 -0.00000000000E+00 -0.86579494873E+03  0.86579494873E+03  0.25500000000E-02 0. -1.
    8880023    1    1    2    0    0  0.35090933115E+03 -0.16001746193E+03  0.25248465187E+03  0.80392888523E+03  0.65864270000E+03 0.  1.
    8880022    1    1    2    0    0 -0.35090933115E+03  0.16001746193E+03 -0.51714344500E+03  0.66300221910E+03  0.15294330000E+03 0.  0.
<mgrwt>
<rscale>  0 0.65536668E+03</rscale>
<asrwt>0</asrwt>
<pdfrwt beam="1">  1        2 0.13319922E+00 0.76325170E+03</pdfrwt>
<pdfrwt beam="2">  1       -2 0.92482485E-01 0.76325170E+03</pdfrwt>
<totfact> 0.31120762E+01</totfact>
</mgrwt>
</event>
<event>
 4    5  0.8511149E-008  0.1120180E+04  0.7818608E-02  0.9238914E-01
         -2   -1    0    0    0  501 -0.00000000000E+00  0.00000000000E+00  0.72794215881E+03  0.72794215881E+03  0.25500000000E-02 0.  1.
          2   -1    0    0  501    0  0.00000000000E+00 -0.00000000000E+00 -0.26330542114E+04  0.26330542114E+04  0.25500000000E-02 0. -1.
    8880023    1    1    2    0    0 -0.89228582767E+03  0.15754079533E+03  0.13033901066E+03  0.11277373650E+04  0.65864270000E+03 0.  1.
    8880022    1    1    2    0    0  0.89228582767E+03 -0.15754079533E+03 -0.20354510632E+04  0.22332590052E+04  0.15294330000E+03 0.  0.
<mgrwt>
<rscale>  0 0.10660643E+04</rscale>
<asrwt>0</asrwt>
<pdfrwt beam="1">  1        2 0.40508526E+00 0.11201800E+04</pdfrwt>
<pdfrwt beam="2">  1       -2 0.11199110E+00 0.11201800E+04</pdfrwt>
<totfact> 0.18183711E+00</totfact>
</mgrwt>
</event>
<event>
 4    5  0.8511149E-008  0.1438942E+04  0.7818608E-02  0.8954000E-01
          2   -1    0    0  501    0  0.00000000000E+00  0.00000000000E+00  0.29899664692E+04  0.29899664692E+04  0.25500000000E-02 0. -1.
         -2   -1    0    0    0  501 -0.00000000000E+00 -0.00000000000E+00 -0.14532667373E+04  0.14532667373E+04  0.25500000000E-02 0.  1.
    8880023    1    1    2    0    0 -0.61711151004E+03 -0.11206767374E+04  0.24656459062E+04  0.28548139881E+04  0.65864270000E+03 0. -1.
    8880022    1    1    2    0    0  0.61711151004E+03  0.11206767374E+04 -0.92894617436E+03  0.15884192184E+04  0.15294330000E+03 0.  0.
<mgrwt>
<rscale>  0 0.13997495E+04</rscale>
<asrwt>0</asrwt>
<pdfrwt beam="1">  1        2 0.45999484E+00 0.14389417E+04</pdfrwt>
<pdfrwt beam="2">  1       -2 0.22357950E+00 0.14389417E+04</pdfrwt>
<totfact> 0.15726291E-01</totfact>
</mgrwt>
</event>
<event>
 4    5  0.8511149E-008  0.8219010E+03  0.7818608E-02  0.9665301E-01
          2   -1    0    0  501    0  0.00000000000E+00  0.00000000000E+00  0.39559049239E+04  0.39559049239E+04  0.25500000000E-02 0. -1.
         -2   -1    0    0    0  501 -0.00000000000E+00 -0.00000000000E+00 -0.27473968221E+03  0.27473968223E+03  0.25500000000E-02 0.  1.
    8880023    1    1    2    0    0 -0.23904106697E+03  0.42961658287E+03  0.40867615291E+03  0.91789838446E+03  0.65864270000E+03 0.  0.
    8880022    1    1    2    0    0  0.23904106697E+03 -0.42961658287E+03  0.32724890888E+04  0.33127462217E+04  0.15294330000E+03 0.  0.
<mgrwt>
<rscale>  0 0.73120878E+03</rscale>
<asrwt>0</asrwt>
<pdfrwt beam="1">  1        2 0.60860074E+00 0.82190100E+03</pdfrwt>
<pdfrwt beam="2">  1       -2 0.42267645E-01 0.82190100E+03</pdfrwt>
<totfact> 0.21460024E+00</totfact>
</mgrwt>
</event>
<event>
 4    5  0.8511149E-008  0.1309887E+04  0.7818608E-02  0.9057068E-01
         -2   -1    0    0    0  501 -0.00000000000E+00  0.00000000000E+00  0.11219104902E+04  0.11219104902E+04  0.25500000000E-02 0.  1.
          2   -1    0    0  501    0  0.00000000000E+00 -0.00000000000E+00 -0.21221903590E+04  0.21221903590E+04  0.25500000000E-02 0. -1.
    8880023    1    1    2    0    0  0.11181690080E+04  0.17802309220E+03  0.46148238277E+03  0.13888017669E+04  0.65864270000E+03 0.  1.
    8880022    1    1    2    0    0 -0.11181690080E+04 -0.17802309220E+03 -0.14617622515E+04  0.18552990823E+04  0.15294330000E+03 0.  0.
<mgrwt>
<rscale>  0 0.12658807E+04</rscale>
<asrwt>0</asrwt>
<pdfrwt beam="1">  1        2 0.32649082E+00 0.13098872E+04</pdfrwt>
<pdfrwt beam="2">  1       -2 0.17260161E+00 0.13098872E+04</pdfrwt>
<totfact> 0.11202188E+00</totfact>
</mgrwt>
</event>
<event>
 4    5  0.8511149E-008  0.7331262E+03  0.7818608E-02  0.9880442E-01
          2   -1    0    0  501    0  0.00000000000E+00  0.00000000000E+00  0.11626400244E+04  0.11626400244E+04  0.25500000000E-02 0. -1.
         -2   -1    0    0    0  501 -0.00000000000E+00 -0.00000000000E+00 -0.95813508687E+03  0.95813508688E+03  0.25500000000E-02 0.  1.
    8880023    1    1    2    0    0  0.29421408042E+03 -0.13077414318E+03 -0.78196111285E+03  0.10718848772E+04  0.65864270000E+03 0.  1.
    8880022    1    1    2    0    0 -0.29421408042E+03  0.13077414318E+03  0.98646605034E+03  0.10488902341E+04  0.15294330000E+03 0.  0.
<mgrwt>
<rscale>  0 0.61218575E+03</rscale>
<asrwt>0</asrwt>
<pdfrwt beam="1">  1        2 0.17886770E+00 0.73312619E+03</pdfrwt>
<pdfrwt beam="2">  1       -2 0.14740540E+00 0.73312619E+03</pdfrwt>
<totfact> 0.64023663E+00</totfact>
</mgrwt>
</event>
<event>
 4    5  0.8511149E-008  0.1094951E+04  0.7818608E-02  0.9266699E-01
          2   -1    0    0  501    0  0.00000000000E+00  0.00000000000E+00  0.12640691602E+04  0.12640691602E+04  0.25500000000E-02 0. -1.
         -2   -1    0    0    0  501 -0.00000000000E+00 -0.00000000000E+00 -0.85846907943E+03  0.85846907944E+03  0.25500000000E-02 0.  1.
    8880023    1    1    2    0    0 -0.81146182003E+03 -0.32655219614E+03 -0.10204967696E+03  0.10996958511E+04  0.65864270000E+03 0.  1.
    8880022    1    1    2    0    0  0.81146182003E+03  0.32655219614E+03  0.50764975769E+03  0.10228423885E+04  0.15294330000E+03 0.  0.
<mgrwt>
<rscale>  0 0.10390728E+04</rscale>
<asrwt>0</asrwt>
<pdfrwt beam="1">  1        2 0.19447218E+00 0.10949506E+04</pdfrwt>
<pdfrwt beam="2">  1       -2 0.13207217E+00 0.10949506E+04</pdfrwt>
<totfact> 0.71184757E+00</totfact>
</mgrwt>
</event>
<event>
 4    5  0.8511149E-008  0.1055639E+04  0.7818608E-02  0.9312133E-01
         -2   -1    0    0    0  501 -0.00000000000E+00  0.00000000000E+00  0.48506672761E+03  0.48506672762E+03  0.25500000000E-02 0.  1.
          2   -1    0    0  501    0  0.00000000000E+00 -0.00000000000E+00 -0.36925290147E+04  0.36925290147E+04  0.25500000000E-02 0. -1.
    8880023    1    1    2    0    0  0.56908358522E+03 -0.59724925971E+03 -0.22498151906E+03  0.10793468837E+04  0.65864270000E+03 0.  0.
    8880022    1    1    2    0    0 -0.56908358522E+03  0.59724925971E+03 -0.29824807680E+04  0.30982488586E+04  0.15294330000E+03 0.  0.
<mgrwt>
<rscale>  0 0.99673461E+03</rscale>
<asrwt>0</asrwt>
<pdfrwt beam="1">  1        2 0.56808137E+00 0.10556387E+04</pdfrwt>
<pdfrwt beam="2">  1       -2 0.74625653E-01 0.10556387E+04</pdfrwt>
<totfact> 0.98498025E-01</totfact>
</mgrwt>
</event>
<event>
 4    5  0.8511149E-008  0.1460222E+04  0.7818608E-02  0.8938248E-01
         -2   -1    0    0    0  501 -0.00000000000E+00  0.00000000000E+00  0.30219470311E+04  0.30219470311E+04  0.25500000000E-02 0.  1.
          2   -1    0    0  501    0  0.00000000000E+00 -0.00000000000E+00 -0.10051212321E+04  0.10051212321E+04  0.25500000000E-02 0. -1.
    8880023    1    1    2    0    0  0.12679311021E+04 -0.30130998118E+03  0.22618035416E+04  0.26922114425E+04  0.65864270000E+03 0.  0.
    8880022    1    1    2    0    0 -0.12679311021E+04  0.30130998118E+03 -0.24497774251E+03  0.13348568207E+04  0.15294330000E+03 0.  0.
<mgrwt>
<rscale>  0 0.14217159E+04</rscale>
<asrwt>0</asrwt>
<pdfrwt beam="1">  1        2 0.15463404E+00 0.14602216E+04</pdfrwt>
<pdfrwt beam="2">  1       -2 0.46491492E+00 0.14602216E+04</pdfrwt>
<totfact> 0.65775696E-02</totfact>
</mgrwt>
</event>
<event>
 4    5  0.8511149E-008  0.7885076E+03  0.7818608E-02  0.9736219E-01
          2   -1    0    0  501    0  0.00000000000E+00  0.00000000000E+00  0.13994280953E+04  0.13994280953E+04  0.25500000000E-02 0. -1.
         -2   -1    0    0    0  501 -0.00000000000E+00 -0.00000000000E+00 -0.60071403163E+03  0.60071403164E+03  0.25500000000E-02 0.  1.
    8880023    1    1    2    0    0  0.34914160355E+03 -0.25697099359E+03 -0.27265186121E+03  0.83431600402E+03  0.65864270000E+03 0.  1.
    8880022    1    1    2    0    0 -0.34914160355E+03  0.25697099359E+03  0.10713659249E+04  0.11658261229E+04  0.15294330000E+03 0.  0.
<mgrwt>
<rscale>  0 0.68900664E+03</rscale>
<asrwt>0</asrwt>
<pdfrwt beam="1">  1        2 0.21529663E+00 0.78850755E+03</pdfrwt>
<pdfrwt beam="2">  1       -2 0.92417544E-01 0.78850755E+03</pdfrwt>
<totfact> 0.14648369E+01</totfact>
</mgrwt>
</event>
<event>
 4    5  0.8511149E-008  0.1094244E+04  0.7818608E-02  0.9267492E-01
         -2   -1    0    0    0  501 -0.00000000000E+00  0.00000000000E+00  0.10650453634E+04  0.10650453634E+04  0.25500000000E-02 0.  1.
          2   -1    0    0  501    0  0.00000000000E+00 -0.00000000000E+00 -0.18412398557E+04  0.18412398557E+04  0.25500000000E-02 0. -1.
    8880023    1    1    2    0    0  0.86507756047E+03  0.12329077501E+03  0.61582227778E+03  0.12556301545E+04  0.65864270000E+03 0.  0.
    8880022    1    1    2    0    0 -0.86507756047E+03 -0.12329077501E+03 -0.13920167701E+04  0.16506550645E+04  0.15294330000E+03 0.  0.
<mgrwt>
<rscale>  0 0.10383150E+04</rscale>
<asrwt>0</asrwt>
<pdfrwt beam="1">  1        2 0.28326767E+00 0.10942440E+04</pdfrwt>
<pdfrwt beam="2">  1       -2 0.16385313E+00 0.10942440E+04</pdfrwt>
<totfact> 0.19003478E+00</totfact>
</mgrwt>
</event>
<event>
 4    5  0.8511149E-008  0.1166631E+04  0.7818608E-02  0.9190262E-01
         -2   -1    0    0    0  501 -0.00000000000E+00  0.00000000000E+00  0.63223921508E+03  0.63223921508E+03  0.25500000000E-02 0.  1.
          2   -1    0    0  501    0  0.00000000000E+00 -0.00000000000E+00 -0.31160843570E+04  0.31160843570E+04  0.25500000000E-02 0. -1.
    8880023    1    1    2    0    0  0.94179237646E+03 -0.20061212279E+03 -0.97753529765E+02  0.11707194638E+04  0.65864270000E+03 0.  0.
    8880022    1    1    2    0    0 -0.94179237646E+03  0.20061212279E+03 -0.23860916121E+04  0.25776041082E+04  0.15294330000E+03 0.  0.
<mgrwt>
<rscale>  0 0.11154509E+04</rscale>
<asrwt>0</asrwt>
<pdfrwt beam="1">  1        2 0.47939758E+00 0.11666312E+04</pdfrwt>
<pdfrwt beam="2">  1       -2 0.97267574E-01 0.11666312E+04</pdfrwt>
<totfact> 0.12927258E+00</totfact>
</mgrwt>
</event>
<event>
 4    5  0.8511149E-008  0.6934157E+03  0.7818608E-02  0.1002570E+00
          2   -1    0    0  501    0  0.00000000000E+00  0.00000000000E+00  0.85201495170E+03  0.85201495170E+03  0.25500000000E-02 0. -1.
         -2   -1    0    0    0  501 -0.00000000000E+00 -0.00000000000E+00 -0.31812791308E+03  0.31812791309E+03  0.25500000000E-02 0.  1.
    8880023    1    1    2    0    0 -0.18891629396E+03 -0.10642262235E+03  0.15994365114E+03  0.71162301711E+03  0.65864270000E+03 0.  0.
    8880022    1    1    2    0    0  0.18891629396E+03  0.10642262235E+03  0.37394338747E+03  0.45851984769E+03  0.15294330000E+03 0.  0.
<mgrwt>
<rscale>  0 0.54537733E+03</rscale>
<asrwt>0</asrwt>
<pdfrwt beam="1">  1        2 0.13107922E+00 0.69341571E+03</pdfrwt>
<pdfrwt beam="2">  1       -2 0.48942757E-01 0.69341571E+03</pdfrwt>
<totfact> 0.12699313E+02</totfact>
</mgrwt>
</event>
<event>
 4    5  0.8511149E-008  0.7422064E+03  0.7818608E-02  0.9853566E-01
         -2   -1    0    0    0  501 -0.00000000000E+00  0.00000000000E+00  0.11548662888E+04  0.11548662888E+04  0.25500000000E-02 0.  1.
          2   -1    0    0  501    0  0.00000000000E+00 -0.00000000000E+00 -0.12096773450E+04  0.12096773450E+04  0.25500000000E-02 0. -1.
    8880023    1    1    2    0    0 -0.34182336219E+03  0.14728030569E+02  0.99988222951E+03  0.12452448775E+04  0.65864270000E+03 0.  0.
    8880022    1    1    2    0    0  0.34182336219E+03 -0.14728030569E+02 -0.10546932857E+04  0.11192987563E+04  0.15294330000E+03 0.  0.
<mgrwt>
<rscale>  0 0.62565429E+03</rscale>
<asrwt>0</asrwt>
<pdfrwt beam="1">  1        2 0.18610421E+00 0.74220639E+03</pdfrwt>
<pdfrwt beam="2">  1       -2 0.17767174E+00 0.74220639E+03</pdfrwt>
<totfact> 0.36065755E+00</totfact>
</mgrwt>
</event>
<event>
 4    5  0.8511149E-008  0.7769174E+03  0.7818608E-02  0.9763129E-01
         -2   -1    0    0    0  501 -0.00000000000E+00  0.00000000000E+00  0.93359226532E+03  0.93359226533E+03  0.25500000000E-02 0.  1.
          2   -1    0    0  501    0  0.00000000000E+00 -0.00000000000E+00 -0.19942831962E+04  0.19942831962E+04  0.25500000000E-02 0. -1.
    8880023    1    1    2    0    0 -0.39752872923E+03 -0.10844947293E+03  0.74083020840E+03  0.10735129169E+04  0.65864270000E+03 0.  1.
    8880022    1    1    2    0    0  0.39752872923E+03  0.10844947293E+03 -0.18015211393E+04  0.18543625447E+04  0.15294330000E+03 0.  0.
<mgrwt>
<rscale>  0 0.67379372E+03</rscale>
<asrwt>0</asrwt>
<pdfrwt beam="1">  1        2 0.30681280E+00 0.77691736E+03</pdfrwt>
<pdfrwt beam="2">  1       -2 0.14362958E+00 0.77691736E+03</pdfrwt>
<totfact> 0.23344042E+00</totfact>
</mgrwt>
</event>
<event>
 4    5  0.8511149E-008  0.1170261E+04  0.7818608E-02  0.9186587E-01
          2   -1    0    0  501    0  0.00000000000E+00  0.00000000000E+00  0.64271493094E+03  0.64271493094E+03  0.25500000000E-02 0. -1.
         -2   -1    0    0    0  501 -0.00000000000E+00 -0.00000000000E+00 -0.24372880662E+04  0.24372880662E+04  0.25500000000E-02 0.  1.
    8880023    1    1    2    0    0  0.60383475663E+03  0.75570075036E+03 -0.17428648629E+04  0.20993065936E+04  0.65864270000E+03 0.  1.
    8880022    1    1    2    0    0 -0.60383475663E+03 -0.75570075036E+03 -0.51708272332E+02  0.98069640350E+03  0.15294330000E+03 0.  0.
<mgrwt>
<rscale>  0 0.11192948E+04</rscale>
<asrwt>0</asrwt>
<pdfrwt beam="1">  1        2 0.98879221E-01 0.11702608E+04</pdfrwt>
<pdfrwt beam="2">  1       -2 0.37496739E+00 0.11702608E+04</pdfrwt>
<totfact> 0.48861657E-01</totfact>
</mgrwt>
</event>
<event>
 4    5  0.8511149E-008  0.6837624E+03  0.7818608E-02  0.1007271E+00
          2   -1    0    0  501    0  0.00000000000E+00  0.00000000000E+00  0.12117189794E+04  0.12117189794E+04  0.25500000000E-02 0. -1.
         -2   -1    0    0    0  501 -0.00000000000E+00 -0.00000000000E+00 -0.18511111027E+03  0.18511111029E+03  0.25500000000E-02 0.  1.
    8880023    1    1    2    0    0 -0.73258649906E+02 -0.16838653824E+03  0.88735567687E+03  0.11202370997E+04  0.65864270000E+03 0.  0.
    8880022    1    1    2    0    0  0.73258649906E+02  0.16838653824E+03  0.13925219231E+03  0.27659299001E+03  0.15294330000E+03 0.  0.
<mgrwt>
<rscale>  0 0.52573917E+03</rscale>
<asrwt>0</asrwt>
<pdfrwt beam="1">  1        2 0.18641830E+00 0.68376243E+03</pdfrwt>
<pdfrwt beam="2">  1       -2 0.28478634E-01 0.68376243E+03</pdfrwt>
<totfact> 0.21377204E+02</totfact>
</mgrwt>
</event>
<event>
 4    5  0.8511149E-008  0.6729535E+03  0.7818608E-02  0.1013628E+00
          2   -1    0    0  501    0  0.00000000000E+00  0.00000000000E+00  0.11736027711E+04  0.11736027711E+04  0.25500000000E-02 0. -1.
         -2   -1    0    0    0  501 -0.00000000000E+00 -0.00000000000E+00 -0.26314185852E+03  0.26314185853E+03  0.25500000000E-02 0.  1.
    8880023    1    1    2    0    0 -0.13181185120E+03  0.41009546050E+02  0.20750634104E+03  0.70421959275E+03  0.65864270000E+03 0.  1.
    8880022    1    1    2    0    0  0.13181185120E+03 -0.41009546050E+02  0.70295457156E+03  0.73252503689E+03  0.15294330000E+03 0.  0.
<mgrwt>
<rscale>  0 0.50057674E+03</rscale>
<asrwt>0</asrwt>
<pdfrwt beam="1">  1        2 0.18055427E+00 0.67295346E+03</pdfrwt>
<pdfrwt beam="2">  1       -2 0.40483363E-01 0.67295346E+03</pdfrwt>
<totfact> 0.11580996E+02</totfact>
</mgrwt>
</event>
<event>
 4    5  0.8511149E-008  0.7479427E+03  0.7818608E-02  0.9837387E-01
         -2   -1    0    0    0  501 -0.00000000000E+00  0.00000000000E+00  0.26289879808E+03  0.26289879810E+03  0.25500000000E-02 0.  1.
          2   -1    0    0  501    0  0.00000000000E+00 -0.00000000000E+00 -0.24753496991E+04  0.24753496991E+04  0.25500000000E-02 0. -1.
    8880023    1    1    2    0    0 -0.23815488346E+03 -0.26246971022E+03 -0.33152703883E+03  0.81812497886E+03  0.65864270000E+03 0.  1.
    8880022    1    1    2    0    0  0.23815488346E+03  0.26246971022E+03 -0.18809238622E+04  0.19201235183E+04  0.15294330000E+03 0.  0.
<mgrwt>
<rscale>  0 0.63394188E+03</rscale>
<asrwt>0</asrwt>
<pdfrwt beam="1">  1        2 0.38082302E+00 0.74794271E+03</pdfrwt>
<pdfrwt beam="2">  1       -2 0.40445971E-01 0.74794271E+03</pdfrwt>
<totfact> 0.21755619E+01</totfact>
</mgrwt>
</event>
<event>
 4    5  0.8511149E-008  0.9447303E+03  0.7818608E-02  0.9457737E-01
         -2   -1    0    0    0  501 -0.00000000000E+00  0.00000000000E+00  0.63318594614E+03  0.63318594615E+03  0.25500000000E-02 0.  1.
          2   -1    0    0  501    0  0.00000000000E+00 -0.00000000000E+00 -0.35203708757E+04  0.35203708757E+04  0.25500000000E-02 0. -1.
    8880023    1    1    2    0    0 -0.40133569983E+02  0.67608756558E+03  0.21977654221E+03  0.96995723336E+03  0.65864270000E+03 0.  0.
    8880022    1    1    2    0    0  0.40133569983E+02 -0.67608756558E+03 -0.31069614718E+04  0.31835995885E+04  0.15294330000E+03 0.  0.
<mgrwt>
<rscale>  0 0.87472724E+03</rscale>
<asrwt>0</asrwt>
<pdfrwt beam="1">  1        2 0.54159551E+00 0.94473028E+03</pdfrwt>
<pdfrwt beam="2">  1       -2 0.97413225E-01 0.94473028E+03</pdfrwt>
<totfact> 0.72235887E-01</totfact>
</mgrwt>
</event>
<event>
 4    5  0.8511149E-008  0.6897492E+03  0.7818608E-02  0.1004272E+00
         -2   -1    0    0    0  501 -0.00000000000E+00  0.00000000000E+00  0.23226011157E+03  0.23226011158E+03  0.25500000000E-02 0.  1.
          2   -1    0    0  501    0  0.00000000000E+00 -0.00000000000E+00 -0.22520414356E+04  0.22520414356E+04  0.25500000000E-02 0. -1.
    8880023    1    1    2    0    0 -0.24617694426E+02  0.20331691678E+03 -0.31119443379E+03  0.75670072117E+03  0.65864270000E+03 0.  1.
    8880022    1    1    2    0    0  0.24617694426E+02 -0.20331691678E+03 -0.17085868903E+04  0.17276008261E+04  0.15294330000E+03 0.  0.
<mgrwt>
<rscale>  0 0.53816077E+03</rscale>
<asrwt>0</asrwt>
<pdfrwt beam="1">  1        2 0.34646790E+00 0.68974923E+03</pdfrwt>
<pdfrwt beam="2">  1       -2 0.35732326E-01 0.68974923E+03</pdfrwt>
<totfact> 0.37144068E+01</totfact>
</mgrwt>
</event>
<event>
 4    5  0.8511149E-008  0.6815196E+03  0.7818608E-02  0.1008477E+00
         -2   -1    0    0    0  501 -0.00000000000E+00  0.00000000000E+00  0.84871120700E+03  0.84871120700E+03  0.25500000000E-02 0.  1.
          2   -1    0    0  501    0  0.00000000000E+00 -0.00000000000E+00 -0.37322800989E+03  0.37322800990E+03  0.25500000000E-02 0. -1.
    8880023    1    1    2    0    0  0.17305960244E+03  0.26628342638E+02  0.64175038784E+03  0.93611562383E+03  0.65864270000E+03 0.  1.
    8880022    1    1    2    0    0 -0.17305960244E+03 -0.26628342638E+02 -0.16626719073E+03  0.28582359307E+03  0.15294330000E+03 0.  0.
<mgrwt>
<rscale>  0 0.52084506E+03</rscale>
<asrwt>0</asrwt>
<pdfrwt beam="1">  1        2 0.57419694E-01 0.68151955E+03</pdfrwt>
<pdfrwt beam="2">  1       -2 0.13057095E+00 0.68151955E+03</pdfrwt>
<totfact> 0.37533901E+01</totfact>
</mgrwt>
</event>
<event>
 4    5  0.8511149E-008  0.1299232E+04  0.7818608E-02  0.9066223E-01
          2   -1    0    0  501    0  0.00000000000E+00  0.00000000000E+00  0.14112524910E+04  0.14112524910E+04  0.25500000000E-02 0. -1.
         -2   -1    0    0    0  501 -0.00000000000E+00 -0.00000000000E+00 -0.16040172052E+04  0.16040172052E+04  0.25500000000E-02 0.  1.
    8880023    1    1    2    0    0 -0.67732148130E+03  0.89186852585E+03 -0.98886861928E+03  0.16327477481E+04  0.65864270000E+03 0.  0.
    8880022    1    1    2    0    0  0.67732148130E+03 -0.89186852585E+03  0.79610390504E+03  0.13825219481E+04  0.15294330000E+03 0.  0.
<mgrwt>
<rscale>  0 0.12547691E+04</rscale>
<asrwt>0</asrwt>
<pdfrwt beam="1">  1        2 0.21711577E+00 0.12992321E+04</pdfrwt>
<pdfrwt beam="2">  1       -2 0.24677188E+00 0.12992321E+04</pdfrwt>
<totfact> 0.92146654E-01</totfact>
</mgrwt>
</event>
<event>
 4    5  0.8511149E-008  0.1080183E+04  0.7818608E-02  0.9283447E-01
         -2   -1    0    0    0  501 -0.00000000000E+00  0.00000000000E+00  0.11996723730E+04  0.11996723730E+04  0.25500000000E-02 0.  1.
          2   -1    0    0  501    0  0.00000000000E+00 -0.00000000000E+00 -0.11062965106E+04  0.11062965106E+04  0.25500000000E-02 0. -1.
    8880023    1    1    2    0    0  0.65530888465E+03  0.55095894516E+03  0.66197761434E+03  0.12668899170E+04  0.65864270000E+03 0.  1.
    8880022    1    1    2    0    0 -0.65530888465E+03 -0.55095894516E+03 -0.56860175190E+03  0.10390789666E+04  0.15294330000E+03 0.  0.
<mgrwt>
<rscale>  0 0.10232114E+04</rscale>
<asrwt>0</asrwt>
<pdfrwt beam="1">  1        2 0.17019946E+00 0.10801832E+04</pdfrwt>
<pdfrwt beam="2">  1       -2 0.18456498E+00 0.10801832E+04</pdfrwt>
<totfact> 0.35810327E+00</totfact>
</mgrwt>
</event>
<event>
 4    5  0.8511149E-008  0.7913857E+03  0.7818608E-02  0.9729741E-01
          2   -1    0    0  501    0  0.00000000000E+00  0.00000000000E+00  0.82124841899E+03  0.82124841899E+03  0.25500000000E-02 0. -1.
         -2   -1    0    0    0  501 -0.00000000000E+00 -0.00000000000E+00 -0.10708140250E+04  0.10708140250E+04  0.25500000000E-02 0.  1.
    8880023    1    1    2    0    0  0.43861359140E+03  0.99610372290E+01 -0.83116606173E+03  0.11476621163E+04  0.65864270000E+03 0.  1.
    8880022    1    1    2    0    0 -0.43861359140E+03 -0.99610372290E+01  0.58160045568E+03  0.74440032771E+03  0.15294330000E+03 0.  0.
<mgrwt>
<rscale>  0 0.69273300E+03</rscale>
<asrwt>0</asrwt>
<pdfrwt beam="1">  1        2 0.12634591E+00 0.79138569E+03</pdfrwt>
<pdfrwt beam="2">  1       -2 0.16474062E+00 0.79138569E+03</pdfrwt>
<totfact> 0.78315149E+00</totfact>
</mgrwt>
</event>
<event>
 4    5  0.8603619E-008  0.7120225E+03  0.7818608E-02  0.9950566E-01
         -2   -1    0    0    0  501 -0.00000000000E+00  0.00000000000E+00  0.18360602620E+04  0.18360602620E+04  0.25500000000E-02 0.  1.
          2   -1    0    0  501    0  0.00000000000E+00 -0.00000000000E+00 -0.23673986939E+04  0.23673986939E+04  0.25500000000E-02 0. -1.
    8880023    1    1    2    0    0  0.15735262579E+03 -0.22001368994E+03  0.17561279711E+04  0.18949832531E+04  0.65864270000E+03 0.  1.
    8880022    1    1    2    0    0 -0.15735262579E+03  0.22001368994E+03 -0.22874664029E+04  0.23084757027E+04  0.15294330000E+03 0.  0.
<mgrwt>
<rscale>  0 0.57872010E+03</rscale>
<asrwt>0</asrwt>
<pdfrwt beam="1">  1        2 0.36421518E+00 0.71202253E+03</pdfrwt>
<pdfrwt beam="2">  1       -2 0.28247081E+00 0.71202253E+03</pdfrwt>
<totfact> 0.18290618E-01</totfact>
</mgrwt>
</event>
<event>
 4    5  0.8511149E-008  0.7185433E+03  0.7818608E-02  0.9927546E-01
         -2   -1    0    0    0  501 -0.00000000000E+00  0.00000000000E+00  0.59785065655E+03  0.59785065655E+03  0.25500000000E-02 0.  1.
          2   -1    0    0  501    0  0.00000000000E+00 -0.00000000000E+00 -0.18010044021E+04  0.18010044021E+04  0.25500000000E-02 0. -1.
    8880023    1    1    2    0    0 -0.13040100142E+03  0.25590971884E+03  0.35895501188E+03  0.80321423804E+03  0.65864270000E+03 0.  1.
    8880022    1    1    2    0    0  0.13040100142E+03 -0.25590971884E+03 -0.15621087574E+04  0.15956408206E+04  0.15294330000E+03 0.  0.
<mgrwt>
<rscale>  0 0.58944655E+03</rscale>
<asrwt>0</asrwt>
<pdfrwt beam="1">  1        2 0.27707760E+00 0.71854326E+03</pdfrwt>
<pdfrwt beam="2">  1       -2 0.91977024E-01 0.71854326E+03</pdfrwt>
<totfact> 0.89701702E+00</totfact>
</mgrwt>
</event>
<event>
 4    5  0.8511149E-008  0.8034674E+03  0.7818608E-02  0.9703348E-01
         -2   -1    0    0    0  501 -0.00000000000E+00  0.00000000000E+00  0.27407251748E+03  0.27407251749E+03  0.25500000000E-02 0.  1.
          2   -1    0    0  501    0  0.00000000000E+00 -0.00000000000E+00 -0.15437176264E+04  0.15437176264E+04  0.25500000000E-02 0. -1.
    8880023    1    1    2    0    0  0.30284725509E+03 -0.34645807651E+03 -0.66677579194E+03  0.10441024000E+04  0.65864270000E+03 0.  0.
    8880022    1    1    2    0    0 -0.30284725509E+03  0.34645807651E+03 -0.60286931698E+03  0.77368774390E+03  0.15294330000E+03 0.  0.
<mgrwt>
<rscale>  0 0.70817781E+03</rscale>
<asrwt>0</asrwt>
<pdfrwt beam="1">  1        2 0.23749501E+00 0.80346740E+03</pdfrwt>
<pdfrwt beam="2">  1       -2 0.42165004E-01 0.80346740E+03</pdfrwt>
<totfact> 0.64949693E+01</totfact>
</mgrwt>
</event>
<event>
 4    5  0.8511149E-008  0.7472030E+03  0.7818608E-02  0.9839441E-01
         -2   -1    0    0    0  501 -0.00000000000E+00  0.00000000000E+00  0.62464872069E+03  0.62464872069E+03  0.25500000000E-02 0.  1.
          2   -1    0    0  501    0  0.00000000000E+00 -0.00000000000E+00 -0.20733379399E+04  0.20733379399E+04  0.25500000000E-02 0. -1.
    8880023    1    1    2    0    0  0.19161082503E+03  0.29628944921E+03  0.37371407841E+03  0.83544872053E+03  0.65864270000E+03 0.  1.
    8880022    1    1    2    0    0 -0.19161082503E+03 -0.29628944921E+03 -0.18224032976E+04  0.18625379401E+04  0.15294330000E+03 0.  0.
<mgrwt>
<rscale>  0 0.63288195E+03</rscale>
<asrwt>0</asrwt>
<pdfrwt beam="1">  1        2 0.31897506E+00 0.74720302E+03</pdfrwt>
<pdfrwt beam="2">  1       -2 0.96099804E-01 0.74720302E+03</pdfrwt>
<totfact> 0.57278389E+00</totfact>
</mgrwt>
</event>
<event>
 4    5  0.8511149E-008  0.7126334E+03  0.7818608E-02  0.9948349E-01
          2   -1    0    0  501    0  0.00000000000E+00  0.00000000000E+00  0.52391403086E+03  0.52391403086E+03  0.25500000000E-02 0. -1.
         -2   -1    0    0    0  501 -0.00000000000E+00 -0.00000000000E+00 -0.15146389491E+04  0.15146389491E+04  0.25500000000E-02 0.  1.
    8880023    1    1    2    0    0  0.23124125614E+03  0.14340048769E+03 -0.13718615624E+04  0.15459141539E+04  0.65864270000E+03 0.  1.
    8880022    1    1    2    0    0 -0.23124125614E+03 -0.14340048769E+03  0.38113664419E+03  0.49263882609E+03  0.15294330000E+03 0.  0.
<mgrwt>
<rscale>  0 0.57974238E+03</rscale>
<asrwt>0</asrwt>
<pdfrwt beam="1">  1        2 0.80602159E-01 0.71263344E+03</pdfrwt>
<pdfrwt beam="2">  1       -2 0.23302137E+00 0.71263344E+03</pdfrwt>
<totfact> 0.49190772E+00</totfact>
</mgrwt>
</event>
<event>
 4    5  0.8511149E-008  0.1115936E+04  0.7818608E-02  0.9243518E-01
          2   -1    0    0  501    0  0.00000000000E+00  0.00000000000E+00  0.16865225526E+04  0.16865225526E+04  0.25500000000E-02 0. -1.
         -2   -1    0    0    0  501 -0.00000000000E+00 -0.00000000000E+00 -0.86105227844E+03  0.86105227844E+03  0.25500000000E-02 0.  1.
    8880023    1    1    2    0    0  0.89554742680E+03  0.97453203169E+02 -0.24258846679E+03  0.11419989890E+04  0.65864270000E+03 0.  1.
    8880022    1    1    2    0    0 -0.89554742680E+03 -0.97453203169E+02  0.10680587409E+04  0.14055758420E+04  0.15294330000E+03 0.  0.
<mgrwt>
<rscale>  0 0.10615325E+04</rscale>
<asrwt>0</asrwt>
<pdfrwt beam="1">  1        2 0.25946501E+00 0.11159357E+04</pdfrwt>
<pdfrwt beam="2">  1       -2 0.13246958E+00 0.11159357E+04</pdfrwt>
<totfact> 0.40569737E+00</totfact>
</mgrwt>
</event>
<event>
 4    5  0.8511149E-008  0.1011538E+04  0.7818608E-02  0.9366615E-01
          2   -1    0    0  501    0  0.00000000000E+00  0.00000000000E+00  0.28223806530E+04  0.28223806530E+04  0.25500000000E-02 0. -1.
         -2   -1    0    0    0  501 -0.00000000000E+00 -0.00000000000E+00 -0.47665869888E+03  0.47665869888E+03  0.25500000000E-02 0.  1.
    8880023    1    1    2    0    0  0.15141979325E+03 -0.75264297830E+03  0.22196511504E+03  0.10356051975E+04  0.65864270000E+03 0.  0.
    8880022    1    1    2    0    0 -0.15141979325E+03  0.75264297830E+03  0.21237568391E+04  0.22634341544E+04  0.15294330000E+03 0.  0.
<mgrwt>
<rscale>  0 0.94874780E+03</rscale>
<asrwt>0</asrwt>
<pdfrwt beam="1">  1        2 0.43421240E+00 0.10115382E+04</pdfrwt>
<pdfrwt beam="2">  1       -2 0.73332108E-01 0.10115382E+04</pdfrwt>
<totfact> 0.38213221E+00</totfact>
</mgrwt>
</event>
<event>
 4    5  0.8511149E-008  0.1021126E+04  0.7818608E-02  0.9354426E-01
         -2   -1    0    0    0  501 -0.00000000000E+00  0.00000000000E+00  0.60854918292E+03  0.60854918293E+03  0.25500000000E-02 0.  1.
          2   -1    0    0  501    0  0.00000000000E+00 -0.00000000000E+00 -0.16265390589E+04  0.16265390589E+04  0.25500000000E-02 0. -1.
    8880023    1    1    2    0    0 -0.34356774870E+03 -0.70060626440E+03 -0.10828900557E+03  0.10268518153E+04  0.65864270000E+03 0.  0.
    8880022    1    1    2    0    0  0.34356774870E+03  0.70060626440E+03 -0.90970087042E+03  0.12082364265E+04  0.15294330000E+03 0.  0.
<mgrwt>
<rscale>  0 0.95923081E+03</rscale>
<asrwt>0</asrwt>
<pdfrwt beam="1">  1        2 0.25023678E+00 0.10211259E+04</pdfrwt>
<pdfrwt beam="2">  1       -2 0.93622952E-01 0.10211259E+04</pdfrwt>
<totfact> 0.10338734E+01</totfact>
</mgrwt>
</event>
<event>
 4    5  0.8511149E-008  0.7320716E+03  0.7818608E-02  0.9883674E-01
         -2   -1    0    0    0  501 -0.00000000000E+00  0.00000000000E+00  0.46209456471E+03  0.46209456472E+03  0.25500000000E-02 0.  1.
          2   -1    0    0  501    0  0.00000000000E+00 -0.00000000000E+00 -0.10710903720E+04  0.10710903720E+04  0.25500000000E-02 0. -1.
    8880023    1    1    2    0    0 -0.19195403905E+03 -0.25548443223E+03 -0.83692478982E+03  0.11119226404E+04  0.65864270000E+03 0. -1.
    8880022    1    1    2    0    0  0.19195403905E+03  0.25548443223E+03  0.22792898251E+03  0.42126229632E+03  0.15294330000E+03 0.  0.
<mgrwt>
<rscale>  0 0.61059058E+03</rscale>
<asrwt>0</asrwt>
<pdfrwt beam="1">  1        2 0.16478313E+00 0.73207162E+03</pdfrwt>
<pdfrwt beam="2">  1       -2 0.71091472E-01 0.73207162E+03</pdfrwt>
<totfact> 0.41548063E+01</totfact>
</mgrwt>
</event>
<event>
 4    5  0.8511149E-008  0.8183010E+03  0.7818608E-02  0.9672539E-01
          2   -1    0    0  501    0  0.00000000000E+00  0.00000000000E+00  0.88059093263E+03  0.88059093263E+03  0.25500000000E-02 0. -1.
         -2   -1    0    0    0  501 -0.00000000000E+00 -0.00000000000E+00 -0.57095390199E+03  0.57095390200E+03  0.25500000000E-02 0.  1.
    8880023    1    1    2    0    0 -0.32780625199E+03  0.35825876623E+03 -0.62858023949E+02  0.82071165452E+03  0.65864270000E+03 0.  1.
    8880022    1    1    2    0    0  0.32780625199E+03 -0.35825876623E+03  0.37249505458E+03  0.63083318011E+03  0.15294330000E+03 0.  0.
<mgrwt>
<rscale>  0 0.72675620E+03</rscale>
<asrwt>0</asrwt>
<pdfrwt beam="1">  1        2 0.13547553E+00 0.81830098E+03</pdfrwt>
<pdfrwt beam="2">  1       -2 0.87839062E-01 0.81830098E+03</pdfrwt>
<totfact> 0.34083684E+01</totfact>
</mgrwt>
</event>
<event>
 4    5  0.8511149E-008  0.1400683E+04  0.7818608E-02  0.8983152E-01
          2   -1    0    0  501    0  0.00000000000E+00  0.00000000000E+00  0.24469505716E+04  0.24469505716E+04  0.25500000000E-02 0. -1.
         -2   -1    0    0    0  501 -0.00000000000E+00 -0.00000000000E+00 -0.14968214103E+04  0.14968214103E+04  0.25500000000E-02 0.  1.
    8880023    1    1    2    0    0  0.11866497320E+04  0.34636171500E+03 -0.93515633420E+03  0.16841708939E+04  0.65864270000E+03 0.  0.
    8880022    1    1    2    0    0 -0.11866497320E+04 -0.34636171500E+03  0.18852854956E+04  0.22596010880E+04  0.15294330000E+03 0.  0.
<mgrwt>
<rscale>  0 0.13601877E+04</rscale>
<asrwt>0</asrwt>
<pdfrwt beam="1">  1        2 0.37645393E+00 0.14006835E+04</pdfrwt>
<pdfrwt beam="2">  1       -2 0.23028022E+00 0.14006835E+04</pdfrwt>
<totfact> 0.30205324E-01</totfact>
</mgrwt>
</event>
<event>
 4    5  0.8511149E-008  0.1213667E+04  0.7818608E-02  0.9143950E-01
          2   -1    0    0  501    0  0.00000000000E+00  0.00000000000E+00  0.20170205764E+04  0.20170205764E+04  0.25500000000E-02 0. -1.
         -2   -1    0    0    0  501 -0.00000000000E+00 -0.00000000000E+00 -0.70497088552E+03  0.70497088552E+03  0.25500000000E-02 0.  1.
    8880023    1    1    2    0    0 -0.65165180444E+03  0.78391800827E+03  0.24459650008E+03  0.12380691306E+04  0.65864270000E+03 0.  1.
    8880022    1    1    2    0    0  0.65165180444E+03 -0.78391800827E+03  0.10674531908E+04  0.14839223313E+04  0.15294330000E+03 0.  0.
<mgrwt>
<rscale>  0 0.11651164E+04</rscale>
<asrwt>0</asrwt>
<pdfrwt beam="1">  1        2 0.31031086E+00 0.12136671E+04</pdfrwt>
<pdfrwt beam="2">  1       -2 0.10845706E+00 0.12136671E+04</pdfrwt>
<totfact> 0.43400255E+00</totfact>
</mgrwt>
</event>
<event>
 4    5  0.8511149E-008  0.9750867E+03  0.7818608E-02  0.9414903E-01
         -2   -1    0    0    0  501 -0.00000000000E+00  0.00000000000E+00  0.84822556201E+03  0.84822556202E+03  0.25500000000E-02 0.  1.
          2   -1    0    0  501    0  0.00000000000E+00 -0.00000000000E+00 -0.12924887251E+04  0.12924887251E+04  0.25500000000E-02 0. -1.
    8880023    1    1    2    0    0  0.51175321376E+03  0.50506692984E+03  0.37072216784E+03  0.10431821928E+04  0.65864270000E+03 0.  1.
    8880022    1    1    2    0    0 -0.51175321376E+03 -0.50506692984E+03 -0.81498533097E+03  0.10975320944E+04  0.15294330000E+03 0.  0.
<mgrwt>
<rscale>  0 0.90859304E+03</rscale>
<asrwt>0</asrwt>
<pdfrwt beam="1">  1        2 0.19884442E+00 0.97508675E+03</pdfrwt>
<pdfrwt beam="2">  1       -2 0.13049624E+00 0.97508675E+03</pdfrwt>
<totfact> 0.71461544E+00</totfact>
</mgrwt>
</event>
<event>
 4    5  0.1199615E-007  0.1433732E+04  0.7818608E-02  0.8957906E-01
         -2   -1    0    0    0  501 -0.00000000000E+00  0.00000000000E+00  0.14552146073E+04  0.14552146074E+04  0.25500000000E-02 0.  1.
          2   -1    0    0  501    0  0.00000000000E+00 -0.00000000000E+00 -0.34231690864E+04  0.34231690864E+04  0.25500000000E-02 0. -1.
    8880023    1    1    2    0    0  0.15969720879E+03 -0.12634369058E+04  0.93022132978E+03  0.17090634693E+04  0.65864270000E+03 0.  1.
    8880022    1    1    2    0    0 -0.15969720879E+03  0.12634369058E+04 -0.28981758089E+04  0.31693202245E+04  0.15294330000E+03 0.  0.
<mgrwt>
<rscale>  0 0.13943672E+04</rscale>
<asrwt>0</asrwt>
<pdfrwt beam="1">  1        2 0.52664139E+00 0.14337316E+04</pdfrwt>
<pdfrwt beam="2">  1       -2 0.22387917E+00 0.14337316E+04</pdfrwt>
<totfact> 0.81973860E-02</totfact>
</mgrwt>
</event>
<event>
 4    5  0.8511149E-008  0.1189099E+04  0.7818608E-02  0.9167792E-01
          2   -1    0    0  501    0  0.00000000000E+00  0.00000000000E+00  0.89275094385E+03  0.89275094385E+03  0.25500000000E-02 0. -1.
         -2   -1    0    0    0  501 -0.00000000000E+00 -0.00000000000E+00 -0.16772794418E+04  0.16772794418E+04  0.25500000000E-02 0.  1.
    8880023    1    1    2    0    0 -0.57888651057E+03 -0.80314195958E+03 -0.99015922578E+03  0.15473758748E+04  0.65864270000E+03 0.  0.
    8880022    1    1    2    0    0  0.57888651057E+03  0.80314195958E+03  0.20563072778E+03  0.10226545109E+04  0.15294330000E+03 0.  0.
<mgrwt>
<rscale>  0 0.11392140E+04</rscale>
<asrwt>0</asrwt>
<pdfrwt beam="1">  1        2 0.13734630E+00 0.11890992E+04</pdfrwt>
<pdfrwt beam="2">  1       -2 0.25804299E+00 0.11890992E+04</pdfrwt>
<totfact> 0.16618109E+00</totfact>
</mgrwt>
</event>
<event>
 4    5  0.8511149E-008  0.7451513E+03  0.7818608E-02  0.9845188E-01
          2   -1    0    0  501    0  0.00000000000E+00  0.00000000000E+00  0.18081814720E+04  0.18081814720E+04  0.25500000000E-02 0. -1.
         -2   -1    0    0    0  501 -0.00000000000E+00 -0.00000000000E+00 -0.41575002910E+03  0.41575002911E+03  0.25500000000E-02 0.  1.
    8880023    1    1    2    0    0 -0.26432679461E+03  0.22709368362E+03 -0.35657512372E+02  0.74600392756E+03  0.65864270000E+03 0.  1.
    8880022    1    1    2    0    0  0.26432679461E+03 -0.22709368362E+03  0.14280889552E+04  0.14779275735E+04  0.15294330000E+03 0.  0.
<mgrwt>
<rscale>  0 0.62992862E+03</rscale>
<asrwt>0</asrwt>
<pdfrwt beam="1">  1        2 0.27818177E+00 0.74515126E+03</pdfrwt>
<pdfrwt beam="2">  1       -2 0.63961543E-01 0.74515126E+03</pdfrwt>
<totfact> 0.19889046E+01</totfact>
</mgrwt>
</event>
<event>
 4    5  0.8511149E-008  0.1203018E+04  0.7818608E-02  0.9154194E-01
         -2   -1    0    0    0  501 -0.00000000000E+00  0.00000000000E+00  0.19472791677E+04  0.19472791677E+04  0.25500000000E-02 0.  1.
          2   -1    0    0  501    0  0.00000000000E+00 -0.00000000000E+00 -0.79018384081E+03  0.79018384081E+03  0.25500000000E-02 0. -1.
    8880023    1    1    2    0    0  0.62607281151E+03 -0.78833702664E+03  0.12250158568E+04  0.17169497630E+04  0.65864270000E+03 0.  0.
    8880022    1    1    2    0    0 -0.62607281151E+03  0.78833702664E+03 -0.67920529939E+02  0.10205132455E+04  0.15294330000E+03 0.  0.
<mgrwt>
<rscale>  0 0.11538990E+04</rscale>
<asrwt>0</asrwt>
<pdfrwt beam="1">  1        2 0.12156675E+00 0.12030181E+04</pdfrwt>
<pdfrwt beam="2">  1       -2 0.29958141E+00 0.12030181E+04</pdfrwt>
<totfact> 0.10975809E+00</totfact>
</mgrwt>
</event>
<event>
 4    5  0.8511149E-008  0.1882615E+04  0.7818608E-02  0.8678163E-01
          2   -1    0    0  501    0  0.00000000000E+00  0.00000000000E+00  0.20707923993E+04  0.20707923993E+04  0.25500000000E-02 0. -1.
         -2   -1    0    0    0  501 -0.00000000000E+00 -0.00000000000E+00 -0.21506719241E+04  0.21506719241E+04  0.25500000000E-02 0.  1.
    8880023    1    1    2    0    0 -0.17244392885E+04  0.36978040139E+03  0.10161782395E+04  0.21393589754E+04  0.65864270000E+03 0. -1.
    8880022    1    1    2    0    0  0.17244392885E+04 -0.36978040139E+03 -0.10960577642E+04  0.20821053481E+04  0.15294330000E+03 0.  0.
<mgrwt>
<rscale>  0 0.18538746E+04</rscale>
<asrwt>0</asrwt>
<pdfrwt beam="1">  1        2 0.31858345E+00 0.18826148E+04</pdfrwt>
<pdfrwt beam="2">  1       -2 0.33087260E+00 0.18826148E+04</pdfrwt>
<totfact> 0.11241855E-01</totfact>
</mgrwt>
</event>
<event>
 4    5  0.8511149E-008  0.6923421E+03  0.7818608E-02  0.1003059E+00
         -2   -1    0    0    0  501 -0.00000000000E+00  0.00000000000E+00  0.14656093475E+04  0.14656093476E+04  0.25500000000E-02 0.  1.
          2   -1    0    0  501    0  0.00000000000E+00 -0.00000000000E+00 -0.61573230452E+03  0.61573230452E+03  0.25500000000E-02 0. -1.
    8880023    1    1    2    0    0  0.14360412374E+03 -0.15781408121E+03  0.13496184837E+04  0.15168413517E+04  0.65864270000E+03 0.  1.
    8880022    1    1    2    0    0 -0.14360412374E+03  0.15781408121E+03 -0.49974144064E+03  0.56450030034E+03  0.15294330000E+03 0.  0.
<mgrwt>
<rscale>  0 0.54329162E+03</rscale>
<asrwt>0</asrwt>
<pdfrwt beam="1">  1        2 0.94728048E-01 0.69234214E+03</pdfrwt>
<pdfrwt beam="2">  1       -2 0.22547836E+00 0.69234214E+03</pdfrwt>
<totfact> 0.45310194E+00</totfact>
</mgrwt>
</event>
<event>
 4    5  0.8511149E-008  0.8360298E+03  0.7818608E-02  0.9637712E-01
          2   -1    0    0  501    0  0.00000000000E+00  0.00000000000E+00  0.29044421744E+04  0.29044421744E+04  0.25500000000E-02 0. -1.
         -2   -1    0    0    0  501 -0.00000000000E+00 -0.00000000000E+00 -0.69634661770E+03  0.69634661771E+03  0.25500000000E-02 0.  1.
    8880023    1    1    2    0    0 -0.36543566629E+03 -0.36275659585E+03 -0.40788987508E+03  0.93022574168E+03  0.65864270000E+03 0.  1.
    8880022    1    1    2    0    0  0.36543566629E+03  0.36275659585E+03  0.26159854318E+04  0.26705630505E+04  0.15294330000E+03 0.  0.
<mgrwt>
<rscale>  0 0.74849630E+03</rscale>
<asrwt>0</asrwt>
<pdfrwt beam="1">  1        2 0.44683725E+00 0.83602977E+03</pdfrwt>
<pdfrwt beam="2">  1       -2 0.10713025E+00 0.83602977E+03</pdfrwt>
<totfact> 0.14626250E+00</totfact>
</mgrwt>
</event>
<event>
 4    5  0.8511149E-008  0.1420820E+04  0.7818608E-02  0.8967672E-01
          2   -1    0    0  501    0  0.00000000000E+00  0.00000000000E+00  0.26730669615E+04  0.26730669615E+04  0.25500000000E-02 0. -1.
         -2   -1    0    0    0  501 -0.00000000000E+00 -0.00000000000E+00 -0.15560712791E+04  0.15560712791E+04  0.25500000000E-02 0.  1.
    8880023    1    1    2    0    0  0.11954681612E+04 -0.39468402540E+03 -0.10166264758E+04  0.17470716075E+04  0.65864270000E+03 0.  0.
    8880022    1    1    2    0    0 -0.11954681612E+04  0.39468402540E+03  0.21336221582E+04  0.24820666331E+04  0.15294330000E+03 0.  0.
<mgrwt>
<rscale>  0 0.13810220E+04</rscale>
<asrwt>0</asrwt>
<pdfrwt beam="1">  1        2 0.41124107E+00 0.14208201E+04</pdfrwt>
<pdfrwt beam="2">  1       -2 0.23939558E+00 0.14208201E+04</pdfrwt>
<totfact> 0.19523461E-01</totfact>
</mgrwt>
</event>
<event>
 4    5  0.8511149E-008  0.1058556E+04  0.7818608E-02  0.9308667E-01
         -2   -1    0    0    0  501 -0.00000000000E+00  0.00000000000E+00  0.11386645175E+04  0.11386645175E+04  0.25500000000E-02 0.  1.
          2   -1    0    0  501    0  0.00000000000E+00 -0.00000000000E+00 -0.14259103158E+04  0.14259103158E+04  0.25500000000E-02 0. -1.
    8880023    1    1    2    0    0  0.82528817212E+03 -0.75026848909E+02 -0.10035034255E+04  0.14586154141E+04  0.65864270000E+03 0. -1.
    8880022    1    1    2    0    0 -0.82528817212E+03  0.75026848909E+02  0.71625762725E+03  0.11059594191E+04  0.15294330000E+03 0.  0.
<mgrwt>
<rscale>  0 0.99988901E+03</rscale>
<asrwt>0</asrwt>
<pdfrwt beam="1">  1        2 0.21937082E+00 0.10585555E+04</pdfrwt>
<pdfrwt beam="2">  1       -2 0.17517916E+00 0.10585555E+04</pdfrwt>
<totfact> 0.26998068E+00</totfact>
</mgrwt>
</event>
<event>
 4    5  0.8511149E-008  0.1049857E+04  0.7818608E-02  0.9319054E-01
          2   -1    0    0  501    0  0.00000000000E+00  0.00000000000E+00  0.40122951805E+04  0.40122951805E+04  0.25500000000E-02 0. -1.
         -2   -1    0    0    0  501 -0.00000000000E+00 -0.00000000000E+00 -0.59787907337E+03  0.59787907337E+03  0.25500000000E-02 0.  1.
    8880023    1    1    2    0    0  0.38744862345E+03  0.71991145006E+03 -0.46335820185E+02  0.10508787495E+04  0.65864270000E+03 0.  1.
    8880022    1    1    2    0    0 -0.38744862345E+03 -0.71991145006E+03  0.34607519274E+04  0.35592955044E+04  0.15294330000E+03 0.  0.
<mgrwt>
<rscale>  0 0.99047512E+03</rscale>
<asrwt>0</asrwt>
<pdfrwt beam="1">  1        2 0.61727616E+00 0.10498567E+04</pdfrwt>
<pdfrwt beam="2">  1       -2 0.91981399E-01 0.10498567E+04</pdfrwt>
<totfact> 0.35009454E-01</totfact>
</mgrwt>
</event>
<event>
 4    5  0.8511149E-008  0.1140434E+04  0.7818608E-02  0.9217319E-01
         -2   -1    0    0    0  501 -0.00000000000E+00  0.00000000000E+00  0.60654495618E+03  0.60654495619E+03  0.25500000000E-02 0.  1.
          2   -1    0    0  501    0  0.00000000000E+00 -0.00000000000E+00 -0.20272869845E+04  0.20272869845E+04  0.25500000000E-02 0. -1.
    8880023    1    1    2    0    0 -0.55013959159E+02  0.92938317745E+03 -0.32083261673E+03  0.11847039294E+04  0.65864270000E+03 0.  0.
    8880022    1    1    2    0    0  0.55013959159E+02 -0.92938317745E+03 -0.10999094116E+04  0.14491280112E+04  0.15294330000E+03 0.  0.
<mgrwt>
<rscale>  0 0.10876442E+04</rscale>
<asrwt>0</asrwt>
<pdfrwt beam="1">  1        2 0.31189030E+00 0.11404341E+04</pdfrwt>
<pdfrwt beam="2">  1       -2 0.93314610E-01 0.11404341E+04</pdfrwt>
<totfact> 0.61813368E+00</totfact>
</mgrwt>
</event>
<event>
 4    5  0.8511149E-008  0.9624989E+03  0.7818608E-02  0.9432354E-01
         -2   -1    0    0    0  501 -0.00000000000E+00  0.00000000000E+00  0.44283929100E+03  0.44283929101E+03  0.25500000000E-02 0.  1.
          2   -1    0    0  501    0  0.00000000000E+00 -0.00000000000E+00 -0.30677517600E+04  0.30677517600E+04  0.25500000000E-02 0. -1.
    8880023    1    1    2    0    0  0.63109638493E+03  0.30710138164E+03 -0.20203582466E+03  0.98347475127E+03  0.65864270000E+03 0.  1.
    8880022    1    1    2    0    0 -0.63109638493E+03 -0.30710138164E+03 -0.24228766443E+04  0.25271162997E+04  0.15294330000E+03 0.  0.
<mgrwt>
<rscale>  0 0.89460201E+03</rscale>
<asrwt>0</asrwt>
<pdfrwt beam="1">  1        2 0.47196180E+00 0.96249889E+03</pdfrwt>
<pdfrwt beam="2">  1       -2 0.68129124E-01 0.96249889E+03</pdfrwt>
<totfact> 0.32042606E+00</totfact>
</mgrwt>
</event>
<event>
 4    5  0.8511149E-008  0.9124741E+03  0.7818608E-02  0.9506296E-01
          2   -1    0    0  501    0  0.00000000000E+00  0.00000000000E+00  0.13510286992E+04  0.13510286992E+04  0.25500000000E-02 0. -1.
         -2   -1    0    0    0  501 -0.00000000000E+00 -0.00000000000E+00 -0.52955713459E+03  0.52955713459E+03  0.25500000000E-02 0.  1.
    8880023    1    1    2    0    0  0.47718855478E+03  0.41363014838E+03  0.11327928285E+03  0.91947877553E+03  0.65864270000E+03 0.  1.
    8880022    1    1    2    0    0 -0.47718855478E+03 -0.41363014838E+03  0.70819228173E+03  0.96110705823E+03  0.15294330000E+03 0.  0.
<mgrwt>
<rscale>  0 0.83821219E+03</rscale>
<asrwt>0</asrwt>
<pdfrwt beam="1">  1        2 0.20785057E+00 0.91247412E+03</pdfrwt>
<pdfrwt beam="2">  1       -2 0.81470327E-01 0.91247412E+03</pdfrwt>
<totfact> 0.20568626E+01</totfact>
</mgrwt>
</event>
<event>
 4    5  0.8511149E-008  0.6688840E+03  0.7818608E-02  0.1016476E+00
          2   -1    0    0  501    0  0.00000000000E+00  0.00000000000E+00  0.10773357808E+04  0.10773357808E+04  0.25500000000E-02 0. -1.
         -2   -1    0    0    0  501 -0.00000000000E+00 -0.00000000000E+00 -0.61609267534E+03  0.61609267534E+03  0.25500000000E-02 0.  1.
    8880023    1    1    2    0    0  0.40643182621E+02  0.10928720306E+03 -0.42107989414E+03  0.79038854025E+03  0.65864270000E+03 0.  1.
    8880022    1    1    2    0    0 -0.40643182621E+02 -0.10928720306E+03  0.88232299956E+03  0.90303991585E+03  0.15294330000E+03 0.  0.
<mgrwt>
<rscale>  0 0.48980086E+03</rscale>
<asrwt>0</asrwt>
<pdfrwt beam="1">  1        2 0.16574396E+00 0.66888397E+03</pdfrwt>
<pdfrwt beam="2">  1       -2 0.94783489E-01 0.66888397E+03</pdfrwt>
<totfact> 0.21648599E+01</totfact>
</mgrwt>
</event>
<event>
 4    5  0.8511149E-008  0.7482771E+03  0.7818608E-02  0.9836461E-01
         -2   -1    0    0    0  501 -0.00000000000E+00  0.00000000000E+00  0.97851198907E+03  0.97851198907E+03  0.25500000000E-02 0.  1.
          2   -1    0    0  501    0  0.00000000000E+00 -0.00000000000E+00 -0.38800161459E+03  0.38800161460E+03  0.25500000000E-02 0. -1.
    8880023    1    1    2    0    0 -0.32304795853E+03  0.14747356041E+03  0.62956881625E+03  0.97789341709E+03  0.65864270000E+03 0.  1.
    8880022    1    1    2    0    0  0.32304795853E+03 -0.14747356041E+03 -0.39058441773E+02  0.38862018658E+03  0.15294330000E+03 0.  0.
<mgrwt>
<rscale>  0 0.63442024E+03</rscale>
<asrwt>0</asrwt>
<pdfrwt beam="1">  1        2 0.59692556E-01 0.74827711E+03</pdfrwt>
<pdfrwt beam="2">  1       -2 0.15054031E+00 0.74827711E+03</pdfrwt>
<totfact> 0.24740098E+01</totfact>
</mgrwt>
</event>
<event>
 4    5  0.8511149E-008  0.1568274E+04  0.7818608E-02  0.8862871E-01
          2   -1    0    0  501    0  0.00000000000E+00  0.00000000000E+00  0.29487515796E+04  0.29487515796E+04  0.25500000000E-02 0. -1.
         -2   -1    0    0    0  501 -0.00000000000E+00 -0.00000000000E+00 -0.12181967524E+04  0.12181967524E+04  0.25500000000E-02 0.  1.
    8880023    1    1    2    0    0  0.97265414754E+03 -0.10390465621E+04 -0.38290882961E+03  0.16143429707E+04  0.65864270000E+03 0.  1.
    8880022    1    1    2    0    0 -0.97265414754E+03  0.10390465621E+04  0.21134636568E+04  0.25526053613E+04  0.15294330000E+03 0.  0.
<mgrwt>
<rscale>  0 0.15328900E+04</rscale>
<asrwt>0</asrwt>
<pdfrwt beam="1">  1        2 0.45365408E+00 0.15682742E+04</pdfrwt>
<pdfrwt beam="2">  1       -2 0.18741489E+00 0.15682742E+04</pdfrwt>
<totfact> 0.28293109E-01</totfact>
</mgrwt>
</event>
<event>
 4    5  0.8511149E-008  0.8249101E+03  0.7818608E-02  0.9659318E-01
         -2   -1    0    0    0  501 -0.00000000000E+00  0.00000000000E+00  0.12162184876E+04  0.12162184877E+04  0.25500000000E-02 0.  1.
          2   -1    0    0  501    0  0.00000000000E+00 -0.00000000000E+00 -0.64320592614E+03  0.64320592615E+03  0.25500000000E-02 0. -1.
    8880023    1    1    2    0    0  0.47413740881E+03  0.14785199074E+03  0.91914498694E+03  0.12350320671E+04  0.65864270000E+03 0.  1.
    8880022    1    1    2    0    0 -0.47413740881E+03 -0.14785199074E+03 -0.34613242544E+03  0.62439234665E+03  0.15294330000E+03 0.  0.
<mgrwt>
<rscale>  0 0.73491504E+03</rscale>
<asrwt>0</asrwt>
<pdfrwt beam="1">  1        2 0.98954759E-01 0.82491012E+03</pdfrwt>
<pdfrwt beam="2">  1       -2 0.18711053E+00 0.82491012E+03</pdfrwt>
<totfact> 0.74594210E+00</totfact>
</mgrwt>
</event>
<event>
 4    5  0.8511149E-008  0.7443407E+03  0.7818608E-02  0.9847479E-01
         -2   -1    0    0    0  501 -0.00000000000E+00  0.00000000000E+00  0.25571609013E+03  0.25571609015E+03  0.25500000000E-02 0.  1.
          2   -1    0    0  501    0  0.00000000000E+00 -0.00000000000E+00 -0.18446953800E+04  0.18446953800E+04  0.25500000000E-02 0. -1.
    8880023    1    1    2    0    0 -0.14905553059E+03  0.31307402314E+03 -0.38463504518E+03  0.83784677562E+03  0.65864270000E+03 0.  1.
    8880022    1    1    2    0    0  0.14905553059E+03 -0.31307402314E+03 -0.12043442447E+04  0.12625646945E+04  0.15294330000E+03 0.  0.
<mgrwt>
<rscale>  0 0.62875640E+03</rscale>
<asrwt>0</asrwt>
<pdfrwt beam="1">  1        2 0.28379928E+00 0.74434072E+03</pdfrwt>
<pdfrwt beam="2">  1       -2 0.39340938E-01 0.74434072E+03</pdfrwt>
<totfact> 0.51171363E+01</totfact>
</mgrwt>
</event>
<event>
 4    5  0.8511149E-008  0.8817258E+03  0.7818608E-02  0.9556028E-01
          2   -1    0    0  501    0  0.00000000000E+00  0.00000000000E+00  0.11698899375E+04  0.11698899375E+04  0.25500000000E-02 0. -1.
         -2   -1    0    0    0  501 -0.00000000000E+00 -0.00000000000E+00 -0.47298450675E+03  0.47298450675E+03  0.25500000000E-02 0.  1.
    8880023    1    1    2    0    0 -0.42137261211E+03  0.40752328954E+03  0.40025699270E+03  0.96832121541E+03  0.65864270000E+03 0.  1.
    8880022    1    1    2    0    0  0.42137261211E+03 -0.40752328954E+03  0.29664843808E+03  0.67455322887E+03  0.15294330000E+03 0. -1.
<mgrwt>
<rscale>  0 0.80276166E+03</rscale>
<asrwt>0</asrwt>
<pdfrwt beam="1">  1        2 0.17998307E+00 0.88172576E+03</pdfrwt>
<pdfrwt beam="2">  1       -2 0.72766847E-01 0.88172576E+03</pdfrwt>
<totfact> 0.33906850E+01</totfact>
</mgrwt>
</event>
<event>
 4    5  0.8511149E-008  0.1251629E+04  0.7818608E-02  0.9108499E-01
          2   -1    0    0  501    0  0.00000000000E+00  0.00000000000E+00  0.91272648108E+03  0.91272648108E+03  0.25500000000E-02 0. -1.
         -2   -1    0    0    0  501 -0.00000000000E+00 -0.00000000000E+00 -0.22403959617E+04  0.22403959617E+04  0.25500000000E-02 0.  1.
    8880023    1    1    2    0    0  0.57697977308E+03  0.89434834987E+03 -0.16120526919E+04  0.20409038971E+04  0.65864270000E+03 0.  0.
    8880022    1    1    2    0    0 -0.57697977308E+03 -0.89434834987E+03  0.28438321130E+03  0.11122185457E+04  0.15294330000E+03 0.  0.
<mgrwt>
<rscale>  0 0.12049908E+04</rscale>
<asrwt>0</asrwt>
<pdfrwt beam="1">  1        2 0.14041946E+00 0.12516289E+04</pdfrwt>
<pdfrwt beam="2">  1       -2 0.34467630E+00 0.12516289E+04</pdfrwt>
<totfact> 0.47201259E-01</totfact>
</mgrwt>
</event>
<event>
 4    5  0.8511149E-008  0.7843886E+03  0.7818608E-02  0.9745627E-01
          2   -1    0    0  501    0  0.00000000000E+00  0.00000000000E+00  0.34272556567E+04  0.34272556567E+04  0.25500000000E-02 0. -1.
         -2   -1    0    0    0  501 -0.00000000000E+00 -0.00000000000E+00 -0.38059325048E+03  0.38059325049E+03  0.25500000000E-02 0.  1.
    8880023    1    1    2    0    0 -0.32992662912E+03 -0.26945084439E+03  0.59553591131E+02  0.78664615592E+03  0.65864270000E+03 0.  1.
    8880022    1    1    2    0    0  0.32992662912E+03  0.26945084439E+03  0.29871088151E+04  0.30212027513E+04  0.15294330000E+03 0.  0.
<mgrwt>
<rscale>  0 0.68363954E+03</rscale>
<asrwt>0</asrwt>
<pdfrwt beam="1">  1        2 0.52727011E+00 0.78438864E+03</pdfrwt>
<pdfrwt beam="2">  1       -2 0.58552807E-01 0.78438864E+03</pdfrwt>
<totfact> 0.26791981E+00</totfact>
</mgrwt>
</event>
<event>
 4    5  0.8511149E-008  0.1078328E+04  0.7818608E-02  0.9285577E-01
          2   -1    0    0  501    0  0.00000000000E+00  0.00000000000E+00  0.13506534654E+04  0.13506534654E+04  0.25500000000E-02 0. -1.
         -2   -1    0    0    0  501 -0.00000000000E+00 -0.00000000000E+00 -0.10176376643E+04  0.10176376643E+04  0.25500000000E-02 0.  1.
    8880023    1    1    2    0    0 -0.77624007518E+03  0.35557463111E+03  0.83705330042E+03  0.13650825640E+04  0.65864270000E+03 0.  0.
    8880022    1    1    2    0    0  0.77624007518E+03 -0.35557463111E+03 -0.50403749935E+03  0.10032085657E+04  0.15294330000E+03 0.  0.
<mgrwt>
<rscale>  0 0.10212157E+04</rscale>
<asrwt>0</asrwt>
<pdfrwt beam="1">  1        2 0.20779284E+00 0.10783284E+04</pdfrwt>
<pdfrwt beam="2">  1       -2 0.15655964E+00 0.10783284E+04</pdfrwt>
<totfact> 0.40596315E+00</totfact>
</mgrwt>
</event>
<event>
 4    5  0.8511149E-008  0.9911612E+03  0.7818608E-02  0.9393214E-01
         -2   -1    0    0    0  501 -0.00000000000E+00  0.00000000000E+00  0.42879501841E+03  0.42879501841E+03  0.25500000000E-02 0.  1.
          2   -1    0    0  501    0  0.00000000000E+00 -0.00000000000E+00 -0.26884370058E+04  0.26884370058E+04  0.25500000000E-02 0. -1.
    8880023    1    1    2    0    0  0.69180196838E+03 -0.26457595774E+03 -0.32996778894E+03  0.10446431682E+04  0.65864270000E+03 0.  1.
    8880022    1    1    2    0    0 -0.69180196838E+03  0.26457595774E+03 -0.19296741984E+04  0.20725888560E+04  0.15294330000E+03 0.  0.
<mgrwt>
<rscale>  0 0.92636264E+03</rscale>
<asrwt>0</asrwt>
<pdfrwt beam="1">  1        2 0.41360569E+00 0.99116124E+03</pdfrwt>
<pdfrwt beam="2">  1       -2 0.65968466E-01 0.99116124E+03</pdfrwt>
<totfact> 0.57987848E+00</totfact>
</mgrwt>
</event>
<event>
 4    5  0.8511149E-008  0.9911371E+03  0.7818608E-02  0.9393246E-01
         -2   -1    0    0    0  501 -0.00000000000E+00  0.00000000000E+00  0.52351265350E+03  0.52351265351E+03  0.25500000000E-02 0.  1.
          2   -1    0    0  501    0  0.00000000000E+00 -0.00000000000E+00 -0.16973519232E+04  0.16973519232E+04  0.25500000000E-02 0. -1.
    8880023    1    1    2    0    0 -0.54559751396E+03 -0.50086521197E+03 -0.24106736178E+03  0.10200324931E+04  0.65864270000E+03 0.  0.
    8880022    1    1    2    0    0  0.54559751396E+03  0.50086521197E+03 -0.93277190792E+03  0.12008320836E+04  0.15294330000E+03 0.  0.
<mgrwt>
<rscale>  0 0.92633607E+03</rscale>
<asrwt>0</asrwt>
<pdfrwt beam="1">  1        2 0.26113106E+00 0.99113713E+03</pdfrwt>
<pdfrwt beam="2">  1       -2 0.80540409E-01 0.99113713E+03</pdfrwt>
<totfact> 0.13391679E+01</totfact>
</mgrwt>
</event>
<event>
 4    5  0.8511149E-008  0.1252043E+04  0.7818608E-02  0.9108121E-01
         -2   -1    0    0    0  501 -0.00000000000E+00  0.00000000000E+00  0.33213889329E+04  0.33213889329E+04  0.25500000000E-02 0.  1.
          2   -1    0    0  501    0  0.00000000000E+00 -0.00000000000E+00 -0.50226943789E+03  0.50226943790E+03  0.25500000000E-02 0. -1.
    8880023    1    1    2    0    0 -0.35989608118E+03 -0.10021357018E+04  0.23232368013E+04  0.26391363351E+04  0.65864270000E+03 0.  0.
    8880022    1    1    2    0    0  0.35989608118E+03  0.10021357018E+04  0.49588269376E+03  0.11845220357E+04  0.15294330000E+03 0.  0.
<mgrwt>
<rscale>  0 0.12054248E+04</rscale>
<asrwt>0</asrwt>
<pdfrwt beam="1">  1        2 0.77272219E-01 0.12520429E+04</pdfrwt>
<pdfrwt beam="2">  1       -2 0.51098293E+00 0.12520429E+04</pdfrwt>
<totfact> 0.84532627E-02</totfact>
</mgrwt>
</event>
<event>
 4    5  0.8511149E-008  0.7218421E+03  0.7818608E-02  0.9916402E-01
          2   -1    0    0  501    0  0.00000000000E+00  0.00000000000E+00  0.31811481959E+04  0.31811481959E+04  0.25500000000E-02 0. -1.
         -2   -1    0    0    0  501 -0.00000000000E+00 -0.00000000000E+00 -0.87826089971E+02  0.87826090008E+02  0.25500000000E-02 0.  1.
    8880023    1    1    2    0    0 -0.17682755995E+03  0.23659624551E+03  0.22227869146E+04  0.23370574754E+04  0.65864270000E+03 0.  1.
    8880022    1    1    2    0    0  0.17682755995E+03 -0.23659624551E+03  0.87053519127E+03  0.93191681045E+03  0.15294330000E+03 0. -1.
<mgrwt>
<rscale>  0 0.59472939E+03</rscale>
<asrwt>0</asrwt>
<pdfrwt beam="1">  1        2 0.48940752E+00 0.72184207E+03</pdfrwt>
<pdfrwt beam="2">  1       -2 0.13511703E-01 0.72184207E+03</pdfrwt>
<totfact> 0.59430149E+01</totfact>
</mgrwt>
</event>
<event>
 4    5  0.8511149E-008  0.9247995E+03  0.7818608E-02  0.9487339E-01
          2   -1    0    0  501    0  0.00000000000E+00  0.00000000000E+00  0.61934678984E+03  0.61934678985E+03  0.25500000000E-02 0. -1.
         -2   -1    0    0    0  501 -0.00000000000E+00 -0.00000000000E+00 -0.19076485985E+04  0.19076485985E+04  0.25500000000E-02 0.  1.
    8880023    1    1    2    0    0  0.50191630112E+03  0.41173290876E+03  0.15438649716E+03  0.93759765265E+03  0.65864270000E+03 0. -1.
    8880022    1    1    2    0    0 -0.50191630112E+03 -0.41173290876E+03 -0.14426883058E+04  0.15893977357E+04  0.15294330000E+03 0.  0.
<mgrwt>
<rscale>  0 0.85223751E+03</rscale>
<asrwt>0</asrwt>
<pdfrwt beam="1">  1        2 0.95284122E-01 0.92479953E+03</pdfrwt>
<pdfrwt beam="2">  1       -2 0.29348440E+00 0.92479953E+03</pdfrwt>
<totfact> 0.16864689E+00</totfact>
</mgrwt>
</event>
<event>
 4    5  0.8511149E-008  0.6594698E+03  0.7818608E-02  0.1024706E+00
          2   -1    0    0  501    0  0.00000000000E+00  0.00000000000E+00  0.13248309387E+04  0.13248309387E+04  0.25500000000E-02 0. -1.
         -2   -1    0    0    0  501 -0.00000000000E+00 -0.00000000000E+00 -0.61086179051E+03  0.61086179052E+03  0.25500000000E-02 0.  1.
    8880023    1    1    2    0    0 -0.44445981263E+01 -0.32718699886E+02 -0.42596036921E+03  0.78507497105E+03  0.65864270000E+03 0.  1.
    8880022    1    1    2    0    0  0.44445981263E+01  0.32718699886E+02  0.11399295174E+04  0.11506177582E+04  0.15294330000E+03 0.  0.
<mgrwt>
<rscale>  0 0.46025858E+03</rscale>
<asrwt>0</asrwt>
<pdfrwt beam="1">  1        2 0.20382014E+00 0.65946984E+03</pdfrwt>
<pdfrwt beam="2">  1       -2 0.93978737E-01 0.65946984E+03</pdfrwt>
<totfact> 0.15792463E+01</totfact>
</mgrwt>
</event>
<event>
 4    5  0.8511149E-008  0.6834560E+03  0.7818608E-02  0.1007433E+00
         -2   -1    0    0    0  501 -0.00000000000E+00  0.00000000000E+00  0.28691257220E+04  0.28691257220E+04  0.25500000000E-02 0.  1.
          2   -1    0    0  501    0  0.00000000000E+00 -0.00000000000E+00 -0.97612516755E+03  0.97612516755E+03  0.25500000000E-02 0. -1.
    8880023    1    1    2    0    0 -0.15153844938E+03 -0.10167578332E+03  0.28130526491E+04  0.28948881290E+04  0.65864270000E+03 0.  1.
    8880022    1    1    2    0    0  0.15153844938E+03  0.10167578332E+03 -0.92005209471E+03  0.95036276050E+03  0.15294330000E+03 0.  0.
<mgrwt>
<rscale>  0 0.52507892E+03</rscale>
<asrwt>0</asrwt>
<pdfrwt beam="1">  1        2 0.15017310E+00 0.68345598E+03</pdfrwt>
<pdfrwt beam="2">  1       -2 0.44140396E+00 0.68345598E+03</pdfrwt>
<totfact> 0.11255394E-01</totfact>
</mgrwt>
</event>
<event>
 4    5  0.8511149E-008  0.1178742E+04  0.7818608E-02  0.9178069E-01
         -2   -1    0    0    0  501 -0.00000000000E+00  0.00000000000E+00  0.59532373200E+03  0.59532373201E+03  0.25500000000E-02 0.  1.
          2   -1    0    0  501    0  0.00000000000E+00 -0.00000000000E+00 -0.24063431541E+04  0.24063431541E+04  0.25500000000E-02 0. -1.
    8880023    1    1    2    0    0  0.62076967379E+03  0.75516038931E+03 -0.33631395660E+03  0.12257811734E+04  0.65864270000E+03 0.  0.
    8880022    1    1    2    0    0 -0.62076967379E+03 -0.75516038931E+03 -0.14747054655E+04  0.17758857127E+04  0.15294330000E+03 0.  0.
<mgrwt>
<rscale>  0 0.11282690E+04</rscale>
<asrwt>0</asrwt>
<pdfrwt beam="1">  1        2 0.37020663E+00 0.11787419E+04</pdfrwt>
<pdfrwt beam="2">  1       -2 0.91588268E-01 0.11787419E+04</pdfrwt>
<totfact> 0.39443766E+00</totfact>
</mgrwt>
</event>
<event>
 4    5  0.8511149E-008  0.1123596E+04  0.7818608E-02  0.9235229E-01
         -2   -1    0    0    0  501 -0.00000000000E+00  0.00000000000E+00  0.36810853067E+03  0.36810853068E+03  0.25500000000E-02 0.  1.
          2   -1    0    0  501    0  0.00000000000E+00 -0.00000000000E+00 -0.37643082882E+04  0.37643082882E+04  0.25500000000E-02 0. -1.
    8880023    1    1    2    0    0 -0.87373360982E+03  0.25543359314E+03 -0.80636728730E+03  0.13830022233E+04  0.65864270000E+03 0.  0.
    8880022    1    1    2    0    0  0.87373360982E+03 -0.25543359314E+03 -0.25898324702E+04  0.27494145956E+04  0.15294330000E+03 0.  0.
<mgrwt>
<rscale>  0 0.10697087E+04</rscale>
<asrwt>0</asrwt>
<pdfrwt beam="1">  1        2 0.57912432E+00 0.11235955E+04</pdfrwt>
<pdfrwt beam="2">  1       -2 0.56632084E-01 0.11235955E+04</pdfrwt>
<totfact> 0.15669493E+00</totfact>
</mgrwt>
</event>
<event>
 4    5  0.8511149E-008  0.8531133E+03  0.7818608E-02  0.9605933E-01
         -2   -1    0    0    0  501 -0.00000000000E+00  0.00000000000E+00  0.12277696300E+04  0.12277696300E+04  0.25500000000E-02 0.  1.
          2   -1    0    0  501    0  0.00000000000E+00 -0.00000000000E+00 -0.60059074262E+03  0.60059074263E+03  0.25500000000E-02 0. -1.
    8880023    1    1    2    0    0 -0.14992419898E+03  0.52107091808E+03  0.86675349148E+03  0.12161677468E+04  0.65864270000E+03 0.  0.
    8880022    1    1    2    0    0  0.14992419898E+03 -0.52107091808E+03 -0.23957460414E+03  0.61219262579E+03  0.15294330000E+03 0.  0.
<mgrwt>
<rscale>  0 0.76904747E+03</rscale>
<asrwt>0</asrwt>
<pdfrwt beam="1">  1        2 0.92398576E-01 0.85311334E+03</pdfrwt>
<pdfrwt beam="2">  1       -2 0.18888764E+00 0.85311334E+03</pdfrwt>
<totfact> 0.78690492E+00</totfact>
</mgrwt>
</event>
<event>
 4    5  0.8511149E-008  0.9488769E+03  0.7818608E-02  0.9451732E-01
          2   -1    0    0  501    0  0.00000000000E+00  0.00000000000E+00  0.13493378495E+04  0.13493378495E+04  0.25500000000E-02 0. -1.
         -2   -1    0    0    0  501 -0.00000000000E+00 -0.00000000000E+00 -0.60377009219E+03  0.60377009219E+03  0.25500000000E-02 0.  1.
    8880023    1    1    2    0    0 -0.62574281998E+03  0.27386707847E+03  0.25972508627E+02  0.94923233768E+03  0.65864270000E+03 0.  1.
    8880022    1    1    2    0    0  0.62574281998E+03 -0.27386707847E+03  0.71959524873E+03  0.10038756041E+04  0.15294330000E+03 0.  0.
<mgrwt>
<rscale>  0 0.87937937E+03</rscale>
<asrwt>0</asrwt>
<pdfrwt beam="1">  1        2 0.20759044E+00 0.94887695E+03</pdfrwt>
<pdfrwt beam="2">  1       -2 0.92887708E-01 0.94887695E+03</pdfrwt>
<totfact> 0.15199719E+01</totfact>
</mgrwt>
</event>
<event>
 4    5  0.8511149E-008  0.6636070E+03  0.7818608E-02  0.1020732E+00
          2   -1    0    0  501    0  0.00000000000E+00  0.00000000000E+00  0.26191420637E+04  0.26191420637E+04  0.25500000000E-02 0. -1.
         -2   -1    0    0    0  501 -0.00000000000E+00 -0.00000000000E+00 -0.32805220416E+03  0.32805220417E+03  0.25500000000E-02 0.  1.
    8880023    1    1    2    0    0  0.65077770731E+02 -0.48259602865E+02  0.14223870847E+02  0.66375946718E+03  0.65864270000E+03 0.  1.
    8880022    1    1    2    0    0 -0.65077770731E+02  0.48259602865E+02  0.22768659887E+04  0.22834348007E+04  0.15294330000E+03 0.  0.
<mgrwt>
<rscale>  0 0.47423465E+03</rscale>
<asrwt>0</asrwt>
<pdfrwt beam="1">  1        2 0.40294492E+00 0.66360705E+03</pdfrwt>
<pdfrwt beam="2">  1       -2 0.50469572E-01 0.66360705E+03</pdfrwt>
<totfact> 0.11754313E+01</totfact>
</mgrwt>
</event>
<event>
 4    5  0.8511149E-008  0.7996537E+03  0.7818608E-02  0.9711545E-01
          2   -1    0    0  501    0  0.00000000000E+00  0.00000000000E+00  0.96020914168E+03  0.96020914169E+03  0.25500000000E-02 0. -1.
         -2   -1    0    0    0  501 -0.00000000000E+00 -0.00000000000E+00 -0.84906604955E+03  0.84906604955E+03  0.25500000000E-02 0.  1.
    8880023    1    1    2    0    0  0.80217515421E+02  0.44631945497E+03 -0.56628234752E+03  0.97985805555E+03  0.65864270000E+03 0.  1.
    8880022    1    1    2    0    0 -0.80217515421E+02 -0.44631945497E+03  0.67742543965E+03  0.82941713568E+03  0.15294330000E+03 0.  0.
<mgrwt>
<rscale>  0 0.70333536E+03</rscale>
<asrwt>0</asrwt>
<pdfrwt beam="1">  1        2 0.14772448E+00 0.79965375E+03</pdfrwt>
<pdfrwt beam="2">  1       -2 0.13062555E+00 0.79965375E+03</pdfrwt>
<totfact> 0.11599089E+01</totfact>
</mgrwt>
</event>
<event>
 4    5  0.8511149E-008  0.7758281E+03  0.7818608E-02  0.9765730E-01
          2   -1    0    0  501    0  0.00000000000E+00  0.00000000000E+00  0.45609700454E+04  0.45609700454E+04  0.25500000000E-02 0. -1.
         -2   -1    0    0    0  501 -0.00000000000E+00 -0.00000000000E+00 -0.98566847607E+03  0.98566847607E+03  0.25500000000E-02 0.  1.
    8880023    1    1    2    0    0  0.25178921921E+03  0.32357558953E+03 -0.82043801236E+03  0.11291712498E+04  0.65864270000E+03 0.  1.
    8880022    1    1    2    0    0 -0.25178921921E+03 -0.32357558953E+03  0.43957395817E+04  0.44174672716E+04  0.15294330000E+03 0.  0.
<mgrwt>
<rscale>  0 0.67234558E+03</rscale>
<asrwt>0</asrwt>
<pdfrwt beam="1">  1        2 0.70168769E+00 0.77582806E+03</pdfrwt>
<pdfrwt beam="2">  1       -2 0.15164131E+00 0.77582806E+03</pdfrwt>
<totfact> 0.35597867E-02</totfact>
</mgrwt>
</event>
<event>
 4    5  0.8511149E-008  0.1396069E+04  0.7818608E-02  0.8986743E-01
          2   -1    0    0  501    0  0.00000000000E+00  0.00000000000E+00  0.11401303265E+04  0.11401303265E+04  0.25500000000E-02 0. -1.
         -2   -1    0    0    0  501 -0.00000000000E+00 -0.00000000000E+00 -0.26565406135E+04  0.26565406135E+04  0.25500000000E-02 0.  1.
    8880023    1    1    2    0    0 -0.68355281040E+03 -0.10236961393E+04 -0.20220486905E+04  0.24571710041E+04  0.65864270000E+03 0.  1.
    8880022    1    1    2    0    0  0.68355281040E+03  0.10236961393E+04  0.50563840345E+03  0.13394999359E+04  0.15294330000E+03 0.  0.
<mgrwt>
<rscale>  0 0.13554094E+04</rscale>
<asrwt>0</asrwt>
<pdfrwt beam="1">  1        2 0.17540467E+00 0.13960689E+04</pdfrwt>
<pdfrwt beam="2">  1       -2 0.40869855E+00 0.13960689E+04</pdfrwt>
<totfact> 0.12851548E-01</totfact>
</mgrwt>
</event>
<event>
 4    5  0.8511149E-008  0.7262854E+03  0.7818608E-02  0.9901865E-01
         -2   -1    0    0    0  501 -0.00000000000E+00  0.00000000000E+00  0.10379605793E+03  0.10379605796E+03  0.25500000000E-02 0.  1.
          2   -1    0    0  501    0  0.00000000000E+00 -0.00000000000E+00 -0.27901772840E+04  0.27901772840E+04  0.25500000000E-02 0. -1.
    8880023    1    1    2    0    0  0.29730468721E+03  0.72733804623E+02 -0.19821664543E+04  0.21110363195E+04  0.65864270000E+03 0.  0.
    8880022    1    1    2    0    0 -0.29730468721E+03 -0.72733804623E+02 -0.70421477177E+03  0.78293702247E+03  0.15294330000E+03 0. -1.
<mgrwt>
<rscale>  0 0.60170980E+03</rscale>
<asrwt>0</asrwt>
<pdfrwt beam="1">  1        2 0.42925799E+00 0.72628541E+03</pdfrwt>
<pdfrwt beam="2">  1       -2 0.15968626E-01 0.72628541E+03</pdfrwt>
<totfact> 0.77607246E+01</totfact>
</mgrwt>
</event>
<event>
 4    5  0.1120757E-007  0.9950602E+03  0.7818608E-02  0.9388049E-01
          2   -1    0    0  501    0  0.00000000000E+00  0.00000000000E+00  0.24236506733E+04  0.24236506733E+04  0.25500000000E-02 0. -1.
         -2   -1    0    0    0  501 -0.00000000000E+00 -0.00000000000E+00 -0.18131291252E+04  0.18131291252E+04  0.25500000000E-02 0.  1.
    8880023    1    1    2    0    0 -0.73243914995E+03  0.14095198743E+03 -0.16081433990E+04  0.18911028446E+04  0.65864270000E+03 0.  1.
    8880022    1    1    2    0    0  0.73243914995E+03 -0.14095198743E+03  0.22186649471E+04  0.23456769538E+04  0.15294330000E+03 0.  0.
<mgrwt>
<rscale>  0 0.93065750E+03</rscale>
<asrwt>0</asrwt>
<pdfrwt beam="1">  1        2 0.37286933E+00 0.99506019E+03</pdfrwt>
<pdfrwt beam="2">  1       -2 0.27894294E+00 0.99506019E+03</pdfrwt>
<totfact> 0.16715087E-01</totfact>
</mgrwt>
</event>
<event>
 4    5  0.8511149E-008  0.8478531E+03  0.7818608E-02  0.9615547E-01
          2   -1    0    0  501    0  0.00000000000E+00  0.00000000000E+00  0.39703678776E+03  0.39703678777E+03  0.25500000000E-02 0. -1.
         -2   -1    0    0    0  501 -0.00000000000E+00 -0.00000000000E+00 -0.39098292055E+04  0.39098292055E+04  0.25500000000E-02 0.  1.
    8880023    1    1    2    0    0  0.21181417994E+03  0.49008105848E+03 -0.36397273933E+04  0.37371741188E+04  0.65864270000E+03 0.  1.
    8880022    1    1    2    0    0 -0.21181417994E+03 -0.49008105848E+03  0.12693497560E+03  0.56969187439E+03  0.15294330000E+03 0.  0.
<mgrwt>
<rscale>  0 0.76275692E+03</rscale>
<asrwt>0</asrwt>
<pdfrwt beam="1">  1        2 0.61082585E-01 0.84785311E+03</pdfrwt>
<pdfrwt beam="2">  1       -2 0.60151216E+00 0.84785311E+03</pdfrwt>
<totfact> 0.40366786E-02</totfact>
</mgrwt>
</event>
<event>
 4    5  0.8511149E-008  0.1123190E+04  0.7818608E-02  0.9235665E-01
         -2   -1    0    0    0  501 -0.00000000000E+00  0.00000000000E+00  0.92085180231E+03  0.92085180231E+03  0.25500000000E-02 0.  1.
          2   -1    0    0  501    0  0.00000000000E+00 -0.00000000000E+00 -0.12858777165E+04  0.12858777165E+04  0.25500000000E-02 0. -1.
    8880023    1    1    2    0    0  0.89629207887E+03 -0.15622790069E+03 -0.57314827960E+03  0.12609741489E+04  0.65864270000E+03 0.  0.
    8880022    1    1    2    0    0 -0.89629207887E+03  0.15622790069E+03  0.20812236544E+03  0.94575536986E+03  0.15294330000E+03 0.  0.
<mgrwt>
<rscale>  0 0.10692766E+04</rscale>
<asrwt>0</asrwt>
<pdfrwt beam="1">  1        2 0.19782734E+00 0.11231905E+04</pdfrwt>
<pdfrwt beam="2">  1       -2 0.14166951E+00 0.11231905E+04</pdfrwt>
<totfact> 0.57499007E+00</totfact>
</mgrwt>
</event>
<event>
 4    5  0.8511149E-008  0.6853395E+03  0.7818608E-02  0.1006451E+00
         -2   -1    0    0    0  501 -0.00000000000E+00  0.00000000000E+00  0.21658875425E+03  0.21658875426E+03  0.25500000000E-02 0.  1.
          2   -1    0    0  501    0  0.00000000000E+00 -0.00000000000E+00 -0.13441952072E+04  0.13441952072E+04  0.25500000000E-02 0. -1.
    8880023    1    1    2    0    0  0.17023717460E+03  0.83062161477E+02 -0.40000664801E+03  0.79353358026E+03  0.65864270000E+03 0.  1.
    8880022    1    1    2    0    0 -0.17023717460E+03 -0.83062161477E+02 -0.72759980499E+03  0.76725038125E+03  0.15294330000E+03 0.  0.
<mgrwt>
<rscale>  0 0.52909690E+03</rscale>
<asrwt>0</asrwt>
<pdfrwt beam="1">  1        2 0.20679926E+00 0.68533950E+03</pdfrwt>
<pdfrwt beam="2">  1       -2 0.33321348E-01 0.68533950E+03</pdfrwt>
<totfact> 0.13376290E+02</totfact>
</mgrwt>
</event>
<event>
 4    5  0.8511149E-008  0.7347246E+03  0.7818608E-02  0.9875589E-01
          2   -1    0    0  501    0  0.00000000000E+00  0.00000000000E+00  0.13484793018E+04  0.13484793018E+04  0.25500000000E-02 0. -1.
         -2   -1    0    0    0  501 -0.00000000000E+00 -0.00000000000E+00 -0.34755886816E+03  0.34755886817E+03  0.25500000000E-02 0.  1.
    8880023    1    1    2    0    0  0.39793630836E+02  0.32315079842E+03  0.11994554989E+03  0.74445088003E+03  0.65864270000E+03 0.  0.
    8880022    1    1    2    0    0 -0.39793630836E+02 -0.32315079842E+03  0.88097488371E+03  0.95158728991E+03  0.15294330000E+03 0.  0.
<mgrwt>
<rscale>  0 0.61459056E+03</rscale>
<asrwt>0</asrwt>
<pdfrwt beam="1">  1        2 0.20745836E+00 0.73472456E+03</pdfrwt>
<pdfrwt beam="2">  1       -2 0.53470594E-01 0.73472456E+03</pdfrwt>
<totfact> 0.52145334E+01</totfact>
</mgrwt>
</event>
<event>
 4    5  0.8511149E-008  0.1538358E+04  0.7818608E-02  0.8883014E-01
         -2   -1    0    0    0  501 -0.00000000000E+00  0.00000000000E+00  0.69828046948E+03  0.69828046949E+03  0.25500000000E-02 0.  1.
          2   -1    0    0  501    0  0.00000000000E+00 -0.00000000000E+00 -0.38348330447E+04  0.38348330447E+04  0.25500000000E-02 0. -1.
    8880023    1    1    2    0    0 -0.47306789373E+03 -0.13072650566E+04 -0.62919509888E+03  0.16620565089E+04  0.65864270000E+03 0.  0.
    8880022    1    1    2    0    0  0.47306789373E+03  0.13072650566E+04 -0.25073574763E+04  0.28710570052E+04  0.15294330000E+03 0.  0.
<mgrwt>
<rscale>  0 0.15021652E+04</rscale>
<asrwt>0</asrwt>
<pdfrwt beam="1">  1        2 0.58997430E+00 0.15383580E+04</pdfrwt>
<pdfrwt beam="2">  1       -2 0.10742777E+00 0.15383580E+04</pdfrwt>
<totfact> 0.30877194E-01</totfact>
</mgrwt>
</event>
<event>
 4    5  0.8511149E-008  0.7996759E+03  0.7818608E-02  0.9711497E-01
         -2   -1    0    0    0  501 -0.00000000000E+00  0.00000000000E+00  0.30962266298E+03  0.30962266299E+03  0.25500000000E-02 0.  1.
          2   -1    0    0  501    0  0.00000000000E+00 -0.00000000000E+00 -0.19142381190E+04  0.19142381190E+04  0.25500000000E-02 0. -1.
    8880023    1    1    2    0    0  0.73044904896E+02 -0.44758879227E+03 -0.15474393041E+04  0.17418524310E+04  0.65864270000E+03 0.  1.
    8880022    1    1    2    0    0 -0.73044904896E+02  0.44758879227E+03 -0.57176151916E+02  0.48200835103E+03  0.15294330000E+03 0.  0.
<mgrwt>
<rscale>  0 0.70336353E+03</rscale>
<asrwt>0</asrwt>
<pdfrwt beam="1">  1        2 0.29449817E+00 0.79967587E+03</pdfrwt>
<pdfrwt beam="2">  1       -2 0.47634257E-01 0.79967587E+03</pdfrwt>
<totfact> 0.31897964E+01</totfact>
</mgrwt>
</event>
<event>
 4    5  0.8511149E-008  0.1424393E+04  0.7818608E-02  0.8964957E-01
         -2   -1    0    0    0  501 -0.00000000000E+00  0.00000000000E+00  0.14647857888E+04  0.14647857888E+04  0.25500000000E-02 0.  1.
          2   -1    0    0  501    0  0.00000000000E+00 -0.00000000000E+00 -0.13437160131E+04  0.13437160131E+04  0.25500000000E-02 0. -1.
    8880023    1    1    2    0    0  0.23846559227E+03 -0.12402496969E+04  0.45124430430E+03  0.14941608942E+04  0.65864270000E+03 0.  0.
    8880022    1    1    2    0    0 -0.23846559227E+03  0.12402496969E+04 -0.33017452864E+03  0.13143409077E+04  0.15294330000E+03 0.  0.
<mgrwt>
<rscale>  0 0.13847159E+04</rscale>
<asrwt>0</asrwt>
<pdfrwt beam="1">  1        2 0.20672554E+00 0.14243930E+04</pdfrwt>
<pdfrwt beam="2">  1       -2 0.22535166E+00 0.14243930E+04</pdfrwt>
<totfact> 0.13531824E+00</totfact>
</mgrwt>
</event>
<event>
 4    5  0.8511149E-008  0.1238275E+04  0.7818608E-02  0.9120785E-01
         -2   -1    0    0    0  501 -0.00000000000E+00  0.00000000000E+00  0.10534302007E+04  0.10534302007E+04  0.25500000000E-02 0.  1.
          2   -1    0    0  501    0  0.00000000000E+00 -0.00000000000E+00 -0.22752859962E+04  0.22752859962E+04  0.25500000000E-02 0. -1.
    8880023    1    1    2    0    0 -0.76690152955E+01 -0.10485493786E+04  0.47657895417E+03  0.13268203793E+04  0.65864270000E+03 0.  1.
    8880022    1    1    2    0    0  0.76690152955E+01  0.10485493786E+04 -0.16984347497E+04  0.20018958177E+04  0.15294330000E+03 0.  0.
<mgrwt>
<rscale>  0 0.11909835E+04</rscale>
<asrwt>0</asrwt>
<pdfrwt beam="1">  1        2 0.35004400E+00 0.12382749E+04</pdfrwt>
<pdfrwt beam="2">  1       -2 0.16206619E+00 0.12382749E+04</pdfrwt>
<totfact> 0.11046414E+00</totfact>
</mgrwt>
</event>
<event>
 4    5  0.8511149E-008  0.8115870E+03  0.7818608E-02  0.9686281E-01
          2   -1    0    0  501    0  0.00000000000E+00  0.00000000000E+00  0.28034173759E+04  0.28034173759E+04  0.25500000000E-02 0. -1.
         -2   -1    0    0    0  501 -0.00000000000E+00 -0.00000000000E+00 -0.25902230078E+03  0.25902230079E+03  0.25500000000E-02 0.  1.
    8880023    1    1    2    0    0  0.41234139699E+03 -0.23417467596E+03  0.48900991858E+03  0.94752525733E+03  0.65864270000E+03 0.  1.
    8880022    1    1    2    0    0 -0.41234139699E+03  0.23417467596E+03  0.20553851565E+04  0.21149144193E+04  0.15294330000E+03 0.  0.
<mgrwt>
<rscale>  0 0.71839536E+03</rscale>
<asrwt>0</asrwt>
<pdfrwt beam="1">  1        2 0.43129497E+00 0.81158697E+03</pdfrwt>
<pdfrwt beam="2">  1       -2 0.39849586E-01 0.81158697E+03</pdfrwt>
<totfact> 0.14330875E+01</totfact>
</mgrwt>
</event>
<event>
 4    5  0.8511149E-008  0.7323320E+03  0.7818608E-02  0.9882874E-01
         -2   -1    0    0    0  501 -0.00000000000E+00  0.00000000000E+00  0.52647817494E+03  0.52647817494E+03  0.25500000000E-02 0.  1.
          2   -1    0    0  501    0  0.00000000000E+00 -0.00000000000E+00 -0.14822462529E+04  0.14822462529E+04  0.25500000000E-02 0. -1.
    8880023    1    1    2    0    0 -0.20946646066E+03 -0.24212342477E+03  0.23270735097E+03  0.76841581740E+03  0.65864270000E+03 0.  1.
    8880022    1    1    2    0    0  0.20946646066E+03  0.24212342477E+03 -0.11884754290E+04  0.12403086105E+04  0.15294330000E+03 0.  0.
<mgrwt>
<rscale>  0 0.61098508E+03</rscale>
<asrwt>0</asrwt>
<pdfrwt beam="1">  1        2 0.22803788E+00 0.73233200E+03</pdfrwt>
<pdfrwt beam="2">  1       -2 0.80996643E-01 0.73233200E+03</pdfrwt>
<totfact> 0.17917735E+01</totfact>
</mgrwt>
</event>
<event>
 4    5  0.8511149E-008  0.1002681E+04  0.7818608E-02  0.9378059E-01
         -2   -1    0    0    0  501 -0.00000000000E+00  0.00000000000E+00  0.29868904486E+04  0.29868904486E+04  0.25500000000E-02 0.  1.
          2   -1    0    0  501    0  0.00000000000E+00 -0.00000000000E+00 -0.58820984567E+03  0.58820984567E+03  0.25500000000E-02 0. -1.
    8880023    1    1    2    0    0 -0.15810455938E+03 -0.73929801851E+03  0.25926246415E+04  0.27797610239E+04  0.65864270000E+03 0.  1.
    8880022    1    1    2    0    0  0.15810455938E+03  0.73929801851E+03 -0.19394403860E+03  0.79533927037E+03  0.15294330000E+03 0.  0.
<mgrwt>
<rscale>  0 0.93903572E+03</rscale>
<asrwt>0</asrwt>
<pdfrwt beam="1">  1        2 0.90493822E-01 0.10026808E+04</pdfrwt>
<pdfrwt beam="2">  1       -2 0.45952161E+00 0.10026808E+04</pdfrwt>
<totfact> 0.15542091E-01</totfact>
</mgrwt>
</event>
<event>
 4    5  0.8511149E-008  0.7133952E+03  0.7818608E-02  0.9945603E-01
         -2   -1    0    0    0  501 -0.00000000000E+00  0.00000000000E+00  0.31291336720E+03  0.31291336721E+03  0.25500000000E-02 0.  1.
          2   -1    0    0  501    0  0.00000000000E+00 -0.00000000000E+00 -0.25419805330E+04  0.25419805330E+04  0.25500000000E-02 0. -1.
    8880023    1    1    2    0    0 -0.27034082828E+03 -0.45147640010E+02 -0.23956101984E+04  0.24995761444E+04  0.65864270000E+03 0. -1.
    8880022    1    1    2    0    0  0.27034082828E+03  0.45147640010E+02  0.16654303262E+03  0.35531775577E+03  0.15294330000E+03 0.  0.
<mgrwt>
<rscale>  0 0.58101178E+03</rscale>
<asrwt>0</asrwt>
<pdfrwt beam="1">  1        2 0.39107391E+00 0.71339518E+03</pdfrwt>
<pdfrwt beam="2">  1       -2 0.48140520E-01 0.71339518E+03</pdfrwt>
<totfact> 0.14189130E+01</totfact>
</mgrwt>
</event>
<event>
 4    5  0.8511149E-008  0.1248463E+04  0.7818608E-02  0.9111394E-01
          2   -1    0    0  501    0  0.00000000000E+00  0.00000000000E+00  0.29760955741E+04  0.29760955741E+04  0.25500000000E-02 0. -1.
         -2   -1    0    0    0  501 -0.00000000000E+00 -0.00000000000E+00 -0.76204003453E+03  0.76204003454E+03  0.25500000000E-02 0.  1.
    8880023    1    1    2    0    0 -0.95286180355E+03  0.46573089474E+03 -0.32739455957E+02  0.12488926940E+04  0.65864270000E+03 0.  0.
    8880022    1    1    2    0    0  0.95286180355E+03 -0.46573089474E+03  0.22467949955E+04  0.24892429146E+04  0.15294330000E+03 0.  0.
<mgrwt>
<rscale>  0 0.12016724E+04</rscale>
<asrwt>0</asrwt>
<pdfrwt beam="1">  1        2 0.45786086E+00 0.12484635E+04</pdfrwt>
<pdfrwt beam="2">  1       -2 0.11723693E+00 0.12484635E+04</pdfrwt>
<totfact> 0.99491607E-01</totfact>
</mgrwt>
</event>
<event>
 4    5  0.8511149E-008  0.6819005E+03  0.7818608E-02  0.1008268E+00
         -2   -1    0    0    0  501 -0.00000000000E+00  0.00000000000E+00  0.17659671299E+03  0.17659671300E+03  0.25500000000E-02 0.  1.
          2   -1    0    0  501    0  0.00000000000E+00 -0.00000000000E+00 -0.30501630812E+04  0.30501630812E+04  0.25500000000E-02 0. -1.
    8880023    1    1    2    0    0 -0.17251662577E+03 -0.37631398368E+02 -0.50960552744E+03  0.85128497471E+03  0.65864270000E+03 0.  1.
    8880022    1    1    2    0    0  0.17251662577E+03  0.37631398368E+02 -0.23639608408E+04  0.23754748195E+04  0.15294330000E+03 0.  0.
<mgrwt>
<rscale>  0 0.52168671E+03</rscale>
<asrwt>0</asrwt>
<pdfrwt beam="1">  1        2 0.46925582E+00 0.68190052E+03</pdfrwt>
<pdfrwt beam="2">  1       -2 0.27168727E-01 0.68190052E+03</pdfrwt>
<totfact> 0.21396994E+01</totfact>
</mgrwt>
</event>
<event>
 4    5  0.8511149E-008  0.7350409E+03  0.7818608E-02  0.9874635E-01
          2   -1    0    0  501    0  0.00000000000E+00  0.00000000000E+00  0.29185774345E+04  0.29185774345E+04  0.25500000000E-02 0. -1.
         -2   -1    0    0    0  501 -0.00000000000E+00 -0.00000000000E+00 -0.10447695871E+03  0.10447695874E+03  0.25500000000E-02 0.  1.
    8880023    1    1    2    0    0  0.27651882255E+03  0.17324049102E+03  0.16994799156E+04  0.18516255336E+04  0.65864270000E+03 0. -1.
    8880022    1    1    2    0    0 -0.27651882255E+03 -0.17324049102E+03  0.11146205603E+04  0.11714288597E+04  0.15294330000E+03 0.  0.
<mgrwt>
<rscale>  0 0.61506471E+03</rscale>
<asrwt>0</asrwt>
<pdfrwt beam="1">  1        2 0.44901194E+00 0.73504091E+03</pdfrwt>
<pdfrwt beam="2">  1       -2 0.16073377E-01 0.73504091E+03</pdfrwt>
<totfact> 0.64273530E+01</totfact>
</mgrwt>
</event>
<event>
 4    5  0.8511149E-008  0.1976470E+04  0.7818608E-02  0.8630730E-01
         -2   -1    0    0    0  501 -0.00000000000E+00  0.00000000000E+00  0.14418598865E+04  0.14418598865E+04  0.25500000000E-02 0.  1.
          2   -1    0    0  501    0  0.00000000000E+00 -0.00000000000E+00 -0.27425725374E+04  0.27425725374E+04  0.25500000000E-02 0. -1.
    8880023    1    1    2    0    0 -0.18605776142E+04  0.10427892881E+03 -0.13505764654E+03  0.19810789807E+04  0.65864270000E+03 0.  0.
    8880022    1    1    2    0    0  0.18605776142E+04 -0.10427892881E+03 -0.11656550043E+04  0.22033534432E+04  0.15294330000E+03 0.  0.
<mgrwt>
<rscale>  0 0.19492355E+04</rscale>
<asrwt>0</asrwt>
<pdfrwt beam="1">  1        2 0.42193424E+00 0.19764699E+04</pdfrwt>
<pdfrwt beam="2">  1       -2 0.22182460E+00 0.19764699E+04</pdfrwt>
<totfact> 0.21539294E-01</totfact>
</mgrwt>
</event>
<event>
 4    5  0.8511149E-008  0.1087891E+04  0.7818608E-02  0.9274659E-01
          2   -1    0    0  501    0  0.00000000000E+00  0.00000000000E+00  0.11101066068E+04  0.11101066068E+04  0.25500000000E-02 0. -1.
         -2   -1    0    0    0  501 -0.00000000000E+00 -0.00000000000E+00 -0.16321501422E+04  0.16321501422E+04  0.25500000000E-02 0.  1.
    8880023    1    1    2    0    0  0.83756717108E+03 -0.21949517036E+03 -0.12090431621E+04  0.16264355106E+04  0.65864270000E+03 0.  0.
    8880022    1    1    2    0    0 -0.83756717108E+03  0.21949517036E+03  0.68699962674E+03  0.11158212384E+04  0.15294330000E+03 0.  0.
<mgrwt>
<rscale>  0 0.10314964E+04</rscale>
<asrwt>0</asrwt>
<pdfrwt beam="1">  1        2 0.17078563E+00 0.10878911E+04</pdfrwt>
<pdfrwt beam="2">  1       -2 0.25110002E+00 0.10878911E+04</pdfrwt>
<totfact> 0.13395962E+00</totfact>
</mgrwt>
</event>
<event>
 4    5  0.8511149E-008  0.1320431E+04  0.7818608E-02  0.9048114E-01
          2   -1    0    0  501    0  0.00000000000E+00  0.00000000000E+00  0.13904382923E+04  0.13904382923E+04  0.25500000000E-02 0. -1.
         -2   -1    0    0    0  501 -0.00000000000E+00 -0.00000000000E+00 -0.13546973646E+04  0.13546973646E+04  0.25500000000E-02 0.  1.
    8880023    1    1    2    0    0  0.58947354614E+03 -0.98094319020E+03 -0.57355977821E+03  0.14396213493E+04  0.65864270000E+03 0.  1.
    8880022    1    1    2    0    0 -0.58947354614E+03  0.98094319020E+03  0.60930070587E+03  0.13055143075E+04  0.15294330000E+03 0.  0.
<mgrwt>
<rscale>  0 0.12768666E+04</rscale>
<asrwt>0</asrwt>
<pdfrwt beam="1">  1        2 0.21391358E+00 0.13204313E+04</pdfrwt>
<pdfrwt beam="2">  1       -2 0.20841498E+00 0.13204313E+04</pdfrwt>
<totfact> 0.16466347E+00</totfact>
</mgrwt>
</event>
<event>
 4    5  0.8511149E-008  0.1608265E+04  0.7818608E-02  0.8836743E-01
          2   -1    0    0  501    0  0.00000000000E+00  0.00000000000E+00  0.97721814730E+03  0.97721814730E+03  0.25500000000E-02 0. -1.
         -2   -1    0    0    0  501 -0.00000000000E+00 -0.00000000000E+00 -0.24800334270E+04  0.24800334270E+04  0.25500000000E-02 0.  1.
    8880023    1    1    2    0    0  0.11190362345E+04 -0.94892704465E+03 -0.54359092894E+03  0.16976471761E+04  0.65864270000E+03 0.  0.
    8880022    1    1    2    0    0 -0.11190362345E+04  0.94892704465E+03 -0.95922435073E+03  0.17596043982E+04  0.15294330000E+03 0.  0.
<mgrwt>
<rscale>  0 0.15739027E+04</rscale>
<asrwt>0</asrwt>
<pdfrwt beam="1">  1        2 0.15034125E+00 0.16082645E+04</pdfrwt>
<pdfrwt beam="2">  1       -2 0.38154360E+00 0.16082645E+04</pdfrwt>
<totfact> 0.23961029E-01</totfact>
</mgrwt>
</event>
<event>
 4    5  0.8511149E-008  0.8605444E+03  0.7818608E-02  0.9592596E-01
         -2   -1    0    0    0  501 -0.00000000000E+00  0.00000000000E+00  0.29418045785E+03  0.29418045786E+03  0.25500000000E-02 0.  1.
          2   -1    0    0  501    0  0.00000000000E+00 -0.00000000000E+00 -0.23226133051E+04  0.23226133051E+04  0.25500000000E-02 0. -1.
    8880023    1    1    2    0    0 -0.55367994115E+03  0.12843879538E+02 -0.52678256700E+03  0.10089779589E+04  0.65864270000E+03 0. -1.
    8880022    1    1    2    0    0  0.55367994115E+03 -0.12843879538E+02 -0.15016502802E+04  0.16078158040E+04  0.15294330000E+03 0.  0.
<mgrwt>
<rscale>  0 0.77788183E+03</rscale>
<asrwt>0</asrwt>
<pdfrwt beam="1">  1        2 0.35732511E+00 0.86054439E+03</pdfrwt>
<pdfrwt beam="2">  1       -2 0.45258534E-01 0.86054439E+03</pdfrwt>
<totfact> 0.20898057E+01</totfact>
</mgrwt>
</event>
<event>
 4    5  0.8511149E-008  0.8581875E+03  0.7818608E-02  0.9596796E-01
         -2   -1    0    0    0  501 -0.00000000000E+00  0.00000000000E+00  0.73072821371E+03  0.73072821371E+03  0.25500000000E-02 0.  1.
          2   -1    0    0  501    0  0.00000000000E+00 -0.00000000000E+00 -0.13247177466E+04  0.13247177466E+04  0.25500000000E-02 0. -1.
    8880023    1    1    2    0    0 -0.54711016616E+03 -0.57845380584E+02  0.37037713888E+03  0.93470051526E+03  0.65864270000E+03 0.  0.
    8880022    1    1    2    0    0  0.54711016616E+03  0.57845380584E+02 -0.96436667177E+03  0.11207454451E+04  0.15294330000E+03 0.  0.
<mgrwt>
<rscale>  0 0.77508628E+03</rscale>
<asrwt>0</asrwt>
<pdfrwt beam="1">  1        2 0.20380273E+00 0.85818753E+03</pdfrwt>
<pdfrwt beam="2">  1       -2 0.11241973E+00 0.85818753E+03</pdfrwt>
<totfact> 0.10049895E+01</totfact>
</mgrwt>
</event>
<event>
 4    5  0.8511149E-008  0.1388256E+04  0.7818608E-02  0.8992862E-01
          2   -1    0    0  501    0  0.00000000000E+00  0.00000000000E+00  0.22736081518E+04  0.22736081518E+04  0.25500000000E-02 0. -1.
         -2   -1    0    0    0  501 -0.00000000000E+00 -0.00000000000E+00 -0.87146191011E+03  0.87146191011E+03  0.25500000000E-02 0.  1.
    8880023    1    1    2    0    0 -0.85353284814E+03  0.87460126492E+03  0.16268291596E+03  0.13977559275E+04  0.65864270000E+03 0.  0.
    8880022    1    1    2    0    0  0.85353284814E+03 -0.87460126492E+03  0.12394633257E+04  0.17473141344E+04  0.15294330000E+03 0.  0.
<mgrwt>
<rscale>  0 0.13473166E+04</rscale>
<asrwt>0</asrwt>
<pdfrwt beam="1">  1        2 0.34978586E+00 0.13882564E+04</pdfrwt>
<pdfrwt beam="2">  1       -2 0.13407106E+00 0.13882564E+04</pdfrwt>
<totfact> 0.18034288E+00</totfact>
</mgrwt>
</event>
<event>
 4    5  0.8511149E-008  0.9639577E+03  0.7818608E-02  0.9430310E-01
          2   -1    0    0  501    0  0.00000000000E+00  0.00000000000E+00  0.64391547731E+03  0.64391547731E+03  0.25500000000E-02 0. -1.
         -2   -1    0    0    0  501 -0.00000000000E+00 -0.00000000000E+00 -0.14957313555E+04  0.14957313555E+04  0.25500000000E-02 0.  1.
    8880023    1    1    2    0    0 -0.78478105796E+02  0.69946083547E+03 -0.10163915854E+04  0.14008091714E+04  0.65864270000E+03 0.  1.
    8880022    1    1    2    0    0  0.78478105796E+02 -0.69946083547E+03  0.16457570728E+03  0.73883766139E+03  0.15294330000E+03 0.  0.
<mgrwt>
<rscale>  0 0.89622707E+03</rscale>
<asrwt>0</asrwt>
<pdfrwt beam="1">  1        2 0.99063920E-01 0.96395772E+03</pdfrwt>
<pdfrwt beam="2">  1       -2 0.23011252E+00 0.96395772E+03</pdfrwt>
<totfact> 0.38833128E+00</totfact>
</mgrwt>
</event>
<event>
 4    5  0.8511149E-008  0.1069073E+04  0.7818608E-02  0.9296297E-01
         -2   -1    0    0    0  501 -0.00000000000E+00  0.00000000000E+00  0.86450723495E+03  0.86450723495E+03  0.25500000000E-02 0.  1.
          2   -1    0    0  501    0  0.00000000000E+00 -0.00000000000E+00 -0.17472932158E+04  0.17472932158E+04  0.25500000000E-02 0. -1.
    8880023    1    1    2    0    0 -0.20579127347E+03 -0.81655166991E+03  0.33769396978E+03  0.11211396440E+04  0.65864270000E+03 0.  0.
    8880022    1    1    2    0    0  0.20579127347E+03  0.81655166991E+03 -0.12204799506E+04  0.14906608067E+04  0.15294330000E+03 0.  0.
<mgrwt>
<rscale>  0 0.10112449E+04</rscale>
<asrwt>0</asrwt>
<pdfrwt beam="1">  1        2 0.26881434E+00 0.10690729E+04</pdfrwt>
<pdfrwt beam="2">  1       -2 0.13300111E+00 0.10690729E+04</pdfrwt>
<totfact> 0.37351475E+00</totfact>
</mgrwt>
</event>
<event>
 4    5  0.8511149E-008  0.1456808E+04  0.7818608E-02  0.8940753E-01
          2   -1    0    0  501    0  0.00000000000E+00  0.00000000000E+00  0.42214026297E+04  0.42214026297E+04  0.25500000000E-02 0. -1.
         -2   -1    0    0    0  501 -0.00000000000E+00 -0.00000000000E+00 -0.96766744829E+03  0.96766744830E+03  0.25500000000E-02 0.  1.
    8880023    1    1    2    0    0  0.89365844149E+03 -0.94332023116E+03 -0.22347620347E+03  0.14738488010E+04  0.65864270000E+03 0.  0.
    8880022    1    1    2    0    0 -0.89365844149E+03  0.94332023116E+03  0.34772113849E+04  0.37152212770E+04  0.15294330000E+03 0.  0.
<mgrwt>
<rscale>  0 0.14181936E+04</rscale>
<asrwt>0</asrwt>
<pdfrwt beam="1">  1        2 0.64944656E+00 0.14568077E+04</pdfrwt>
<pdfrwt beam="2">  1       -2 0.14887191E+00 0.14568077E+04</pdfrwt>
<totfact> 0.66171355E-02</totfact>
</mgrwt>
</event>
<event>
 4    5  0.8511149E-008  0.7931524E+03  0.7818608E-02  0.9725802E-01
          2   -1    0    0  501    0  0.00000000000E+00  0.00000000000E+00  0.10353758495E+04  0.10353758495E+04  0.25500000000E-02 0. -1.
         -2   -1    0    0    0  501 -0.00000000000E+00 -0.00000000000E+00 -0.80920148253E+03  0.80920148253E+03  0.25500000000E-02 0.  1.
    8880023    1    1    2    0    0 -0.17909922502E+03  0.40398508775E+03 -0.53110771414E+03  0.95455020497E+03  0.65864270000E+03 0.  1.
    8880022    1    1    2    0    0  0.17909922502E+03 -0.40398508775E+03  0.75728208113E+03  0.89002712708E+03  0.15294330000E+03 0.  0.
<mgrwt>
<rscale>  0 0.69501096E+03</rscale>
<asrwt>0</asrwt>
<pdfrwt beam="1">  1        2 0.15928859E+00 0.79315237E+03</pdfrwt>
<pdfrwt beam="2">  1       -2 0.12449254E+00 0.79315237E+03</pdfrwt>
<totfact> 0.11728815E+01</totfact>
</mgrwt>
</event>
<event>
 4    5  0.8511149E-008  0.7590045E+03  0.7818608E-02  0.9807691E-01
         -2   -1    0    0    0  501 -0.00000000000E+00  0.00000000000E+00  0.55853973141E+03  0.55853973141E+03  0.25500000000E-02 0.  1.
          2   -1    0    0  501    0  0.00000000000E+00 -0.00000000000E+00 -0.17047107339E+04  0.17047107339E+04  0.25500000000E-02 0. -1.
    8880023    1    1    2    0    0 -0.28385907753E+03 -0.24839827767E+03  0.25770485212E+03  0.80156077581E+03  0.65864270000E+03 0.  0.
    8880022    1    1    2    0    0  0.28385907753E+03  0.24839827767E+03 -0.14038758546E+04  0.14616896895E+04  0.15294330000E+03 0.  0.
<mgrwt>
<rscale>  0 0.64951404E+03</rscale>
<asrwt>0</asrwt>
<pdfrwt beam="1">  1        2 0.26226319E+00 0.75900454E+03</pdfrwt>
<pdfrwt beam="2">  1       -2 0.85929191E-01 0.75900454E+03</pdfrwt>
<totfact> 0.11769926E+01</totfact>
</mgrwt>
</event>
<event>
 4    5  0.8511149E-008  0.1089887E+04  0.7818608E-02  0.9272400E-01
          2   -1    0    0  501    0  0.00000000000E+00  0.00000000000E+00  0.79063729333E+03  0.79063729334E+03  0.25500000000E-02 0. -1.
         -2   -1    0    0    0  501 -0.00000000000E+00 -0.00000000000E+00 -0.14926486261E+04  0.14926486261E+04  0.25500000000E-02 0.  1.
    8880023    1    1    2    0    0  0.71279979752E+03  0.49594348657E+03  0.95938896638E+02  0.10941014447E+04  0.65864270000E+03 0. -1.
    8880022    1    1    2    0    0 -0.71279979752E+03 -0.49594348657E+03 -0.79795022937E+03  0.11891844747E+04  0.15294330000E+03 0.  0.
<mgrwt>
<rscale>  0 0.10336396E+04</rscale>
<asrwt>0</asrwt>
<pdfrwt beam="1">  1        2 0.12163651E+00 0.10898870E+04</pdfrwt>
<pdfrwt beam="2">  1       -2 0.22963825E+00 0.10898870E+04</pdfrwt>
<totfact> 0.29651004E+00</totfact>
</mgrwt>
</event>
<event>
 4    5  0.1400613E-007  0.9192318E+03  0.7818608E-02  0.9495838E-01
         -2   -1    0    0    0  501 -0.00000000000E+00  0.00000000000E+00  0.20962970834E+04  0.20962970834E+04  0.25500000000E-02 0.  1.
          2   -1    0    0  501    0  0.00000000000E+00 -0.00000000000E+00 -0.22295153975E+04  0.22295153975E+04  0.25500000000E-02 0. -1.
    8880023    1    1    2    0    0 -0.25703638555E+03 -0.58746000981E+03  0.19419118312E+04  0.21484898727E+04  0.65864270000E+03 0.  0.
    8880022    1    1    2    0    0  0.25703638555E+03  0.58746000981E+03 -0.20751301454E+04  0.21773226082E+04  0.15294330000E+03 0. -1.
<mgrwt>
<rscale>  0 0.84591376E+03</rscale>
<asrwt>0</asrwt>
<pdfrwt beam="1">  1        2 0.34300237E+00 0.91923184E+03</pdfrwt>
<pdfrwt beam="2">  1       -2 0.32250724E+00 0.91923184E+03</pdfrwt>
<totfact> 0.11881699E-01</totfact>
</mgrwt>
</event>
<event>
 4    5  0.8511149E-008  0.9122284E+03  0.7818608E-02  0.9506679E-01
         -2   -1    0    0    0  501 -0.00000000000E+00  0.00000000000E+00  0.76364293417E+03  0.76364293417E+03  0.25500000000E-02 0.  1.
          2   -1    0    0  501    0  0.00000000000E+00 -0.00000000000E+00 -0.10497686712E+04  0.10497686712E+04  0.25500000000E-02 0. -1.
    8880023    1    1    2    0    0  0.12218130662E+03 -0.61921095995E+03  0.27751697350E+03  0.95350739979E+03  0.65864270000E+03 0.  1.
    8880022    1    1    2    0    0 -0.12218130662E+03  0.61921095995E+03 -0.56364271049E+03  0.85990420554E+03  0.15294330000E+03 0.  0.
<mgrwt>
<rscale>  0 0.83793161E+03</rscale>
<asrwt>0</asrwt>
<pdfrwt beam="1">  1        2 0.16150287E+00 0.91222842E+03</pdfrwt>
<pdfrwt beam="2">  1       -2 0.11748353E+00 0.91222842E+03</pdfrwt>
<totfact> 0.13110674E+01</totfact>
</mgrwt>
</event>
<event>
 4    5  0.8511149E-008  0.8680174E+03  0.7818608E-02  0.9579458E-01
          2   -1    0    0  501    0  0.00000000000E+00  0.00000000000E+00  0.32223054014E+04  0.32223054014E+04  0.25500000000E-02 0. -1.
         -2   -1    0    0    0  501 -0.00000000000E+00 -0.00000000000E+00 -0.25390840277E+03  0.25390840278E+03  0.25500000000E-02 0.  1.
    8880023    1    1    2    0    0  0.55989361303E+03  0.78505944039E+02  0.64847412772E+03  0.10835003192E+04  0.65864270000E+03 0.  0.
    8880022    1    1    2    0    0 -0.55989361303E+03 -0.78505944039E+02  0.23199228709E+04  0.23927134849E+04  0.15294330000E+03 0.  0.
<mgrwt>
<rscale>  0 0.78670833E+03</rscale>
<asrwt>0</asrwt>
<pdfrwt beam="1">  1        2 0.49573929E+00 0.86801742E+03</pdfrwt>
<pdfrwt beam="2">  1       -2 0.39062832E-01 0.86801742E+03</pdfrwt>
<totfact> 0.81509018E+00</totfact>
</mgrwt>
</event>
<event>
 4    5  0.8511149E-008  0.8873826E+03  0.7818608E-02  0.9546598E-01
          2   -1    0    0  501    0  0.00000000000E+00  0.00000000000E+00  0.18438192532E+04  0.18438192532E+04  0.25500000000E-02 0. -1.
         -2   -1    0    0    0  501 -0.00000000000E+00 -0.00000000000E+00 -0.58260924268E+03  0.58260924269E+03  0.25500000000E-02 0.  1.
    8880023    1    1    2    0    0  0.19043451884E+03 -0.56335814197E+03 -0.13834445533E+03  0.89810194114E+03  0.65864270000E+03 0.  1.
    8880022    1    1    2    0    0 -0.19043451884E+03  0.56335814197E+03  0.13995544658E+04  0.15283265547E+04  0.15294330000E+03 0.  0.
<mgrwt>
<rscale>  0 0.80933828E+03</rscale>
<asrwt>0</asrwt>
<pdfrwt beam="1">  1        2 0.28366450E+00 0.88738262E+03</pdfrwt>
<pdfrwt beam="2">  1       -2 0.89632192E-01 0.88738262E+03</pdfrwt>
<totfact> 0.88147352E+00</totfact>
</mgrwt>
</event>
<event>
 4    5  0.8511149E-008  0.7383753E+03  0.7818608E-02  0.9864705E-01
          2   -1    0    0  501    0  0.00000000000E+00  0.00000000000E+00  0.80622139279E+03  0.80622139280E+03  0.25500000000E-02 0. -1.
         -2   -1    0    0    0  501 -0.00000000000E+00 -0.00000000000E+00 -0.49377670199E+03  0.49377670200E+03  0.25500000000E-02 0.  1.
    8880023    1    1    2    0    0 -0.24653718859E+03 -0.22496050273E+03 -0.10306810711E+03  0.74553407307E+03  0.65864270000E+03 0.  0.
    8880022    1    1    2    0    0  0.24653718859E+03  0.22496050273E+03  0.41551279791E+03  0.55446402172E+03  0.15294330000E+03 0.  0.
<mgrwt>
<rscale>  0 0.62002731E+03</rscale>
<asrwt>0</asrwt>
<pdfrwt beam="1">  1        2 0.12403406E+00 0.73837526E+03</pdfrwt>
<pdfrwt beam="2">  1       -2 0.75965647E-01 0.73837526E+03</pdfrwt>
<totfact> 0.53681481E+01</totfact>
</mgrwt>
</event>
<event>
 4    5  0.8511149E-008  0.1129435E+04  0.7818608E-02  0.9228971E-01
         -2   -1    0    0    0  501 -0.00000000000E+00  0.00000000000E+00  0.12168580290E+04  0.12168580290E+04  0.25500000000E-02 0.  1.
          2   -1    0    0  501    0  0.00000000000E+00 -0.00000000000E+00 -0.10900543052E+04  0.10900543052E+04  0.25500000000E-02 0. -1.
    8880023    1    1    2    0    0  0.13357589013E+03 -0.90772778892E+03 -0.44624690528E+03  0.12143964608E+04  0.65864270000E+03 0. -1.
    8880022    1    1    2    0    0 -0.13357589013E+03  0.90772778892E+03  0.57305062908E+03  0.10925158734E+04  0.15294330000E+03 0.  0.
<mgrwt>
<rscale>  0 0.10759340E+04</rscale>
<asrwt>0</asrwt>
<pdfrwt beam="1">  1        2 0.16770066E+00 0.11294346E+04</pdfrwt>
<pdfrwt beam="2">  1       -2 0.18720893E+00 0.11294346E+04</pdfrwt>
<totfact> 0.34995790E+00</totfact>
</mgrwt>
</event>
<event>
 4    5  0.8511149E-008  0.1536712E+04  0.7818608E-02  0.8884138E-01
          2   -1    0    0  501    0  0.00000000000E+00  0.00000000000E+00  0.22899104525E+04  0.22899104525E+04  0.25500000000E-02 0. -1.
         -2   -1    0    0    0  501 -0.00000000000E+00 -0.00000000000E+00 -0.12135813895E+04  0.12135813895E+04  0.25500000000E-02 0.  1.
    8880023    1    1    2    0    0 -0.54662735267E+03 -0.12762730050E+04 -0.27371019119E+03  0.15608977292E+04  0.65864270000E+03 0.  0.
    8880022    1    1    2    0    0  0.54662735267E+03  0.12762730050E+04  0.13500392542E+04  0.19425941127E+04  0.15294330000E+03 0.  0.
<mgrwt>
<rscale>  0 0.15004737E+04</rscale>
<asrwt>0</asrwt>
<pdfrwt beam="1">  1        2 0.35229392E+00 0.15367122E+04</pdfrwt>
<pdfrwt beam="2">  1       -2 0.18670483E+00 0.15367122E+04</pdfrwt>
<totfact> 0.70198898E-01</totfact>
</mgrwt>
</event>
<event>
 4    5  0.8511149E-008  0.7569210E+03  0.7818608E-02  0.9813145E-01
          2   -1    0    0  501    0  0.00000000000E+00  0.00000000000E+00  0.21256733927E+04  0.21256733927E+04  0.25500000000E-02 0. -1.
         -2   -1    0    0    0  501 -0.00000000000E+00 -0.00000000000E+00 -0.44781066539E+03  0.44781066540E+03  0.25500000000E-02 0.  1.
    8880023    1    1    2    0    0 -0.27075404188E+03 -0.25653737614E+03 -0.88157605423E+02  0.76203749659E+03  0.65864270000E+03 0.  1.
    8880022    1    1    2    0    0  0.27075404188E+03  0.25653737614E+03  0.17660203327E+04  0.18114465615E+04  0.15294330000E+03 0.  0.
<mgrwt>
<rscale>  0 0.64661861E+03</rscale>
<asrwt>0</asrwt>
<pdfrwt beam="1">  1        2 0.32702667E+00 0.75692099E+03</pdfrwt>
<pdfrwt beam="2">  1       -2 0.68893949E-01 0.75692099E+03</pdfrwt>
<totfact> 0.11348330E+01</totfact>
</mgrwt>
</event>
<event>
 4    5  0.8511149E-008  0.9938423E+03  0.7818608E-02  0.9389659E-01
          2   -1    0    0  501    0  0.00000000000E+00  0.00000000000E+00  0.19519307076E+04  0.19519307076E+04  0.25500000000E-02 0. -1.
         -2   -1    0    0    0  501 -0.00000000000E+00 -0.00000000000E+00 -0.64755329109E+03  0.64755329109E+03  0.25500000000E-02 0.  1.
    8880023    1    1    2    0    0 -0.51693825712E+03 -0.53543172578E+03 -0.10395466292E+03  0.99926426577E+03  0.65864270000E+03 0.  1.
    8880022    1    1    2    0    0  0.51693825712E+03  0.53543172578E+03  0.14083320794E+04  0.16002197329E+04  0.15294330000E+03 0.  0.
<mgrwt>
<rscale>  0 0.92931655E+03</rscale>
<asrwt>0</asrwt>
<pdfrwt beam="1">  1        2 0.30029702E+00 0.99384229E+03</pdfrwt>
<pdfrwt beam="2">  1       -2 0.99623586E-01 0.99384229E+03</pdfrwt>
<totfact> 0.59256894E+00</totfact>
</mgrwt>
</event>
<event>
 4    5  0.8511149E-008  0.6669395E+03  0.7818608E-02  0.1017959E+00
          2   -1    0    0  501    0  0.00000000000E+00  0.00000000000E+00  0.10014083565E+04  0.10014083565E+04  0.25500000000E-02 0. -1.
         -2   -1    0    0    0  501 -0.00000000000E+00 -0.00000000000E+00 -0.38385195141E+03  0.38385195142E+03  0.25500000000E-02 0.  1.
    8880023    1    1    2    0    0  0.93570553386E+02 -0.47357226032E+02 -0.72361776985E+02  0.67085362662E+03  0.65864270000E+03 0.  1.
    8880022    1    1    2    0    0 -0.93570553386E+02  0.47357226032E+02  0.68991818209E+03  0.71440668132E+03  0.15294330000E+03 0.  0.
<mgrwt>
<rscale>  0 0.48430458E+03</rscale>
<asrwt>0</asrwt>
<pdfrwt beam="1">  1        2 0.15406282E+00 0.66693955E+03</pdfrwt>
<pdfrwt beam="2">  1       -2 0.59054147E-01 0.66693955E+03</pdfrwt>
<totfact> 0.68808744E+01</totfact>
</mgrwt>
</event>
<event>
 4    5  0.8511149E-008  0.9878829E+03  0.7818608E-02  0.9397585E-01
          2   -1    0    0  501    0  0.00000000000E+00  0.00000000000E+00  0.19331399301E+04  0.19331399301E+04  0.25500000000E-02 0. -1.
         -2   -1    0    0    0  501 -0.00000000000E+00 -0.00000000000E+00 -0.93270634040E+03  0.93270634041E+03  0.25500000000E-02 0.  1.
    8880023    1    1    2    0    0  0.73597445227E+03  0.21071588036E+02 -0.55863601138E+03  0.11348950637E+04  0.65864270000E+03 0.  1.
    8880022    1    1    2    0    0 -0.73597445227E+03 -0.21071588036E+02  0.15590696011E+04  0.17309512068E+04  0.15294330000E+03 0.  0.
<mgrwt>
<rscale>  0 0.92274692E+03</rscale>
<asrwt>0</asrwt>
<pdfrwt beam="1">  1        2 0.29740614E+00 0.98788289E+03</pdfrwt>
<pdfrwt beam="2">  1       -2 0.14349328E+00 0.98788289E+03</pdfrwt>
<totfact> 0.24479280E+00</totfact>
</mgrwt>
</event>
<event>
 4    5  0.8511149E-008  0.8888517E+03  0.7818608E-02  0.9544171E-01
          2   -1    0    0  501    0  0.00000000000E+00  0.00000000000E+00  0.11563656512E+04  0.11563656512E+04  0.25500000000E-02 0. -1.
         -2   -1    0    0    0  501 -0.00000000000E+00 -0.00000000000E+00 -0.67868131595E+03  0.67868131595E+03  0.25500000000E-02 0.  1.
    8880023    1    1    2    0    0 -0.26718219026E+02 -0.59626604971E+03  0.74848184616E+03  0.11620164997E+04  0.65864270000E+03 0.  0.
    8880022    1    1    2    0    0  0.26718219026E+02  0.59626604971E+03 -0.27079751087E+03  0.67303046750E+03  0.15294330000E+03 0.  0.
<mgrwt>
<rscale>  0 0.81104187E+03</rscale>
<asrwt>0</asrwt>
<pdfrwt beam="1">  1        2 0.17790241E+00 0.88885166E+03</pdfrwt>
<pdfrwt beam="2">  1       -2 0.10441251E+00 0.88885166E+03</pdfrwt>
<totfact> 0.15050516E+01</totfact>
</mgrwt>
</event>
<event>
 4    5  0.8511149E-008  0.6682958E+03  0.7818608E-02  0.1016915E+00
         -2   -1    0    0    0  501 -0.00000000000E+00  0.00000000000E+00  0.15998626708E+03  0.15998626710E+03  0.25500000000E-02 0.  1.
          2   -1    0    0  501    0  0.00000000000E+00 -0.00000000000E+00 -0.26027292997E+04  0.26027292997E+04  0.25500000000E-02 0. -1.
    8880023    1    1    2    0    0 -0.10124373386E+03 -0.50584653471E+02 -0.56433503999E+03  0.87469614406E+03  0.65864270000E+03 0.  1.
    8880022    1    1    2    0    0  0.10124373386E+03  0.50584653471E+02 -0.18784079926E+04  0.18880194227E+04  0.15294330000E+03 0.  0.
<mgrwt>
<rscale>  0 0.48816458E+03</rscale>
<asrwt>0</asrwt>
<pdfrwt beam="1">  1        2 0.40041986E+00 0.66829582E+03</pdfrwt>
<pdfrwt beam="2">  1       -2 0.24613274E-01 0.66829582E+03</pdfrwt>
<totfact> 0.47219978E+01</totfact>
</mgrwt>
</event>
<event>
 4    5  0.8511149E-008  0.1080062E+04  0.7818608E-02  0.9283587E-01
          2   -1    0    0  501    0  0.00000000000E+00  0.00000000000E+00  0.12755006447E+04  0.12755006447E+04  0.25500000000E-02 0. -1.
         -2   -1    0    0    0  501 -0.00000000000E+00 -0.00000000000E+00 -0.94397552847E+03  0.94397552847E+03  0.25500000000E-02 0.  1.
    8880023    1    1    2    0    0 -0.73751264484E+03  0.43450878338E+03  0.68703710333E+03  0.12800597532E+04  0.65864270000E+03 0.  0.
    8880022    1    1    2    0    0  0.73751264484E+03 -0.43450878338E+03 -0.35551198711E+03  0.93941641998E+03  0.15294330000E+03 0.  0.
<mgrwt>
<rscale>  0 0.10230805E+04</rscale>
<asrwt>0</asrwt>
<pdfrwt beam="1">  1        2 0.19623087E+00 0.10800616E+04</pdfrwt>
<pdfrwt beam="2">  1       -2 0.14522701E+00 0.10800616E+04</pdfrwt>
<totfact> 0.54853010E+00</totfact>
</mgrwt>
</event>
<event>
 4    5  0.8511149E-008  0.7374424E+03  0.7818608E-02  0.9867461E-01
          2   -1    0    0  501    0  0.00000000000E+00  0.00000000000E+00  0.12272614284E+04  0.12272614284E+04  0.25500000000E-02 0. -1.
         -2   -1    0    0    0  501 -0.00000000000E+00 -0.00000000000E+00 -0.40053327918E+03  0.40053327919E+03  0.25500000000E-02 0.  1.
    8880023    1    1    2    0    0  0.24826732558E+03  0.21994194820E+03  0.14905373472E+02  0.73759304630E+03  0.65864270000E+03 0.  1.
    8880022    1    1    2    0    0 -0.24826732558E+03 -0.21994194820E+03  0.81182277576E+03  0.89020166130E+03  0.15294330000E+03 0.  0.
<mgrwt>
<rscale>  0 0.61864527E+03</rscale>
<asrwt>0</asrwt>
<pdfrwt beam="1">  1        2 0.18880945E+00 0.73744243E+03</pdfrwt>
<pdfrwt beam="2">  1       -2 0.61620504E-01 0.73744243E+03</pdfrwt>
<totfact> 0.45526281E+01</totfact>
</mgrwt>
</event>
<event>
 4    5  0.8511149E-008  0.1038118E+04  0.7818608E-02  0.9333303E-01
         -2   -1    0    0    0  501 -0.00000000000E+00  0.00000000000E+00  0.93269910243E+03  0.93269910243E+03  0.25500000000E-02 0.  1.
          2   -1    0    0  501    0  0.00000000000E+00 -0.00000000000E+00 -0.99178700979E+03  0.99178700979E+03  0.25500000000E-02 0. -1.
    8880023    1    1    2    0    0  0.80239093192E+03  0.69663957422E+01  0.22015997917E+03  0.10612070302E+04  0.65864270000E+03 0.  0.
    8880022    1    1    2    0    0 -0.80239093192E+03 -0.69663957422E+01 -0.27924788653E+03  0.86327908201E+03  0.15294330000E+03 0.  0.
<mgrwt>
<rscale>  0 0.97773914E+03</rscale>
<asrwt>0</asrwt>
<pdfrwt beam="1">  1        2 0.15258262E+00 0.10381185E+04</pdfrwt>
<pdfrwt beam="2">  1       -2 0.14349217E+00 0.10381185E+04</pdfrwt>
<totfact> 0.84850513E+00</totfact>
</mgrwt>
</event>
<event>
 4    5  0.8511149E-008  0.7887937E+03  0.7818608E-02  0.9735572E-01
          2   -1    0    0  501    0  0.00000000000E+00  0.00000000000E+00  0.13550769456E+04  0.13550769456E+04  0.25500000000E-02 0. -1.
         -2   -1    0    0    0  501 -0.00000000000E+00 -0.00000000000E+00 -0.40017930192E+03  0.40017930193E+03  0.25500000000E-02 0.  1.
    8880023    1    1    2    0    0  0.10703844287E+03  0.42062815285E+03  0.11443339563E+03  0.79705111475E+03  0.65864270000E+03 0.  1.
    8880022    1    1    2    0    0 -0.10703844287E+03 -0.42062815285E+03  0.84046424809E+03  0.95820513282E+03  0.15294330000E+03 0.  0.
<mgrwt>
<rscale>  0 0.68937797E+03</rscale>
<asrwt>0</asrwt>
<pdfrwt beam="1">  1        2 0.20847337E+00 0.78879368E+03</pdfrwt>
<pdfrwt beam="2">  1       -2 0.61566047E-01 0.78879368E+03</pdfrwt>
<totfact> 0.38276469E+01</totfact>
</mgrwt>
</event>
<event>
 4    5  0.8511149E-008  0.1004744E+04  0.7818608E-02  0.9375377E-01
          2   -1    0    0  501    0  0.00000000000E+00  0.00000000000E+00  0.17644883069E+04  0.17644883069E+04  0.25500000000E-02 0. -1.
         -2   -1    0    0    0  501 -0.00000000000E+00 -0.00000000000E+00 -0.11692150105E+04  0.11692150105E+04  0.25500000000E-02 0.  1.
    8880023    1    1    2    0    0  0.41850551690E+03 -0.63289294894E+03 -0.83566261531E+03  0.13068445070E+04  0.65864270000E+03 0.  1.
    8880022    1    1    2    0    0 -0.41850551690E+03  0.63289294894E+03  0.14309359117E+04  0.16268588104E+04  0.15294330000E+03 0.  0.
<mgrwt>
<rscale>  0 0.94130045E+03</rscale>
<asrwt>0</asrwt>
<pdfrwt beam="1">  1        2 0.27145974E+00 0.10047440E+04</pdfrwt>
<pdfrwt beam="2">  1       -2 0.17987923E+00 0.10047440E+04</pdfrwt>
<totfact> 0.16312471E+00</totfact>
</mgrwt>
</event>
<event>
 4    5  0.8511149E-008  0.8767524E+03  0.7818608E-02  0.9564432E-01
          2   -1    0    0  501    0  0.00000000000E+00  0.00000000000E+00  0.30477953585E+04  0.30477953585E+04  0.25500000000E-02 0. -1.
         -2   -1    0    0    0  501 -0.00000000000E+00 -0.00000000000E+00 -0.55861575349E+03  0.55861575350E+03  0.25500000000E-02 0.  1.
    8880023    1    1    2    0    0  0.32899493035E+03  0.47607442810E+03 -0.15932511823E+03  0.89111123035E+03  0.65864270000E+03 0.  1.
    8880022    1    1    2    0    0 -0.32899493035E+03 -0.47607442810E+03  0.26485047232E+04  0.27152998817E+04  0.15294330000E+03 0.  0.
<mgrwt>
<rscale>  0 0.79695712E+03</rscale>
<asrwt>0</asrwt>
<pdfrwt beam="1">  1        2 0.46889159E+00 0.87675238E+03</pdfrwt>
<pdfrwt beam="2">  1       -2 0.85940885E-01 0.87675238E+03</pdfrwt>
<totfact> 0.19911302E+00</totfact>
</mgrwt>
</event>
<event>
 4    5  0.8511149E-008  0.9037667E+03  0.7818608E-02  0.9520012E-01
          2   -1    0    0  501    0  0.00000000000E+00  0.00000000000E+00  0.27679771462E+04  0.27679771462E+04  0.25500000000E-02 0. -1.
         -2   -1    0    0    0  501 -0.00000000000E+00 -0.00000000000E+00 -0.99431340330E+03  0.99431340331E+03  0.25500000000E-02 0.  1.
    8880023    1    1    2    0    0  0.61843794866E+03  0.22770218543E+02 -0.74061143953E+03  0.11684603073E+04  0.65864270000E+03 0.  0.
    8880022    1    1    2    0    0 -0.61843794866E+03 -0.22770218543E+02  0.25142751824E+04  0.25938302421E+04  0.15294330000E+03 0.  0.
<mgrwt>
<rscale>  0 0.82824381E+03</rscale>
<asrwt>0</asrwt>
<pdfrwt beam="1">  1        2 0.42584263E+00 0.90376667E+03</pdfrwt>
<pdfrwt beam="2">  1       -2 0.15297129E+00 0.90376667E+03</pdfrwt>
<totfact> 0.70718039E-01</totfact>
</mgrwt>
</event>
<event>
 4    5  0.8511149E-008  0.6672306E+03  0.7818608E-02  0.1017731E+00
          2   -1    0    0  501    0  0.00000000000E+00  0.00000000000E+00  0.12534415090E+04  0.12534415090E+04  0.25500000000E-02 0. -1.
         -2   -1    0    0    0  501 -0.00000000000E+00 -0.00000000000E+00 -0.41794848892E+03  0.41794848893E+03  0.25500000000E-02 0.  1.
    8880023    1    1    2    0    0 -0.10137229057E+03 -0.33317857489E+02 -0.13702307036E+03  0.68115486418E+03  0.65864270000E+03 0.  1.
    8880022    1    1    2    0    0  0.10137229057E+03  0.33317857489E+02  0.97251609043E+03  0.99023513373E+03  0.15294330000E+03 0.  0.
<mgrwt>
<rscale>  0 0.48514341E+03</rscale>
<asrwt>0</asrwt>
<pdfrwt beam="1">  1        2 0.19283716E+00 0.66723057E+03</pdfrwt>
<pdfrwt beam="2">  1       -2 0.64299768E-01 0.66723057E+03</pdfrwt>
<totfact> 0.40439308E+01</totfact>
</mgrwt>
</event>
<event>
 4    5  0.8511149E-008  0.9282743E+03  0.7818608E-02  0.9482087E-01
          2   -1    0    0  501    0  0.00000000000E+00  0.00000000000E+00  0.12553343843E+04  0.12553343843E+04  0.25500000000E-02 0. -1.
         -2   -1    0    0    0  501 -0.00000000000E+00 -0.00000000000E+00 -0.83434699339E+03  0.83434699339E+03  0.25500000000E-02 0.  1.
    8880023    1    1    2    0    0  0.18044788198E+03 -0.62874593697E+03 -0.41534813281E+03  0.10169597677E+04  0.65864270000E+03 0.  0.
    8880022    1    1    2    0    0 -0.18044788198E+03  0.62874593697E+03  0.83633552371E+03  0.10727216100E+04  0.15294330000E+03 0.  0.
<mgrwt>
<rscale>  0 0.85617459E+03</rscale>
<asrwt>0</asrwt>
<pdfrwt beam="1">  1        2 0.19312837E+00 0.92827426E+03</pdfrwt>
<pdfrwt beam="2">  1       -2 0.12836108E+00 0.92827426E+03</pdfrwt>
<totfact> 0.78724825E+00</totfact>
</mgrwt>
</event>
<event>
 4    5  0.8511149E-008  0.2215070E+04  0.7818608E-02  0.8522177E-01
          2   -1    0    0  501    0  0.00000000000E+00  0.00000000000E+00  0.29371399532E+04  0.29371399532E+04  0.25500000000E-02 0. -1.
         -2   -1    0    0    0  501 -0.00000000000E+00 -0.00000000000E+00 -0.21915252294E+04  0.21915252294E+04  0.25500000000E-02 0.  1.
    8880023    1    1    2    0    0  0.14938668654E+04 -0.14970262740E+04 -0.95340368641E+03  0.24115378231E+04  0.65864270000E+03 0.  0.
    8880022    1    1    2    0    0 -0.14938668654E+04  0.14970262740E+04  0.16990184103E+04  0.27171273595E+04  0.15294330000E+03 0.  0.
<mgrwt>
<rscale>  0 0.21910149E+04</rscale>
<asrwt>0</asrwt>
<pdfrwt beam="1">  1        2 0.45186768E+00 0.22150702E+04</pdfrwt>
<pdfrwt beam="2">  1       -2 0.33715773E+00 0.22150702E+04</pdfrwt>
<totfact> 0.30810191E-02</totfact>
</mgrwt>
</event>
<event>
 4    5  0.8511149E-008  0.6942258E+03  0.7818608E-02  0.1002205E+00
          2   -1    0    0  501    0  0.00000000000E+00  0.00000000000E+00  0.12066140422E+04  0.12066140422E+04  0.25500000000E-02 0. -1.
         -2   -1    0    0    0  501 -0.00000000000E+00 -0.00000000000E+00 -0.26724279823E+03  0.26724279824E+03  0.25500000000E-02 0.  1.
    8880023    1    1    2    0    0  0.41746116389E+01  0.21936690986E+03  0.25584604657E+03  0.73986936302E+03  0.65864270000E+03 0.  1.
    8880022    1    1    2    0    0 -0.41746116389E+01 -0.21936690986E+03  0.68352519741E+03  0.73398747743E+03  0.15294330000E+03 0.  0.
<mgrwt>
<rscale>  0 0.54693699E+03</rscale>
<asrwt>0</asrwt>
<pdfrwt beam="1">  1        2 0.18563293E+00 0.69422581E+03</pdfrwt>
<pdfrwt beam="2">  1       -2 0.41114277E-01 0.69422581E+03</pdfrwt>
<totfact> 0.10722414E+02</totfact>
</mgrwt>
</event>
<event>
 4    5  0.8511149E-008  0.2047526E+04  0.7818608E-02  0.8596714E-01
          2   -1    0    0  501    0  0.00000000000E+00  0.00000000000E+00  0.20873115448E+04  0.20873115448E+04  0.25500000000E-02 0. -1.
         -2   -1    0    0    0  501 -0.00000000000E+00 -0.00000000000E+00 -0.24207306352E+04  0.24207306352E+04  0.25500000000E-02 0.  1.
    8880023    1    1    2    0    0 -0.22002558897E+03 -0.19261731052E+04  0.86606176051E+03  0.22231570503E+04  0.65864270000E+03 0. -1.
    8880022    1    1    2    0    0  0.22002558897E+03  0.19261731052E+04 -0.11994808510E+04  0.22848851297E+04  0.15294330000E+03 0.  0.
<mgrwt>
<rscale>  0 0.20213268E+04</rscale>
<asrwt>0</asrwt>
<pdfrwt beam="1">  1        2 0.32112485E+00 0.20475264E+04</pdfrwt>
<pdfrwt beam="2">  1       -2 0.37242010E+00 0.20475264E+04</pdfrwt>
<totfact> 0.59045741E-02</totfact>
</mgrwt>
</event>
<event>
 4    5  0.8511149E-008  0.7161892E+03  0.7818608E-02  0.9935698E-01
          2   -1    0    0  501    0  0.00000000000E+00  0.00000000000E+00  0.29396360899E+04  0.29396360899E+04  0.25500000000E-02 0. -1.
         -2   -1    0    0    0  501 -0.00000000000E+00 -0.00000000000E+00 -0.44033484091E+03  0.44033484092E+03  0.25500000000E-02 0.  1.
    8880023    1    1    2    0    0  0.13196795635E+03  0.24839732684E+03 -0.13286043736E+03  0.72840845380E+03  0.65864270000E+03 0.  1.
    8880022    1    1    2    0    0 -0.13196795635E+03 -0.24839732684E+03  0.26321616863E+04  0.26515624770E+04  0.15294330000E+03 0.  0.
<mgrwt>
<rscale>  0 0.58561983E+03</rscale>
<asrwt>0</asrwt>
<pdfrwt beam="1">  1        2 0.45225172E+00 0.71618921E+03</pdfrwt>
<pdfrwt beam="2">  1       -2 0.67743820E-01 0.71618921E+03</pdfrwt>
<totfact> 0.40625303E+00</totfact>
</mgrwt>
</event>
<event>
 4    5  0.8511149E-008  0.1007649E+04  0.7818608E-02  0.9371619E-01
          2   -1    0    0  501    0  0.00000000000E+00  0.00000000000E+00  0.65336593142E+03  0.65336593142E+03  0.25500000000E-02 0. -1.
         -2   -1    0    0    0  501 -0.00000000000E+00 -0.00000000000E+00 -0.19604772028E+04  0.19604772028E+04  0.25500000000E-02 0.  1.
    8880023    1    1    2    0    0 -0.64304629854E+03  0.40992332384E+03 -0.15050967395E+04  0.18112625638E+04  0.65864270000E+03 0.  0.
    8880022    1    1    2    0    0  0.64304629854E+03 -0.40992332384E+03  0.19798546808E+03  0.80258057046E+03  0.15294330000E+03 0.  0.
<mgrwt>
<rscale>  0 0.94448629E+03</rscale>
<asrwt>0</asrwt>
<pdfrwt beam="1">  1        2 0.10051784E+00 0.10076487E+04</pdfrwt>
<pdfrwt beam="2">  1       -2 0.30161187E+00 0.10076487E+04</pdfrwt>
<totfact> 0.13947767E+00</totfact>
</mgrwt>
</event>
<event>
 4    5  0.8511149E-008  0.7624047E+03  0.7818608E-02  0.9798921E-01
         -2   -1    0    0    0  501 -0.00000000000E+00  0.00000000000E+00  0.27078864437E+03  0.27078864439E+03  0.25500000000E-02 0.  1.
          2   -1    0    0  501    0  0.00000000000E+00 -0.00000000000E+00 -0.44271165858E+04  0.44271165858E+04  0.25500000000E-02 0. -1.
    8880023    1    1    2    0    0  0.23520372002E+03 -0.30352923106E+03 -0.29970645297E+03  0.81919774672E+03  0.65864270000E+03 0.  0.
    8880022    1    1    2    0    0 -0.23520372002E+03  0.30352923106E+03 -0.38566214885E+04  0.38787074835E+04  0.15294330000E+03 0.  0.
<mgrwt>
<rscale>  0 0.65420470E+03</rscale>
<asrwt>0</asrwt>
<pdfrwt beam="1">  1        2 0.68109480E+00 0.76240474E+03</pdfrwt>
<pdfrwt beam="2">  1       -2 0.41659795E-01 0.76240474E+03</pdfrwt>
<totfact> 0.89394626E-01</totfact>
</mgrwt>
</event>
<event>
 4    5  0.8511149E-008  0.7147652E+03  0.7818608E-02  0.9940714E-01
         -2   -1    0    0    0  501 -0.00000000000E+00  0.00000000000E+00  0.28003283682E+03  0.28003283683E+03  0.25500000000E-02 0.  1.
          2   -1    0    0  501    0  0.00000000000E+00 -0.00000000000E+00 -0.23240067670E+04  0.23240067670E+04  0.25500000000E-02 0. -1.
    8880023    1    1    2    0    0  0.19150014752E+03  0.20101420768E+03 -0.21299342337E+03  0.74582532999E+03  0.65864270000E+03 0.  1.
    8880022    1    1    2    0    0 -0.19150014752E+03 -0.20101420768E+03 -0.18309805068E+04  0.18582142739E+04  0.15294330000E+03 0.  0.
<mgrwt>
<rscale>  0 0.58328048E+03</rscale>
<asrwt>0</asrwt>
<pdfrwt beam="1">  1        2 0.35753949E+00 0.71476515E+03</pdfrwt>
<pdfrwt beam="2">  1       -2 0.43081976E-01 0.71476515E+03</pdfrwt>
<totfact> 0.23478321E+01</totfact>
</mgrwt>
</event>
<event>
 4    5  0.8511149E-008  0.8921983E+03  0.7818608E-02  0.9538674E-01
         -2   -1    0    0    0  501 -0.00000000000E+00  0.00000000000E+00  0.19987770634E+03  0.19987770636E+03  0.25500000000E-02 0.  1.
          2   -1    0    0  501    0  0.00000000000E+00 -0.00000000000E+00 -0.34774195106E+04  0.34774195106E+04  0.25500000000E-02 0. -1.
    8880023    1    1    2    0    0  0.58204694852E+03 -0.15306530056E+03 -0.11186355992E+04  0.14308610857E+04  0.65864270000E+03 0.  1.
    8880022    1    1    2    0    0 -0.58204694852E+03  0.15306530056E+03 -0.21589062051E+04  0.22464361313E+04  0.15294330000E+03 0.  0.
<mgrwt>
<rscale>  0 0.81491644E+03</rscale>
<asrwt>0</asrwt>
<pdfrwt beam="1">  1        2 0.53498757E+00 0.89219832E+03</pdfrwt>
<pdfrwt beam="2">  1       -2 0.30750419E-01 0.89219832E+03</pdfrwt>
<totfact> 0.86887251E+00</totfact>
</mgrwt>
</event>
<event>
 4    5  0.8511149E-008  0.6648076E+03  0.7818608E-02  0.1019695E+00
          2   -1    0    0  501    0  0.00000000000E+00  0.00000000000E+00  0.21749232949E+04  0.21749232949E+04  0.25500000000E-02 0. -1.
         -2   -1    0    0    0  501 -0.00000000000E+00 -0.00000000000E+00 -0.22205355555E+03  0.22205355556E+03  0.25500000000E-02 0.  1.
    8880023    1    1    2    0    0 -0.43882774777E+02 -0.78950915883E+02  0.29110970993E+03  0.72575065589E+03  0.65864270000E+03 0.  1.
    8880022    1    1    2    0    0  0.43882774777E+02  0.78950915883E+02  0.16617600294E+04  0.16712261946E+04  0.15294330000E+03 0.  0.
<mgrwt>
<rscale>  0 0.47796702E+03</rscale>
<asrwt>0</asrwt>
<pdfrwt beam="1">  1        2 0.33460357E+00 0.66480760E+03</pdfrwt>
<pdfrwt beam="2">  1       -2 0.34162087E-01 0.66480760E+03</pdfrwt>
<totfact> 0.44768525E+01</totfact>
</mgrwt>
</event>
<event>
 4    5  0.8511149E-008  0.8491506E+03  0.7818608E-02  0.9613162E-01
         -2   -1    0    0    0  501 -0.00000000000E+00  0.00000000000E+00  0.55284679496E+03  0.55284679497E+03  0.25500000000E-02 0.  1.
          2   -1    0    0  501    0  0.00000000000E+00 -0.00000000000E+00 -0.10111796603E+04  0.10111796603E+04  0.25500000000E-02 0. -1.
    8880023    1    1    2    0    0 -0.53429210808E+03  0.42172063141E+02 -0.10770990838E+02  0.84921891181E+03  0.65864270000E+03 0.  1.
    8880022    1    1    2    0    0  0.53429210808E+03 -0.42172063141E+02 -0.44756187452E+03  0.71480754347E+03  0.15294330000E+03 0.  0.
<mgrwt>
<rscale>  0 0.76431151E+03</rscale>
<asrwt>0</asrwt>
<pdfrwt beam="1">  1        2 0.15556610E+00 0.84915060E+03</pdfrwt>
<pdfrwt beam="2">  1       -2 0.85053353E-01 0.84915060E+03</pdfrwt>
<totfact> 0.30022160E+01</totfact>
</mgrwt>
</event>
<event>
 4    5  0.8511149E-008  0.7917426E+03  0.7818608E-02  0.9728943E-01
          2   -1    0    0  501    0  0.00000000000E+00  0.00000000000E+00  0.16835844221E+04  0.16835844221E+04  0.25500000000E-02 0. -1.
         -2   -1    0    0    0  501 -0.00000000000E+00 -0.00000000000E+00 -0.34908194807E+03  0.34908194808E+03  0.25500000000E-02 0.  1.
    8880023    1    1    2    0    0 -0.16715195442E+03 -0.40633274535E+03  0.21510657869E+03  0.82044324744E+03  0.65864270000E+03 0.  1.
    8880022    1    1    2    0    0  0.16715195442E+03  0.40633274535E+03  0.11193958953E+04  0.12122231227E+04  0.15294330000E+03 0.  0.
<mgrwt>
<rscale>  0 0.69319371E+03</rscale>
<asrwt>0</asrwt>
<pdfrwt beam="1">  1        2 0.25901299E+00 0.79174256E+03</pdfrwt>
<pdfrwt beam="2">  1       -2 0.53704914E-01 0.79174256E+03</pdfrwt>
<totfact> 0.33411578E+01</totfact>
</mgrwt>
</event>
<event>
 4    5  0.8511149E-008  0.8985469E+03  0.7818608E-02  0.9528368E-01
          2   -1    0    0  501    0  0.00000000000E+00  0.00000000000E+00  0.27286674291E+04  0.27286674292E+04  0.25500000000E-02 0. -1.
         -2   -1    0    0    0  501 -0.00000000000E+00 -0.00000000000E+00 -0.43726846720E+03  0.43726846721E+03  0.25500000000E-02 0.  1.
    8880023    1    1    2    0    0 -0.61119370133E+03 -0.43185965108E+01  0.12187294913E+03  0.90677428989E+03  0.65864270000E+03 0.  0.
    8880022    1    1    2    0    0  0.61119370133E+03  0.43185965108E+01  0.21695260128E+04  0.22591616065E+04  0.15294330000E+03 0.  0.
<mgrwt>
<rscale>  0 0.82224269E+03</rscale>
<asrwt>0</asrwt>
<pdfrwt beam="1">  1        2 0.41979499E+00 0.89854694E+03</pdfrwt>
<pdfrwt beam="2">  1       -2 0.67272072E-01 0.89854694E+03</pdfrwt>
<totfact> 0.53342508E+00</totfact>
</mgrwt>
</event>
<event>
 4    5  0.8511149E-008  0.1145091E+04  0.7818608E-02  0.9212438E-01
          2   -1    0    0  501    0  0.00000000000E+00  0.00000000000E+00  0.20149646526E+04  0.20149646526E+04  0.25500000000E-02 0. -1.
         -2   -1    0    0    0  501 -0.00000000000E+00 -0.00000000000E+00 -0.14443563213E+04  0.14443563213E+04  0.25500000000E-02 0.  1.
    8880023    1    1    2    0    0  0.37114036113E+03 -0.86004593180E+03  0.16586251508E+04  0.20155078193E+04  0.65864270000E+03 0. -1.
    8880022    1    1    2    0    0 -0.37114036113E+03  0.86004593180E+03 -0.10880168195E+04  0.14438131545E+04  0.15294330000E+03 0.  0.
<mgrwt>
<rscale>  0 0.10925960E+04</rscale>
<asrwt>0</asrwt>
<pdfrwt beam="1">  1        2 0.30999456E+00 0.11450914E+04</pdfrwt>
<pdfrwt beam="2">  1       -2 0.22220867E+00 0.11450914E+04</pdfrwt>
<totfact> 0.61415208E-01</totfact>
</mgrwt>
</event>
<event>
 4    5  0.8511149E-008  0.1577884E+04  0.7818608E-02  0.8856511E-01
          2   -1    0    0  501    0  0.00000000000E+00  0.00000000000E+00  0.14096061986E+04  0.14096061986E+04  0.25500000000E-02 0. -1.
         -2   -1    0    0    0  501 -0.00000000000E+00 -0.00000000000E+00 -0.30003285323E+04  0.30003285323E+04  0.25500000000E-02 0.  1.
    8880023    1    1    2    0    0 -0.69532421981E+03  0.12539664488E+04 -0.23108275875E+04  0.27981497406E+04  0.65864270000E+03 0.  0.
    8880022    1    1    2    0    0  0.69532421981E+03 -0.12539664488E+04  0.72010525382E+03  0.16117849903E+04  0.15294330000E+03 0.  0.
<mgrwt>
<rscale>  0 0.15427513E+04</rscale>
<asrwt>0</asrwt>
<pdfrwt beam="1">  1        2 0.21686249E+00 0.15778840E+04</pdfrwt>
<pdfrwt beam="2">  1       -2 0.46158900E+00 0.15778840E+04</pdfrwt>
<totfact> 0.38739844E-02</totfact>
</mgrwt>
</event>
<event>
 4    5  0.8713050E-008  0.8978086E+03  0.7818608E-02  0.9529559E-01
         -2   -1    0    0    0  501 -0.00000000000E+00  0.00000000000E+00  0.12461536592E+04  0.12461536592E+04  0.25500000000E-02 0.  1.
          2   -1    0    0  501    0  0.00000000000E+00 -0.00000000000E+00 -0.26256821147E+04  0.26256821147E+04  0.25500000000E-02 0. -1.
    8880023    1    1    2    0    0 -0.38665128047E+03  0.47196495547E+03  0.10388184485E+04  0.13730273512E+04  0.65864270000E+03 0.  1.
    8880022    1    1    2    0    0  0.38665128047E+03 -0.47196495547E+03 -0.24183469040E+04  0.24988084226E+04  0.15294330000E+03 0.  0.
<mgrwt>
<rscale>  0 0.82139225E+03</rscale>
<asrwt>0</asrwt>
<pdfrwt beam="1">  1        2 0.40395109E+00 0.89780863E+03</pdfrwt>
<pdfrwt beam="2">  1       -2 0.19171595E+00 0.89780863E+03</pdfrwt>
<totfact> 0.45605624E-01</totfact>
</mgrwt>
</event>
<event>
 4    5  0.8511149E-008  0.7813994E+03  0.7818608E-02  0.9752560E-01
          2   -1    0    0  501    0  0.00000000000E+00  0.00000000000E+00  0.92213290172E+03  0.92213290172E+03  0.25500000000E-02 0. -1.
         -2   -1    0    0    0  501 -0.00000000000E+00 -0.00000000000E+00 -0.46055791014E+03  0.46055791015E+03  0.25500000000E-02 0.  1.
    8880023    1    1    2    0    0 -0.28397990247E+03  0.31004884332E+03  0.63743297460E+02  0.78399507937E+03  0.65864270000E+03 0.  1.
    8880022    1    1    2    0    0  0.28397990247E+03 -0.31004884332E+03  0.39783169412E+03  0.59869573250E+03  0.15294330000E+03 0.  0.
<mgrwt>
<rscale>  0 0.67971797E+03</rscale>
<asrwt>0</asrwt>
<pdfrwt beam="1">  1        2 0.14186660E+00 0.78139943E+03</pdfrwt>
<pdfrwt beam="2">  1       -2 0.70855064E-01 0.78139943E+03</pdfrwt>
<totfact> 0.51904338E+01</totfact>
</mgrwt>
</event>
<event>
 4    5  0.8511149E-008  0.7401069E+03  0.7818608E-02  0.9859636E-01
          2   -1    0    0  501    0  0.00000000000E+00  0.00000000000E+00  0.28031502541E+04  0.28031502541E+04  0.25500000000E-02 0. -1.
         -2   -1    0    0    0  501 -0.00000000000E+00 -0.00000000000E+00 -0.17042595069E+03  0.17042595071E+03  0.25500000000E-02 0.  1.
    8880023    1    1    2    0    0  0.11076512028E+03 -0.31887152898E+03  0.74616391964E+03  0.10509608771E+04  0.65864270000E+03 0.  1.
    8880022    1    1    2    0    0 -0.11076512028E+03  0.31887152898E+03  0.18865603838E+04  0.19226153277E+04  0.15294330000E+03 0.  0.
<mgrwt>
<rscale>  0 0.62258020E+03</rscale>
<asrwt>0</asrwt>
<pdfrwt beam="1">  1        2 0.43125387E+00 0.74010686E+03</pdfrwt>
<pdfrwt beam="2">  1       -2 0.26219378E-01 0.74010686E+03</pdfrwt>
<totfact> 0.31856433E+01</totfact>
</mgrwt>
</event>
<event>
 4    5  0.8511149E-008  0.8610449E+03  0.7818608E-02  0.9591707E-01
         -2   -1    0    0    0  501 -0.00000000000E+00  0.00000000000E+00  0.11773129930E+04  0.11773129930E+04  0.25500000000E-02 0.  1.
          2   -1    0    0  501    0  0.00000000000E+00 -0.00000000000E+00 -0.85017971619E+03  0.85017971620E+03  0.25500000000E-02 0. -1.
    8880023    1    1    2    0    0  0.35619523297E+03  0.42510359681E+03  0.87887496816E+03  0.12303737351E+04  0.65864270000E+03 0.  0.
    8880022    1    1    2    0    0 -0.35619523297E+03 -0.42510359681E+03 -0.55174169132E+03  0.79711897417E+03  0.15294330000E+03 0.  0.
<mgrwt>
<rscale>  0 0.77847475E+03</rscale>
<asrwt>0</asrwt>
<pdfrwt beam="1">  1        2 0.13079688E+00 0.86104490E+03</pdfrwt>
<pdfrwt beam="2">  1       -2 0.18112507E+00 0.86104490E+03</pdfrwt>
<totfact> 0.56864811E+00</totfact>
</mgrwt>
</event>
<event>
 4    5  0.8511149E-008  0.7154611E+03  0.7818608E-02  0.9938254E-01
          2   -1    0    0  501    0  0.00000000000E+00  0.00000000000E+00  0.17774525075E+04  0.17774525075E+04  0.25500000000E-02 0. -1.
         -2   -1    0    0    0  501 -0.00000000000E+00 -0.00000000000E+00 -0.66347037006E+03  0.66347037007E+03  0.25500000000E-02 0.  1.
    8880023    1    1    2    0    0 -0.26962296651E+03 -0.73333343340E+02 -0.44974823376E+03  0.84507869654E+03  0.65864270000E+03 0.  1.
    8880022    1    1    2    0    0  0.26962296651E+03  0.73333343340E+02  0.15637303711E+04  0.15958441810E+04  0.15294330000E+03 0.  0.
<mgrwt>
<rscale>  0 0.58442604E+03</rscale>
<asrwt>0</asrwt>
<pdfrwt beam="1">  1        2 0.27345423E+00 0.71546106E+03</pdfrwt>
<pdfrwt beam="2">  1       -2 0.10207237E+00 0.71546106E+03</pdfrwt>
<totfact> 0.72380616E+00</totfact>
</mgrwt>
</event>
<event>
 4    5  0.8511149E-008  0.8960989E+03  0.7818608E-02  0.9532323E-01
          2   -1    0    0  501    0  0.00000000000E+00  0.00000000000E+00  0.22800170168E+04  0.22800170168E+04  0.25500000000E-02 0. -1.
         -2   -1    0    0    0  501 -0.00000000000E+00 -0.00000000000E+00 -0.41629263757E+03  0.41629263758E+03  0.25500000000E-02 0.  1.
    8880023    1    1    2    0    0  0.48977184937E+03  0.35959230487E+03  0.19948709460E+03  0.91803507413E+03  0.65864270000E+03 0. -1.
    8880022    1    1    2    0    0 -0.48977184937E+03 -0.35959230487E+03  0.16642372846E+04  0.17782745802E+04  0.15294330000E+03 0.  0.
<mgrwt>
<rscale>  0 0.81942133E+03</rscale>
<asrwt>0</asrwt>
<pdfrwt beam="1">  1        2 0.35077185E+00 0.89609893E+03</pdfrwt>
<pdfrwt beam="2">  1       -2 0.64045021E-01 0.89609893E+03</pdfrwt>
<totfact> 0.10703837E+01</totfact>
</mgrwt>
</event>
<event>
 4    5  0.8511149E-008  0.6988081E+03  0.7818608E-02  0.1000218E+00
          2   -1    0    0  501    0  0.00000000000E+00  0.00000000000E+00  0.16367358120E+04  0.16367358120E+04  0.25500000000E-02 0. -1.
         -2   -1    0    0    0  501 -0.00000000000E+00 -0.00000000000E+00 -0.15815629760E+03  0.15815629762E+03  0.25500000000E-02 0.  1.
    8880023    1    1    2    0    0  0.16924926451E+03  0.16086383400E+03  0.12582556612E+04  0.14392845451E+04  0.65864270000E+03 0. -1.
    8880022    1    1    2    0    0 -0.16924926451E+03 -0.16086383400E+03  0.22032385322E+03  0.35560756451E+03  0.15294330000E+03 0.  1.
<mgrwt>
<rscale>  0 0.55554656E+03</rscale>
<asrwt>0</asrwt>
<pdfrwt beam="1">  1        2 0.25180552E+00 0.69880805E+03</pdfrwt>
<pdfrwt beam="2">  1       -2 0.24331737E-01 0.69880805E+03</pdfrwt>
<totfact> 0.16367380E+02</totfact>
</mgrwt>
</event>
<event>
 4    5  0.8511149E-008  0.9975333E+03  0.7818608E-02  0.9384792E-01
          2   -1    0    0  501    0  0.00000000000E+00  0.00000000000E+00  0.26735409805E+04  0.26735409805E+04  0.25500000000E-02 0. -1.
         -2   -1    0    0    0  501 -0.00000000000E+00 -0.00000000000E+00 -0.73166081533E+03  0.73166081533E+03  0.25500000000E-02 0.  1.
    8880023    1    1    2    0    0 -0.74593096116E+03  0.69637789034E+02 -0.29581839179E+03  0.10404715987E+04  0.65864270000E+03 0.  0.
    8880022    1    1    2    0    0  0.74593096116E+03 -0.69637789034E+02  0.22376985570E+04  0.23647301972E+04  0.15294330000E+03 0.  0.
<mgrwt>
<rscale>  0 0.93337876E+03</rscale>
<asrwt>0</asrwt>
<pdfrwt beam="1">  1        2 0.41131400E+00 0.99753327E+03</pdfrwt>
<pdfrwt beam="2">  1       -2 0.11256320E+00 0.99753327E+03</pdfrwt>
<totfact> 0.17303806E+00</totfact>
</mgrwt>
</event>
<event>
 4    5  0.8511149E-008  0.8088010E+03  0.7818608E-02  0.9692080E-01
          2   -1    0    0  501    0  0.00000000000E+00  0.00000000000E+00  0.21626026242E+04  0.21626026242E+04  0.25500000000E-02 0. -1.
         -2   -1    0    0    0  501 -0.00000000000E+00 -0.00000000000E+00 -0.63067705341E+03  0.63067705341E+03  0.25500000000E-02 0.  1.
    8880023    1    1    2    0    0 -0.19835399515E+03 -0.42544632744E+03  0.19723110397E+04  0.21317058729E+04  0.65864270000E+03 0.  0.
    8880022    1    1    2    0    0  0.19835399515E+03  0.42544632744E+03 -0.44038546888E+03  0.66157380475E+03  0.15294330000E+03 0.  0.
<mgrwt>
<rscale>  0 0.71490320E+03</rscale>
<asrwt>0</asrwt>
<pdfrwt beam="1">  1        2 0.33270810E+00 0.80880102E+03</pdfrwt>
<pdfrwt beam="2">  1       -2 0.97027239E-01 0.80880102E+03</pdfrwt>
<totfact> 0.49531235E+00</totfact>
</mgrwt>
</event>
<event>
 4    5  0.8511149E-008  0.8242767E+03  0.7818608E-02  0.9660572E-01
         -2   -1    0    0    0  501 -0.00000000000E+00  0.00000000000E+00  0.59063702655E+03  0.59063702656E+03  0.25500000000E-02 0.  1.
          2   -1    0    0  501    0  0.00000000000E+00 -0.00000000000E+00 -0.16672208004E+04  0.16672208004E+04  0.25500000000E-02 0. -1.
    8880023    1    1    2    0    0 -0.35931404684E+03 -0.34134336484E+03  0.22693161425E+03  0.85494446649E+03  0.65864270000E+03 0.  1.
    8880022    1    1    2    0    0  0.35931404684E+03  0.34134336484E+03 -0.13035153881E+04  0.14029133605E+04  0.15294330000E+03 0.  0.
<mgrwt>
<rscale>  0 0.73413602E+03</rscale>
<asrwt>0</asrwt>
<pdfrwt beam="1">  1        2 0.25649551E+00 0.82427670E+03</pdfrwt>
<pdfrwt beam="2">  1       -2 0.90867236E-01 0.82427670E+03</pdfrwt>
<totfact> 0.10759928E+01</totfact>
</mgrwt>
</event>
<event>
 4    5  0.8511149E-008  0.8442717E+03  0.7818608E-02  0.9622178E-01
         -2   -1    0    0    0  501 -0.00000000000E+00  0.00000000000E+00  0.54369046351E+03  0.54369046351E+03  0.25500000000E-02 0.  1.
          2   -1    0    0  501    0  0.00000000000E+00 -0.00000000000E+00 -0.15354381858E+04  0.15354381858E+04  0.25500000000E-02 0. -1.
    8880023    1    1    2    0    0 -0.43930254176E+03  0.29325369335E+03  0.10644740488E+03  0.85095576156E+03  0.65864270000E+03 0. -1.
    8880022    1    1    2    0    0  0.43930254176E+03 -0.29325369335E+03 -0.10981951272E+04  0.12281728877E+04  0.15294330000E+03 0. -1.
<mgrwt>
<rscale>  0 0.75845549E+03</rscale>
<asrwt>0</asrwt>
<pdfrwt beam="1">  1        2 0.23622126E+00 0.84427167E+03</pdfrwt>
<pdfrwt beam="2">  1       -2 0.83644687E-01 0.84427167E+03</pdfrwt>
<totfact> 0.15352540E+01</totfact>
</mgrwt>
</event>
<event>
 4    5  0.8511149E-008  0.8217515E+03  0.7818608E-02  0.9665600E-01
          2   -1    0    0  501    0  0.00000000000E+00  0.00000000000E+00  0.77997102960E+03  0.77997102960E+03  0.25500000000E-02 0. -1.
         -2   -1    0    0    0  501 -0.00000000000E+00 -0.00000000000E+00 -0.10634715034E+04  0.10634715035E+04  0.25500000000E-02 0.  1.
    8880023    1    1    2    0    0  0.33994110335E+02 -0.49021390830E+03 -0.77663080210E+03  0.11306771796E+04  0.65864270000E+03 0.  1.
    8880022    1    1    2    0    0 -0.33994110335E+02  0.49021390830E+03  0.49313032826E+03  0.71276535345E+03  0.15294330000E+03 0.  0.
<mgrwt>
<rscale>  0 0.73102425E+03</rscale>
<asrwt>0</asrwt>
<pdfrwt beam="1">  1        2 0.11999554E+00 0.82175147E+03</pdfrwt>
<pdfrwt beam="2">  1       -2 0.16361100E+00 0.82175147E+03</pdfrwt>
<totfact> 0.85180748E+00</totfact>
</mgrwt>
</event>
<event>
 4    5  0.8511149E-008  0.6683646E+03  0.7818608E-02  0.1016863E+00
         -2   -1    0    0    0  501 -0.00000000000E+00  0.00000000000E+00  0.77511089109E+03  0.77511089109E+03  0.25500000000E-02 0.  1.
          2   -1    0    0  501    0  0.00000000000E+00 -0.00000000000E+00 -0.68538745873E+03  0.68538745874E+03  0.25500000000E-02 0. -1.
    8880023    1    1    2    0    0  0.11357525066E+03  0.13146100859E+01  0.61096576030E+03  0.90553323091E+03  0.65864270000E+03 0.  1.
    8880022    1    1    2    0    0 -0.11357525066E+03 -0.13146100859E+01 -0.52124232794E+03  0.55496511892E+03  0.15294330000E+03 0.  0.
<mgrwt>
<rscale>  0 0.48835713E+03</rscale>
<asrwt>0</asrwt>
<pdfrwt beam="1">  1        2 0.10544422E+00 0.66836463E+03</pdfrwt>
<pdfrwt beam="2">  1       -2 0.11924783E+00 0.66836463E+03</pdfrwt>
<totfact> 0.23185424E+01</totfact>
</mgrwt>
</event>
<event>
 4    5  0.8511149E-008  0.7515419E+03  0.7818608E-02  0.9827518E-01
         -2   -1    0    0    0  501 -0.00000000000E+00  0.00000000000E+00  0.34032285147E+03  0.34032285148E+03  0.25500000000E-02 0.  1.
          2   -1    0    0  501    0  0.00000000000E+00 -0.00000000000E+00 -0.15254280181E+04  0.15254280181E+04  0.25500000000E-02 0. -1.
    8880023    1    1    2    0    0 -0.32980345092E+03  0.14911299347E+03 -0.16064394684E+03  0.76851915069E+03  0.65864270000E+03 0.  1.
    8880022    1    1    2    0    0  0.32980345092E+03 -0.14911299347E+03 -0.10244612198E+04  0.10972317189E+04  0.15294330000E+03 0.  0.
<mgrwt>
<rscale>  0 0.63906440E+03</rscale>
<asrwt>0</asrwt>
<pdfrwt beam="1">  1        2 0.23468123E+00 0.75154189E+03</pdfrwt>
<pdfrwt beam="2">  1       -2 0.52357362E-01 0.75154189E+03</pdfrwt>
<totfact> 0.43231806E+01</totfact>
</mgrwt>
</event>
<event>
 4    5  0.8511149E-008  0.7431008E+03  0.7818608E-02  0.9851005E-01
          2   -1    0    0  501    0  0.00000000000E+00  0.00000000000E+00  0.92333022573E+03  0.92333022573E+03  0.25500000000E-02 0. -1.
         -2   -1    0    0    0  501 -0.00000000000E+00 -0.00000000000E+00 -0.12575583540E+04  0.12575583540E+04  0.25500000000E-02 0.  1.
    8880023    1    1    2    0    0 -0.23107960676E+00 -0.34407640866E+03 -0.11000414602E+04  0.13275127302E+04  0.65864270000E+03 0.  1.
    8880022    1    1    2    0    0  0.23107960676E+00  0.34407640866E+03  0.76581333187E+03  0.85337584960E+03  0.15294330000E+03 0.  0.
<mgrwt>
<rscale>  0 0.62695704E+03</rscale>
<asrwt>0</asrwt>
<pdfrwt beam="1">  1        2 0.14205080E+00 0.74310082E+03</pdfrwt>
<pdfrwt beam="2">  1       -2 0.19347052E+00 0.74310082E+03</pdfrwt>
<totfact> 0.42515829E+00</totfact>
</mgrwt>
</event>
<event>
 4    5  0.8511149E-008  0.7697437E+03  0.7818608E-02  0.9780505E-01
          2   -1    0    0  501    0  0.00000000000E+00  0.00000000000E+00  0.12467579682E+04  0.12467579682E+04  0.25500000000E-02 0. -1.
         -2   -1    0    0    0  501 -0.00000000000E+00 -0.00000000000E+00 -0.71194106391E+03  0.71194106391E+03  0.25500000000E-02 0.  1.
    8880023    1    1    2    0    0 -0.21990458767E+03 -0.33217037159E+03 -0.44561890881E+03  0.88942768205E+03  0.65864270000E+03 0.  1.
    8880022    1    1    2    0    0  0.21990458767E+03  0.33217037159E+03  0.98043581314E+03  0.10692713501E+04  0.15294330000E+03 0.  0.
<mgrwt>
<rscale>  0 0.66419321E+03</rscale>
<asrwt>0</asrwt>
<pdfrwt beam="1">  1        2 0.19180892E+00 0.76974372E+03</pdfrwt>
<pdfrwt beam="2">  1       -2 0.10952940E+00 0.76974372E+03</pdfrwt>
<totfact> 0.12004890E+01</totfact>
</mgrwt>
</event>
<event>
 4    5  0.8511149E-008  0.9806298E+03  0.7818608E-02  0.9407350E-01
         -2   -1    0    0    0  501 -0.00000000000E+00  0.00000000000E+00  0.67237134254E+03  0.67237134254E+03  0.25500000000E-02 0.  1.
          2   -1    0    0  501    0  0.00000000000E+00 -0.00000000000E+00 -0.23215784562E+04  0.23215784562E+04  0.25500000000E-02 0. -1.
    8880023    1    1    2    0    0 -0.67888142632E+03 -0.25873670367E+03  0.20039915302E+03  0.10008969476E+04  0.65864270000E+03 0.  0.
    8880022    1    1    2    0    0  0.67888142632E+03  0.25873670367E+03 -0.18496062667E+04  0.19930528512E+04  0.15294330000E+03 0.  0.
<mgrwt>
<rscale>  0 0.91473245E+03</rscale>
<asrwt>0</asrwt>
<pdfrwt beam="1">  1        2 0.35716591E+00 0.98062984E+03</pdfrwt>
<pdfrwt beam="2">  1       -2 0.10344175E+00 0.98062984E+03</pdfrwt>
<totfact> 0.33841946E+00</totfact>
</mgrwt>
</event>
<event>
 4    5  0.8511149E-008  0.1729492E+04  0.7818608E-02  0.8762575E-01
          2   -1    0    0  501    0  0.00000000000E+00  0.00000000000E+00  0.37148447136E+04  0.37148447136E+04  0.25500000000E-02 0. -1.
         -2   -1    0    0    0  501 -0.00000000000E+00 -0.00000000000E+00 -0.13220393710E+04  0.13220393710E+04  0.25500000000E-02 0.  1.
    8880023    1    1    2    0    0 -0.13517593615E+04  0.85444656867E+03 -0.43613468664E+03  0.17836356077E+04  0.65864270000E+03 0.  0.
    8880022    1    1    2    0    0  0.13517593615E+04 -0.85444656867E+03  0.28289400292E+04  0.32532484768E+04  0.15294330000E+03 0.  0.
<mgrwt>
<rscale>  0 0.16978785E+04</rscale>
<asrwt>0</asrwt>
<pdfrwt beam="1">  1        2 0.57151457E+00 0.17294920E+04</pdfrwt>
<pdfrwt beam="2">  1       -2 0.20339067E+00 0.17294920E+04</pdfrwt>
<totfact> 0.66328923E-02</totfact>
</mgrwt>
</event>
<event>
 4    5  0.8511149E-008  0.9354333E+03  0.7818608E-02  0.9471390E-01
         -2   -1    0    0    0  501 -0.00000000000E+00  0.00000000000E+00  0.38536438063E+03  0.38536438064E+03  0.25500000000E-02 0.  1.
          2   -1    0    0  501    0  0.00000000000E+00 -0.00000000000E+00 -0.19927854409E+04  0.19927854409E+04  0.25500000000E-02 0. -1.
    8880023    1    1    2    0    0  0.38186440323E+03  0.54351152795E+03 -0.45733476744E+03  0.10412446875E+04  0.65864270000E+03 0.  0.
    8880022    1    1    2    0    0 -0.38186440323E+03 -0.54351152795E+03 -0.11500862929E+04  0.13369051341E+04  0.15294330000E+03 0.  0.
<mgrwt>
<rscale>  0 0.86426411E+03</rscale>
<asrwt>0</asrwt>
<pdfrwt beam="1">  1        2 0.30658237E+00 0.93543327E+03</pdfrwt>
<pdfrwt beam="2">  1       -2 0.59286829E-01 0.93543327E+03</pdfrwt>
<totfact> 0.18100953E+01</totfact>
</mgrwt>
</event>
<event>
 4    5  0.9687650E-008  0.1825162E+04  0.7818608E-02  0.8708744E-01
         -2   -1    0    0    0  501 -0.00000000000E+00  0.00000000000E+00  0.20426514930E+04  0.20426514930E+04  0.25500000000E-02 0.  1.
          2   -1    0    0  501    0  0.00000000000E+00 -0.00000000000E+00 -0.30768236538E+04  0.30768236538E+04  0.25500000000E-02 0. -1.
    8880023    1    1    2    0    0  0.66124205626E+03  0.15684910114E+04  0.12896875374E+04  0.22348398735E+04  0.65864270000E+03 0.  0.
    8880022    1    1    2    0    0 -0.66124205626E+03 -0.15684910114E+04 -0.23238596982E+04  0.28846352732E+04  0.15294330000E+03 0.  0.
<mgrwt>
<rscale>  0 0.17954102E+04</rscale>
<asrwt>0</asrwt>
<pdfrwt beam="1">  1        2 0.47335749E+00 0.18251617E+04</pdfrwt>
<pdfrwt beam="2">  1       -2 0.31425407E+00 0.18251617E+04</pdfrwt>
<totfact> 0.36474777E-02</totfact>
</mgrwt>
</event>
<event>
 4    5  0.8511149E-008  0.7117801E+03  0.7818608E-02  0.9951449E-01
          2   -1    0    0  501    0  0.00000000000E+00  0.00000000000E+00  0.20432918994E+04  0.20432918994E+04  0.25500000000E-02 0. -1.
         -2   -1    0    0    0  501 -0.00000000000E+00 -0.00000000000E+00 -0.27132120844E+03  0.27132120846E+03  0.25500000000E-02 0.  1.
    8880023    1    1    2    0    0  0.22754275214E+03  0.14506878249E+03  0.23938983644E+03  0.75095829162E+03  0.65864270000E+03 0.  1.
    8880022    1    1    2    0    0 -0.22754275214E+03 -0.14506878249E+03  0.15325808546E+04  0.15636548163E+04  0.15294330000E+03 0.  0.
<mgrwt>
<rscale>  0 0.57831332E+03</rscale>
<asrwt>0</asrwt>
<pdfrwt beam="1">  1        2 0.31435259E+00 0.71178007E+03</pdfrwt>
<pdfrwt beam="2">  1       -2 0.41741726E-01 0.71178007E+03</pdfrwt>
<totfact> 0.35670951E+01</totfact>
</mgrwt>
</event>
<event>
 4    5  0.8511149E-008  0.7457375E+03  0.7818608E-02  0.9843539E-01
         -2   -1    0    0    0  501 -0.00000000000E+00  0.00000000000E+00  0.11502748141E+04  0.11502748141E+04  0.25500000000E-02 0.  1.
          2   -1    0    0  501    0  0.00000000000E+00 -0.00000000000E+00 -0.57505570811E+03  0.57505570812E+03  0.25500000000E-02 0. -1.
    8880023    1    1    2    0    0 -0.34763754934E+03 -0.38240458804E+02  0.93827426807E+03  0.11985336903E+04  0.65864270000E+03 0.  1.
    8880022    1    1    2    0    0  0.34763754934E+03  0.38240458804E+02 -0.36305516208E+03  0.52679683192E+03  0.15294330000E+03 0.  0.
<mgrwt>
<rscale>  0 0.63077447E+03</rscale>
<asrwt>0</asrwt>
<pdfrwt beam="1">  1        2 0.88470110E-01 0.74573749E+03</pdfrwt>
<pdfrwt beam="2">  1       -2 0.17696535E+00 0.74573749E+03</pdfrwt>
<totfact> 0.10107847E+01</totfact>
</mgrwt>
</event>
<event>
 4    5  0.8511149E-008  0.7703668E+03  0.7818608E-02  0.9778972E-01
         -2   -1    0    0    0  501 -0.00000000000E+00  0.00000000000E+00  0.12888465965E+04  0.12888465965E+04  0.25500000000E-02 0.  1.
          2   -1    0    0  501    0  0.00000000000E+00 -0.00000000000E+00 -0.77150478710E+03  0.77150478711E+03  0.25500000000E-02 0. -1.
    8880023    1    1    2    0    0  0.39698981921E+03  0.45319012686E+02  0.10966455973E+04  0.13401852491E+04  0.65864270000E+03 0.  1.
    8880022    1    1    2    0    0 -0.39698981921E+03 -0.45319012686E+02 -0.57930378798E+03  0.72016613448E+03  0.15294330000E+03 0.  0.
<mgrwt>
<rscale>  0 0.66503315E+03</rscale>
<asrwt>0</asrwt>
<pdfrwt beam="1">  1        2 0.11869304E+00 0.77036675E+03</pdfrwt>
<pdfrwt beam="2">  1       -2 0.19828409E+00 0.77036675E+03</pdfrwt>
<totfact> 0.50254405E+00</totfact>
</mgrwt>
</event>
<event>
 4    5  0.8511149E-008  0.8656268E+03  0.7818608E-02  0.9583632E-01
          2   -1    0    0  501    0  0.00000000000E+00  0.00000000000E+00  0.17182470240E+04  0.17182470240E+04  0.25500000000E-02 0. -1.
         -2   -1    0    0    0  501 -0.00000000000E+00 -0.00000000000E+00 -0.38105847112E+03  0.38105847113E+03  0.25500000000E-02 0.  1.
    8880023    1    1    2    0    0  0.27477507613E+03  0.48989606725E+03  0.12351623342E+04  0.15082889966E+04  0.65864270000E+03 0.  0.
    8880022    1    1    2    0    0 -0.27477507613E+03 -0.48989606725E+03  0.10202621862E+03  0.59101649848E+03  0.15294330000E+03 0.  0.
<mgrwt>
<rscale>  0 0.78389075E+03</rscale>
<asrwt>0</asrwt>
<pdfrwt beam="1">  1        2 0.26434570E+00 0.86562677E+03</pdfrwt>
<pdfrwt beam="2">  1       -2 0.58624380E-01 0.86562677E+03</pdfrwt>
<totfact> 0.26418847E+01</totfact>
</mgrwt>
</event>
<event>
 4    5  0.8511149E-008  0.8832904E+03  0.7818608E-02  0.9553407E-01
         -2   -1    0    0    0  501 -0.00000000000E+00  0.00000000000E+00  0.63125341646E+03  0.63125341647E+03  0.25500000000E-02 0.  1.
          2   -1    0    0  501    0  0.00000000000E+00 -0.00000000000E+00 -0.22137022311E+04  0.22137022311E+04  0.25500000000E-02 0. -1.
    8880023    1    1    2    0    0  0.47478782971E+03 -0.34780479615E+03  0.24692976115E+03  0.91715656933E+03  0.65864270000E+03 0.  1.
    8880022    1    1    2    0    0 -0.47478782971E+03  0.34780479615E+03 -0.18293785757E+04  0.19277990782E+04  0.15294330000E+03 0.  0.
<mgrwt>
<rscale>  0 0.80458333E+03</rscale>
<asrwt>0</asrwt>
<pdfrwt beam="1">  1        2 0.34056957E+00 0.88329036E+03</pdfrwt>
<pdfrwt beam="2">  1       -2 0.97115911E-01 0.88329036E+03</pdfrwt>
<totfact> 0.45791478E+00</totfact>
</mgrwt>
</event>
<event>
 4    5  0.8511149E-008  0.7044497E+03  0.7818608E-02  0.9979220E-01
          2   -1    0    0  501    0  0.00000000000E+00  0.00000000000E+00  0.40338254564E+03  0.40338254565E+03  0.25500000000E-02 0. -1.
         -2   -1    0    0    0  501 -0.00000000000E+00 -0.00000000000E+00 -0.18436047062E+04  0.18436047062E+04  0.25500000000E-02 0.  1.
    8880023    1    1    2    0    0  0.92216383620E+02  0.23223965578E+03 -0.17095684722E+04  0.18490196555E+04  0.65864270000E+03 0.  1.
    8880022    1    1    2    0    0 -0.92216383620E+02 -0.23223965578E+03  0.26934631164E+03  0.39796759633E+03  0.15294330000E+03 0.  0.
<mgrwt>
<rscale>  0 0.56570869E+03</rscale>
<asrwt>0</asrwt>
<pdfrwt beam="1">  1        2 0.62058854E-01 0.70444966E+03</pdfrwt>
<pdfrwt beam="2">  1       -2 0.28363149E+00 0.70444966E+03</pdfrwt>
<totfact> 0.32887935E+00</totfact>
</mgrwt>
</event>
<event>
 4    5  0.8511149E-008  0.7776841E+03  0.7818608E-02  0.9761306E-01
          2   -1    0    0  501    0  0.00000000000E+00  0.00000000000E+00  0.16155606077E+04  0.16155606077E+04  0.25500000000E-02 0. -1.
         -2   -1    0    0    0  501 -0.00000000000E+00 -0.00000000000E+00 -0.11827133595E+04  0.11827133595E+04  0.25500000000E-02 0.  1.
    8880023    1    1    2    0    0  0.40007788920E+03  0.10449864465E+03 -0.10184901665E+04  0.12814502369E+04  0.65864270000E+03 0.  1.
    8880022    1    1    2    0    0 -0.40007788920E+03 -0.10449864465E+03  0.14513374148E+04  0.15168237303E+04  0.15294330000E+03 0.  0.
<mgrwt>
<rscale>  0 0.67481100E+03</rscale>
<asrwt>0</asrwt>
<pdfrwt beam="1">  1        2 0.24854779E+00 0.77768406E+03</pdfrwt>
<pdfrwt beam="2">  1       -2 0.18195590E+00 0.77768406E+03</pdfrwt>
<totfact> 0.19737071E+00</totfact>
</mgrwt>
</event>
<event>
 4    5  0.8511149E-008  0.1153887E+04  0.7818608E-02  0.9203306E-01
          2   -1    0    0  501    0  0.00000000000E+00  0.00000000000E+00  0.11115487124E+04  0.11115487124E+04  0.25500000000E-02 0. -1.
         -2   -1    0    0    0  501 -0.00000000000E+00 -0.00000000000E+00 -0.16041949848E+04  0.16041949848E+04  0.25500000000E-02 0.  1.
    8880023    1    1    2    0    0 -0.29178627633E+03  0.90139054513E+03 -0.10883574201E+04  0.15861829107E+04  0.65864270000E+03 0.  0.
    8880022    1    1    2    0    0  0.29178627633E+03 -0.90139054513E+03  0.59571114775E+03  0.11295607865E+04  0.15294330000E+03 0.  0.
<mgrwt>
<rscale>  0 0.11019374E+04</rscale>
<asrwt>0</asrwt>
<pdfrwt beam="1">  1        2 0.17100749E+00 0.11538866E+04</pdfrwt>
<pdfrwt beam="2">  1       -2 0.24679923E+00 0.11538866E+04</pdfrwt>
<totfact> 0.14095872E+00</totfact>
</mgrwt>
</event>
<event>
 4    5  0.8511149E-008  0.7441637E+03  0.7818608E-02  0.9847980E-01
         -2   -1    0    0    0  501 -0.00000000000E+00  0.00000000000E+00  0.16587703757E+03  0.16587703759E+03  0.25500000000E-02 0.  1.
          2   -1    0    0  501    0  0.00000000000E+00 -0.00000000000E+00 -0.32374664598E+04  0.32374664598E+04  0.25500000000E-02 0. -1.
    8880023    1    1    2    0    0  0.71540306552E+02  0.33889722361E+03 -0.77004921046E+03  0.10708666287E+04  0.65864270000E+03 0.  1.
    8880022    1    1    2    0    0 -0.71540306552E+02 -0.33889722361E+03 -0.23015402118E+04  0.23324768687E+04  0.15294330000E+03 0.  0.
<mgrwt>
<rscale>  0 0.62849991E+03</rscale>
<asrwt>0</asrwt>
<pdfrwt beam="1">  1        2 0.49807172E+00 0.74416366E+03</pdfrwt>
<pdfrwt beam="2">  1       -2 0.25519547E-01 0.74416366E+03</pdfrwt>
<totfact> 0.18081070E+01</totfact>
</mgrwt>
</event>
<event>
 4    5  0.8511149E-008  0.6862983E+03  0.7818608E-02  0.1005964E+00
         -2   -1    0    0    0  501 -0.00000000000E+00  0.00000000000E+00  0.59196137244E+03  0.59196137244E+03  0.25500000000E-02 0.  1.
          2   -1    0    0  501    0  0.00000000000E+00 -0.00000000000E+00 -0.16624013254E+04  0.16624013254E+04  0.25500000000E-02 0. -1.
    8880023    1    1    2    0    0 -0.13235848898E+03  0.14027270610E+03  0.37912067796E+03  0.78405222811E+03  0.65864270000E+03 0.  1.
    8880022    1    1    2    0    0  0.13235848898E+03 -0.14027270610E+03 -0.14495606309E+04  0.14703104698E+04  0.15294330000E+03 0.  0.
<mgrwt>
<rscale>  0 0.53110698E+03</rscale>
<asrwt>0</asrwt>
<pdfrwt beam="1">  1        2 0.25575405E+00 0.68629834E+03</pdfrwt>
<pdfrwt beam="2">  1       -2 0.91070981E-01 0.68629834E+03</pdfrwt>
<totfact> 0.10978068E+01</totfact>
</mgrwt>
</event>
<event>
 4    5  0.8511149E-008  0.6843175E+03  0.7818608E-02  0.1006980E+00
          2   -1    0    0  501    0  0.00000000000E+00  0.00000000000E+00  0.11081457183E+04  0.11081457183E+04  0.25500000000E-02 0. -1.
         -2   -1    0    0    0  501 -0.00000000000E+00 -0.00000000000E+00 -0.35859648741E+03  0.35859648742E+03  0.25500000000E-02 0.  1.
    8880023    1    1    2    0    0  0.40958339868E+01 -0.18564318219E+03  0.50443046160E+01  0.68433604188E+03  0.65864270000E+03 0.  1.
    8880022    1    1    2    0    0 -0.40958339868E+01  0.18564318219E+03  0.74450492622E+03  0.78240616379E+03  0.15294330000E+03 0.  0.
<mgrwt>
<rscale>  0 0.52692840E+03</rscale>
<asrwt>0</asrwt>
<pdfrwt beam="1">  1        2 0.17048396E+00 0.68431745E+03</pdfrwt>
<pdfrwt beam="2">  1       -2 0.55168691E-01 0.68431745E+03</pdfrwt>
<totfact> 0.67977482E+01</totfact>
</mgrwt>
</event>
<event>
 4    5  0.8511149E-008  0.7639207E+03  0.7818608E-02  0.9795061E-01
         -2   -1    0    0    0  501 -0.00000000000E+00  0.00000000000E+00  0.65043215718E+03  0.65043215718E+03  0.25500000000E-02 0.  1.
          2   -1    0    0  501    0  0.00000000000E+00 -0.00000000000E+00 -0.55721365744E+03  0.55721365744E+03  0.25500000000E-02 0. -1.
    8880023    1    1    2    0    0  0.21396710871E+03  0.32246343708E+03 -0.55044820825E+02  0.76590125370E+03  0.65864270000E+03 0.  0.
    8880022    1    1    2    0    0 -0.21396710871E+03 -0.32246343708E+03  0.14826332056E+03  0.44174456092E+03  0.15294330000E+03 0.  0.
<mgrwt>
<rscale>  0 0.65628272E+03</rscale>
<asrwt>0</asrwt>
<pdfrwt beam="1">  1        2 0.85725178E-01 0.76392068E+03</pdfrwt>
<pdfrwt beam="2">  1       -2 0.10006649E+00 0.76392068E+03</pdfrwt>
<totfact> 0.45201198E+01</totfact>
</mgrwt>
</event>
<event>
 4    5  0.8511149E-008  0.1583917E+04  0.7818608E-02  0.8852545E-01
         -2   -1    0    0    0  501 -0.00000000000E+00  0.00000000000E+00  0.17715204577E+04  0.17715204577E+04  0.25500000000E-02 0.  1.
          2   -1    0    0  501    0  0.00000000000E+00 -0.00000000000E+00 -0.25889137457E+04  0.25889137457E+04  0.25500000000E-02 0. -1.
    8880023    1    1    2    0    0 -0.96533343968E+03 -0.10691649442E+04  0.11210707509E+04  0.19405133760E+04  0.65864270000E+03 0.  0.
    8880022    1    1    2    0    0  0.96533343968E+03  0.10691649442E+04 -0.19384640389E+04  0.24199208274E+04  0.15294330000E+03 0.  0.
<mgrwt>
<rscale>  0 0.15489402E+04</rscale>
<asrwt>0</asrwt>
<pdfrwt beam="1">  1        2 0.39829442E+00 0.15839168E+04</pdfrwt>
<pdfrwt beam="2">  1       -2 0.27254161E+00 0.15839168E+04</pdfrwt>
<totfact> 0.13411558E-01</totfact>
</mgrwt>
</event>
<event>
 4    5  0.8511149E-008  0.9130074E+03  0.7818608E-02  0.9505465E-01
         -2   -1    0    0    0  501 -0.00000000000E+00  0.00000000000E+00  0.77772159231E+03  0.77772159231E+03  0.25500000000E-02 0.  1.
          2   -1    0    0  501    0  0.00000000000E+00 -0.00000000000E+00 -0.20383042303E+04  0.20383042303E+04  0.25500000000E-02 0. -1.
    8880023    1    1    2    0    0 -0.62988616508E+03  0.54915510113E+02  0.42661922584E+03  0.10077630993E+04  0.65864270000E+03 0.  0.
    8880022    1    1    2    0    0  0.62988616508E+03 -0.54915510113E+02 -0.16872018639E+04  0.18082627234E+04  0.15294330000E+03 0. -1.
<mgrwt>
<rscale>  0 0.83882102E+03</rscale>
<asrwt>0</asrwt>
<pdfrwt beam="1">  1        2 0.31358526E+00 0.91300739E+03</pdfrwt>
<pdfrwt beam="2">  1       -2 0.11964948E+00 0.91300739E+03</pdfrwt>
<totfact> 0.34408828E+00</totfact>
</mgrwt>
</event>
<event>
 4    5  0.8511149E-008  0.7210910E+03  0.7818608E-02  0.9918912E-01
         -2   -1    0    0    0  501 -0.00000000000E+00  0.00000000000E+00  0.50311183775E+03  0.50311183776E+03  0.25500000000E-02 0.  1.
          2   -1    0    0  501    0  0.00000000000E+00 -0.00000000000E+00 -0.21050632003E+04  0.21050632003E+04  0.25500000000E-02 0. -1.
    8880023    1    1    2    0    0 -0.65084954634E+02  0.28622708818E+03  0.22195640779E+03  0.75447786618E+03  0.65864270000E+03 0.  0.
    8880022    1    1    2    0    0  0.65084954634E+02 -0.28622708818E+03 -0.18239077704E+04  0.18536971719E+04  0.15294330000E+03 0.  0.
<mgrwt>
<rscale>  0 0.59353441E+03</rscale>
<asrwt>0</asrwt>
<pdfrwt beam="1">  1        2 0.32385587E+00 0.72109098E+03</pdfrwt>
<pdfrwt beam="2">  1       -2 0.77401822E-01 0.72109098E+03</pdfrwt>
<totfact> 0.90624545E+00</totfact>
</mgrwt>
</event>
<event>
 4    5  0.8511149E-008  0.8677855E+03  0.7818608E-02  0.9579862E-01
          2   -1    0    0  501    0  0.00000000000E+00  0.00000000000E+00  0.27370780405E+04  0.27370780406E+04  0.25500000000E-02 0. -1.
         -2   -1    0    0    0  501 -0.00000000000E+00 -0.00000000000E+00 -0.29772666253E+03  0.29772666254E+03  0.25500000000E-02 0.  1.
    8880023    1    1    2    0    0  0.39204385842E+03 -0.40686987528E+03  0.48381930169E+03  0.99354557283E+03  0.65864270000E+03 0.  1.
    8880022    1    1    2    0    0 -0.39204385842E+03  0.40686987528E+03  0.19555320763E+04  0.20412591303E+04  0.15294330000E+03 0.  0.
<mgrwt>
<rscale>  0 0.78643524E+03</rscale>
<asrwt>0</asrwt>
<pdfrwt beam="1">  1        2 0.42108893E+00 0.86778551E+03</pdfrwt>
<pdfrwt beam="2">  1       -2 0.45804102E-01 0.86778551E+03</pdfrwt>
<totfact> 0.11806605E+01</totfact>
</mgrwt>
</event>
<event>
 4    5  0.8511149E-008  0.7528388E+03  0.7818608E-02  0.9824013E-01
          2   -1    0    0  501    0  0.00000000000E+00  0.00000000000E+00  0.18638716229E+04  0.18638716229E+04  0.25500000000E-02 0. -1.
         -2   -1    0    0    0  501 -0.00000000000E+00 -0.00000000000E+00 -0.57996375560E+03  0.57996375560E+03  0.25500000000E-02 0.  1.
    8880023    1    1    2    0    0 -0.27748648243E+03 -0.23655301851E+03 -0.30067659377E+03  0.81066188932E+03  0.65864270000E+03 0.  1.
    8880022    1    1    2    0    0  0.27748648243E+03  0.23655301851E+03  0.15845844611E+04  0.16331734892E+04  0.15294330000E+03 0.  0.
<mgrwt>
<rscale>  0 0.64089658E+03</rscale>
<asrwt>0</asrwt>
<pdfrwt beam="1">  1        2 0.28674948E+00 0.75283882E+03</pdfrwt>
<pdfrwt beam="2">  1       -2 0.89225193E-01 0.75283882E+03</pdfrwt>
<totfact> 0.88468195E+00</totfact>
</mgrwt>
</event>
<event>
 4    5  0.9728529E-008  0.1220598E+04  0.7818608E-02  0.9137355E-01
         -2   -1    0    0    0  501 -0.00000000000E+00  0.00000000000E+00  0.21683127511E+04  0.21683127511E+04  0.25500000000E-02 0.  1.
          2   -1    0    0  501    0  0.00000000000E+00 -0.00000000000E+00 -0.15030929479E+04  0.15030929479E+04  0.25500000000E-02 0. -1.
    8880023    1    1    2    0    0 -0.92638525090E+03 -0.44481476201E+03  0.17730768202E+04  0.21525941146E+04  0.65864270000E+03 0.  0.
    8880022    1    1    2    0    0  0.92638525090E+03  0.44481476201E+03 -0.11078570170E+04  0.15188115844E+04  0.15294330000E+03 0.  0.
<mgrwt>
<rscale>  0 0.11724098E+04</rscale>
<asrwt>0</asrwt>
<pdfrwt beam="1">  1        2 0.23124507E+00 0.12205982E+04</pdfrwt>
<pdfrwt beam="2">  1       -2 0.33358658E+00 0.12205982E+04</pdfrwt>
<totfact> 0.24327100E-01</totfact>
</mgrwt>
</event>
<event>
 4    5  0.8511149E-008  0.9158622E+03  0.7818608E-02  0.9501033E-01
         -2   -1    0    0    0  501 -0.00000000000E+00  0.00000000000E+00  0.30852273149E+03  0.30852273150E+03  0.25500000000E-02 0.  1.
          2   -1    0    0  501    0  0.00000000000E+00 -0.00000000000E+00 -0.31399688338E+04  0.31399688338E+04  0.25500000000E-02 0. -1.
    8880023    1    1    2    0    0 -0.62924112055E+03  0.95126444663E+02 -0.53517195048E+03  0.10607604117E+04  0.65864270000E+03 0.  1.
    8880022    1    1    2    0    0  0.62924112055E+03 -0.95126444663E+02 -0.22962741518E+04  0.23877311535E+04  0.15294330000E+03 0.  0.
<mgrwt>
<rscale>  0 0.84207720E+03</rscale>
<asrwt>0</asrwt>
<pdfrwt beam="1">  1        2 0.48307211E+00 0.91586224E+03</pdfrwt>
<pdfrwt beam="2">  1       -2 0.47465038E-01 0.91586224E+03</pdfrwt>
<totfact> 0.62035731E+00</totfact>
</mgrwt>
</event>
<event>
 4    5  0.8511149E-008  0.7646693E+03  0.7818608E-02  0.9793166E-01
          2   -1    0    0  501    0  0.00000000000E+00  0.00000000000E+00  0.79786005152E+03  0.79786005152E+03  0.25500000000E-02 0. -1.
         -2   -1    0    0    0  501 -0.00000000000E+00 -0.00000000000E+00 -0.83111199464E+03  0.83111199465E+03  0.25500000000E-02 0.  1.
    8880023    1    1    2    0    0 -0.26022179870E+03 -0.28843301825E+03 -0.56655786046E+03  0.95168640110E+03  0.65864270000E+03 0.  1.
    8880022    1    1    2    0    0  0.26022179870E+03  0.28843301825E+03  0.53330591733E+03  0.67728564506E+03  0.15294330000E+03 0.  0.
<mgrwt>
<rscale>  0 0.65730605E+03</rscale>
<asrwt>0</asrwt>
<pdfrwt beam="1">  1        2 0.12274770E+00 0.76466934E+03</pdfrwt>
<pdfrwt beam="2">  1       -2 0.12786338E+00 0.76466934E+03</pdfrwt>
<totfact> 0.15866733E+01</totfact>
</mgrwt>
</event>
<event>
 4    5  0.8511149E-008  0.1133053E+04  0.7818608E-02  0.9225118E-01
          2   -1    0    0  501    0  0.00000000000E+00  0.00000000000E+00  0.10850656412E+04  0.10850656412E+04  0.25500000000E-02 0. -1.
         -2   -1    0    0    0  501 -0.00000000000E+00 -0.00000000000E+00 -0.11637681893E+04  0.11637681893E+04  0.25500000000E-02 0.  1.
    8880023    1    1    2    0    0  0.81390945251E+03 -0.43307086544E+03 -0.48156816479E+03  0.12311446198E+04  0.65864270000E+03 0.  0.
    8880022    1    1    2    0    0 -0.81390945251E+03  0.43307086544E+03  0.40286561667E+03  0.10176892107E+04  0.15294330000E+03 0.  0.
<mgrwt>
<rscale>  0 0.10797886E+04</rscale>
<asrwt>0</asrwt>
<pdfrwt beam="1">  1        2 0.16693318E+00 0.11330530E+04</pdfrwt>
<pdfrwt beam="2">  1       -2 0.17904126E+00 0.11330530E+04</pdfrwt>
<totfact> 0.40082838E+00</totfact>
</mgrwt>
</event>
<event>
 4    5  0.8511149E-008  0.1448045E+04  0.7818608E-02  0.8947222E-01
         -2   -1    0    0    0  501 -0.00000000000E+00  0.00000000000E+00  0.10572599427E+04  0.10572599427E+04  0.25500000000E-02 0.  1.
          2   -1    0    0  501    0  0.00000000000E+00 -0.00000000000E+00 -0.34582954634E+04  0.34582954634E+04  0.25500000000E-02 0. -1.
    8880023    1    1    2    0    0 -0.11374463540E+03  0.12845568677E+04 -0.28040193635E+04  0.31558452094E+04  0.65864270000E+03 0.  0.
    8880022    1    1    2    0    0  0.11374463540E+03 -0.12845568677E+04  0.40298384274E+03  0.13597101967E+04  0.15294330000E+03 0.  0.
<mgrwt>
<rscale>  0 0.14091497E+04</rscale>
<asrwt>0</asrwt>
<pdfrwt beam="1">  1        2 0.53204545E+00 0.14480450E+04</pdfrwt>
<pdfrwt beam="2">  1       -2 0.16265538E+00 0.14480450E+04</pdfrwt>
<totfact> 0.20041418E-01</totfact>
</mgrwt>
</event>
<event>
 4    5  0.8511149E-008  0.9437069E+03  0.7818608E-02  0.9459227E-01
         -2   -1    0    0    0  501 -0.00000000000E+00  0.00000000000E+00  0.63424543135E+03  0.63424543136E+03  0.25500000000E-02 0.  1.
          2   -1    0    0  501    0  0.00000000000E+00 -0.00000000000E+00 -0.24501524470E+04  0.24501524470E+04  0.25500000000E-02 0. -1.
    8880023    1    1    2    0    0  0.45345617361E+03 -0.50114862516E+03  0.18959041135E+03  0.96256281677E+03  0.65864270000E+03 0.  0.
    8880022    1    1    2    0    0 -0.45345617361E+03  0.50114862516E+03 -0.20054974270E+04  0.21218350616E+04  0.15294330000E+03 0.  0.
<mgrwt>
<rscale>  0 0.87357772E+03</rscale>
<asrwt>0</asrwt>
<pdfrwt beam="1">  1        2 0.37694653E+00 0.94370687E+03</pdfrwt>
<pdfrwt beam="2">  1       -2 0.97576221E-01 0.94370687E+03</pdfrwt>
<totfact> 0.33079951E+00</totfact>
</mgrwt>
</event>
<event>
 4    5  0.8511149E-008  0.8336484E+03  0.7818608E-02  0.9642275E-01
         -2   -1    0    0    0  501 -0.00000000000E+00  0.00000000000E+00  0.26828554259E+03  0.26828554260E+03  0.25500000000E-02 0.  1.
          2   -1    0    0  501    0  0.00000000000E+00 -0.00000000000E+00 -0.25577733322E+04  0.25577733322E+04  0.25500000000E-02 0. -1.
    8880023    1    1    2    0    0  0.13360046003E+02 -0.51086295926E+03 -0.53089176227E+03  0.98833988257E+03  0.65864270000E+03 0.  0.
    8880022    1    1    2    0    0 -0.13360046003E+02  0.51086295926E+03 -0.17585960273E+04  0.18377189922E+04  0.15294330000E+03 0.  0.
<mgrwt>
<rscale>  0 0.74560228E+03</rscale>
<asrwt>0</asrwt>
<pdfrwt beam="1">  1        2 0.39350357E+00 0.83364840E+03</pdfrwt>
<pdfrwt beam="2">  1       -2 0.41274701E-01 0.83364840E+03</pdfrwt>
<totfact> 0.18536392E+01</totfact>
</mgrwt>
</event>
<event>
 4    5  0.8511149E-008  0.7740257E+03  0.7818608E-02  0.9770062E-01
          2   -1    0    0  501    0  0.00000000000E+00  0.00000000000E+00  0.23790207206E+04  0.23790207206E+04  0.25500000000E-02 0. -1.
         -2   -1    0    0    0  501 -0.00000000000E+00 -0.00000000000E+00 -0.30316498875E+03  0.30316498876E+03  0.25500000000E-02 0.  1.
    8880023    1    1    2    0    0  0.16759330120E+02  0.40623240743E+03  0.26219349798E+03  0.81722780217E+03  0.65864270000E+03 0.  0.
    8880022    1    1    2    0    0 -0.16759330120E+02 -0.40623240743E+03  0.18136622339E+04  0.18649579072E+04  0.15294330000E+03 0.  0.
<mgrwt>
<rscale>  0 0.66994209E+03</rscale>
<asrwt>0</asrwt>
<pdfrwt beam="1">  1        2 0.36600317E+00 0.77402574E+03</pdfrwt>
<pdfrwt beam="2">  1       -2 0.46640769E-01 0.77402574E+03</pdfrwt>
<totfact> 0.18513493E+01</totfact>
</mgrwt>
</event>
<event>
 4    5  0.8511149E-008  0.7309458E+03  0.7818608E-02  0.9887152E-01
         -2   -1    0    0    0  501 -0.00000000000E+00  0.00000000000E+00  0.28132262592E+03  0.28132262594E+03  0.25500000000E-02 0.  1.
          2   -1    0    0  501    0  0.00000000000E+00 -0.00000000000E+00 -0.24919582007E+04  0.24919582007E+04  0.25500000000E-02 0. -1.
    8880023    1    1    2    0    0 -0.31423387820E+03 -0.41577484971E+02 -0.23684711479E+03  0.76836083939E+03  0.65864270000E+03 0.  1.
    8880022    1    1    2    0    0  0.31423387820E+03  0.41577484971E+02 -0.19737884600E+04  0.20049199873E+04  0.15294330000E+03 0.  0.
<mgrwt>
<rscale>  0 0.60888001E+03</rscale>
<asrwt>0</asrwt>
<pdfrwt beam="1">  1        2 0.38337817E+00 0.73094584E+03</pdfrwt>
<pdfrwt beam="2">  1       -2 0.43280406E-01 0.73094584E+03</pdfrwt>
<totfact> 0.18683767E+01</totfact>
</mgrwt>
</event>
<event>
 4    5  0.8511149E-008  0.8346675E+03  0.7818608E-02  0.9640318E-01
         -2   -1    0    0    0  501 -0.00000000000E+00  0.00000000000E+00  0.68628522476E+03  0.68628522476E+03  0.25500000000E-02 0.  1.
          2   -1    0    0  501    0  0.00000000000E+00 -0.00000000000E+00 -0.17230647605E+04  0.17230647605E+04  0.25500000000E-02 0. -1.
    8880023    1    1    2    0    0 -0.41308280746E+03 -0.30368117037E+03  0.36346494069E+03  0.91037169795E+03  0.65864270000E+03 0.  0.
    8880022    1    1    2    0    0  0.41308280746E+03  0.30368117037E+03 -0.14002444764E+04  0.14989782873E+04  0.15294330000E+03 0.  0.
<mgrwt>
<rscale>  0 0.74684172E+03</rscale>
<asrwt>0</asrwt>
<pdfrwt beam="1">  1        2 0.26508688E+00 0.83466752E+03</pdfrwt>
<pdfrwt beam="2">  1       -2 0.10558234E+00 0.83466752E+03</pdfrwt>
<totfact> 0.70250343E+00</totfact>
</mgrwt>
</event>
<event>
 4    5  0.8511149E-008  0.1146979E+04  0.7818608E-02  0.9210469E-01
          2   -1    0    0  501    0  0.00000000000E+00  0.00000000000E+00  0.37715460774E+04  0.37715460774E+04  0.25500000000E-02 0. -1.
         -2   -1    0    0    0  501 -0.00000000000E+00 -0.00000000000E+00 -0.57091171579E+03  0.57091171579E+03  0.25500000000E-02 0.  1.
    8880023    1    1    2    0    0 -0.90342044544E+03  0.25609148945E+03  0.31911531711E+04  0.33910205130E+04  0.65864270000E+03 0. -1.
    8880022    1    1    2    0    0  0.90342044544E+03 -0.25609148945E+03  0.94811905917E+01  0.95143728022E+03  0.15294330000E+03 0.  0.
<mgrwt>
<rscale>  0 0.10946023E+04</rscale>
<asrwt>0</asrwt>
<pdfrwt beam="1">  1        2 0.58023784E+00 0.11469793E+04</pdfrwt>
<pdfrwt beam="2">  1       -2 0.87832575E-01 0.11469793E+04</pdfrwt>
<totfact> 0.58700896E-01</totfact>
</mgrwt>
</event>
<event>
 4    5  0.8511149E-008  0.9446837E+03  0.7818608E-02  0.9457805E-01
          2   -1    0    0  501    0  0.00000000000E+00  0.00000000000E+00  0.12081349561E+04  0.12081349561E+04  0.25500000000E-02 0. -1.
         -2   -1    0    0    0  501 -0.00000000000E+00 -0.00000000000E+00 -0.89002962919E+03  0.89002962920E+03  0.25500000000E-02 0.  1.
    8880023    1    1    2    0    0  0.25636069897E+03 -0.62681439639E+03 -0.46389930562E+03  0.10524399591E+04  0.65864270000E+03 0.  1.
    8880022    1    1    2    0    0 -0.25636069897E+03  0.62681439639E+03  0.78200463251E+03  0.10457246262E+04  0.15294330000E+03 0.  0.
<mgrwt>
<rscale>  0 0.87467494E+03</rscale>
<asrwt>0</asrwt>
<pdfrwt beam="1">  1        2 0.18586691E+00 0.94468370E+03</pdfrwt>
<pdfrwt beam="2">  1       -2 0.13692764E+00 0.94468370E+03</pdfrwt>
<totfact> 0.71070312E+00</totfact>
</mgrwt>
</event>
<event>
 4    5  0.8511149E-008  0.1214344E+04  0.7818608E-02  0.9143303E-01
          2   -1    0    0  501    0  0.00000000000E+00  0.00000000000E+00  0.16552911549E+04  0.16552911549E+04  0.25500000000E-02 0. -1.
         -2   -1    0    0    0  501 -0.00000000000E+00 -0.00000000000E+00 -0.16645212365E+04  0.16645212365E+04  0.25500000000E-02 0.  1.
    8880023    1    1    2    0    0  0.91513252114E+03 -0.45094783939E+03 -0.12253102823E+04  0.17251136134E+04  0.65864270000E+03 0.  0.
    8880022    1    1    2    0    0 -0.91513252114E+03  0.45094783939E+03  0.12160802006E+04  0.15946987780E+04  0.15294330000E+03 0.  0.
<mgrwt>
<rscale>  0 0.11658292E+04</rscale>
<asrwt>0</asrwt>
<pdfrwt beam="1">  1        2 0.25466018E+00 0.12143441E+04</pdfrwt>
<pdfrwt beam="2">  1       -2 0.25608019E+00 0.12143441E+04</pdfrwt>
<totfact> 0.59422588E-01</totfact>
</mgrwt>
</event>
<event>
 4    5  0.8511149E-008  0.7501274E+03  0.7818608E-02  0.9831372E-01
          2   -1    0    0  501    0  0.00000000000E+00  0.00000000000E+00  0.76761679221E+03  0.76761679222E+03  0.25500000000E-02 0. -1.
         -2   -1    0    0    0  501 -0.00000000000E+00 -0.00000000000E+00 -0.75296479588E+03  0.75296479589E+03  0.25500000000E-02 0.  1.
    8880023    1    1    2    0    0 -0.24493596905E+03 -0.26246383178E+03 -0.47998700263E+03  0.89054961730E+03  0.65864270000E+03 0.  1.
    8880022    1    1    2    0    0  0.24493596905E+03  0.26246383178E+03  0.49463899896E+03  0.63003197080E+03  0.15294330000E+03 0.  0.
<mgrwt>
<rscale>  0 0.63705799E+03</rscale>
<asrwt>0</asrwt>
<pdfrwt beam="1">  1        2 0.11809489E+00 0.75012739E+03</pdfrwt>
<pdfrwt beam="2">  1       -2 0.11584074E+00 0.75012739E+03</pdfrwt>
<totfact> 0.21372963E+01</totfact>
</mgrwt>
</event>
<event>
 4    5  0.8511149E-008  0.1544606E+04  0.7818608E-02  0.8878764E-01
          2   -1    0    0  501    0  0.00000000000E+00  0.00000000000E+00  0.20669570790E+04  0.20669570790E+04  0.25500000000E-02 0. -1.
         -2   -1    0    0    0  501 -0.00000000000E+00 -0.00000000000E+00 -0.16405456553E+04  0.16405456553E+04  0.25500000000E-02 0.  1.
    8880023    1    1    2    0    0 -0.10420600589E+04 -0.93065011664E+03 -0.88926545171E+03  0.17823024591E+04  0.65864270000E+03 0.  0.
    8880022    1    1    2    0    0  0.10420600589E+04  0.93065011664E+03  0.13156768754E+04  0.19252002751E+04  0.15294330000E+03 0.  0.
<mgrwt>
<rscale>  0 0.15085857E+04</rscale>
<asrwt>0</asrwt>
<pdfrwt beam="1">  1        2 0.31799340E+00 0.15446064E+04</pdfrwt>
<pdfrwt beam="2">  1       -2 0.25239164E+00 0.15446064E+04</pdfrwt>
<totfact> 0.35526876E-01</totfact>
</mgrwt>
</event>
<event>
 4    5  0.8511149E-008  0.1022133E+04  0.7818608E-02  0.9353157E-01
          2   -1    0    0  501    0  0.00000000000E+00  0.00000000000E+00  0.17296175482E+04  0.17296175482E+04  0.25500000000E-02 0. -1.
         -2   -1    0    0    0  501 -0.00000000000E+00 -0.00000000000E+00 -0.59640122419E+03  0.59640122419E+03  0.25500000000E-02 0.  1.
    8880023    1    1    2    0    0  0.68005263380E+03 -0.38532253142E+03  0.10805166436E+03  0.10278280043E+04  0.65864270000E+03 0.  0.
    8880022    1    1    2    0    0 -0.68005263380E+03  0.38532253142E+03  0.10251646596E+04  0.12981907681E+04  0.15294330000E+03 0.  0.
<mgrwt>
<rscale>  0 0.96032987E+03</rscale>
<asrwt>0</asrwt>
<pdfrwt beam="1">  1        2 0.26609501E+00 0.10221327E+04</pdfrwt>
<pdfrwt beam="2">  1       -2 0.91754033E-01 0.10221327E+04</pdfrwt>
<totfact> 0.95012759E+00</totfact>
</mgrwt>
</event>
<event>
 4    5  0.8511149E-008  0.8316595E+03  0.7818608E-02  0.9646112E-01
          2   -1    0    0  501    0  0.00000000000E+00  0.00000000000E+00  0.11844565995E+04  0.11844565995E+04  0.25500000000E-02 0. -1.
         -2   -1    0    0    0  501 -0.00000000000E+00 -0.00000000000E+00 -0.45024394248E+03  0.45024394249E+03  0.25500000000E-02 0.  1.
    8880023    1    1    2    0    0  0.15305217040E+03 -0.48417188672E+03  0.72655153332E+03  0.11043254591E+04  0.65864270000E+03 0.  0.
    8880022    1    1    2    0    0 -0.15305217040E+03  0.48417188672E+03  0.76611237109E+01  0.53037508292E+03  0.15294330000E+03 0.  0.
<mgrwt>
<rscale>  0 0.74317934E+03</rscale>
<asrwt>0</asrwt>
<pdfrwt beam="1">  1        2 0.18222409E+00 0.83165954E+03</pdfrwt>
<pdfrwt beam="2">  1       -2 0.69268299E-01 0.83165954E+03</pdfrwt>
<totfact> 0.37189119E+01</totfact>
</mgrwt>
</event>
<event>
 4    5  0.8511149E-008  0.7718466E+03  0.7818608E-02  0.9775350E-01
          2   -1    0    0  501    0  0.00000000000E+00  0.00000000000E+00  0.39268023953E+04  0.39268023953E+04  0.25500000000E-02 0. -1.
         -2   -1    0    0    0  501 -0.00000000000E+00 -0.00000000000E+00 -0.98309047985E+02  0.98309048018E+02  0.25500000000E-02 0.  1.
    8880023    1    1    2    0    0 -0.22124570644E+03 -0.33613593696E+03  0.19342146138E+04  0.20825305302E+04  0.65864270000E+03 0.  0.
    8880022    1    1    2    0    0  0.22124570644E+03  0.33613593696E+03  0.18942787335E+04  0.19425809131E+04  0.15294330000E+03 0.  0.
<mgrwt>
<rscale>  0 0.66702344E+03</rscale>
<asrwt>0</asrwt>
<pdfrwt beam="1">  1        2 0.60412337E+00 0.77184664E+03</pdfrwt>
<pdfrwt beam="2">  1       -2 0.15124471E-01 0.77184664E+03</pdfrwt>
<totfact> 0.14781103E+01</totfact>
</mgrwt>
</event>
<event>
 4    5  0.8511149E-008  0.8424506E+03  0.7818608E-02  0.9625577E-01
          2   -1    0    0  501    0  0.00000000000E+00  0.00000000000E+00  0.34720774361E+04  0.34720774361E+04  0.25500000000E-02 0. -1.
         -2   -1    0    0    0  501 -0.00000000000E+00 -0.00000000000E+00 -0.50654718503E+03  0.50654718503E+03  0.25500000000E-02 0.  1.
    8880023    1    1    2    0    0 -0.26395006236E+03  0.45414003677E+03 -0.11466773565E+03  0.85021862146E+03  0.65864270000E+03 0.  1.
    8880022    1    1    2    0    0  0.26395006236E+03 -0.45414003677E+03  0.30801979867E+04  0.31284059997E+04  0.15294330000E+03 0.  0.
<mgrwt>
<rscale>  0 0.75626235E+03</rscale>
<asrwt>0</asrwt>
<pdfrwt beam="1">  1        2 0.53416575E+00 0.84245060E+03</pdfrwt>
<pdfrwt beam="2">  1       -2 0.77930337E-01 0.84245060E+03</pdfrwt>
<totfact> 0.13279619E+00</totfact>
</mgrwt>
</event>
<event>
 4    5  0.8511149E-008  0.1059887E+04  0.7818608E-02  0.9307089E-01
          2   -1    0    0  501    0  0.00000000000E+00  0.00000000000E+00  0.11814535396E+04  0.11814535396E+04  0.25500000000E-02 0. -1.
         -2   -1    0    0    0  501 -0.00000000000E+00 -0.00000000000E+00 -0.14535717515E+04  0.14535717515E+04  0.25500000000E-02 0.  1.
    8880023    1    1    2    0    0 -0.80637862322E+03 -0.19825400917E+03 -0.10464002333E+04  0.14894008160E+04  0.65864270000E+03 0.  0.
    8880022    1    1    2    0    0  0.80637862322E+03  0.19825400917E+03  0.77428202140E+03  0.11456244750E+04  0.15294330000E+03 0.  0.
<mgrwt>
<rscale>  0 0.10013286E+04</rscale>
<asrwt>0</asrwt>
<pdfrwt beam="1">  1        2 0.18176208E+00 0.10598874E+04</pdfrwt>
<pdfrwt beam="2">  1       -2 0.22362642E+00 0.10598874E+04</pdfrwt>
<totfact> 0.17977125E+00</totfact>
</mgrwt>
</event>
<event>
 4    5  0.8511149E-008  0.8188735E+03  0.7818608E-02  0.9671382E-01
         -2   -1    0    0    0  501 -0.00000000000E+00  0.00000000000E+00  0.78147948919E+03  0.78147948919E+03  0.25500000000E-02 0.  1.
          2   -1    0    0  501    0  0.00000000000E+00 -0.00000000000E+00 -0.15889492648E+04  0.15889492648E+04  0.25500000000E-02 0. -1.
    8880023    1    1    2    0    0 -0.45741303149E+03 -0.16588217832E+03  0.50518570390E+03  0.96216754266E+03  0.65864270000E+03 0.  1.
    8880022    1    1    2    0    0  0.45741303149E+03  0.16588217832E+03 -0.13126554795E+04  0.14082612114E+04  0.15294330000E+03 0.  0.
<mgrwt>
<rscale>  0 0.72746567E+03</rscale>
<asrwt>0</asrwt>
<pdfrwt beam="1">  1        2 0.24445373E+00 0.81887349E+03</pdfrwt>
<pdfrwt beam="2">  1       -2 0.12022761E+00 0.81887349E+03</pdfrwt>
<totfact> 0.60794465E+00</totfact>
</mgrwt>
</event>
<event>
 4    5  0.8511149E-008  0.1109053E+04  0.7818608E-02  0.9251043E-01
          2   -1    0    0  501    0  0.00000000000E+00  0.00000000000E+00  0.19171280990E+04  0.19171280990E+04  0.25500000000E-02 0. -1.
         -2   -1    0    0    0  501 -0.00000000000E+00 -0.00000000000E+00 -0.89794005153E+03  0.89794005153E+03  0.25500000000E-02 0.  1.
    8880023    1    1    2    0    0 -0.87712033435E+03  0.16385689954E+03 -0.35937062426E+03  0.11658244363E+04  0.65864270000E+03 0.  0.
    8880022    1    1    2    0    0  0.87712033435E+03 -0.16385689954E+03  0.13785586718E+04  0.16492437142E+04  0.15294330000E+03 0.  0.
<mgrwt>
<rscale>  0 0.10541764E+04</rscale>
<asrwt>0</asrwt>
<pdfrwt beam="1">  1        2 0.29494278E+00 0.11090534E+04</pdfrwt>
<pdfrwt beam="2">  1       -2 0.13814462E+00 0.11090534E+04</pdfrwt>
<totfact> 0.27175294E+00</totfact>
</mgrwt>
</event>
<event>
 4    5  0.8511149E-008  0.9883264E+03  0.7818608E-02  0.9396992E-01
          2   -1    0    0  501    0  0.00000000000E+00  0.00000000000E+00  0.20192955076E+04  0.20192955076E+04  0.25500000000E-02 0. -1.
         -2   -1    0    0    0  501 -0.00000000000E+00 -0.00000000000E+00 -0.10117473149E+04  0.10117473149E+04  0.25500000000E-02 0.  1.
    8880023    1    1    2    0    0 -0.31815499233E+03 -0.66464745940E+03 -0.66891155495E+03  0.11934117978E+04  0.65864270000E+03 0.  0.
    8880022    1    1    2    0    0  0.31815499233E+03  0.66464745940E+03  0.16764597476E+04  0.18376310247E+04  0.15294330000E+03 0.  0.
<mgrwt>
<rscale>  0 0.92323630E+03</rscale>
<asrwt>0</asrwt>
<pdfrwt beam="1">  1        2 0.31066084E+00 0.98832639E+03</pdfrwt>
<pdfrwt beam="2">  1       -2 0.15565343E+00 0.98832639E+03</pdfrwt>
<totfact> 0.17683128E+00</totfact>
</mgrwt>
</event>
<event>
 4    5  0.8511149E-008  0.7103064E+03  0.7818608E-02  0.9956865E-01
          2   -1    0    0  501    0  0.00000000000E+00  0.00000000000E+00  0.11224448432E+04  0.11224448432E+04  0.25500000000E-02 0. -1.
         -2   -1    0    0    0  501 -0.00000000000E+00 -0.00000000000E+00 -0.28978850398E+03  0.28978850399E+03  0.25500000000E-02 0.  1.
    8880023    1    1    2    0    0 -0.13167813924E+03 -0.23105391518E+03  0.84662806497E+03  0.11051309111E+04  0.65864270000E+03 0.  0.
    8880022    1    1    2    0    0  0.13167813924E+03  0.23105391518E+03 -0.13971725797E+02  0.30710243602E+03  0.15294330000E+03 0.  0.
<mgrwt>
<rscale>  0 0.57582783E+03</rscale>
<asrwt>0</asrwt>
<pdfrwt beam="1">  1        2 0.17268382E+00 0.71030645E+03</pdfrwt>
<pdfrwt beam="2">  1       -2 0.44582847E-01 0.71030645E+03</pdfrwt>
<totfact> 0.10246200E+02</totfact>
</mgrwt>
</event>
<event>
 4    5  0.8511149E-008  0.7687322E+03  0.7818608E-02  0.9783003E-01
          2   -1    0    0  501    0  0.00000000000E+00  0.00000000000E+00  0.30074011719E+03  0.30074011721E+03  0.25500000000E-02 0. -1.
         -2   -1    0    0    0  501 -0.00000000000E+00 -0.00000000000E+00 -0.12661426957E+04  0.12661426957E+04  0.25500000000E-02 0.  1.
    8880023    1    1    2    0    0  0.29861239643E+03  0.26070997671E+03 -0.80400333229E+03  0.11123716195E+04  0.65864270000E+03 0.  0.
    8880022    1    1    2    0    0 -0.29861239643E+03 -0.26070997671E+03 -0.16139924624E+03  0.45451119344E+03  0.15294330000E+03 0.  1.
<mgrwt>
<rscale>  0 0.66282703E+03</rscale>
<asrwt>0</asrwt>
<pdfrwt beam="1">  1        2 0.46267711E-01 0.76873224E+03</pdfrwt>
<pdfrwt beam="2">  1       -2 0.19479118E+00 0.76873224E+03</pdfrwt>
<totfact> 0.16001095E+01</totfact>
</mgrwt>
</event>
<event>
 4    5  0.8511149E-008  0.9848321E+03  0.7818608E-02  0.9401676E-01
          2   -1    0    0  501    0  0.00000000000E+00  0.00000000000E+00  0.10851296859E+04  0.10851296859E+04  0.25500000000E-02 0. -1.
         -2   -1    0    0    0  501 -0.00000000000E+00 -0.00000000000E+00 -0.15285299477E+04  0.15285299477E+04  0.25500000000E-02 0.  1.
    8880023    1    1    2    0    0 -0.47477556635E+03  0.55737976916E+03 -0.11982200730E+04  0.15510079288E+04  0.65864270000E+03 0.  1.
    8880022    1    1    2    0    0  0.47477556635E+03 -0.55737976916E+03  0.75481981124E+03  0.10626517049E+04  0.15294330000E+03 0.  0.
<mgrwt>
<rscale>  0 0.91937840E+03</rscale>
<asrwt>0</asrwt>
<pdfrwt beam="1">  1        2 0.16694303E+00 0.98483209E+03</pdfrwt>
<pdfrwt beam="2">  1       -2 0.23515845E+00 0.98483209E+03</pdfrwt>
<totfact> 0.17613073E+00</totfact>
</mgrwt>
</event>
<event>
 4    5  0.8511149E-008  0.6717079E+03  0.7818608E-02  0.1014467E+00
         -2   -1    0    0    0  501 -0.00000000000E+00  0.00000000000E+00  0.22913155325E+03  0.22913155327E+03  0.25500000000E-02 0.  1.
          2   -1    0    0  501    0  0.00000000000E+00 -0.00000000000E+00 -0.19741982770E+04  0.19741982770E+04  0.25500000000E-02 0. -1.
    8880023    1    1    2    0    0  0.90471202286E+02  0.95896852369E+02 -0.28550388107E+03  0.72986568429E+03  0.65864270000E+03 0.  1.
    8880022    1    1    2    0    0 -0.90471202286E+02 -0.95896852369E+02 -0.14595628426E+04  0.14734641459E+04  0.15294330000E+03 0.  0.
<mgrwt>
<rscale>  0 0.49737250E+03</rscale>
<asrwt>0</asrwt>
<pdfrwt beam="1">  1        2 0.30372280E+00 0.67170786E+03</pdfrwt>
<pdfrwt beam="2">  1       -2 0.35251010E-01 0.67170786E+03</pdfrwt>
<totfact> 0.54222160E+01</totfact>
</mgrwt>
</event>
<event>
 4    5  0.8511149E-008  0.7385731E+03  0.7818608E-02  0.9864123E-01
         -2   -1    0    0    0  501 -0.00000000000E+00  0.00000000000E+00  0.99263906555E+03  0.99263906555E+03  0.25500000000E-02 0.  1.
          2   -1    0    0  501    0  0.00000000000E+00 -0.00000000000E+00 -0.13997531781E+04  0.13997531781E+04  0.25500000000E-02 0. -1.
    8880023    1    1    2    0    0 -0.12993466110E+03 -0.30789111948E+03  0.82460790505E+03  0.11070087447E+04  0.65864270000E+03 0.  1.
    8880022    1    1    2    0    0  0.12993466110E+03  0.30789111948E+03 -0.12317220176E+04  0.12853834989E+04  0.15294330000E+03 0.  0.
<mgrwt>
<rscale>  0 0.62031975E+03</rscale>
<asrwt>0</asrwt>
<pdfrwt beam="1">  1        2 0.21534664E+00 0.73857306E+03</pdfrwt>
<pdfrwt beam="2">  1       -2 0.15271370E+00 0.73857306E+03</pdfrwt>
<totfact> 0.42453341E+00</totfact>
</mgrwt>
</event>
<event>
 4    5  0.8511149E-008  0.1051296E+04  0.7818608E-02  0.9317325E-01
         -2   -1    0    0    0  501 -0.00000000000E+00  0.00000000000E+00  0.14472277066E+04  0.14472277066E+04  0.25500000000E-02 0.  1.
          2   -1    0    0  501    0  0.00000000000E+00 -0.00000000000E+00 -0.12018541948E+04  0.12018541948E+04  0.25500000000E-02 0. -1.
    8880023    1    1    2    0    0 -0.73045955944E+03 -0.37126964663E+03  0.10533480962E+04  0.14882085662E+04  0.65864270000E+03 0.  0.
    8880022    1    1    2    0    0  0.73045955944E+03  0.37126964663E+03 -0.80797458439E+03  0.11608733353E+04  0.15294330000E+03 0.  0.
<mgrwt>
<rscale>  0 0.99203372E+03</rscale>
<asrwt>0</asrwt>
<pdfrwt beam="1">  1        2 0.18490064E+00 0.10512956E+04</pdfrwt>
<pdfrwt beam="2">  1       -2 0.22265042E+00 0.10512956E+04</pdfrwt>
<totfact> 0.17743663E+00</totfact>
</mgrwt>
</event>
<event>
 4    5  0.1098222E-007  0.7880720E+03  0.7818608E-02  0.9737206E-01
         -2   -1    0    0    0  501 -0.00000000000E+00  0.00000000000E+00  0.17637804097E+04  0.17637804097E+04  0.25500000000E-02 0.  1.
          2   -1    0    0  501    0  0.00000000000E+00 -0.00000000000E+00 -0.26354125804E+04  0.26354125804E+04  0.25500000000E-02 0. -1.
    8880023    1    1    2    0    0  0.37139661542E+03  0.22206271015E+03  0.16540261278E+04  0.18321735537E+04  0.65864270000E+03 0.  1.
    8880022    1    1    2    0    0 -0.37139661542E+03 -0.22206271015E+03 -0.25256582984E+04  0.25670194364E+04  0.15294330000E+03 0.  0.
<mgrwt>
<rscale>  0 0.68844106E+03</rscale>
<asrwt>0</asrwt>
<pdfrwt beam="1">  1        2 0.40544809E+00 0.78807201E+03</pdfrwt>
<pdfrwt beam="2">  1       -2 0.27135083E+00 0.78807201E+03</pdfrwt>
<totfact> 0.14723404E-01</totfact>
</mgrwt>
</event>
<event>
 4    5  0.1073165E-007  0.1471622E+04  0.7818608E-02  0.8929939E-01
          2   -1    0    0  501    0  0.00000000000E+00  0.00000000000E+00  0.20434482186E+04  0.20434482186E+04  0.25500000000E-02 0. -1.
         -2   -1    0    0    0  501 -0.00000000000E+00 -0.00000000000E+00 -0.19557108301E+04  0.19557108302E+04  0.25500000000E-02 0.  1.
    8880023    1    1    2    0    0 -0.95850246119E+03 -0.90173998178E+03 -0.13831320652E+04  0.20195857196E+04  0.65864270000E+03 0.  0.
    8880022    1    1    2    0    0  0.95850246119E+03  0.90173998178E+03  0.14708694537E+04  0.19795733292E+04  0.15294330000E+03 0.  0.
<mgrwt>
<rscale>  0 0.14334738E+04</rscale>
<asrwt>0</asrwt>
<pdfrwt beam="1">  1        2 0.31437665E+00 0.14716223E+04</pdfrwt>
<pdfrwt beam="2">  1       -2 0.30087859E+00 0.14716223E+04</pdfrwt>
<totfact> 0.18671164E-01</totfact>
</mgrwt>
</event>
<event>
 4    5  0.8511149E-008  0.7329312E+03  0.7818608E-02  0.9881038E-01
          2   -1    0    0  501    0  0.00000000000E+00  0.00000000000E+00  0.22293337900E+04  0.22293337900E+04  0.25500000000E-02 0. -1.
         -2   -1    0    0    0  501 -0.00000000000E+00 -0.00000000000E+00 -0.38153936349E+03  0.38153936349E+03  0.25500000000E-02 0.  1.
    8880023    1    1    2    0    0 -0.27811495751E+03  0.16133802944E+03  0.39242835338E+01  0.73294167271E+03  0.65864270000E+03 0.  1.
    8880022    1    1    2    0    0  0.27811495751E+03 -0.16133802944E+03  0.18438701430E+04  0.18779314808E+04  0.15294330000E+03 0.  0.
<mgrwt>
<rscale>  0 0.61189127E+03</rscale>
<asrwt>0</asrwt>
<pdfrwt beam="1">  1        2 0.34297443E+00 0.73293117E+03</pdfrwt>
<pdfrwt beam="2">  1       -2 0.58698363E-01 0.73293117E+03</pdfrwt>
<totfact> 0.14066548E+01</totfact>
</mgrwt>
</event>
<event>
 4    5  0.8511149E-008  0.7716710E+03  0.7818608E-02  0.9775779E-01
          2   -1    0    0  501    0  0.00000000000E+00  0.00000000000E+00  0.12745021922E+04  0.12745021922E+04  0.25500000000E-02 0. -1.
         -2   -1    0    0    0  501 -0.00000000000E+00 -0.00000000000E+00 -0.39372382795E+03  0.39372382796E+03  0.25500000000E-02 0.  1.
    8880023    1    1    2    0    0 -0.38801677572E+03 -0.10539844369E+03  0.10179815335E+03  0.77835655099E+03  0.65864270000E+03 0.  1.
    8880022    1    1    2    0    0  0.38801677572E+03  0.10539844369E+03  0.77898021087E+03  0.88986946914E+03  0.15294330000E+03 0.  0.
<mgrwt>
<rscale>  0 0.66678750E+03</rscale>
<asrwt>0</asrwt>
<pdfrwt beam="1">  1        2 0.19607726E+00 0.77167095E+03</pdfrwt>
<pdfrwt beam="2">  1       -2 0.60572898E-01 0.77167095E+03</pdfrwt>
<totfact> 0.44159606E+01</totfact>
</mgrwt>
</event>
<event>
 4    5  0.8511149E-008  0.9283785E+03  0.7818608E-02  0.9481930E-01
          2   -1    0    0  501    0  0.00000000000E+00  0.00000000000E+00  0.24428743765E+04  0.24428743765E+04  0.25500000000E-02 0. -1.
         -2   -1    0    0    0  501 -0.00000000000E+00 -0.00000000000E+00 -0.11208212940E+04  0.11208212940E+04  0.25500000000E-02 0.  1.
    8880023    1    1    2    0    0 -0.44735576731E+03 -0.47744022035E+03 -0.86918296126E+03  0.12717568844E+04  0.65864270000E+03 0.  0.
    8880022    1    1    2    0    0  0.44735576731E+03  0.47744022035E+03  0.21912360438E+04  0.22919387861E+04  0.15294330000E+03 0.  0.
<mgrwt>
<rscale>  0 0.85629254E+03</rscale>
<asrwt>0</asrwt>
<pdfrwt beam="1">  1        2 0.37582682E+00 0.92837845E+03</pdfrwt>
<pdfrwt beam="2">  1       -2 0.17243405E+00 0.92837845E+03</pdfrwt>
<totfact> 0.78228229E-01</totfact>
</mgrwt>
</event>
<event>
 4    5  0.8511149E-008  0.7158270E+03  0.7818608E-02  0.9936967E-01
          2   -1    0    0  501    0  0.00000000000E+00  0.00000000000E+00  0.23453443896E+04  0.23453443896E+04  0.25500000000E-02 0. -1.
         -2   -1    0    0    0  501 -0.00000000000E+00 -0.00000000000E+00 -0.11615064424E+04  0.11615064424E+04  0.25500000000E-02 0.  1.
    8880023    1    1    2    0    0 -0.77531143641E+02  0.26941976432E+03 -0.10387087735E+04  0.12614769954E+04  0.65864270000E+03 0.  1.
    8880022    1    1    2    0    0  0.77531143641E+02 -0.26941976432E+03  0.22225467206E+04  0.22453738366E+04  0.15294330000E+03 0.  0.
<mgrwt>
<rscale>  0 0.58502661E+03</rscale>
<asrwt>0</asrwt>
<pdfrwt beam="1">  1        2 0.36082221E+00 0.71582700E+03</pdfrwt>
<pdfrwt beam="2">  1       -2 0.17869330E+00 0.71582700E+03</pdfrwt>
<totfact> 0.83714697E-01</totfact>
</mgrwt>
</event>
<event>
 4    5  0.8511149E-008  0.1157641E+04  0.7818608E-02  0.9199440E-01
          2   -1    0    0  501    0  0.00000000000E+00  0.00000000000E+00  0.10730218480E+04  0.10730218480E+04  0.25500000000E-02 0. -1.
         -2   -1    0    0    0  501 -0.00000000000E+00 -0.00000000000E+00 -0.14179078715E+04  0.14179078715E+04  0.25500000000E-02 0.  1.
    8880023    1    1    2    0    0  0.49440253452E+03 -0.81356585991E+03 -0.81742161569E+03  0.14171491025E+04  0.65864270000E+03 0.  0.
    8880022    1    1    2    0    0 -0.49440253452E+03  0.81356585991E+03  0.47253559216E+03  0.10737806170E+04  0.15294330000E+03 0.  0.
<mgrwt>
<rscale>  0 0.11059214E+04</rscale>
<asrwt>0</asrwt>
<pdfrwt beam="1">  1        2 0.16508028E+00 0.11576413E+04</pdfrwt>
<pdfrwt beam="2">  1       -2 0.21813967E+00 0.11576413E+04</pdfrwt>
<totfact> 0.22452164E+00</totfact>
</mgrwt>
</event>
<event>
 4    5  0.8511149E-008  0.7204998E+03  0.7818608E-02  0.9920898E-01
          2   -1    0    0  501    0  0.00000000000E+00  0.00000000000E+00  0.22127730478E+04  0.22127730478E+04  0.25500000000E-02 0. -1.
         -2   -1    0    0    0  501 -0.00000000000E+00 -0.00000000000E+00 -0.22305791906E+03  0.22305791907E+03  0.25500000000E-02 0.  1.
    8880023    1    1    2    0    0  0.12035402332E+03 -0.26612912291E+03  0.42446842631E+03  0.83623767685E+03  0.65864270000E+03 0.  1.
    8880022    1    1    2    0    0 -0.12035402332E+03  0.26612912291E+03  0.15652467024E+04  0.15995932900E+04  0.15294330000E+03 0.  0.
<mgrwt>
<rscale>  0 0.59259070E+03</rscale>
<asrwt>0</asrwt>
<pdfrwt beam="1">  1        2 0.34042663E+00 0.72049983E+03</pdfrwt>
<pdfrwt beam="2">  1       -2 0.34316602E-01 0.72049983E+03</pdfrwt>
<totfact> 0.41981719E+01</totfact>
</mgrwt>
</event>
<event>
 4    5  0.8511149E-008  0.7323375E+03  0.7818608E-02  0.9882857E-01
          2   -1    0    0  501    0  0.00000000000E+00  0.00000000000E+00  0.17065979732E+04  0.17065979732E+04  0.25500000000E-02 0. -1.
         -2   -1    0    0    0  501 -0.00000000000E+00 -0.00000000000E+00 -0.24205111081E+03  0.24205111082E+03  0.25500000000E-02 0.  1.
    8880023    1    1    2    0    0  0.31969063887E+03 -0.17490105406E+02  0.41721454548E+03  0.84284410871E+03  0.65864270000E+03 0.  1.
    8880022    1    1    2    0    0 -0.31969063887E+03  0.17490105406E+02  0.10473323169E+04  0.11058049753E+04  0.15294330000E+03 0.  0.
<mgrwt>
<rscale>  0 0.61099341E+03</rscale>
<asrwt>0</asrwt>
<pdfrwt beam="1">  1        2 0.26255353E+00 0.73233750E+03</pdfrwt>
<pdfrwt beam="2">  1       -2 0.37238634E-01 0.73233750E+03</pdfrwt>
<totfact> 0.67776101E+01</totfact>
</mgrwt>
</event>
<event>
 4    5  0.8511149E-008  0.1190372E+04  0.7818608E-02  0.9166539E-01
         -2   -1    0    0    0  501 -0.00000000000E+00  0.00000000000E+00  0.27571587295E+04  0.27571587295E+04  0.25500000000E-02 0.  1.
          2   -1    0    0  501    0  0.00000000000E+00 -0.00000000000E+00 -0.57720592003E+03  0.57720592004E+03  0.25500000000E-02 0. -1.
    8880023    1    1    2    0    0  0.91357249146E+03 -0.38543586119E+03  0.19816257304E+04  0.23116717418E+04  0.65864270000E+03 0.  0.
    8880022    1    1    2    0    0 -0.91357249146E+03  0.38543586119E+03  0.19832707910E+03  0.10226929078E+04  0.15294330000E+03 0.  0.
<mgrwt>
<rscale>  0 0.11405581E+04</rscale>
<asrwt>0</asrwt>
<pdfrwt beam="1">  1        2 0.88800911E-01 0.11903721E+04</pdfrwt>
<pdfrwt beam="2">  1       -2 0.42417826E+00 0.11903721E+04</pdfrwt>
<totfact> 0.26574274E-01</totfact>
</mgrwt>
</event>
<event>
 4    5  0.8511149E-008  0.1076290E+04  0.7818608E-02  0.9287924E-01
         -2   -1    0    0    0  501 -0.00000000000E+00  0.00000000000E+00  0.33247777242E+03  0.33247777243E+03  0.25500000000E-02 0.  1.
          2   -1    0    0  501    0  0.00000000000E+00 -0.00000000000E+00 -0.30145877454E+04  0.30145877454E+04  0.25500000000E-02 0. -1.
    8880023    1    1    2    0    0  0.42872577064E+02 -0.85014873907E+03 -0.10702603771E+04  0.15178466383E+04  0.65864270000E+03 0.  0.
    8880022    1    1    2    0    0 -0.42872577064E+02  0.85014873907E+03 -0.16118495959E+04  0.18292188796E+04  0.15294330000E+03 0.  0.
<mgrwt>
<rscale>  0 0.10190220E+04</rscale>
<asrwt>0</asrwt>
<pdfrwt beam="1">  1        2 0.46378271E+00 0.10762905E+04</pdfrwt>
<pdfrwt beam="2">  1       -2 0.51150429E-01 0.10762905E+04</pdfrwt>
<totfact> 0.62382325E+00</totfact>
</mgrwt>
</event>
<event>
 4    5  0.8511149E-008  0.7164275E+03  0.7818608E-02  0.9934865E-01
         -2   -1    0    0    0  501 -0.00000000000E+00  0.00000000000E+00  0.19444936470E+03  0.19444936472E+03  0.25500000000E-02 0.  1.
          2   -1    0    0  501    0  0.00000000000E+00 -0.00000000000E+00 -0.38748633129E+04  0.38748633129E+04  0.25500000000E-02 0. -1.
    8880023    1    1    2    0    0  0.13087547057E+03 -0.24965927689E+03 -0.50209068036E+03  0.87485050203E+03  0.65864270000E+03 0.  1.
    8880022    1    1    2    0    0 -0.13087547057E+03  0.24965927689E+03 -0.31783232678E+04  0.31944621755E+04  0.15294330000E+03 0.  0.
<mgrwt>
<rscale>  0 0.58600944E+03</rscale>
<asrwt>0</asrwt>
<pdfrwt beam="1">  1        2 0.59613276E+00 0.71642749E+03</pdfrwt>
<pdfrwt beam="2">  1       -2 0.29915290E-01 0.71642749E+03</pdfrwt>
<totfact> 0.49065083E+00</totfact>
</mgrwt>
</event>
<event>
 4    5  0.8511149E-008  0.1229275E+04  0.7818608E-02  0.9129177E-01
          2   -1    0    0  501    0  0.00000000000E+00  0.00000000000E+00  0.23377380458E+04  0.23377380458E+04  0.25500000000E-02 0. -1.
         -2   -1    0    0    0  501 -0.00000000000E+00 -0.00000000000E+00 -0.79251531622E+03  0.79251531623E+03  0.25500000000E-02 0.  1.
    8880023    1    1    2    0    0  0.59585227417E+03 -0.84986347080E+03 -0.39275055911E+02  0.12299026742E+04  0.65864270000E+03 0.  0.
    8880022    1    1    2    0    0 -0.59585227417E+03  0.84986347080E+03  0.15844977855E+04  0.19003506879E+04  0.15294330000E+03 0.  0.
<mgrwt>
<rscale>  0 0.11815320E+04</rscale>
<asrwt>0</asrwt>
<pdfrwt beam="1">  1        2 0.35965200E+00 0.12292754E+04</pdfrwt>
<pdfrwt beam="2">  1       -2 0.12192544E+00 0.12292754E+04</pdfrwt>
<totfact> 0.21481044E+00</totfact>
</mgrwt>
</event>
<event>
 4    5  0.8511149E-008  0.8797582E+03  0.7818608E-02  0.9559340E-01
          2   -1    0    0  501    0  0.00000000000E+00  0.00000000000E+00  0.15708984748E+04  0.15708984748E+04  0.25500000000E-02 0. -1.
         -2   -1    0    0    0  501 -0.00000000000E+00 -0.00000000000E+00 -0.93852936867E+03  0.93852936867E+03  0.25500000000E-02 0.  1.
    8880023    1    1    2    0    0  0.18034187953E+03  0.55465398195E+03 -0.64902899929E+03  0.10932580123E+04  0.65864270000E+03 0.  1.
    8880022    1    1    2    0    0 -0.18034187953E+03 -0.55465398195E+03  0.12813981054E+04  0.14161698312E+04  0.15294330000E+03 0.  0.
<mgrwt>
<rscale>  0 0.80046782E+03</rscale>
<asrwt>0</asrwt>
<pdfrwt beam="1">  1        2 0.24167669E+00 0.87975817E+03</pdfrwt>
<pdfrwt beam="2">  1       -2 0.14438913E+00 0.87975817E+03</pdfrwt>
<totfact> 0.38686590E+00</totfact>
</mgrwt>
</event>
<event>
 4    5  0.8511149E-008  0.7714890E+03  0.7818608E-02  0.9776223E-01
         -2   -1    0    0    0  501 -0.00000000000E+00  0.00000000000E+00  0.89383051906E+03  0.89383051907E+03  0.25500000000E-02 0.  1.
          2   -1    0    0  501    0  0.00000000000E+00 -0.00000000000E+00 -0.14569711435E+04  0.14569711435E+04  0.25500000000E-02 0. -1.
    8880023    1    1    2    0    0 -0.53777658407E+02  0.39811174008E+03  0.68438262910E+03  0.10312976212E+04  0.65864270000E+03 0.  0.
    8880022    1    1    2    0    0  0.53777658407E+02 -0.39811174008E+03 -0.12475232535E+04  0.13195040414E+04  0.15294330000E+03 0.  0.
<mgrwt>
<rscale>  0 0.66654299E+03</rscale>
<asrwt>0</asrwt>
<pdfrwt beam="1">  1        2 0.22414941E+00 0.77148895E+03</pdfrwt>
<pdfrwt beam="2">  1       -2 0.13751239E+00 0.77148895E+03</pdfrwt>
<totfact> 0.51620020E+00</totfact>
</mgrwt>
</event>
<event>
 4    5  0.8511149E-008  0.1077743E+04  0.7818608E-02  0.9286251E-01
         -2   -1    0    0    0  501 -0.00000000000E+00  0.00000000000E+00  0.53724026680E+03  0.53724026681E+03  0.25500000000E-02 0.  1.
          2   -1    0    0  501    0  0.00000000000E+00 -0.00000000000E+00 -0.25048286603E+04  0.25048286603E+04  0.25500000000E-02 0. -1.
    8880023    1    1    2    0    0 -0.77776542707E+03  0.35042797186E+03 -0.23244480844E+03  0.11025242030E+04  0.65864270000E+03 0.  0.
    8880022    1    1    2    0    0  0.77776542707E+03 -0.35042797186E+03 -0.17351435851E+04  0.19395447241E+04  0.15294330000E+03 0.  0.
<mgrwt>
<rscale>  0 0.10205852E+04</rscale>
<asrwt>0</asrwt>
<pdfrwt beam="1">  1        2 0.38535825E+00 0.10777426E+04</pdfrwt>
<pdfrwt beam="2">  1       -2 0.82652351E-01 0.10777426E+04</pdfrwt>
<totfact> 0.44417233E+00</totfact>
</mgrwt>
</event>
<event>
 4    5  0.8511149E-008  0.7293551E+03  0.7818608E-02  0.9892116E-01
          2   -1    0    0  501    0  0.00000000000E+00  0.00000000000E+00  0.18196380362E+04  0.18196380362E+04  0.25500000000E-02 0. -1.
         -2   -1    0    0    0  501 -0.00000000000E+00 -0.00000000000E+00 -0.25983233953E+03  0.25983233954E+03  0.25500000000E-02 0.  1.
    8880023    1    1    2    0    0  0.17507941190E+03  0.25979974274E+03  0.15695201720E+04  0.17307086650E+04  0.65864270000E+03 0. -1.
    8880022    1    1    2    0    0 -0.17507941190E+03 -0.25979974274E+03 -0.97144752920E+01  0.34876171069E+03  0.15294330000E+03 0.  0.
<mgrwt>
<rscale>  0 0.60644909E+03</rscale>
<asrwt>0</asrwt>
<pdfrwt beam="1">  1        2 0.27994432E+00 0.72935514E+03</pdfrwt>
<pdfrwt beam="2">  1       -2 0.39974206E-01 0.72935514E+03</pdfrwt>
<totfact> 0.51277873E+01</totfact>
</mgrwt>
</event>
<event>
 4    5  0.8511149E-008  0.9168419E+03  0.7818608E-02  0.9499518E-01
         -2   -1    0    0    0  501 -0.00000000000E+00  0.00000000000E+00  0.34881105531E+04  0.34881105531E+04  0.25500000000E-02 0.  1.
          2   -1    0    0  501    0  0.00000000000E+00 -0.00000000000E+00 -0.60410596122E+03  0.60410596123E+03  0.25500000000E-02 0. -1.
    8880023    1    1    2    0    0  0.26807066731E+03  0.57872881475E+03  0.32251368396E+04  0.33529251056E+04  0.65864270000E+03 0.  1.
    8880022    1    1    2    0    0 -0.26807066731E+03 -0.57872881475E+03 -0.34113224763E+03  0.73929140877E+03  0.15294330000E+03 0.  0.
<mgrwt>
<rscale>  0 0.84319340E+03</rscale>
<asrwt>0</asrwt>
<pdfrwt beam="1">  1        2 0.92939378E-01 0.91684193E+03</pdfrwt>
<pdfrwt beam="2">  1       -2 0.53663240E+00 0.91684193E+03</pdfrwt>
<totfact> 0.50092881E-02</totfact>
</mgrwt>
</event>
<event>
 4    5  0.8511149E-008  0.6666106E+03  0.7818608E-02  0.1018219E+00
          2   -1    0    0  501    0  0.00000000000E+00  0.00000000000E+00  0.38871078949E+03  0.38871078950E+03  0.25500000000E-02 0. -1.
         -2   -1    0    0    0  501 -0.00000000000E+00 -0.00000000000E+00 -0.56239875479E+03  0.56239875480E+03  0.25500000000E-02 0.  1.
    8880023    1    1    2    0    0  0.96996218524E+02  0.33929036941E+02 -0.29660095186E+03  0.72961755520E+03  0.65864270000E+03 0.  1.
    8880022    1    1    2    0    0 -0.96996218524E+02 -0.33929036941E+02  0.12291298656E+03  0.22149198910E+03  0.15294330000E+03 0.  0.
<mgrwt>
<rscale>  0 0.48334906E+03</rscale>
<asrwt>0</asrwt>
<pdfrwt beam="1">  1        2 0.59801660E-01 0.66661057E+03</pdfrwt>
<pdfrwt beam="2">  1       -2 0.86522885E-01 0.66661057E+03</pdfrwt>
<totfact> 0.96436977E+01</totfact>
</mgrwt>
</event>
<event>
 4    5  0.8511149E-008  0.1077456E+04  0.7818608E-02  0.9286581E-01
          2   -1    0    0  501    0  0.00000000000E+00  0.00000000000E+00  0.11383616218E+04  0.11383616218E+04  0.25500000000E-02 0. -1.
         -2   -1    0    0    0  501 -0.00000000000E+00 -0.00000000000E+00 -0.17110487806E+04  0.17110487806E+04  0.25500000000E-02 0.  1.
    8880023    1    1    2    0    0 -0.72935373302E+03  0.44175233221E+03 -0.13209782880E+04  0.17046688342E+04  0.65864270000E+03 0.  0.
    8880022    1    1    2    0    0  0.72935373302E+03 -0.44175233221E+03  0.74829112915E+03  0.11447415682E+04  0.15294330000E+03 0.  0.
<mgrwt>
<rscale>  0 0.10202771E+04</rscale>
<asrwt>0</asrwt>
<pdfrwt beam="1">  1        2 0.17513256E+00 0.10774564E+04</pdfrwt>
<pdfrwt beam="2">  1       -2 0.26323827E+00 0.10774564E+04</pdfrwt>
<totfact> 0.10872047E+00</totfact>
</mgrwt>
</event>
<event>
 4    5  0.8511149E-008  0.1075388E+04  0.7818608E-02  0.9288966E-01
         -2   -1    0    0    0  501 -0.00000000000E+00  0.00000000000E+00  0.23263554529E+04  0.23263554529E+04  0.25500000000E-02 0.  1.
          2   -1    0    0  501    0  0.00000000000E+00 -0.00000000000E+00 -0.11092550623E+04  0.11092550623E+04  0.25500000000E-02 0. -1.
    8880023    1    1    2    0    0  0.53114264046E+03 -0.66372904571E+03  0.19994054178E+04  0.22702601132E+04  0.65864270000E+03 0.  0.
    8880022    1    1    2    0    0 -0.53114264046E+03  0.66372904571E+03 -0.78230502721E+03  0.11653504019E+04  0.15294330000E+03 0.  0.
<mgrwt>
<rscale>  0 0.10180500E+04</rscale>
<asrwt>0</asrwt>
<pdfrwt beam="1">  1        2 0.17065463E+00 0.10753878E+04</pdfrwt>
<pdfrwt beam="2">  1       -2 0.35790084E+00 0.10753878E+04</pdfrwt>
<totfact> 0.29824532E-01</totfact>
</mgrwt>
</event>
<event>
 4    5  0.8511149E-008  0.9115953E+03  0.7818608E-02  0.9507668E-01
         -2   -1    0    0    0  501 -0.00000000000E+00  0.00000000000E+00  0.62878022924E+03  0.62878022924E+03  0.25500000000E-02 0.  1.
          2   -1    0    0  501    0  0.00000000000E+00 -0.00000000000E+00 -0.19056019457E+04  0.19056019457E+04  0.25500000000E-02 0. -1.
    8880023    1    1    2    0    0  0.44367595831E+03 -0.44760180279E+03  0.18946663907E+03  0.93107655079E+03  0.65864270000E+03 0.  1.
    8880022    1    1    2    0    0 -0.44367595831E+03  0.44760180279E+03 -0.14662883555E+04  0.16033056241E+04  0.15294330000E+03 0.  0.
<mgrwt>
<rscale>  0 0.83720840E+03</rscale>
<asrwt>0</asrwt>
<pdfrwt beam="1">  1        2 0.29316953E+00 0.91159527E+03</pdfrwt>
<pdfrwt beam="2">  1       -2 0.96735421E-01 0.91159527E+03</pdfrwt>
<totfact> 0.68041997E+00</totfact>
</mgrwt>
</event>
<event>
 4    5  0.8511149E-008  0.6882145E+03  0.7818608E-02  0.1005013E+00
         -2   -1    0    0    0  501 -0.00000000000E+00  0.00000000000E+00  0.49861090781E+03  0.49861090782E+03  0.25500000000E-02 0.  1.
          2   -1    0    0  501    0  0.00000000000E+00 -0.00000000000E+00 -0.10888113346E+04  0.10888113346E+04  0.25500000000E-02 0. -1.
    8880023    1    1    2    0    0 -0.19390902363E+03  0.47205282978E+02  0.23307193590E+03  0.72660978644E+03  0.65864270000E+03 0.  1.
    8880022    1    1    2    0    0  0.19390902363E+03 -0.47205282978E+02 -0.82327236266E+03  0.86081245596E+03  0.15294330000E+03 0.  0.
<mgrwt>
<rscale>  0 0.53505730E+03</rscale>
<asrwt>0</asrwt>
<pdfrwt beam="1">  1        2 0.16750944E+00 0.68821454E+03</pdfrwt>
<pdfrwt beam="2">  1       -2 0.76709371E-01 0.68821454E+03</pdfrwt>
<totfact> 0.34407912E+01</totfact>
</mgrwt>
</event>
<event>
 4    5  0.8511149E-008  0.1108508E+04  0.7818608E-02  0.9251642E-01
         -2   -1    0    0    0  501 -0.00000000000E+00  0.00000000000E+00  0.47172444223E+03  0.47172444224E+03  0.25500000000E-02 0.  1.
          2   -1    0    0  501    0  0.00000000000E+00 -0.00000000000E+00 -0.24265701977E+04  0.24265701977E+04  0.25500000000E-02 0. -1.
    8880023    1    1    2    0    0 -0.63483163298E+03  0.62607365812E+03 -0.15539427763E+04  0.19088027100E+04  0.65864270000E+03 0.  0.
    8880022    1    1    2    0    0  0.63483163298E+03 -0.62607365812E+03 -0.40090297923E+03  0.98949192993E+03  0.15294330000E+03 0.  0.
<mgrwt>
<rscale>  0 0.10535930E+04</rscale>
<asrwt>0</asrwt>
<pdfrwt beam="1">  1        2 0.37331849E+00 0.11085078E+04</pdfrwt>
<pdfrwt beam="2">  1       -2 0.72572992E-01 0.11085078E+04</pdfrwt>
<totfact> 0.65681851E+00</totfact>
</mgrwt>
</event>
<event>
 4    5  0.8511149E-008  0.7752076E+03  0.7818608E-02  0.9767217E-01
          2   -1    0    0  501    0  0.00000000000E+00  0.00000000000E+00  0.12573445274E+04  0.12573445274E+04  0.25500000000E-02 0. -1.
         -2   -1    0    0    0  501 -0.00000000000E+00 -0.00000000000E+00 -0.10281860998E+04  0.10281860998E+04  0.25500000000E-02 0.  1.
    8880023    1    1    2    0    0  0.13305653448E+03  0.38656519882E+03 -0.83256035315E+03  0.11375867625E+04  0.65864270000E+03 0.  1.
    8880022    1    1    2    0    0 -0.13305653448E+03 -0.38656519882E+03  0.10617187807E+04  0.11479438647E+04  0.15294330000E+03 0.  0.
<mgrwt>
<rscale>  0 0.67151928E+03</rscale>
<asrwt>0</asrwt>
<pdfrwt beam="1">  1        2 0.19343762E+00 0.77520765E+03</pdfrwt>
<pdfrwt beam="2">  1       -2 0.15818248E+00 0.77520765E+03</pdfrwt>
<totfact> 0.46377353E+00</totfact>
</mgrwt>
</event>
<event>
 4    5  0.8511149E-008  0.7866439E+03  0.7818608E-02  0.9740455E-01
          2   -1    0    0  501    0  0.00000000000E+00  0.00000000000E+00  0.96849628090E+03  0.96849628090E+03  0.25500000000E-02 0. -1.
         -2   -1    0    0    0  501 -0.00000000000E+00 -0.00000000000E+00 -0.45466870106E+03  0.45466870107E+03  0.25500000000E-02 0.  1.
    8880023    1    1    2    0    0 -0.10105864925E+03 -0.41807371102E+03  0.75435084529E+02  0.79025257777E+03  0.65864270000E+03 0.  0.
    8880022    1    1    2    0    0  0.10105864925E+03  0.41807371102E+03  0.43839249531E+03  0.63291240420E+03  0.15294330000E+03 0.  0.
<mgrwt>
<rscale>  0 0.68658339E+03</rscale>
<asrwt>0</asrwt>
<pdfrwt beam="1">  1        2 0.14899943E+00 0.78664394E+03</pdfrwt>
<pdfrwt beam="2">  1       -2 0.69949031E-01 0.78664394E+03</pdfrwt>
<totfact> 0.49749036E+01</totfact>
</mgrwt>
</event>
<event>
 4    5  0.8511149E-008  0.1270496E+04  0.7818608E-02  0.9091466E-01
          2   -1    0    0  501    0  0.00000000000E+00  0.00000000000E+00  0.20790315959E+04  0.20790315959E+04  0.25500000000E-02 0. -1.
         -2   -1    0    0    0  501 -0.00000000000E+00 -0.00000000000E+00 -0.86272805040E+03  0.86272805041E+03  0.25500000000E-02 0.  1.
    8880023    1    1    2    0    0  0.10557206842E+04 -0.25652434433E+03 -0.43418534913E+02  0.12712380885E+04  0.65864270000E+03 0.  0.
    8880022    1    1    2    0    0 -0.10557206842E+04  0.25652434433E+03  0.12597220804E+04  0.16705215578E+04  0.15294330000E+03 0.  0.
<mgrwt>
<rscale>  0 0.12247481E+04</rscale>
<asrwt>0</asrwt>
<pdfrwt beam="1">  1        2 0.31985101E+00 0.12704964E+04</pdfrwt>
<pdfrwt beam="2">  1       -2 0.13272739E+00 0.12704964E+04</pdfrwt>
<totfact> 0.24074131E+00</totfact>
</mgrwt>
</event>
<event>
 4    5  0.8511149E-008  0.1248508E+04  0.7818608E-02  0.9111353E-01
          2   -1    0    0  501    0  0.00000000000E+00  0.00000000000E+00  0.27292111238E+04  0.27292111238E+04  0.25500000000E-02 0. -1.
         -2   -1    0    0    0  501 -0.00000000000E+00 -0.00000000000E+00 -0.54269088554E+03  0.54269088554E+03  0.25500000000E-02 0.  1.
    8880023    1    1    2    0    0 -0.70436196996E+03  0.79299256880E+03  0.67571071749E+03  0.14196331142E+04  0.65864270000E+03 0.  0.
    8880022    1    1    2    0    0  0.70436196996E+03 -0.79299256880E+03  0.15108095207E+04  0.18522688951E+04  0.15294330000E+03 0.  0.
<mgrwt>
<rscale>  0 0.12017195E+04</rscale>
<asrwt>0</asrwt>
<pdfrwt beam="1">  1        2 0.41987864E+00 0.12485084E+04</pdfrwt>
<pdfrwt beam="2">  1       -2 0.83490904E-01 0.12485084E+04</pdfrwt>
<totfact> 0.31476196E+00</totfact>
</mgrwt>
</event>
<event>
 4    5  0.8511149E-008  0.6722758E+03  0.7818608E-02  0.1014081E+00
         -2   -1    0    0    0  501 -0.00000000000E+00  0.00000000000E+00  0.70383633583E+03  0.70383633583E+03  0.25500000000E-02 0.  1.
          2   -1    0    0  501    0  0.00000000000E+00 -0.00000000000E+00 -0.10598836096E+04  0.10598836096E+04  0.25500000000E-02 0. -1.
    8880023    1    1    2    0    0 -0.26499307178E+02  0.13206917844E+03  0.52903747650E+03  0.85547375119E+03  0.65864270000E+03 0.  1.
    8880022    1    1    2    0    0  0.26499307178E+02 -0.13206917844E+03 -0.88508475023E+03  0.90824619420E+03  0.15294330000E+03 0.  0.
<mgrwt>
<rscale>  0 0.49884296E+03</rscale>
<asrwt>0</asrwt>
<pdfrwt beam="1">  1        2 0.16305902E+00 0.67227575E+03</pdfrwt>
<pdfrwt beam="2">  1       -2 0.10828251E+00 0.67227575E+03</pdfrwt>
<totfact> 0.16172241E+01</totfact>
</mgrwt>
</event>
<event>
 4    5  0.8511149E-008  0.9851646E+03  0.7818608E-02  0.9401229E-01
         -2   -1    0    0    0  501 -0.00000000000E+00  0.00000000000E+00  0.51757854732E+03  0.51757854733E+03  0.25500000000E-02 0.  1.
          2   -1    0    0  501    0  0.00000000000E+00 -0.00000000000E+00 -0.27420693284E+04  0.27420693284E+04  0.25500000000E-02 0. -1.
    8880023    1    1    2    0    0 -0.71895801172E+03  0.14084935656E+03 -0.80111872267E+02  0.98841655298E+03  0.65864270000E+03 0.  0.
    8880022    1    1    2    0    0  0.71895801172E+03 -0.14084935656E+03 -0.21443789088E+04  0.22712313227E+04  0.15294330000E+03 0.  0.
<mgrwt>
<rscale>  0 0.91974576E+03</rscale>
<asrwt>0</asrwt>
<pdfrwt beam="1">  1        2 0.42185681E+00 0.98516464E+03</pdfrwt>
<pdfrwt beam="2">  1       -2 0.79627470E-01 0.98516464E+03</pdfrwt>
<totfact> 0.35616497E+00</totfact>
</mgrwt>
</event>
<event>
 4    5  0.8511149E-008  0.1545863E+04  0.7818608E-02  0.8877912E-01
         -2   -1    0    0    0  501 -0.00000000000E+00  0.00000000000E+00  0.93320326948E+03  0.93320326948E+03  0.25500000000E-02 0.  1.
          2   -1    0    0  501    0  0.00000000000E+00 -0.00000000000E+00 -0.35811787609E+04  0.35811787609E+04  0.25500000000E-02 0. -1.
    8880023    1    1    2    0    0  0.34411177058E+03 -0.13555326048E+04 -0.34442304767E+02  0.15462464331E+04  0.65864270000E+03 0.  0.
    8880022    1    1    2    0    0 -0.34411177058E+03  0.13555326048E+04 -0.26135331867E+04  0.29681355973E+04  0.15294330000E+03 0.  0.
<mgrwt>
<rscale>  0 0.15098765E+04</rscale>
<asrwt>0</asrwt>
<pdfrwt beam="1">  1        2 0.55095057E+00 0.15458628E+04</pdfrwt>
<pdfrwt beam="2">  1       -2 0.14356974E+00 0.15458628E+04</pdfrwt>
<totfact> 0.22746517E-01</totfact>
</mgrwt>
</event>
<event>
 4    5  0.8511149E-008  0.7089884E+03  0.7818608E-02  0.9961777E-01
          2   -1    0    0  501    0  0.00000000000E+00  0.00000000000E+00  0.21777351883E+03  0.21777351884E+03  0.25500000000E-02 0. -1.
         -2   -1    0    0    0  501 -0.00000000000E+00 -0.00000000000E+00 -0.28818541995E+04  0.28818541995E+04  0.25500000000E-02 0.  1.
    8880023    1    1    2    0    0 -0.24806193961E+03 -0.85554988783E+02 -0.27020737931E+04  0.27935402935E+04  0.65864270000E+03 0.  0.
    8880022    1    1    2    0    0  0.24806193961E+03  0.85554988783E+02  0.37993112473E+02  0.30608742476E+03  0.15294330000E+03 0.  0.
<mgrwt>
<rscale>  0 0.57358505E+03</rscale>
<asrwt>0</asrwt>
<pdfrwt beam="1">  1        2 0.33503620E-01 0.70898843E+03</pdfrwt>
<pdfrwt beam="2">  1       -2 0.44336216E+00 0.70898843E+03</pdfrwt>
<totfact> 0.64663788E-01</totfact>
</mgrwt>
</event>
<event>
 4    5  0.1238218E-007  0.1088243E+04  0.7818608E-02  0.9274260E-01
          2   -1    0    0  501    0  0.00000000000E+00  0.00000000000E+00  0.24651660681E+04  0.24651660681E+04  0.25500000000E-02 0. -1.
         -2   -1    0    0    0  501 -0.00000000000E+00 -0.00000000000E+00 -0.19752778737E+04  0.19752778737E+04  0.25500000000E-02 0.  1.
    8880023    1    1    2    0    0 -0.78309544483E+03  0.37043780640E+03 -0.17349505822E+04  0.20480054621E+04  0.65864270000E+03 0.  1.
    8880022    1    1    2    0    0  0.78309544483E+03 -0.37043780640E+03  0.22248387766E+04  0.23924384797E+04  0.15294330000E+03 0.  0.
<mgrwt>
<rscale>  0 0.10318743E+04</rscale>
<asrwt>0</asrwt>
<pdfrwt beam="1">  1        2 0.37925631E+00 0.10882430E+04</pdfrwt>
<pdfrwt beam="2">  1       -2 0.30388891E+00 0.10882430E+04</pdfrwt>
<totfact> 0.10982223E-01</totfact>
</mgrwt>
</event>
<event>
 4    5  0.8511149E-008  0.1074914E+04  0.7818608E-02  0.9289515E-01
         -2   -1    0    0    0  501 -0.00000000000E+00  0.00000000000E+00  0.37920696145E+03  0.37920696145E+03  0.25500000000E-02 0.  1.
          2   -1    0    0  501    0  0.00000000000E+00 -0.00000000000E+00 -0.31169555086E+04  0.31169555086E+04  0.25500000000E-02 0. -1.
    8880023    1    1    2    0    0  0.58626928406E+03 -0.61474971137E+03 -0.69893506142E+03  0.12821658658E+04  0.65864270000E+03 0.  0.
    8880022    1    1    2    0    0 -0.58626928406E+03  0.61474971137E+03 -0.20388134857E+04  0.22139966042E+04  0.15294330000E+03 0.  0.
<mgrwt>
<rscale>  0 0.10175393E+04</rscale>
<asrwt>0</asrwt>
<pdfrwt beam="1">  1        2 0.47953160E+00 0.10749135E+04</pdfrwt>
<pdfrwt beam="2">  1       -2 0.58339535E-01 0.10749135E+04</pdfrwt>
<totfact> 0.40936242E+00</totfact>
</mgrwt>
</event>
<event>
 4    5  0.1011675E-007  0.1489132E+04  0.7818608E-02  0.8917349E-01
         -2   -1    0    0    0  501 -0.00000000000E+00  0.00000000000E+00  0.17481625609E+04  0.17481625609E+04  0.25500000000E-02 0.  1.
          2   -1    0    0  501    0  0.00000000000E+00 -0.00000000000E+00 -0.24793919202E+04  0.24793919202E+04  0.25500000000E-02 0. -1.
    8880023    1    1    2    0    0 -0.14914902277E+03 -0.13271993392E+04  0.11736946198E+04  0.18960677160E+04  0.65864270000E+03 0.  0.
    8880022    1    1    2    0    0  0.14914902277E+03  0.13271993392E+04 -0.19049239790E+04  0.23314867651E+04  0.15294330000E+03 0.  0.
<mgrwt>
<rscale>  0 0.14515182E+04</rscale>
<asrwt>0</asrwt>
<pdfrwt beam="1">  1        2 0.38144491E+00 0.14891319E+04</pdfrwt>
<pdfrwt beam="2">  1       -2 0.26894808E+00 0.14891319E+04</pdfrwt>
<totfact> 0.16527587E-01</totfact>
</mgrwt>
</event>
<event>
 4    5  0.8511149E-008  0.2031135E+04  0.7818608E-02  0.8604424E-01
         -2   -1    0    0    0  501 -0.00000000000E+00  0.00000000000E+00  0.21967272474E+04  0.21967272474E+04  0.25500000000E-02 0.  1.
          2   -1    0    0  501    0  0.00000000000E+00 -0.00000000000E+00 -0.25560307499E+04  0.25560307499E+04  0.25500000000E-02 0. -1.
    8880023    1    1    2    0    0 -0.15322945979E+02  0.19213185270E+04 -0.14891613379E+04  0.25185534283E+04  0.65864270000E+03 0.  0.
    8880022    1    1    2    0    0  0.15322945979E+02 -0.19213185270E+04  0.11298578354E+04  0.22342045690E+04  0.15294330000E+03 0.  0.
<mgrwt>
<rscale>  0 0.20047042E+04</rscale>
<asrwt>0</asrwt>
<pdfrwt beam="1">  1        2 0.39323550E+00 0.20311351E+04</pdfrwt>
<pdfrwt beam="2">  1       -2 0.33795804E+00 0.20311351E+04</pdfrwt>
<totfact> 0.52715271E-02</totfact>
</mgrwt>
</event>
<event>
 4    5  0.8511149E-008  0.8071284E+03  0.7818608E-02  0.9695590E-01
         -2   -1    0    0    0  501 -0.00000000000E+00  0.00000000000E+00  0.72229108770E+03  0.72229108771E+03  0.25500000000E-02 0.  1.
          2   -1    0    0  501    0  0.00000000000E+00 -0.00000000000E+00 -0.21218690308E+04  0.21218690308E+04  0.25500000000E-02 0. -1.
    8880023    1    1    2    0    0  0.16312685875E+03 -0.43707629231E+03  0.45442046938E+03  0.92625818571E+03  0.65864270000E+03 0.  1.
    8880022    1    1    2    0    0 -0.16312685875E+03  0.43707629231E+03 -0.18539984125E+04  0.19179019328E+04  0.15294330000E+03 0.  0.
<mgrwt>
<rscale>  0 0.71279985E+03</rscale>
<asrwt>0</asrwt>
<pdfrwt beam="1">  1        2 0.32644139E+00 0.80712841E+03</pdfrwt>
<pdfrwt beam="2">  1       -2 0.11112171E+00 0.80712841E+03</pdfrwt>
<totfact> 0.37702978E+00</totfact>
</mgrwt>
</event>
<event>
 4    5  0.8511149E-008  0.7192892E+03  0.7818608E-02  0.9924999E-01
          2   -1    0    0  501    0  0.00000000000E+00  0.00000000000E+00  0.30967547385E+03  0.30967547386E+03  0.25500000000E-02 0. -1.
         -2   -1    0    0    0  501 -0.00000000000E+00 -0.00000000000E+00 -0.21556373780E+04  0.21556373780E+04  0.25500000000E-02 0.  1.
    8880023    1    1    2    0    0 -0.42171709465E+02 -0.28598642728E+03 -0.19839749717E+04  0.21103396846E+04  0.65864270000E+03 0.  1.
    8880022    1    1    2    0    0  0.42171709465E+02  0.28598642728E+03  0.13801306755E+03  0.35497316730E+03  0.15294330000E+03 0.  0.
<mgrwt>
<rscale>  0 0.59064900E+03</rscale>
<asrwt>0</asrwt>
<pdfrwt beam="1">  1        2 0.47642382E-01 0.71928916E+03</pdfrwt>
<pdfrwt beam="2">  1       -2 0.33163651E+00 0.71928916E+03</pdfrwt>
<totfact> 0.22620487E+00</totfact>
</mgrwt>
</event>
<event>
 4    5  0.8511149E-008  0.7172455E+03  0.7818608E-02  0.9932019E-01
         -2   -1    0    0    0  501 -0.00000000000E+00  0.00000000000E+00  0.17424590816E+04  0.17424590816E+04  0.25500000000E-02 0.  1.
          2   -1    0    0  501    0  0.00000000000E+00 -0.00000000000E+00 -0.47809464427E+03  0.47809464427E+03  0.25500000000E-02 0. -1.
    8880023    1    1    2    0    0 -0.54773190076E+02 -0.27862312465E+03  0.16010176193E+04  0.17543370746E+04  0.65864270000E+03 0.  0.
    8880022    1    1    2    0    0  0.54773190076E+02  0.27862312465E+03 -0.33665318196E+03  0.46621665122E+03  0.15294330000E+03 0.  0.
<mgrwt>
<rscale>  0 0.58734307E+03</rscale>
<asrwt>0</asrwt>
<pdfrwt beam="1">  1        2 0.73553021E-01 0.71724553E+03</pdfrwt>
<pdfrwt beam="2">  1       -2 0.26807063E+00 0.71724553E+03</pdfrwt>
<totfact> 0.33534889E+00</totfact>
</mgrwt>
</event>
<event>
 4    5  0.8511149E-008  0.7778300E+03  0.7818608E-02  0.9760959E-01
         -2   -1    0    0    0  501 -0.00000000000E+00  0.00000000000E+00  0.95063122873E+03  0.95063122873E+03  0.25500000000E-02 0.  1.
          2   -1    0    0  501    0  0.00000000000E+00 -0.00000000000E+00 -0.87868124886E+03  0.87868124887E+03  0.25500000000E-02 0. -1.
    8880023    1    1    2    0    0 -0.84038058614E+02 -0.40515046913E+03  0.71031141967E+03  0.10533574024E+04  0.65864270000E+03 0.  1.
    8880022    1    1    2    0    0  0.84038058614E+02  0.40515046913E+03 -0.63836143981E+03  0.77595507523E+03  0.15294330000E+03 0.  0.
<mgrwt>
<rscale>  0 0.67500445E+03</rscale>
<asrwt>0</asrwt>
<pdfrwt beam="1">  1        2 0.13518173E+00 0.77783000E+03</pdfrwt>
<pdfrwt beam="2">  1       -2 0.14625096E+00 0.77783000E+03</pdfrwt>
<totfact> 0.98445882E+00</totfact>
</mgrwt>
</event>
<event>
 4    5  0.8511149E-008  0.7598147E+03  0.7818608E-02  0.9805587E-01
          2   -1    0    0  501    0  0.00000000000E+00  0.00000000000E+00  0.13015152666E+04  0.13015152666E+04  0.25500000000E-02 0. -1.
         -2   -1    0    0    0  501 -0.00000000000E+00 -0.00000000000E+00 -0.64132847242E+03  0.64132847242E+03  0.25500000000E-02 0.  1.
    8880023    1    1    2    0    0 -0.16732067328E+03 -0.33987055007E+03 -0.36229345379E+03  0.84176894183E+03  0.65864270000E+03 0.  0.
    8880022    1    1    2    0    0  0.16732067328E+03  0.33987055007E+03  0.10224802480E+04  0.11010747972E+04  0.15294330000E+03 0. -1.
<mgrwt>
<rscale>  0 0.65063552E+03</rscale>
<asrwt>0</asrwt>
<pdfrwt beam="1">  1        2 0.20023312E+00 0.75981472E+03</pdfrwt>
<pdfrwt beam="2">  1       -2 0.98665919E-01 0.75981472E+03</pdfrwt>
<totfact> 0.14344716E+01</totfact>
</mgrwt>
</event>
<event>
 4    5  0.8511149E-008  0.9302371E+03  0.7818608E-02  0.9479138E-01
         -2   -1    0    0    0  501 -0.00000000000E+00  0.00000000000E+00  0.15994962596E+04  0.15994962596E+04  0.25500000000E-02 0.  1.
          2   -1    0    0  501    0  0.00000000000E+00 -0.00000000000E+00 -0.54067238227E+03  0.54067238228E+03  0.25500000000E-02 0. -1.
    8880023    1    1    2    0    0  0.60803337139E+03 -0.24864888686E+03  0.56385179820E+02  0.93194438913E+03  0.65864270000E+03 0.  0.
    8880022    1    1    2    0    0 -0.60803337139E+03  0.24864888686E+03  0.10024386975E+04  0.12082242528E+04  0.15294330000E+03 0.  0.
<mgrwt>
<rscale>  0 0.85839547E+03</rscale>
<asrwt>0</asrwt>
<pdfrwt beam="1">  1        2 0.83180368E-01 0.93023710E+03</pdfrwt>
<pdfrwt beam="2">  1       -2 0.24607634E+00 0.93023710E+03</pdfrwt>
<totfact> 0.38413713E+00</totfact>
</mgrwt>
</event>
<event>
 4    5  0.8511149E-008  0.7068583E+03  0.7818608E-02  0.9969858E-01
         -2   -1    0    0    0  501 -0.00000000000E+00  0.00000000000E+00  0.36646429675E+03  0.36646429676E+03  0.25500000000E-02 0.  1.
          2   -1    0    0  501    0  0.00000000000E+00 -0.00000000000E+00 -0.16904758180E+04  0.16904758180E+04  0.25500000000E-02 0. -1.
    8880023    1    1    2    0    0  0.93006359311E+02 -0.23914059359E+03 -0.74305402089E+01  0.70689732321E+03  0.65864270000E+03 0.  1.
    8880022    1    1    2    0    0 -0.93006359311E+02  0.23914059359E+03 -0.13165809810E+04  0.13500427915E+04  0.15294330000E+03 0.  0.
<mgrwt>
<rscale>  0 0.56991903E+03</rscale>
<asrwt>0</asrwt>
<pdfrwt beam="1">  1        2 0.26007320E+00 0.70685827E+03</pdfrwt>
<pdfrwt beam="2">  1       -2 0.56379123E-01 0.70685827E+03</pdfrwt>
<totfact> 0.30250225E+01</totfact>
</mgrwt>
</event>
<event>
 4    5  0.8511149E-008  0.7173946E+03  0.7818608E-02  0.9931502E-01
         -2   -1    0    0    0  501 -0.00000000000E+00  0.00000000000E+00  0.86983547903E+02  0.86983547940E+02  0.25500000000E-02 0.  1.
          2   -1    0    0  501    0  0.00000000000E+00 -0.00000000000E+00 -0.37938031852E+04  0.37938031852E+04  0.25500000000E-02 0. -1.
    8880023    1    1    2    0    0  0.27992643113E+03 -0.49860459420E+02 -0.16560615230E+04  0.18047700259E+04  0.65864270000E+03 0.  1.
    8880022    1    1    2    0    0 -0.27992643113E+03  0.49860459420E+02 -0.20507581143E+04  0.20760167072E+04  0.15294330000E+03 0.  0.
<mgrwt>
<rscale>  0 0.58758553E+03</rscale>
<asrwt>0</asrwt>
<pdfrwt beam="1">  1        2 0.58366190E+00 0.71739465E+03</pdfrwt>
<pdfrwt beam="2">  1       -2 0.13382087E-01 0.71739465E+03</pdfrwt>
<totfact> 0.23109336E+01</totfact>
</mgrwt>
</event>
<event>
 4    5  0.8511149E-008  0.8639371E+03  0.7818608E-02  0.9586598E-01
          2   -1    0    0  501    0  0.00000000000E+00  0.00000000000E+00  0.12421442972E+04  0.12421442972E+04  0.25500000000E-02 0. -1.
         -2   -1    0    0    0  501 -0.00000000000E+00 -0.00000000000E+00 -0.71611746131E+03  0.71611746132E+03  0.25500000000E-02 0.  1.
    8880023    1    1    2    0    0  0.48047694378E+03  0.28586526777E+03 -0.32969643692E+03  0.92470913892E+03  0.65864270000E+03 0.  1.
    8880022    1    1    2    0    0 -0.48047694378E+03 -0.28586526777E+03  0.85572327276E+03  0.10335526195E+04  0.15294330000E+03 0.  0.
<mgrwt>
<rscale>  0 0.78189589E+03</rscale>
<asrwt>0</asrwt>
<pdfrwt beam="1">  1        2 0.19109912E+00 0.86393706E+03</pdfrwt>
<pdfrwt beam="2">  1       -2 0.11017192E+00 0.86393706E+03</pdfrwt>
<totfact> 0.11782985E+01</totfact>
</mgrwt>
</event>
<event>
 4    5  0.8511149E-008  0.6614177E+03  0.7818608E-02  0.1022749E+00
         -2   -1    0    0    0  501 -0.00000000000E+00  0.00000000000E+00  0.39143750491E+03  0.39143750492E+03  0.25500000000E-02 0.  1.
          2   -1    0    0  501    0  0.00000000000E+00 -0.00000000000E+00 -0.11134592822E+04  0.11134592822E+04  0.25500000000E-02 0. -1.
    8880023    1    1    2    0    0  0.37585358672E+02  0.47439055761E+02  0.97913831950E+02  0.66862579067E+03  0.65864270000E+03 0.  1.
    8880022    1    1    2    0    0 -0.37585358672E+02 -0.47439055761E+02 -0.81993560919E+03  0.83627099640E+03  0.15294330000E+03 0.  0.
<mgrwt>
<rscale>  0 0.46707577E+03</rscale>
<asrwt>0</asrwt>
<pdfrwt beam="1">  1        2 0.17130143E+00 0.66141767E+03</pdfrwt>
<pdfrwt beam="2">  1       -2 0.60221155E-01 0.66141767E+03</pdfrwt>
<totfact> 0.56300436E+01</totfact>
</mgrwt>
</event>
<event>
 4    5  0.8511149E-008  0.1349891E+04  0.7818608E-02  0.9023630E-01
         -2   -1    0    0    0  501 -0.00000000000E+00  0.00000000000E+00  0.11854713242E+04  0.11854713242E+04  0.25500000000E-02 0.  1.
          2   -1    0    0  501    0  0.00000000000E+00 -0.00000000000E+00 -0.17664638206E+04  0.17664638206E+04  0.25500000000E-02 0. -1.
    8880023    1    1    2    0    0 -0.66245516612E+03 -0.97444770696E+03  0.40347369830E+03  0.14088990071E+04  0.65864270000E+03 0.  0.
    8880022    1    1    2    0    0  0.66245516612E+03  0.97444770696E+03 -0.98446619475E+03  0.15430361377E+04  0.15294330000E+03 0.  0.
<mgrwt>
<rscale>  0 0.13075104E+04</rscale>
<asrwt>0</asrwt>
<pdfrwt beam="1">  1        2 0.27176367E+00 0.13498909E+04</pdfrwt>
<pdfrwt beam="2">  1       -2 0.18238020E+00 0.13498909E+04</pdfrwt>
<totfact> 0.15023128E+00</totfact>
</mgrwt>
</event>
<event>
 4    5  0.8511149E-008  0.1294640E+04  0.7818608E-02  0.9070202E-01
         -2   -1    0    0    0  501 -0.00000000000E+00  0.00000000000E+00  0.47925845010E+04  0.47925845011E+04  0.25500000000E-02 0.  1.
          2   -1    0    0  501    0  0.00000000000E+00 -0.00000000000E+00 -0.48691270721E+03  0.48691270722E+03  0.25500000000E-02 0. -1.
    8880023    1    1    2    0    0  0.97166406983E+03  0.54603337279E+03  0.38566977356E+04  0.40681950714E+04  0.65864270000E+03 0.  0.
    8880022    1    1    2    0    0 -0.97166406983E+03 -0.54603337279E+03  0.44897405822E+03  0.12113021369E+04  0.15294330000E+03 0.  0.
<mgrwt>
<rscale>  0 0.12499774E+04</rscale>
<asrwt>0</asrwt>
<pdfrwt beam="1">  1        2 0.74909646E-01 0.12946404E+04</pdfrwt>
<pdfrwt beam="2">  1       -2 0.73732071E+00 0.12946404E+04</pdfrwt>
<totfact> 0.10218688E-02</totfact>
</mgrwt>
</event>
<event>
 4    5  0.8511149E-008  0.7815022E+03  0.7818608E-02  0.9752320E-01
         -2   -1    0    0    0  501 -0.00000000000E+00  0.00000000000E+00  0.24231325381E+03  0.24231325382E+03  0.25500000000E-02 0.  1.
          2   -1    0    0  501    0  0.00000000000E+00 -0.00000000000E+00 -0.25152428685E+04  0.25152428685E+04  0.25500000000E-02 0. -1.
    8880023    1    1    2    0    0 -0.14237122562E+03  0.39581051287E+03 -0.49713026115E+03  0.92622040077E+03  0.65864270000E+03 0.  1.
    8880022    1    1    2    0    0  0.14237122562E+03 -0.39581051287E+03 -0.17757993536E+04  0.18313357216E+04  0.15294330000E+03 0.  0.
<mgrwt>
<rscale>  0 0.67985321E+03</rscale>
<asrwt>0</asrwt>
<pdfrwt beam="1">  1        2 0.38696042E+00 0.78150223E+03</pdfrwt>
<pdfrwt beam="2">  1       -2 0.37278964E-01 0.78150223E+03</pdfrwt>
<totfact> 0.24073312E+01</totfact>
</mgrwt>
</event>
<event>
 4    5  0.8511149E-008  0.9562276E+03  0.7818608E-02  0.9441210E-01
          2   -1    0    0  501    0  0.00000000000E+00  0.00000000000E+00  0.15632079318E+04  0.15632079318E+04  0.25500000000E-02 0. -1.
         -2   -1    0    0    0  501 -0.00000000000E+00 -0.00000000000E+00 -0.10218400409E+04  0.10218400409E+04  0.25500000000E-02 0.  1.
    8880023    1    1    2    0    0 -0.35913147031E+03 -0.59294651944E+03 -0.67930695001E+03  0.11729574274E+04  0.65864270000E+03 0.  1.
    8880022    1    1    2    0    0  0.35913147031E+03  0.59294651944E+03  0.12206748410E+04  0.14120905453E+04  0.15294330000E+03 0.  0.
<mgrwt>
<rscale>  0 0.88760485E+03</rscale>
<asrwt>0</asrwt>
<pdfrwt beam="1">  1        2 0.24049353E+00 0.95622758E+03</pdfrwt>
<pdfrwt beam="2">  1       -2 0.15720616E+00 0.95622758E+03</pdfrwt>
<totfact> 0.30853930E+00</totfact>
</mgrwt>
</event>
<event>
 4    5  0.8511149E-008  0.7772049E+03  0.7818608E-02  0.9762444E-01
         -2   -1    0    0    0  501 -0.00000000000E+00  0.00000000000E+00  0.77076005404E+03  0.77076005404E+03  0.25500000000E-02 0.  1.
          2   -1    0    0  501    0  0.00000000000E+00 -0.00000000000E+00 -0.13459800217E+04  0.13459800217E+04  0.25500000000E-02 0. -1.
    8880023    1    1    2    0    0 -0.18692768897E+03 -0.36782501581E+03  0.52088218236E+03  0.93560977834E+03  0.65864270000E+03 0.  1.
    8880022    1    1    2    0    0  0.18692768897E+03  0.36782501581E+03 -0.10961021501E+04  0.11811302974E+04  0.15294330000E+03 0.  0.
<mgrwt>
<rscale>  0 0.67417539E+03</rscale>
<asrwt>0</asrwt>
<pdfrwt beam="1">  1        2 0.20707385E+00 0.77720487E+03</pdfrwt>
<pdfrwt beam="2">  1       -2 0.11857847E+00 0.77720487E+03</pdfrwt>
<totfact> 0.86599767E+00</totfact>
</mgrwt>
</event>
<event>
 4    5  0.8511149E-008  0.9617598E+03  0.7818608E-02  0.9433392E-01
         -2   -1    0    0    0  501 -0.00000000000E+00  0.00000000000E+00  0.42416514952E+03  0.42416514953E+03  0.25500000000E-02 0.  1.
          2   -1    0    0  501    0  0.00000000000E+00 -0.00000000000E+00 -0.21303026492E+04  0.21303026492E+04  0.25500000000E-02 0. -1.
    8880023    1    1    2    0    0  0.63445605278E+03 -0.29772005365E+03 -0.15439972991E+04  0.18190408405E+04  0.65864270000E+03 0. -1.
    8880022    1    1    2    0    0 -0.63445605278E+03  0.29772005365E+03 -0.16214020049E+03  0.73542695823E+03  0.15294330000E+03 0.  0.
<mgrwt>
<rscale>  0 0.89377834E+03</rscale>
<asrwt>0</asrwt>
<pdfrwt beam="1">  1        2 0.32773886E+00 0.96175980E+03</pdfrwt>
<pdfrwt beam="2">  1       -2 0.65256178E-01 0.96175980E+03</pdfrwt>
<totfact> 0.12349248E+01</totfact>
</mgrwt>
</event>
<event>
 4    5  0.8511149E-008  0.6833479E+03  0.7818608E-02  0.1007490E+00
         -2   -1    0    0    0  501 -0.00000000000E+00  0.00000000000E+00  0.58058108672E+03  0.58058108672E+03  0.25500000000E-02 0.  1.
          2   -1    0    0  501    0  0.00000000000E+00 -0.00000000000E+00 -0.21687978754E+04  0.21687978755E+04  0.25500000000E-02 0. -1.
    8880023    1    1    2    0    0  0.13807995700E+03  0.11869312522E+03  0.36978882857E+03  0.77698656134E+03  0.65864270000E+03 0.  1.
    8880022    1    1    2    0    0 -0.13807995700E+03 -0.11869312522E+03 -0.19580056173E+04  0.19723924008E+04  0.15294330000E+03 0.  0.
<mgrwt>
<rscale>  0 0.52484543E+03</rscale>
<asrwt>0</asrwt>
<pdfrwt beam="1">  1        2 0.33366121E+00 0.68334789E+03</pdfrwt>
<pdfrwt beam="2">  1       -2 0.89320168E-01 0.68334789E+03</pdfrwt>
<totfact> 0.60856587E+00</totfact>
</mgrwt>
</event>
<event>
 4    5  0.8511149E-008  0.7014234E+03  0.7818608E-02  0.9991347E-01
         -2   -1    0    0    0  501 -0.00000000000E+00  0.00000000000E+00  0.28643642799E+03  0.28643642801E+03  0.25500000000E-02 0.  1.
          2   -1    0    0  501    0  0.00000000000E+00 -0.00000000000E+00 -0.21336225003E+04  0.21336225003E+04  0.25500000000E-02 0. -1.
    8880023    1    1    2    0    0  0.36523123946E+02  0.23843382020E+03 -0.17401705603E+03  0.72268718492E+03  0.65864270000E+03 0.  1.
    8880022    1    1    2    0    0 -0.36523123946E+02 -0.23843382020E+03 -0.16731690163E+04  0.16973717434E+04  0.15294330000E+03 0.  0.
<mgrwt>
<rscale>  0 0.56031299E+03</rscale>
<asrwt>0</asrwt>
<pdfrwt beam="1">  1        2 0.32824960E+00 0.70142343E+03</pdfrwt>
<pdfrwt beam="2">  1       -2 0.44067144E-01 0.70142343E+03</pdfrwt>
<totfact> 0.28647969E+01</totfact>
</mgrwt>
</event>
<event>
 4    5  0.8511149E-008  0.1251870E+04  0.7818608E-02  0.9108279E-01
         -2   -1    0    0    0  501 -0.00000000000E+00  0.00000000000E+00  0.13500190834E+04  0.13500190834E+04  0.25500000000E-02 0.  1.
          2   -1    0    0  501    0  0.00000000000E+00 -0.00000000000E+00 -0.17269007473E+04  0.17269007473E+04  0.25500000000E-02 0. -1.
    8880023    1    1    2    0    0 -0.91558607075E+03 -0.54320414243E+03  0.79761428049E+03  0.14843743935E+04  0.65864270000E+03 0.  0.
    8880022    1    1    2    0    0  0.91558607075E+03  0.54320414243E+03 -0.11744959444E+04  0.15925454372E+04  0.15294330000E+03 0.  0.
<mgrwt>
<rscale>  0 0.12052437E+04</rscale>
<asrwt>0</asrwt>
<pdfrwt beam="1">  1        2 0.26567704E+00 0.12518701E+04</pdfrwt>
<pdfrwt beam="2">  1       -2 0.20769524E+00 0.12518701E+04</pdfrwt>
<totfact> 0.10827593E+00</totfact>
</mgrwt>
</event>
<event>
 4    5  0.8511149E-008  0.8145453E+03  0.7818608E-02  0.9680186E-01
         -2   -1    0    0    0  501 -0.00000000000E+00  0.00000000000E+00  0.55330512101E+03  0.55330512101E+03  0.25500000000E-02 0.  1.
          2   -1    0    0  501    0  0.00000000000E+00 -0.00000000000E+00 -0.14383217916E+04  0.14383217916E+04  0.25500000000E-02 0. -1.
    8880023    1    1    2    0    0 -0.47446382827E+03  0.67512675765E+02  0.16157159898E+03  0.83041524166E+03  0.65864270000E+03 0.  0.
    8880022    1    1    2    0    0  0.47446382827E+03 -0.67512675765E+02 -0.10465882695E+04  0.11612116709E+04  0.15294330000E+03 0.  0.
<mgrwt>
<rscale>  0 0.72208873E+03</rscale>
<asrwt>0</asrwt>
<pdfrwt beam="1">  1        2 0.22128028E+00 0.81454533E+03</pdfrwt>
<pdfrwt beam="2">  1       -2 0.85123865E-01 0.81454533E+03</pdfrwt>
<totfact> 0.16776300E+01</totfact>
</mgrwt>
</event>
<event>
 4    5  0.8511149E-008  0.1053657E+04  0.7818608E-02  0.9314498E-01
         -2   -1    0    0    0  501 -0.00000000000E+00  0.00000000000E+00  0.38818665770E+03  0.38818665770E+03  0.25500000000E-02 0.  1.
          2   -1    0    0  501    0  0.00000000000E+00 -0.00000000000E+00 -0.32078198622E+04  0.32078198622E+04  0.25500000000E-02 0. -1.
    8880023    1    1    2    0    0 -0.79815661884E+03  0.19831474937E+03 -0.57451628711E+03  0.12001091194E+04  0.65864270000E+03 0.  0.
    8880022    1    1    2    0    0  0.79815661884E+03 -0.19831474937E+03 -0.22451169174E+04  0.23958974005E+04  0.15294330000E+03 0.  0.
<mgrwt>
<rscale>  0 0.99459020E+03</rscale>
<asrwt>0</asrwt>
<pdfrwt beam="1">  1        2 0.49351073E+00 0.10536569E+04</pdfrwt>
<pdfrwt beam="2">  1       -2 0.59721026E-01 0.10536569E+04</pdfrwt>
<totfact> 0.34192596E+00</totfact>
</mgrwt>
</event>
<event>
 4    5  0.8511149E-008  0.1227380E+04  0.7818608E-02  0.9130956E-01
          2   -1    0    0  501    0  0.00000000000E+00  0.00000000000E+00  0.24428860791E+04  0.24428860791E+04  0.25500000000E-02 0. -1.
         -2   -1    0    0    0  501 -0.00000000000E+00 -0.00000000000E+00 -0.77297728479E+03  0.77297728480E+03  0.25500000000E-02 0.  1.
    8880023    1    1    2    0    0 -0.66705611234E+03  0.79226728585E+03 -0.20459590504E+02  0.12275504512E+04  0.65864270000E+03 0.  0.
    8880022    1    1    2    0    0  0.66705611234E+03 -0.79226728585E+03  0.16903683848E+04  0.19883129126E+04  0.15294330000E+03 0.  0.
<mgrwt>
<rscale>  0 0.11795401E+04</rscale>
<asrwt>0</asrwt>
<pdfrwt beam="1">  1        2 0.37582862E+00 0.12273799E+04</pdfrwt>
<pdfrwt beam="2">  1       -2 0.11891958E+00 0.12273799E+04</pdfrwt>
<totfact> 0.19930516E+00</totfact>
</mgrwt>
</event>
<event>
 4    5  0.8511149E-008  0.1021964E+04  0.7818608E-02  0.9353370E-01
          2   -1    0    0  501    0  0.00000000000E+00  0.00000000000E+00  0.19258771847E+04  0.19258771847E+04  0.25500000000E-02 0. -1.
         -2   -1    0    0    0  501 -0.00000000000E+00 -0.00000000000E+00 -0.88703356270E+03  0.88703356271E+03  0.25500000000E-02 0.  1.
    8880023    1    1    2    0    0 -0.61330216664E+03  0.48421102917E+03 -0.45611543800E+03  0.11191297366E+04  0.65864270000E+03 0.  0.
    8880022    1    1    2    0    0  0.61330216664E+03 -0.48421102917E+03  0.14949590600E+04  0.16937810108E+04  0.15294330000E+03 0.  0.
<mgrwt>
<rscale>  0 0.96014556E+03</rscale>
<asrwt>0</asrwt>
<pdfrwt beam="1">  1        2 0.29628879E+00 0.10219638E+04</pdfrwt>
<pdfrwt beam="2">  1       -2 0.13646670E+00 0.10219638E+04</pdfrwt>
<totfact> 0.28033020E+00</totfact>
</mgrwt>
</event>
<event>
 4    5  0.8511149E-008  0.1209214E+04  0.7818608E-02  0.9148218E-01
          2   -1    0    0  501    0  0.00000000000E+00  0.00000000000E+00  0.97741200170E+03  0.97741200171E+03  0.25500000000E-02 0. -1.
         -2   -1    0    0    0  501 -0.00000000000E+00 -0.00000000000E+00 -0.17948454978E+04  0.17948454978E+04  0.25500000000E-02 0.  1.
    8880023    1    1    2    0    0 -0.97442874059E+03  0.28084826384E+03 -0.11750793910E+04  0.16861224449E+04  0.65864270000E+03 0.  0.
    8880022    1    1    2    0    0  0.97442874059E+03 -0.28084826384E+03  0.35764589486E+03  0.10861350546E+04  0.15294330000E+03 0.  0.
<mgrwt>
<rscale>  0 0.11604269E+04</rscale>
<asrwt>0</asrwt>
<pdfrwt beam="1">  1        2 0.15037108E+00 0.12092135E+04</pdfrwt>
<pdfrwt beam="2">  1       -2 0.27613008E+00 0.12092135E+04</pdfrwt>
<totfact> 0.11297766E+00</totfact>
</mgrwt>
</event>
<event>
 4    5  0.8511149E-008  0.8866006E+03  0.7818608E-02  0.9547894E-01
         -2   -1    0    0    0  501 -0.00000000000E+00  0.00000000000E+00  0.63413490204E+03  0.63413490205E+03  0.25500000000E-02 0.  1.
          2   -1    0    0  501    0  0.00000000000E+00 -0.00000000000E+00 -0.11879959661E+04  0.11879959661E+04  0.25500000000E-02 0. -1.
    8880023    1    1    2    0    0  0.39631116520E+03  0.44180079796E+03  0.13862426347E+03  0.89737248533E+03  0.65864270000E+03 0.  1.
    8880022    1    1    2    0    0 -0.39631116520E+03 -0.44180079796E+03 -0.69248532757E+03  0.92475838285E+03  0.15294330000E+03 0.  0.
<mgrwt>
<rscale>  0 0.80843074E+03</rscale>
<asrwt>0</asrwt>
<pdfrwt beam="1">  1        2 0.18276861E+00 0.88660064E+03</pdfrwt>
<pdfrwt beam="2">  1       -2 0.97559216E-01 0.88660064E+03</pdfrwt>
<totfact> 0.16939645E+01</totfact>
</mgrwt>
</event>
<event>
 4    5  0.8511149E-008  0.6919295E+03  0.7818608E-02  0.1003249E+00
         -2   -1    0    0    0  501 -0.00000000000E+00  0.00000000000E+00  0.10344634428E+03  0.10344634431E+03  0.25500000000E-02 0.  1.
          2   -1    0    0  501    0  0.00000000000E+00 -0.00000000000E+00 -0.28931416010E+04  0.28931416010E+04  0.25500000000E-02 0. -1.
    8880023    1    1    2    0    0  0.15002381424E+02 -0.21149745505E+03 -0.11971547680E+04  0.13827313512E+04  0.65864270000E+03 0.  1.
    8880022    1    1    2    0    0 -0.15002381424E+02  0.21149745505E+03 -0.15925404887E+04  0.16138565941E+04  0.15294330000E+03 0.  0.
<mgrwt>
<rscale>  0 0.54248413E+03</rscale>
<asrwt>0</asrwt>
<pdfrwt beam="1">  1        2 0.44509865E+00 0.69192951E+03</pdfrwt>
<pdfrwt beam="2">  1       -2 0.15914824E-01 0.69192951E+03</pdfrwt>
<totfact> 0.68129462E+01</totfact>
</mgrwt>
</event>
<event>
 4    5  0.8511149E-008  0.7791827E+03  0.7818608E-02  0.9757760E-01
          2   -1    0    0  501    0  0.00000000000E+00  0.00000000000E+00  0.13602243983E+04  0.13602243983E+04  0.25500000000E-02 0. -1.
         -2   -1    0    0    0  501 -0.00000000000E+00 -0.00000000000E+00 -0.68476049583E+03  0.68476049583E+03  0.25500000000E-02 0.  1.
    8880023    1    1    2    0    0  0.41552394919E+03  0.25598545321E+02 -0.40419339698E+03  0.87778012412E+03  0.65864270000E+03 0.  1.
    8880022    1    1    2    0    0 -0.41552394919E+03 -0.25598545321E+02  0.10796572995E+04  0.11672047700E+04  0.15294330000E+03 0.  0.
<mgrwt>
<rscale>  0 0.67679473E+03</rscale>
<asrwt>0</asrwt>
<pdfrwt beam="1">  1        2 0.20926529E+00 0.77918268E+03</pdfrwt>
<pdfrwt beam="2">  1       -2 0.10534777E+00 0.77918268E+03</pdfrwt>
<totfact> 0.11328000E+01</totfact>
</mgrwt>
</event>
<event>
 4    5  0.8511149E-008  0.6714271E+03  0.7818608E-02  0.1014660E+00
          2   -1    0    0  501    0  0.00000000000E+00  0.00000000000E+00  0.69181895638E+03  0.69181895639E+03  0.25500000000E-02 0. -1.
         -2   -1    0    0    0  501 -0.00000000000E+00 -0.00000000000E+00 -0.67594654087E+03  0.67594654088E+03  0.25500000000E-02 0.  1.
    8880023    1    1    2    0    0 -0.12968281727E+03 -0.13658701006E+02 -0.48486593828E+03  0.82819646074E+03  0.65864270000E+03 0.  1.
    8880022    1    1    2    0    0  0.12968281727E+03  0.13658701006E+02  0.50073835379E+03  0.53956903653E+03  0.15294330000E+03 0.  0.
<mgrwt>
<rscale>  0 0.49663950E+03</rscale>
<asrwt>0</asrwt>
<pdfrwt beam="1">  1        2 0.10643368E+00 0.67142714E+03</pdfrwt>
<pdfrwt beam="2">  1       -2 0.10399178E+00 0.67142714E+03</pdfrwt>
<totfact> 0.31923892E+01</totfact>
</mgrwt>
</event>
<event>
 4    5  0.8511149E-008  0.7017212E+03  0.7818608E-02  0.9990135E-01
         -2   -1    0    0    0  501 -0.00000000000E+00  0.00000000000E+00  0.13478614689E+04  0.13478614689E+04  0.25500000000E-02 0.  1.
          2   -1    0    0  501    0  0.00000000000E+00 -0.00000000000E+00 -0.17212540378E+04  0.17212540378E+04  0.25500000000E-02 0. -1.
    8880023    1    1    2    0    0 -0.24207730840E+03  0.98992561568E+00  0.12430855758E+04  0.14274713161E+04  0.65864270000E+03 0.  1.
    8880022    1    1    2    0    0  0.24207730840E+03 -0.98992561568E+00 -0.16164781447E+04  0.16416441906E+04  0.15294330000E+03 0.  0.
<mgrwt>
<rscale>  0 0.56084937E+03</rscale>
<asrwt>0</asrwt>
<pdfrwt beam="1">  1        2 0.26480831E+00 0.70172118E+03</pdfrwt>
<pdfrwt beam="2">  1       -2 0.20736330E+00 0.70172118E+03</pdfrwt>
<totfact> 0.11915165E+00</totfact>
</mgrwt>
</event>
<event>
 4    5  0.8511149E-008  0.7307093E+03  0.7818608E-02  0.9887887E-01
         -2   -1    0    0    0  501 -0.00000000000E+00  0.00000000000E+00  0.22414321527E+04  0.22414321527E+04  0.25500000000E-02 0.  1.
          2   -1    0    0  501    0  0.00000000000E+00 -0.00000000000E+00 -0.30293984917E+03  0.30293984918E+03  0.25500000000E-02 0. -1.
    8880023    1    1    2    0    0 -0.29882660202E+03 -0.10406046575E+03  0.20494536027E+04  0.21758208094E+04  0.65864270000E+03 0.  1.
    8880022    1    1    2    0    0  0.29882660202E+03  0.10406046575E+03 -0.11096129913E+03  0.36855119255E+03  0.15294330000E+03 0.  0.
<mgrwt>
<rscale>  0 0.60851962E+03</rscale>
<asrwt>0</asrwt>
<pdfrwt beam="1">  1        2 0.46606132E-01 0.73070933E+03</pdfrwt>
<pdfrwt beam="2">  1       -2 0.34483571E+00 0.73070933E+03</pdfrwt>
<totfact> 0.19195083E+00</totfact>
</mgrwt>
</event>
<event>
 4    5  0.8511149E-008  0.9260432E+03  0.7818608E-02  0.9485454E-01
          2   -1    0    0  501    0  0.00000000000E+00  0.00000000000E+00  0.36938314590E+04  0.36938314590E+04  0.25500000000E-02 0. -1.
         -2   -1    0    0    0  501 -0.00000000000E+00 -0.00000000000E+00 -0.44535827835E+03  0.44535827836E+03  0.25500000000E-02 0.  1.
    8880023    1    1    2    0    0 -0.60894836597E+03 -0.23006009457E+03  0.11265666384E+03  0.93287056428E+03  0.65864270000E+03 0.  0.
    8880022    1    1    2    0    0  0.60894836597E+03  0.23006009457E+03  0.31358165168E+04  0.32063191731E+04  0.15294330000E+03 0.  0.
<mgrwt>
<rscale>  0 0.85364746E+03</rscale>
<asrwt>0</asrwt>
<pdfrwt beam="1">  1        2 0.56828180E+00 0.92604318E+03</pdfrwt>
<pdfrwt beam="2">  1       -2 0.68516654E-01 0.92604318E+03</pdfrwt>
<totfact> 0.12141219E+00</totfact>
</mgrwt>
</event>
<event>
 4    5  0.8511149E-008  0.7924012E+03  0.7818608E-02  0.9727474E-01
         -2   -1    0    0    0  501 -0.00000000000E+00  0.00000000000E+00  0.41765318098E+03  0.41765318099E+03  0.25500000000E-02 0.  1.
          2   -1    0    0  501    0  0.00000000000E+00 -0.00000000000E+00 -0.21866364309E+04  0.21866364309E+04  0.25500000000E-02 0. -1.
    8880023    1    1    2    0    0 -0.21634086036E+03  0.38377870110E+03 -0.18358215125E+02  0.79261383385E+03  0.65864270000E+03 0.  1.
    8880022    1    1    2    0    0  0.21634086036E+03 -0.38377870110E+03 -0.17506250348E+04  0.18116757781E+04  0.15294330000E+03 0.  0.
<mgrwt>
<rscale>  0 0.69404325E+03</rscale>
<asrwt>0</asrwt>
<pdfrwt beam="1">  1        2 0.33640560E+00 0.79240120E+03</pdfrwt>
<pdfrwt beam="2">  1       -2 0.64254337E-01 0.79240120E+03</pdfrwt>
<totfact> 0.12148203E+01</totfact>
</mgrwt>
</event>
<event>
 4    5  0.8511149E-008  0.1484332E+04  0.7818608E-02  0.8920780E-01
          2   -1    0    0  501    0  0.00000000000E+00  0.00000000000E+00  0.12722853101E+04  0.12722853101E+04  0.25500000000E-02 0. -1.
         -2   -1    0    0    0  501 -0.00000000000E+00 -0.00000000000E+00 -0.23657204031E+04  0.23657204031E+04  0.25500000000E-02 0.  1.
    8880023    1    1    2    0    0  0.12883597485E+04  0.33099737377E+03 -0.16218432237E+04  0.21985485557E+04  0.65864270000E+03 0.  0.
    8880022    1    1    2    0    0 -0.12883597485E+04 -0.33099737377E+03  0.52840813072E+03  0.14394571576E+04  0.15294330000E+03 0.  0.
<mgrwt>
<rscale>  0 0.14465730E+04</rscale>
<asrwt>0</asrwt>
<pdfrwt beam="1">  1        2 0.19573620E+00 0.14843316E+04</pdfrwt>
<pdfrwt beam="2">  1       -2 0.36395699E+00 0.14843316E+04</pdfrwt>
<totfact> 0.20618573E-01</totfact>
</mgrwt>
</event>
<event>
 4    5  0.8511149E-008  0.6870008E+03  0.7818608E-02  0.1005612E+00
         -2   -1    0    0    0  501 -0.00000000000E+00  0.00000000000E+00  0.55585052200E+03  0.55585052200E+03  0.25500000000E-02 0.  1.
          2   -1    0    0  501    0  0.00000000000E+00 -0.00000000000E+00 -0.45091892732E+03  0.45091892733E+03  0.25500000000E-02 0. -1.
    8880023    1    1    2    0    0  0.17400742289E+03  0.88776680544E+02  0.23571403119E+03  0.72631342614E+03  0.65864270000E+03 0.  0.
    8880022    1    1    2    0    0 -0.17400742289E+03 -0.88776680544E+02 -0.13078243652E+03  0.28045602319E+03  0.15294330000E+03 0.  0.
<mgrwt>
<rscale>  0 0.53256521E+03</rscale>
<asrwt>0</asrwt>
<pdfrwt beam="1">  1        2 0.69372142E-01 0.68700079E+03</pdfrwt>
<pdfrwt beam="2">  1       -2 0.85515465E-01 0.68700079E+03</pdfrwt>
<totfact> 0.83663140E+01</totfact>
</mgrwt>
</event>
<event>
 4    5  0.8511149E-008  0.6973795E+03  0.7818608E-02  0.1000825E+00
         -2   -1    0    0    0  501 -0.00000000000E+00  0.00000000000E+00  0.10606993290E+03  0.10606993293E+03  0.25500000000E-02 0.  1.
          2   -1    0    0  501    0  0.00000000000E+00 -0.00000000000E+00 -0.39252522273E+04  0.39252522273E+04  0.25500000000E-02 0. -1.
    8880023    1    1    2    0    0 -0.22917099959E+03  0.29371658038E+01 -0.11286718310E+04  0.13267397192E+04  0.65864270000E+03 0.  1.
    8880022    1    1    2    0    0  0.22917099959E+03 -0.29371658038E+01 -0.26905104634E+04  0.27045824411E+04  0.15294330000E+03 0.  0.
<mgrwt>
<rscale>  0 0.55289943E+03</rscale>
<asrwt>0</asrwt>
<pdfrwt beam="1">  1        2 0.60388485E+00 0.69737951E+03</pdfrwt>
<pdfrwt beam="2">  1       -2 0.16318454E-01 0.69737951E+03</pdfrwt>
<totfact> 0.13218492E+01</totfact>
</mgrwt>
</event>
<event>
 4    5  0.8511149E-008  0.1539340E+04  0.7818608E-02  0.8882345E-01
          2   -1    0    0  501    0  0.00000000000E+00  0.00000000000E+00  0.22029186152E+04  0.22029186152E+04  0.25500000000E-02 0. -1.
         -2   -1    0    0    0  501 -0.00000000000E+00 -0.00000000000E+00 -0.12811520221E+04  0.12811520221E+04  0.25500000000E-02 0.  1.
    8880023    1    1    2    0    0 -0.93113038290E+03 -0.10338058400E+04 -0.36583144061E+03  0.15822140039E+04  0.65864270000E+03 0.  0.
    8880022    1    1    2    0    0  0.93113038290E+03  0.10338058400E+04  0.12875980337E+04  0.19018566334E+04  0.15294330000E+03 0.  0.
<mgrwt>
<rscale>  0 0.15031746E+04</rscale>
<asrwt>0</asrwt>
<pdfrwt beam="1">  1        2 0.33891055E+00 0.15393403E+04</pdfrwt>
<pdfrwt beam="2">  1       -2 0.19710031E+00 0.15393403E+04</pdfrwt>
<totfact> 0.66892507E-01</totfact>
</mgrwt>
</event>
<event>
 4    5  0.8511149E-008  0.1234278E+04  0.7818608E-02  0.9124501E-01
         -2   -1    0    0    0  501 -0.00000000000E+00  0.00000000000E+00  0.12419935010E+04  0.12419935010E+04  0.25500000000E-02 0.  1.
          2   -1    0    0  501    0  0.00000000000E+00 -0.00000000000E+00 -0.17081604134E+04  0.17081604134E+04  0.25500000000E-02 0. -1.
    8880023    1    1    2    0    0 -0.89248621109E+03  0.54138749365E+03  0.66611135144E+03  0.14025500326E+04  0.65864270000E+03 0.  0.
    8880022    1    1    2    0    0  0.89248621109E+03 -0.54138749365E+03 -0.11322782639E+04  0.15476038818E+04  0.15294330000E+03 0.  0.
<mgrwt>
<rscale>  0 0.11867871E+04</rscale>
<asrwt>0</asrwt>
<pdfrwt beam="1">  1        2 0.26279391E+00 0.12342780E+04</pdfrwt>
<pdfrwt beam="2">  1       -2 0.19107592E+00 0.12342780E+04</pdfrwt>
<totfact> 0.14299690E+00</totfact>
</mgrwt>
</event>
<event>
 4    5  0.8511149E-008  0.7424397E+03  0.7818608E-02  0.9852897E-01
          2   -1    0    0  501    0  0.00000000000E+00  0.00000000000E+00  0.46941980584E+03  0.46941980584E+03  0.25500000000E-02 0. -1.
         -2   -1    0    0    0  501 -0.00000000000E+00 -0.00000000000E+00 -0.10125894263E+04  0.10125894264E+04  0.25500000000E-02 0.  1.
    8880023    1    1    2    0    0  0.40645081916E+02 -0.34022703966E+03 -0.74850863556E+03  0.10542683932E+04  0.65864270000E+03 0.  0.
    8880022    1    1    2    0    0 -0.40645081916E+02  0.34022703966E+03  0.20533901505E+03  0.42774083896E+03  0.15294330000E+03 0.  0.
<mgrwt>
<rscale>  0 0.62599445E+03</rscale>
<asrwt>0</asrwt>
<pdfrwt beam="1">  1        2 0.72218432E-01 0.74243967E+03</pdfrwt>
<pdfrwt beam="2">  1       -2 0.15578299E+00 0.74243967E+03</pdfrwt>
<totfact> 0.18203473E+01</totfact>
</mgrwt>
</event>
<event>
 4    5  0.8511149E-008  0.2084705E+04  0.7818608E-02  0.8579516E-01
          2   -1    0    0  501    0  0.00000000000E+00  0.00000000000E+00  0.28147072720E+04  0.28147072720E+04  0.25500000000E-02 0. -1.
         -2   -1    0    0    0  501 -0.00000000000E+00 -0.00000000000E+00 -0.15824265466E+04  0.15824265466E+04  0.25500000000E-02 0.  1.
    8880023    1    1    2    0    0  0.15902905974E+04  0.11760784528E+04  0.45057383325E+02  0.20851918582E+04  0.65864270000E+03 0.  0.
    8880022    1    1    2    0    0 -0.15902905974E+04 -0.11760784528E+04  0.11872233421E+04  0.23119419605E+04  0.15294330000E+03 0.  0.
<mgrwt>
<rscale>  0 0.20590149E+04</rscale>
<asrwt>0</asrwt>
<pdfrwt beam="1">  1        2 0.43303188E+00 0.20847050E+04</pdfrwt>
<pdfrwt beam="2">  1       -2 0.24345024E+00 0.20847050E+04</pdfrwt>
<totfact> 0.14095489E-01</totfact>
</mgrwt>
</event>
<event>
 4    5  0.8511149E-008  0.1159440E+04  0.7818608E-02  0.9197594E-01
         -2   -1    0    0    0  501 -0.00000000000E+00  0.00000000000E+00  0.13507062049E+04  0.13507062049E+04  0.25500000000E-02 0.  1.
          2   -1    0    0  501    0  0.00000000000E+00 -0.00000000000E+00 -0.13503149261E+04  0.13503149262E+04  0.25500000000E-02 0. -1.
    8880023    1    1    2    0    0  0.71033471556E+03  0.63711539943E+03  0.83120517083E+03  0.14266056507E+04  0.65864270000E+03 0.  0.
    8880022    1    1    2    0    0 -0.71033471556E+03 -0.63711539943E+03 -0.83081389207E+03  0.12744154804E+04  0.15294330000E+03 0.  0.
<mgrwt>
<rscale>  0 0.11078293E+04</rscale>
<asrwt>0</asrwt>
<pdfrwt beam="1">  1        2 0.20774076E+00 0.11594402E+04</pdfrwt>
<pdfrwt beam="2">  1       -2 0.20780095E+00 0.11594402E+04</pdfrwt>
<totfact> 0.17822578E+00</totfact>
</mgrwt>
</event>
<event>
 4    5  0.8511149E-008  0.6754878E+03  0.7818608E-02  0.1012001E+00
          2   -1    0    0  501    0  0.00000000000E+00  0.00000000000E+00  0.28335590462E+04  0.28335590462E+04  0.25500000000E-02 0. -1.
         -2   -1    0    0    0  501 -0.00000000000E+00 -0.00000000000E+00 -0.30607174442E+03  0.30607174443E+03  0.25500000000E-02 0.  1.
    8880023    1    1    2    0    0 -0.61734077078E+02  0.13661061485E+03  0.77067285690E+02  0.67986993547E+03  0.65864270000E+03 0.  1.
    8880022    1    1    2    0    0  0.61734077078E+02 -0.13661061485E+03  0.24504200161E+04  0.24597608552E+04  0.15294330000E+03 0.  0.
<mgrwt>
<rscale>  0 0.50687229E+03</rscale>
<asrwt>0</asrwt>
<pdfrwt beam="1">  1        2 0.43593217E+00 0.67548780E+03</pdfrwt>
<pdfrwt beam="2">  1       -2 0.47087960E-01 0.67548780E+03</pdfrwt>
<totfact> 0.10120041E+01</totfact>
</mgrwt>
</event>
<event>
 4    5  0.8511149E-008  0.6855219E+03  0.7818608E-02  0.1006358E+00
         -2   -1    0    0    0  501 -0.00000000000E+00  0.00000000000E+00  0.70409717591E+03  0.70409717591E+03  0.25500000000E-02 0.  1.
          2   -1    0    0  501    0  0.00000000000E+00 -0.00000000000E+00 -0.69382400371E+03  0.69382400371E+03  0.25500000000E-02 0. -1.
    8880023    1    1    2    0    0 -0.52416153612E+02 -0.18270894302E+03  0.50154569527E+03  0.84940467489E+03  0.65864270000E+03 0.  1.
    8880022    1    1    2    0    0  0.52416153612E+02  0.18270894302E+03 -0.49127252308E+03  0.54851650473E+03  0.15294330000E+03 0.  0.
<mgrwt>
<rscale>  0 0.52948098E+03</rscale>
<asrwt>0</asrwt>
<pdfrwt beam="1">  1        2 0.10674215E+00 0.68552186E+03</pdfrwt>
<pdfrwt beam="2">  1       -2 0.10832264E+00 0.68552186E+03</pdfrwt>
<totfact> 0.28801231E+01</totfact>
</mgrwt>
</event>
<event>
 4    5  0.8511149E-008  0.1305142E+04  0.7818608E-02  0.9061132E-01
         -2   -1    0    0    0  501 -0.00000000000E+00  0.00000000000E+00  0.14616534916E+04  0.14616534916E+04  0.25500000000E-02 0.  1.
          2   -1    0    0  501    0  0.00000000000E+00 -0.00000000000E+00 -0.18350832246E+04  0.18350832246E+04  0.25500000000E-02 0. -1.
    8880023    1    1    2    0    0  0.10846449255E+04  0.30517470251E+03  0.90315431919E+03  0.15871622929E+04  0.65864270000E+03 0.  0.
    8880022    1    1    2    0    0 -0.10846449255E+04 -0.30517470251E+03 -0.12765840521E+04  0.17095744233E+04  0.15294330000E+03 0.  0.
<mgrwt>
<rscale>  0 0.12609338E+04</rscale>
<asrwt>0</asrwt>
<pdfrwt beam="1">  1        2 0.28232050E+00 0.13051423E+04</pdfrwt>
<pdfrwt beam="2">  1       -2 0.22486977E+00 0.13051423E+04</pdfrwt>
<totfact> 0.72826155E-01</totfact>
</mgrwt>
</event>
<event>
 4    5  0.8511149E-008  0.1309785E+04  0.7818608E-02  0.9057156E-01
          2   -1    0    0  501    0  0.00000000000E+00  0.00000000000E+00  0.25987868684E+04  0.25987868684E+04  0.25500000000E-02 0. -1.
         -2   -1    0    0    0  501 -0.00000000000E+00 -0.00000000000E+00 -0.10982005612E+04  0.10982005612E+04  0.25500000000E-02 0.  1.
    8880023    1    1    2    0    0  0.11292225794E+04 -0.81135772742E+02 -0.49281579582E+03  0.13994299777E+04  0.65864270000E+03 0.  0.
    8880022    1    1    2    0    0 -0.11292225794E+04  0.81135772742E+02  0.19934021031E+04  0.22975574519E+04  0.15294330000E+03 0.  0.
<mgrwt>
<rscale>  0 0.12657742E+04</rscale>
<asrwt>0</asrwt>
<pdfrwt beam="1">  1        2 0.39981336E+00 0.13097850E+04</pdfrwt>
<pdfrwt beam="2">  1       -2 0.16895393E+00 0.13097850E+04</pdfrwt>
<totfact> 0.63705015E-01</totfact>
</mgrwt>
</event>
<event>
 4    5  0.8511149E-008  0.7025891E+03  0.7818608E-02  0.9986625E-01
          2   -1    0    0  501    0  0.00000000000E+00  0.00000000000E+00  0.18531347319E+04  0.18531347319E+04  0.25500000000E-02 0. -1.
         -2   -1    0    0    0  501 -0.00000000000E+00 -0.00000000000E+00 -0.54295835435E+03  0.54295835435E+03  0.25500000000E-02 0.  1.
    8880023    1    1    2    0    0  0.47643131971E+01 -0.24453748443E+03 -0.29732704014E+03  0.76291208867E+03  0.65864270000E+03 0.  1.
    8880022    1    1    2    0    0 -0.47643131971E+01  0.24453748443E+03  0.16075034177E+04  0.16331809976E+04  0.15294330000E+03 0.  0.
<mgrwt>
<rscale>  0 0.56240597E+03</rscale>
<asrwt>0</asrwt>
<pdfrwt beam="1">  1        2 0.28509766E+00 0.70258913E+03</pdfrwt>
<pdfrwt beam="2">  1       -2 0.83532053E-01 0.70258913E+03</pdfrwt>
<totfact> 0.10504417E+01</totfact>
</mgrwt>
</event>
<event>
 4    5  0.1192555E-007  0.1211794E+04  0.7818608E-02  0.9145742E-01
          2   -1    0    0  501    0  0.00000000000E+00  0.00000000000E+00  0.16569120224E+04  0.16569120224E+04  0.25500000000E-02 0. -1.
         -2   -1    0    0    0  501 -0.00000000000E+00 -0.00000000000E+00 -0.23800871223E+04  0.23800871223E+04  0.25500000000E-02 0.  1.
    8880023    1    1    2    0    0 -0.38818098892E+02 -0.10164285400E+04 -0.20359225848E+04  0.23692667219E+04  0.65864270000E+03 0.  0.
    8880022    1    1    2    0    0  0.38818098892E+02  0.10164285400E+04  0.13127474850E+04  0.16677324228E+04  0.15294330000E+03 0.  0.
<mgrwt>
<rscale>  0 0.11631441E+04</rscale>
<asrwt>0</asrwt>
<pdfrwt beam="1">  1        2 0.25490954E+00 0.12117937E+04</pdfrwt>
<pdfrwt beam="2">  1       -2 0.36616725E+00 0.12117937E+04</pdfrwt>
<totfact> 0.12473293E-01</totfact>
</mgrwt>
</event>
<event>
 4    5  0.8511149E-008  0.9955498E+03  0.7818608E-02  0.9387403E-01
          2   -1    0    0  501    0  0.00000000000E+00  0.00000000000E+00  0.16032287999E+04  0.16032287999E+04  0.25500000000E-02 0. -1.
         -2   -1    0    0    0  501 -0.00000000000E+00 -0.00000000000E+00 -0.76458694268E+03  0.76458694268E+03  0.25500000000E-02 0.  1.
    8880023    1    1    2    0    0  0.71010425544E+03 -0.23034995558E+03 -0.26169279542E+03  0.10293699437E+04  0.65864270000E+03 0.  1.
    8880022    1    1    2    0    0 -0.71010425544E+03  0.23034995558E+03  0.11003346526E+04  0.13384457988E+04  0.15294330000E+03 0.  0.
<mgrwt>
<rscale>  0 0.93119640E+03</rscale>
<asrwt>0</asrwt>
<pdfrwt beam="1">  1        2 0.24665059E+00 0.99554978E+03</pdfrwt>
<pdfrwt beam="2">  1       -2 0.11762876E+00 0.99554978E+03</pdfrwt>
<totfact> 0.61673833E+00</totfact>
</mgrwt>
</event>
<event>
 4    5  0.8511149E-008  0.6702340E+03  0.7818608E-02  0.1015496E+00
         -2   -1    0    0    0  501 -0.00000000000E+00  0.00000000000E+00  0.21117762730E+03  0.21117762731E+03  0.25500000000E-02 0.  1.
          2   -1    0    0  501    0  0.00000000000E+00 -0.00000000000E+00 -0.15051215651E+04  0.15051215651E+04  0.25500000000E-02 0. -1.
    8880023    1    1    2    0    0 -0.89054501552E+02  0.86444818744E+02 -0.35799804582E+03  0.75985276074E+03  0.65864270000E+03 0.  1.
    8880022    1    1    2    0    0  0.89054501552E+02 -0.86444818744E+02 -0.93594589200E+03  0.95644643169E+03  0.15294330000E+03 0.  0.
<mgrwt>
<rscale>  0 0.49347698E+03</rscale>
<asrwt>0</asrwt>
<pdfrwt beam="1">  1        2 0.23155716E+00 0.67023400E+03</pdfrwt>
<pdfrwt beam="2">  1       -2 0.32488867E-01 0.67023400E+03</pdfrwt>
<totfact> 0.11409901E+02</totfact>
</mgrwt>
</event>
<event>
 4    5  0.8511149E-008  0.8146075E+03  0.7818608E-02  0.9680058E-01
          2   -1    0    0  501    0  0.00000000000E+00  0.00000000000E+00  0.47523909611E+04  0.47523909611E+04  0.25500000000E-02 0. -1.
         -2   -1    0    0    0  501 -0.00000000000E+00 -0.00000000000E+00 -0.10362632194E+03  0.10362632197E+03  0.25500000000E-02 0.  1.
    8880023    1    1    2    0    0  0.44799989946E+03 -0.17050289488E+03  0.19937587570E+04  0.21537547062E+04  0.65864270000E+03 0.  0.
    8880022    1    1    2    0    0 -0.44799989946E+03  0.17050289488E+03  0.26550058822E+04  0.27022625769E+04  0.15294330000E+03 0.  0.
<mgrwt>
<rscale>  0 0.72216617E+03</rscale>
<asrwt>0</asrwt>
<pdfrwt beam="1">  1        2 0.73113733E+00 0.81460748E+03</pdfrwt>
<pdfrwt beam="2">  1       -2 0.15942505E-01 0.81460748E+03</pdfrwt>
<totfact> 0.24079020E+00</totfact>
</mgrwt>
</event>
<event>
 4    5  0.8511149E-008  0.7233154E+03  0.7818608E-02  0.9911523E-01
         -2   -1    0    0    0  501 -0.00000000000E+00  0.00000000000E+00  0.53020854400E+03  0.53020854401E+03  0.25500000000E-02 0.  1.
          2   -1    0    0  501    0  0.00000000000E+00 -0.00000000000E+00 -0.29776291831E+04  0.29776291831E+04  0.25500000000E-02 0. -1.
    8880023    1    1    2    0    0 -0.24606786653E+03  0.16978105093E+03  0.26827115411E+03  0.77146264886E+03  0.65864270000E+03 0.  0.
    8880022    1    1    2    0    0  0.24606786653E+03 -0.16978105093E+03 -0.27156917932E+04  0.27363750782E+04  0.15294330000E+03 0.  0.
<mgrwt>
<rscale>  0 0.59706056E+03</rscale>
<asrwt>0</asrwt>
<pdfrwt beam="1">  1        2 0.45809679E+00 0.72331543E+03</pdfrwt>
<pdfrwt beam="2">  1       -2 0.81570547E-01 0.72331543E+03</pdfrwt>
<totfact> 0.25512069E+00</totfact>
</mgrwt>
</event>
<event>
 4    5  0.8511149E-008  0.1019048E+04  0.7818608E-02  0.9357051E-01
         -2   -1    0    0    0  501 -0.00000000000E+00  0.00000000000E+00  0.31143831730E+03  0.31143831731E+03  0.25500000000E-02 0.  1.
          2   -1    0    0  501    0  0.00000000000E+00 -0.00000000000E+00 -0.37585403929E+04  0.37585403929E+04  0.25500000000E-02 0. -1.
    8880023    1    1    2    0    0  0.48389278734E+03 -0.60868421920E+03 -0.76777217162E+03  0.12759047857E+04  0.65864270000E+03 0.  0.
    8880022    1    1    2    0    0 -0.48389278734E+03  0.60868421920E+03 -0.26793299040E+04  0.27940739245E+04  0.15294330000E+03 0.  0.
<mgrwt>
<rscale>  0 0.95696144E+03</rscale>
<asrwt>0</asrwt>
<pdfrwt beam="1">  1        2 0.57823695E+00 0.10190480E+04</pdfrwt>
<pdfrwt beam="2">  1       -2 0.47913590E-01 0.10190480E+04</pdfrwt>
<totfact> 0.22712404E+00</totfact>
</mgrwt>
</event>
<event>
 4    5  0.8511149E-008  0.1019746E+04  0.7818608E-02  0.9356167E-01
          2   -1    0    0  501    0  0.00000000000E+00  0.00000000000E+00  0.12972551382E+04  0.12972551382E+04  0.25500000000E-02 0. -1.
         -2   -1    0    0    0  501 -0.00000000000E+00 -0.00000000000E+00 -0.11005401507E+04  0.11005401507E+04  0.25500000000E-02 0.  1.
    8880023    1    1    2    0    0  0.42169523538E+03  0.65440465411E+03 -0.67203782407E+03  0.12212769408E+04  0.65864270000E+03 0.  0.
    8880022    1    1    2    0    0 -0.42169523538E+03 -0.65440465411E+03  0.86875281157E+03  0.11765183481E+04  0.15294330000E+03 0.  0.
<mgrwt>
<rscale>  0 0.95772421E+03</rscale>
<asrwt>0</asrwt>
<pdfrwt beam="1">  1        2 0.19957771E+00 0.10197463E+04</pdfrwt>
<pdfrwt beam="2">  1       -2 0.16931387E+00 0.10197463E+04</pdfrwt>
<totfact> 0.35383228E+00</totfact>
</mgrwt>
</event>
<event>
 4    5  0.8511149E-008  0.1473462E+04  0.7818608E-02  0.8928606E-01
          2   -1    0    0  501    0  0.00000000000E+00  0.00000000000E+00  0.26268704299E+04  0.26268704299E+04  0.25500000000E-02 0. -1.
         -2   -1    0    0    0  501 -0.00000000000E+00 -0.00000000000E+00 -0.10777628189E+04  0.10777628189E+04  0.25500000000E-02 0.  1.
    8880023    1    1    2    0    0  0.96905408222E+03 -0.89342913903E+03 -0.22359190835E+03  0.14903304964E+04  0.65864270000E+03 0.  1.
    8880022    1    1    2    0    0 -0.96905408222E+03  0.89342913903E+03  0.17726995194E+04  0.22143027525E+04  0.15294330000E+03 0.  0.
<mgrwt>
<rscale>  0 0.14353709E+04</rscale>
<asrwt>0</asrwt>
<pdfrwt beam="1">  1        2 0.40413391E+00 0.14734625E+04</pdfrwt>
<pdfrwt beam="2">  1       -2 0.16580967E+00 0.14734625E+04</pdfrwt>
<totfact> 0.63411277E-01</totfact>
</mgrwt>
</event>
<event>
 4    5  0.8511149E-008  0.6817389E+03  0.7818608E-02  0.1008357E+00
          2   -1    0    0  501    0  0.00000000000E+00  0.00000000000E+00  0.86434717285E+03  0.86434717286E+03  0.25500000000E-02 0. -1.
         -2   -1    0    0    0  501 -0.00000000000E+00 -0.00000000000E+00 -0.93037678652E+03  0.93037678652E+03  0.25500000000E-02 0.  1.
    8880023    1    1    2    0    0  0.63040258382E+02  0.16426710313E+03 -0.78452713632E+03  0.10393511386E+04  0.65864270000E+03 0.  0.
    8880022    1    1    2    0    0 -0.63040258382E+02 -0.16426710313E+03  0.71849752265E+03  0.75537282081E+03  0.15294330000E+03 0.  0.
<mgrwt>
<rscale>  0 0.52133024E+03</rscale>
<asrwt>0</asrwt>
<pdfrwt beam="1">  1        2 0.13297649E+00 0.68173892E+03</pdfrwt>
<pdfrwt beam="2">  1       -2 0.14313489E+00 0.68173892E+03</pdfrwt>
<totfact> 0.10774492E+01</totfact>
</mgrwt>
</event>
<event>
 4    5  0.8511149E-008  0.8334872E+03  0.7818608E-02  0.9642585E-01
          2   -1    0    0  501    0  0.00000000000E+00  0.00000000000E+00  0.60569079210E+03  0.60569079211E+03  0.25500000000E-02 0. -1.
         -2   -1    0    0    0  501 -0.00000000000E+00 -0.00000000000E+00 -0.99170468635E+03  0.99170468635E+03  0.25500000000E-02 0.  1.
    8880023    1    1    2    0    0 -0.47811604873E+03  0.17971020940E+03 -0.59568289918E+03  0.10244701255E+04  0.65864270000E+03 0.  1.
    8880022    1    1    2    0    0  0.47811604873E+03 -0.17971020940E+03  0.20966900493E+03  0.57292535296E+03  0.15294330000E+03 0. -1.
<mgrwt>
<rscale>  0 0.74540610E+03</rscale>
<asrwt>0</asrwt>
<pdfrwt beam="1">  1        2 0.93183199E-01 0.83348721E+03</pdfrwt>
<pdfrwt beam="2">  1       -2 0.15256995E+00 0.83348721E+03</pdfrwt>
<totfact> 0.14136656E+01</totfact>
</mgrwt>
</event>
<event>
 4    5  0.8511149E-008  0.6706765E+03  0.7818608E-02  0.1015182E+00
         -2   -1    0    0    0  501 -0.00000000000E+00  0.00000000000E+00  0.25998927380E+03  0.25998927381E+03  0.25500000000E-02 0.  1.
          2   -1    0    0  501    0  0.00000000000E+00 -0.00000000000E+00 -0.15296025927E+04  0.15296025927E+04  0.25500000000E-02 0. -1.
    8880023    1    1    2    0    0  0.35804859987E+02 -0.12130433095E+03 -0.19734019140E+03  0.69910663429E+03  0.65864270000E+03 0.  1.
    8880022    1    1    2    0    0 -0.35804859987E+02  0.12130433095E+03 -0.10722731275E+04  0.10904852322E+04  0.15294330000E+03 0.  0.
<mgrwt>
<rscale>  0 0.49465889E+03</rscale>
<asrwt>0</asrwt>
<pdfrwt beam="1">  1        2 0.23532347E+00 0.67067648E+03</pdfrwt>
<pdfrwt beam="2">  1       -2 0.39998351E-01 0.67067648E+03</pdfrwt>
<totfact> 0.74321694E+01</totfact>
</mgrwt>
</event>
<event>
 4    5  0.8511149E-008  0.9976156E+03  0.7818608E-02  0.9384684E-01
          2   -1    0    0  501    0  0.00000000000E+00  0.00000000000E+00  0.10945929410E+04  0.10945929410E+04  0.25500000000E-02 0. -1.
         -2   -1    0    0    0  501 -0.00000000000E+00 -0.00000000000E+00 -0.27971185957E+04  0.27971185957E+04  0.25500000000E-02 0.  1.
    8880023    1    1    2    0    0  0.69482501015E+03 -0.28043712927E+03 -0.25571678436E+04  0.27448760200E+04  0.65864270000E+03 0.  1.
    8880022    1    1    2    0    0 -0.69482501015E+03  0.28043712927E+03  0.85464218900E+03  0.11468355167E+04  0.15294330000E+03 0.  0.
<mgrwt>
<rscale>  0 0.93346937E+03</rscale>
<asrwt>0</asrwt>
<pdfrwt beam="1">  1        2 0.16839891E+00 0.99761565E+03</pdfrwt>
<pdfrwt beam="2">  1       -2 0.43032594E+00 0.99761565E+03</pdfrwt>
<totfact> 0.10476656E-01</totfact>
</mgrwt>
</event>
<event>
 4    5  0.8511149E-008  0.1132378E+04  0.7818608E-02  0.9225836E-01
         -2   -1    0    0    0  501 -0.00000000000E+00  0.00000000000E+00  0.84334445287E+03  0.84334445287E+03  0.25500000000E-02 0.  1.
          2   -1    0    0  501    0  0.00000000000E+00 -0.00000000000E+00 -0.21726918399E+04  0.21726918399E+04  0.25500000000E-02 0. -1.
    8880023    1    1    2    0    0 -0.89114424309E+03  0.23308934047E+03  0.26995463178E+03  0.11641109965E+04  0.65864270000E+03 0.  1.
    8880022    1    1    2    0    0  0.89114424309E+03 -0.23308934047E+03 -0.15993020188E+04  0.18519252963E+04  0.15294330000E+03 0.  0.
<mgrwt>
<rscale>  0 0.10790692E+04</rscale>
<asrwt>0</asrwt>
<pdfrwt beam="1">  1        2 0.33426028E+00 0.11323775E+04</pdfrwt>
<pdfrwt beam="2">  1       -2 0.12974530E+00 0.11323775E+04</pdfrwt>
<totfact> 0.22979219E+00</totfact>
</mgrwt>
</event>
<event>
 4    5  0.8511149E-008  0.1412826E+04  0.7818608E-02  0.8973780E-01
         -2   -1    0    0    0  501 -0.00000000000E+00  0.00000000000E+00  0.98795921748E+03  0.98795921749E+03  0.25500000000E-02 0.  1.
          2   -1    0    0  501    0  0.00000000000E+00 -0.00000000000E+00 -0.37487187886E+04  0.37487187886E+04  0.25500000000E-02 0. -1.
    8880023    1    1    2    0    0  0.51344391694E+03 -0.11395803607E+04  0.28463511046E+03  0.14412131718E+04  0.65864270000E+03 0.  1.
    8880022    1    1    2    0    0 -0.51344391694E+03  0.11395803607E+04 -0.30453946816E+04  0.32954648343E+04  0.15294330000E+03 0.  0.
<mgrwt>
<rscale>  0 0.13727544E+04</rscale>
<asrwt>0</asrwt>
<pdfrwt beam="1">  1        2 0.57672596E+00 0.14128263E+04</pdfrwt>
<pdfrwt beam="2">  1       -2 0.15199373E+00 0.14128263E+04</pdfrwt>
<totfact> 0.15037686E-01</totfact>
</mgrwt>
</event>
<event>
 4    5  0.8511149E-008  0.9933126E+03  0.7818608E-02  0.9390360E-01
         -2   -1    0    0    0  501 -0.00000000000E+00  0.00000000000E+00  0.71433622148E+03  0.71433622149E+03  0.25500000000E-02 0.  1.
          2   -1    0    0  501    0  0.00000000000E+00 -0.00000000000E+00 -0.14818870251E+04  0.14818870251E+04  0.25500000000E-02 0. -1.
    8880023    1    1    2    0    0  0.65096139143E+03  0.35931746115E+03  0.15085542513E+03  0.10047026110E+04  0.65864270000E+03 0.  1.
    8880022    1    1    2    0    0 -0.65096139143E+03 -0.35931746115E+03 -0.91840622878E+03  0.11915206356E+04  0.15294330000E+03 0.  0.
<mgrwt>
<rscale>  0 0.92873320E+03</rscale>
<asrwt>0</asrwt>
<pdfrwt beam="1">  1        2 0.22798262E+00 0.99331263E+03</pdfrwt>
<pdfrwt beam="2">  1       -2 0.10989788E+00 0.99331263E+03</pdfrwt>
<totfact> 0.85182851E+00</totfact>
</mgrwt>
</event>
<event>
 4    5  0.8511149E-008  0.7496574E+03  0.7818608E-02  0.9832659E-01
          2   -1    0    0  501    0  0.00000000000E+00  0.00000000000E+00  0.13343277792E+04  0.13343277792E+04  0.25500000000E-02 0. -1.
         -2   -1    0    0    0  501 -0.00000000000E+00 -0.00000000000E+00 -0.16455981082E+04  0.16455981082E+04  0.25500000000E-02 0.  1.
    8880023    1    1    2    0    0 -0.30222407769E+03  0.19192879495E+03 -0.15282371138E+04  0.17022029661E+04  0.65864270000E+03 0.  1.
    8880022    1    1    2    0    0  0.30222407769E+03 -0.19192879495E+03  0.12169667848E+04  0.12777229214E+04  0.15294330000E+03 0.  0.
<mgrwt>
<rscale>  0 0.63638945E+03</rscale>
<asrwt>0</asrwt>
<pdfrwt beam="1">  1        2 0.20528120E+00 0.74965743E+03</pdfrwt>
<pdfrwt beam="2">  1       -2 0.25316894E+00 0.74965743E+03</pdfrwt>
<totfact> 0.10088652E+00</totfact>
</mgrwt>
</event>
<event>
 4    5  0.8511149E-008  0.1718474E+04  0.7818608E-02  0.8769027E-01
         -2   -1    0    0    0  501 -0.00000000000E+00  0.00000000000E+00  0.15801795360E+04  0.15801795360E+04  0.25500000000E-02 0.  1.
          2   -1    0    0  501    0  0.00000000000E+00 -0.00000000000E+00 -0.24082491597E+04  0.24082491597E+04  0.25500000000E-02 0. -1.
    8880023    1    1    2    0    0 -0.72872718594E+03  0.14100708671E+04  0.62744192491E+03  0.18294361801E+04  0.65864270000E+03 0.  0.
    8880022    1    1    2    0    0  0.72872718594E+03 -0.14100708671E+04 -0.14555115486E+04  0.21589925157E+04  0.15294330000E+03 0.  0.
<mgrwt>
<rscale>  0 0.16866302E+04</rscale>
<asrwt>0</asrwt>
<pdfrwt beam="1">  1        2 0.37049987E+00 0.17184741E+04</pdfrwt>
<pdfrwt beam="2">  1       -2 0.24310454E+00 0.17184741E+04</pdfrwt>
<totfact> 0.25511555E-01</totfact>
</mgrwt>
</event>
<event>
 4    5  0.8511149E-008  0.7379733E+03  0.7818608E-02  0.9865890E-01
          2   -1    0    0  501    0  0.00000000000E+00  0.00000000000E+00  0.96505171412E+03  0.96505171412E+03  0.25500000000E-02 0. -1.
         -2   -1    0    0    0  501 -0.00000000000E+00 -0.00000000000E+00 -0.89519266683E+03  0.89519266683E+03  0.25500000000E-02 0.  1.
    8880023    1    1    2    0    0  0.32991683754E+03  0.44151112414E+02 -0.69403584930E+03  0.10130599226E+04  0.65864270000E+03 0.  1.
    8880022    1    1    2    0    0 -0.32991683754E+03 -0.44151112414E+02  0.76389489659E+03  0.84718445835E+03  0.15294330000E+03 0.  0.
<mgrwt>
<rscale>  0 0.61943243E+03</rscale>
<asrwt>0</asrwt>
<pdfrwt beam="1">  1        2 0.14846950E+00 0.73797334E+03</pdfrwt>
<pdfrwt beam="2">  1       -2 0.13772195E+00 0.73797334E+03</pdfrwt>
<totfact> 0.10132020E+01</totfact>
</mgrwt>
</event>
<event>
 4    5  0.8511149E-008  0.8506851E+03  0.7818608E-02  0.9610352E-01
          2   -1    0    0  501    0  0.00000000000E+00  0.00000000000E+00  0.21610121266E+04  0.21610121266E+04  0.25500000000E-02 0. -1.
         -2   -1    0    0    0  501 -0.00000000000E+00 -0.00000000000E+00 -0.16343003097E+04  0.16343003097E+04  0.25500000000E-02 0.  1.
    8880023    1    1    2    0    0  0.44721663748E+03  0.29975369556E+03 -0.14827037318E+04  0.17094079564E+04  0.65864270000E+03 0.  1.
    8880022    1    1    2    0    0 -0.44721663748E+03 -0.29975369556E+03  0.20094155487E+04  0.20859044799E+04  0.15294330000E+03 0.  0.
<mgrwt>
<rscale>  0 0.76614759E+03</rscale>
<asrwt>0</asrwt>
<pdfrwt beam="1">  1        2 0.33246340E+00 0.85068514E+03</pdfrwt>
<pdfrwt beam="2">  1       -2 0.25143082E+00 0.85068514E+03</pdfrwt>
<totfact> 0.35396188E-01</totfact>
</mgrwt>
</event>
<event>
 4    5  0.8511149E-008  0.1406712E+04  0.7818608E-02  0.8978485E-01
          2   -1    0    0  501    0  0.00000000000E+00  0.00000000000E+00  0.23468998551E+04  0.23468998551E+04  0.25500000000E-02 0. -1.
         -2   -1    0    0    0  501 -0.00000000000E+00 -0.00000000000E+00 -0.17718269796E+04  0.17718269796E+04  0.25500000000E-02 0.  1.
    8880023    1    1    2    0    0  0.11687685301E+04  0.42309393024E+03 -0.12657104502E+04  0.18923164378E+04  0.65864270000E+03 0.  0.
    8880022    1    1    2    0    0 -0.11687685301E+04 -0.42309393024E+03  0.18407833257E+04  0.22264103970E+04  0.15294330000E+03 0.  0.
<mgrwt>
<rscale>  0 0.13664278E+04</rscale>
<asrwt>0</asrwt>
<pdfrwt beam="1">  1        2 0.36106152E+00 0.14067120E+04</pdfrwt>
<pdfrwt beam="2">  1       -2 0.27258876E+00 0.14067120E+04</pdfrwt>
<totfact> 0.18903559E-01</totfact>
</mgrwt>
</event>
<event>
 4    5  0.8511149E-008  0.8999225E+03  0.7818608E-02  0.9526156E-01
         -2   -1    0    0    0  501 -0.00000000000E+00  0.00000000000E+00  0.79846980467E+03  0.79846980467E+03  0.25500000000E-02 0.  1.
          2   -1    0    0  501    0  0.00000000000E+00 -0.00000000000E+00 -0.22030674963E+04  0.22030674963E+04  0.25500000000E-02 0. -1.
    8880023    1    1    2    0    0  0.40049242752E+03  0.46438789981E+03  0.47566365804E+03  0.10178980439E+04  0.65864270000E+03 0.  1.
    8880022    1    1    2    0    0 -0.40049242752E+03 -0.46438789981E+03 -0.18802613497E+04  0.19836392571E+04  0.15294330000E+03 0.  0.
<mgrwt>
<rscale>  0 0.82382610E+03</rscale>
<asrwt>0</asrwt>
<pdfrwt beam="1">  1        2 0.33893346E+00 0.89992250E+03</pdfrwt>
<pdfrwt beam="2">  1       -2 0.12284151E+00 0.89992250E+03</pdfrwt>
<totfact> 0.26181183E+00</totfact>
</mgrwt>
</event>
<event>
 4    5  0.8511149E-008  0.7037568E+03  0.7818608E-02  0.9981959E-01
         -2   -1    0    0    0  501 -0.00000000000E+00  0.00000000000E+00  0.17547972319E+03  0.17547972321E+03  0.25500000000E-02 0.  1.
          2   -1    0    0  501    0  0.00000000000E+00 -0.00000000000E+00 -0.17303856362E+04  0.17303856362E+04  0.25500000000E-02 0. -1.
    8880023    1    1    2    0    0  0.20696647303E+03  0.13648565353E+03 -0.66028176918E+03  0.96501071266E+03  0.65864270000E+03 0.  0.
    8880022    1    1    2    0    0 -0.20696647303E+03 -0.13648565353E+03 -0.89462414382E+03  0.94085464675E+03  0.15294330000E+03 0.  0.
<mgrwt>
<rscale>  0 0.56448410E+03</rscale>
<asrwt>0</asrwt>
<pdfrwt beam="1">  1        2 0.26621316E+00 0.70375682E+03</pdfrwt>
<pdfrwt beam="2">  1       -2 0.26996882E-01 0.70375682E+03</pdfrwt>
<totfact> 0.12048211E+02</totfact>
</mgrwt>
</event>
<event>
 4    5  0.8511149E-008  0.8971795E+03  0.7818608E-02  0.9530575E-01
         -2   -1    0    0    0  501 -0.00000000000E+00  0.00000000000E+00  0.16480242860E+04  0.16480242860E+04  0.25500000000E-02 0.  1.
          2   -1    0    0  501    0  0.00000000000E+00 -0.00000000000E+00 -0.12837864533E+04  0.12837864533E+04  0.25500000000E-02 0. -1.
    8880023    1    1    2    0    0 -0.72490352756E+02 -0.60486855449E+03  0.14338545627E+04  0.16914106339E+04  0.65864270000E+03 0.  1.
    8880022    1    1    2    0    0  0.72490352756E+02  0.60486855449E+03 -0.10696167299E+04  0.12404001054E+04  0.15294330000E+03 0.  0.
<mgrwt>
<rscale>  0 0.82066723E+03</rscale>
<asrwt>0</asrwt>
<pdfrwt beam="1">  1        2 0.19750561E+00 0.89717948E+03</pdfrwt>
<pdfrwt beam="2">  1       -2 0.25354220E+00 0.89717948E+03</pdfrwt>
<totfact> 0.10460757E+00</totfact>
</mgrwt>
</event>
<event>
 4    5  0.8511149E-008  0.7288031E+03  0.7818608E-02  0.9893852E-01
          2   -1    0    0  501    0  0.00000000000E+00  0.00000000000E+00  0.16686261228E+04  0.16686261228E+04  0.25500000000E-02 0. -1.
         -2   -1    0    0    0  501 -0.00000000000E+00 -0.00000000000E+00 -0.84742691400E+03  0.84742691401E+03  0.25500000000E-02 0.  1.
    8880023    1    1    2    0    0  0.66948150931E+02  0.30473211373E+03 -0.66692661476E+03  0.98789930246E+03  0.65864270000E+03 0.  1.
    8880022    1    1    2    0    0 -0.66948150931E+02 -0.30473211373E+03  0.14881258236E+04  0.15281537344E+04  0.15294330000E+03 0.  0.
<mgrwt>
<rscale>  0 0.60560153E+03</rscale>
<asrwt>0</asrwt>
<pdfrwt beam="1">  1        2 0.25671171E+00 0.72880308E+03</pdfrwt>
<pdfrwt beam="2">  1       -2 0.13037337E+00 0.72880308E+03</pdfrwt>
<totfact> 0.45447509E+00</totfact>
</mgrwt>
</event>
<event>
 4    5  0.8511149E-008  0.1060204E+04  0.7818608E-02  0.9306714E-01
         -2   -1    0    0    0  501 -0.00000000000E+00  0.00000000000E+00  0.42508090533E+03  0.42508090534E+03  0.25500000000E-02 0.  1.
          2   -1    0    0  501    0  0.00000000000E+00 -0.00000000000E+00 -0.30142896388E+04  0.30142896388E+04  0.25500000000E-02 0. -1.
    8880023    1    1    2    0    0 -0.32735128314E+03  0.76358572544E+03 -0.47328090973E+03  0.11610456703E+04  0.65864270000E+03 0.  1.
    8880022    1    1    2    0    0  0.32735128314E+03 -0.76358572544E+03 -0.21159278238E+04  0.22783248739E+04  0.15294330000E+03 0.  0.
<mgrwt>
<rscale>  0 0.10016706E+04</rscale>
<asrwt>0</asrwt>
<pdfrwt beam="1">  1        2 0.46373686E+00 0.10602039E+04</pdfrwt>
<pdfrwt beam="2">  1       -2 0.65397064E-01 0.10602039E+04</pdfrwt>
<totfact> 0.37263507E+00</totfact>
</mgrwt>
</event>
<event>
 4    5  0.8511149E-008  0.7602317E+03  0.7818608E-02  0.9804508E-01
         -2   -1    0    0    0  501 -0.00000000000E+00  0.00000000000E+00  0.22616094666E+03  0.22616094667E+03  0.25500000000E-02 0.  1.
          2   -1    0    0  501    0  0.00000000000E+00 -0.00000000000E+00 -0.37185379616E+04  0.37185379616E+04  0.25500000000E-02 0. -1.
    8880023    1    1    2    0    0 -0.64480808898E+02 -0.37414467393E+03 -0.46796763499E+03  0.89271827886E+03  0.65864270000E+03 0.  1.
    8880022    1    1    2    0    0  0.64480808898E+02  0.37414467393E+03 -0.30244093800E+04  0.30519806294E+04  0.15294330000E+03 0.  0.
<mgrwt>
<rscale>  0 0.65121176E+03</rscale>
<asrwt>0</asrwt>
<pdfrwt beam="1">  1        2 0.57208272E+00 0.76023169E+03</pdfrwt>
<pdfrwt beam="2">  1       -2 0.34793994E-01 0.76023169E+03</pdfrwt>
<totfact> 0.47763700E+00</totfact>
</mgrwt>
</event>
<event>
 4    5  0.8511149E-008  0.7650948E+03  0.7818608E-02  0.9792092E-01
         -2   -1    0    0    0  501 -0.00000000000E+00  0.00000000000E+00  0.55866175862E+03  0.55866175862E+03  0.25500000000E-02 0.  1.
          2   -1    0    0  501    0  0.00000000000E+00 -0.00000000000E+00 -0.12358323554E+04  0.12358323554E+04  0.25500000000E-02 0. -1.
    8880023    1    1    2    0    0 -0.16589759085E+03 -0.35219012130E+03  0.22717080740E+03  0.79810818451E+03  0.65864270000E+03 0.  1.
    8880022    1    1    2    0    0  0.16589759085E+03  0.35219012130E+03 -0.90434140418E+03  0.99638592951E+03  0.15294330000E+03 0.  0.
<mgrwt>
<rscale>  0 0.65788680E+03</rscale>
<asrwt>0</asrwt>
<pdfrwt beam="1">  1        2 0.19012805E+00 0.76509483E+03</pdfrwt>
<pdfrwt beam="2">  1       -2 0.85947963E-01 0.76509483E+03</pdfrwt>
<totfact> 0.21562787E+01</totfact>
</mgrwt>
</event>
<event>
 4    5  0.8511149E-008  0.7126567E+03  0.7818608E-02  0.9948265E-01
          2   -1    0    0  501    0  0.00000000000E+00  0.00000000000E+00  0.10234937278E+04  0.10234937278E+04  0.25500000000E-02 0. -1.
         -2   -1    0    0    0  501 -0.00000000000E+00 -0.00000000000E+00 -0.55440915805E+03  0.55440915806E+03  0.25500000000E-02 0.  1.
    8880023    1    1    2    0    0  0.18757410521E+03 -0.19719367039E+03 -0.28052682431E+03  0.76588177548E+03  0.65864270000E+03 0.  1.
    8880022    1    1    2    0    0 -0.18757410521E+03  0.19719367039E+03  0.74961139409E+03  0.81202111041E+03  0.15294330000E+03 0.  0.
<mgrwt>
<rscale>  0 0.57978125E+03</rscale>
<asrwt>0</asrwt>
<pdfrwt beam="1">  1        2 0.15746057E+00 0.71265672E+03</pdfrwt>
<pdfrwt beam="2">  1       -2 0.85293717E-01 0.71265672E+03</pdfrwt>
<totfact> 0.29675435E+01</totfact>
</mgrwt>
</event>
<event>
 4    5  0.8511149E-008  0.7625810E+03  0.7818608E-02  0.9798471E-01
         -2   -1    0    0    0  501 -0.00000000000E+00  0.00000000000E+00  0.81430111074E+03  0.81430111074E+03  0.25500000000E-02 0.  1.
          2   -1    0    0  501    0  0.00000000000E+00 -0.00000000000E+00 -0.50319991623E+03  0.50319991624E+03  0.25500000000E-02 0. -1.
    8880023    1    1    2    0    0 -0.38418281850E+03  0.11098212489E+02  0.44474067541E+03  0.88279334104E+03  0.65864270000E+03 0.  0.
    8880022    1    1    2    0    0  0.38418281850E+03 -0.11098212489E+02 -0.13363948090E+03  0.43470768594E+03  0.15294330000E+03 0.  0.
<mgrwt>
<rscale>  0 0.65444676E+03</rscale>
<asrwt>0</asrwt>
<pdfrwt beam="1">  1        2 0.77415372E-01 0.76258102E+03</pdfrwt>
<pdfrwt beam="2">  1       -2 0.12527709E+00 0.76258102E+03</pdfrwt>
<totfact> 0.29477130E+01</totfact>
</mgrwt>
</event>
<event>
 4    5  0.8511149E-008  0.6626503E+03  0.7818608E-02  0.1021592E+00
         -2   -1    0    0    0  501 -0.00000000000E+00  0.00000000000E+00  0.27452866990E+03  0.27452866992E+03  0.25500000000E-02 0.  1.
          2   -1    0    0  501    0  0.00000000000E+00 -0.00000000000E+00 -0.81477961554E+03  0.81477961554E+03  0.25500000000E-02 0. -1.
    8880023    1    1    2    0    0 -0.68159183481E+02  0.25485538343E+02 -0.17296675816E+03  0.68485246050E+03  0.65864270000E+03 0.  1.
    8880022    1    1    2    0    0  0.68159183481E+02 -0.25485538343E+02 -0.36728418748E+03  0.40445582496E+03  0.15294330000E+03 0.  0.
<mgrwt>
<rscale>  0 0.47116566E+03</rscale>
<asrwt>0</asrwt>
<pdfrwt beam="1">  1        2 0.12535071E+00 0.66265028E+03</pdfrwt>
<pdfrwt beam="2">  1       -2 0.42235180E-01 0.66265028E+03</pdfrwt>
<totfact> 0.18130982E+02</totfact>
</mgrwt>
</event>
<event>
 4    5  0.9496090E-008  0.9857059E+03  0.7818608E-02  0.9400502E-01
         -2   -1    0    0    0  501 -0.00000000000E+00  0.00000000000E+00  0.11739231700E+04  0.11739231700E+04  0.25500000000E-02 0.  1.
          2   -1    0    0  501    0  0.00000000000E+00 -0.00000000000E+00 -0.28414947676E+04  0.28414947676E+04  0.25500000000E-02 0. -1.
    8880023    1    1    2    0    0 -0.23423219510E+03  0.69493964845E+03  0.90368218504E+03  0.13372574674E+04  0.65864270000E+03 0.  1.
    8880022    1    1    2    0    0  0.23423219510E+03 -0.69493964845E+03 -0.25712537826E+04  0.26781604702E+04  0.15294330000E+03 0.  0.
<mgrwt>
<rscale>  0 0.92034354E+03</rscale>
<asrwt>0</asrwt>
<pdfrwt beam="1">  1        2 0.43715304E+00 0.98570586E+03</pdfrwt>
<pdfrwt beam="2">  1       -2 0.18060357E+00 0.98570586E+03</pdfrwt>
<totfact> 0.39800995E-01</totfact>
</mgrwt>
</event>
<event>
 4    5  0.8511149E-008  0.7259291E+03  0.7818608E-02  0.9903012E-01
         -2   -1    0    0    0  501 -0.00000000000E+00  0.00000000000E+00  0.20443488199E+03  0.20443488200E+03  0.25500000000E-02 0.  1.
          2   -1    0    0  501    0  0.00000000000E+00 -0.00000000000E+00 -0.24579279213E+04  0.24579279213E+04  0.25500000000E-02 0. -1.
    8880023    1    1    2    0    0  0.28109326570E+03 -0.11895126917E+03 -0.51348697372E+03  0.88918046925E+03  0.65864270000E+03 0.  1.
    8880022    1    1    2    0    0 -0.28109326570E+03  0.11895126917E+03 -0.17400060656E+04  0.17731823340E+04  0.15294330000E+03 0.  0.
<mgrwt>
<rscale>  0 0.60115542E+03</rscale>
<asrwt>0</asrwt>
<pdfrwt beam="1">  1        2 0.37814274E+00 0.72592908E+03</pdfrwt>
<pdfrwt beam="2">  1       -2 0.31451522E-01 0.72592908E+03</pdfrwt>
<totfact> 0.36100207E+01</totfact>
</mgrwt>
</event>
<event>
 4    5  0.8511149E-008  0.6667380E+03  0.7818608E-02  0.1018118E+00
          2   -1    0    0  501    0  0.00000000000E+00  0.00000000000E+00  0.20814965713E+04  0.20814965713E+04  0.25500000000E-02 0. -1.
         -2   -1    0    0    0  501 -0.00000000000E+00 -0.00000000000E+00 -0.72935690099E+03  0.72935690100E+03  0.25500000000E-02 0.  1.
    8880023    1    1    2    0    0 -0.65419025793E+02  0.80309933097E+02 -0.57162926529E+03  0.87823661817E+03  0.65864270000E+03 0.  0.
    8880022    1    1    2    0    0  0.65419025793E+02 -0.80309933097E+02  0.19237689356E+04  0.19326168541E+04  0.15294330000E+03 0.  0.
<mgrwt>
<rscale>  0 0.48372006E+03</rscale>
<asrwt>0</asrwt>
<pdfrwt beam="1">  1        2 0.32023023E+00 0.66673798E+03</pdfrwt>
<pdfrwt beam="2">  1       -2 0.11220876E+00 0.66673798E+03</pdfrwt>
<totfact> 0.39722594E+00</totfact>
</mgrwt>
</event>
<event>
 4    5  0.1189803E-007  0.1044084E+04  0.7818608E-02  0.9326027E-01
         -2   -1    0    0    0  501 -0.00000000000E+00  0.00000000000E+00  0.17801651504E+04  0.17801651505E+04  0.25500000000E-02 0.  1.
          2   -1    0    0  501    0  0.00000000000E+00 -0.00000000000E+00 -0.19742933912E+04  0.19742933912E+04  0.25500000000E-02 0. -1.
    8880023    1    1    2    0    0  0.46186348749E+02 -0.80880641493E+03  0.15248234329E+04  0.18480253525E+04  0.65864270000E+03 0.  1.
    8880022    1    1    2    0    0 -0.46186348749E+02  0.80880641493E+03 -0.17189516736E+04  0.19064331892E+04  0.15294330000E+03 0.  0.
<mgrwt>
<rscale>  0 0.98421646E+03</rscale>
<asrwt>0</asrwt>
<pdfrwt beam="1">  1        2 0.30373745E+00 0.10440839E+04</pdfrwt>
<pdfrwt beam="2">  1       -2 0.27387156E+00 0.10440839E+04</pdfrwt>
<totfact> 0.31644266E-01</totfact>
</mgrwt>
</event>
<event>
 4    5  0.8511149E-008  0.9122741E+03  0.7818608E-02  0.9506608E-01
          2   -1    0    0  501    0  0.00000000000E+00  0.00000000000E+00  0.90867414735E+03  0.90867414736E+03  0.25500000000E-02 0. -1.
         -2   -1    0    0    0  501 -0.00000000000E+00 -0.00000000000E+00 -0.12036339708E+04  0.12036339708E+04  0.25500000000E-02 0.  1.
    8880023    1    1    2    0    0  0.63120547157E+03  0.36681095812E+01 -0.85829045424E+03  0.12525599836E+04  0.65864270000E+03 0.  0.
    8880022    1    1    2    0    0 -0.63120547157E+03 -0.36681095812E+01  0.56333063077E+03  0.85974813460E+03  0.15294330000E+03 0.  0.
<mgrwt>
<rscale>  0 0.83798376E+03</rscale>
<asrwt>0</asrwt>
<pdfrwt beam="1">  1        2 0.13979602E+00 0.91227409E+03</pdfrwt>
<pdfrwt beam="2">  1       -2 0.18517446E+00 0.91227409E+03</pdfrwt>
<totfact> 0.48381833E+00</totfact>
</mgrwt>
</event>
<event>
 4    5  0.8511149E-008  0.1223229E+04  0.7818608E-02  0.9134866E-01
         -2   -1    0    0    0  501 -0.00000000000E+00  0.00000000000E+00  0.90393658137E+03  0.90393658137E+03  0.25500000000E-02 0.  1.
          2   -1    0    0  501    0  0.00000000000E+00 -0.00000000000E+00 -0.21934052106E+04  0.21934052106E+04  0.25500000000E-02 0. -1.
    8880023    1    1    2    0    0 -0.10214630768E+04 -0.13817804207E+03  0.24007408681E+03  0.12465655867E+04  0.65864270000E+03 0.  0.
    8880022    1    1    2    0    0  0.10214630768E+04  0.13817804207E+03 -0.15295427160E+04  0.18507762052E+04  0.15294330000E+03 0.  0.
<mgrwt>
<rscale>  0 0.11751769E+04</rscale>
<asrwt>0</asrwt>
<pdfrwt beam="1">  1        2 0.33744695E+00 0.12232294E+04</pdfrwt>
<pdfrwt beam="2">  1       -2 0.13906717E+00 0.12232294E+04</pdfrwt>
<totfact> 0.18519956E+00</totfact>
</mgrwt>
</event>
<event>
 4    5  0.8511149E-008  0.7146446E+03  0.7818608E-02  0.9941142E-01
          2   -1    0    0  501    0  0.00000000000E+00  0.00000000000E+00  0.12976716641E+04  0.12976716642E+04  0.25500000000E-02 0. -1.
         -2   -1    0    0    0  501 -0.00000000000E+00 -0.00000000000E+00 -0.72558366612E+03  0.72558366612E+03  0.25500000000E-02 0.  1.
    8880023    1    1    2    0    0 -0.10381332115E+03  0.25715642903E+03 -0.52152678727E+03  0.88470731360E+03  0.65864270000E+03 0.  0.
    8880022    1    1    2    0    0  0.10381332115E+03 -0.25715642903E+03  0.10936147853E+04  0.11385480167E+04  0.15294330000E+03 0. -1.
<mgrwt>
<rscale>  0 0.58308149E+03</rscale>
<asrwt>0</asrwt>
<pdfrwt beam="1">  1        2 0.19964179E+00 0.71464456E+03</pdfrwt>
<pdfrwt beam="2">  1       -2 0.11162826E+00 0.71464456E+03</pdfrwt>
<totfact> 0.10786146E+01</totfact>
</mgrwt>
</event>
<event>
 4    5  0.8511149E-008  0.1619026E+04  0.7818608E-02  0.8829861E-01
          2   -1    0    0  501    0  0.00000000000E+00  0.00000000000E+00  0.35666106343E+04  0.35666106343E+04  0.25500000000E-02 0. -1.
         -2   -1    0    0    0  501 -0.00000000000E+00 -0.00000000000E+00 -0.75850652973E+03  0.75850652973E+03  0.25500000000E-02 0.  1.
    8880023    1    1    2    0    0 -0.33961919976E+02  0.14786083001E+04  0.74542379523E+03  0.17823868149E+04  0.65864270000E+03 0.  0.
    8880022    1    1    2    0    0  0.33961919976E+02 -0.14786083001E+04  0.20626803093E+04  0.25427303492E+04  0.15294330000E+03 0.  0.
<mgrwt>
<rscale>  0 0.15849289E+04</rscale>
<asrwt>0</asrwt>
<pdfrwt beam="1">  1        2 0.54870932E+00 0.16190263E+04</pdfrwt>
<pdfrwt beam="2">  1       -2 0.11669331E+00 0.16190263E+04</pdfrwt>
<totfact> 0.39276327E-01</totfact>
</mgrwt>
</event>
<event>
 4    5  0.8511149E-008  0.1000421E+04  0.7818608E-02  0.9381007E-01
          2   -1    0    0  501    0  0.00000000000E+00  0.00000000000E+00  0.13564710980E+04  0.13564710980E+04  0.25500000000E-02 0. -1.
         -2   -1    0    0    0  501 -0.00000000000E+00 -0.00000000000E+00 -0.10104555435E+04  0.10104555435E+04  0.25500000000E-02 0.  1.
    8880023    1    1    2    0    0 -0.73805878752E+03 -0.14933694904E+03 -0.58567973509E+03  0.11592511620E+04  0.65864270000E+03 0.  0.
    8880022    1    1    2    0    0  0.73805878752E+03  0.14933694904E+03  0.93169528955E+03  0.12076754795E+04  0.15294330000E+03 0.  0.
<mgrwt>
<rscale>  0 0.93655362E+03</rscale>
<asrwt>0</asrwt>
<pdfrwt beam="1">  1        2 0.20868786E+00 0.10004212E+04</pdfrwt>
<pdfrwt beam="2">  1       -2 0.15545470E+00 0.10004212E+04</pdfrwt>
<totfact> 0.41407978E+00</totfact>
</mgrwt>
</event>
<event>
 4    5  0.8511149E-008  0.9657124E+03  0.7818608E-02  0.9427859E-01
         -2   -1    0    0    0  501 -0.00000000000E+00  0.00000000000E+00  0.18951195238E+04  0.18951195238E+04  0.25500000000E-02 0.  1.
          2   -1    0    0  501    0  0.00000000000E+00 -0.00000000000E+00 -0.13890444433E+04  0.13890444433E+04  0.25500000000E-02 0. -1.
    8880023    1    1    2    0    0  0.26510095343E+03  0.65460802466E+03  0.16612730655E+04  0.19215693029E+04  0.65864270000E+03 0.  0.
    8880022    1    1    2    0    0 -0.26510095343E+03 -0.65460802466E+03 -0.11551979850E+04  0.13625946642E+04  0.15294330000E+03 0.  0.
<mgrwt>
<rscale>  0 0.89818039E+03</rscale>
<asrwt>0</asrwt>
<pdfrwt beam="1">  1        2 0.21369915E+00 0.96571237E+03</pdfrwt>
<pdfrwt beam="2">  1       -2 0.29155685E+00 0.96571237E+03</pdfrwt>
<totfact> 0.53025641E-01</totfact>
</mgrwt>
</event>
<event>
 4    5  0.8511149E-008  0.2075554E+04  0.7818608E-02  0.8583712E-01
         -2   -1    0    0    0  501 -0.00000000000E+00  0.00000000000E+00  0.21099095431E+04  0.21099095431E+04  0.25500000000E-02 0.  1.
          2   -1    0    0  501    0  0.00000000000E+00 -0.00000000000E+00 -0.26985334396E+04  0.26985334396E+04  0.25500000000E-02 0. -1.
    8880023    1    1    2    0    0  0.19682727985E+04  0.42302096556E+01  0.97200748906E+03  0.22918822982E+04  0.65864270000E+03 0.  0.
    8880022    1    1    2    0    0 -0.19682727985E+04 -0.42302096556E+01 -0.15606313856E+04  0.25165606845E+04  0.15294330000E+03 0.  0.
<mgrwt>
<rscale>  0 0.20497408E+04</rscale>
<asrwt>0</asrwt>
<pdfrwt beam="1">  1        2 0.41515899E+00 0.20755544E+04</pdfrwt>
<pdfrwt beam="2">  1       -2 0.32460147E+00 0.20755544E+04</pdfrwt>
<totfact> 0.52355294E-02</totfact>
</mgrwt>
</event>
<event>
 4    5  0.1214398E-007  0.1089240E+04  0.7818608E-02  0.9273132E-01
         -2   -1    0    0    0  501 -0.00000000000E+00  0.00000000000E+00  0.18282595253E+04  0.18282595253E+04  0.25500000000E-02 0.  1.
          2   -1    0    0  501    0  0.00000000000E+00 -0.00000000000E+00 -0.23196238249E+04  0.23196238249E+04  0.25500000000E-02 0. -1.
    8880023    1    1    2    0    0 -0.86136211699E+03 -0.10338235936E+03  0.15673164658E+04  0.19086444716E+04  0.65864270000E+03 0.  0.
    8880022    1    1    2    0    0  0.86136211699E+03  0.10338235936E+03 -0.20586807653E+04  0.22392388786E+04  0.15294330000E+03 0.  0.
<mgrwt>
<rscale>  0 0.10329444E+04</rscale>
<asrwt>0</asrwt>
<pdfrwt beam="1">  1        2 0.35686520E+00 0.10892396E+04</pdfrwt>
<pdfrwt beam="2">  1       -2 0.28127070E+00 0.10892396E+04</pdfrwt>
<totfact> 0.18205166E-01</totfact>
</mgrwt>
</event>
<event>
 4    5  0.8511149E-008  0.1080821E+04  0.7818608E-02  0.9282716E-01
         -2   -1    0    0    0  501 -0.00000000000E+00  0.00000000000E+00  0.55751487735E+03  0.55751487735E+03  0.25500000000E-02 0.  1.
          2   -1    0    0  501    0  0.00000000000E+00 -0.00000000000E+00 -0.52141752539E+04  0.52141752539E+04  0.25500000000E-02 0. -1.
    8880023    1    1    2    0    0  0.78755825496E+03 -0.33780986694E+03 -0.48368734896E+02  0.10819026074E+04  0.65864270000E+03 0.  1.
    8880022    1    1    2    0    0 -0.78755825496E+03  0.33780986694E+03 -0.46082916416E+04  0.46897875238E+04  0.15294330000E+03 0.  0.
<mgrwt>
<rscale>  0 0.10238973E+04</rscale>
<asrwt>0</asrwt>
<pdfrwt beam="1">  1        2 0.80218077E+00 0.10808209E+04</pdfrwt>
<pdfrwt beam="2">  1       -2 0.85771523E-01 0.10808209E+04</pdfrwt>
<totfact> 0.22738142E-02</totfact>
</mgrwt>
</event>
<event>
 4    5  0.8511149E-008  0.8103179E+03  0.7818608E-02  0.9688915E-01
         -2   -1    0    0    0  501 -0.00000000000E+00  0.00000000000E+00  0.32850675732E+03  0.32850675733E+03  0.25500000000E-02 0.  1.
          2   -1    0    0  501    0  0.00000000000E+00 -0.00000000000E+00 -0.16153463634E+04  0.16153463634E+04  0.25500000000E-02 0. -1.
    8880023    1    1    2    0    0  0.15029137371E+03 -0.44745663931E+03 -0.34784391399E+03  0.88182228132E+03  0.65864270000E+03 0.  0.
    8880022    1    1    2    0    0 -0.15029137371E+03  0.44745663931E+03 -0.93899569212E+03  0.10620308394E+04  0.15294330000E+03 0.  0.
<mgrwt>
<rscale>  0 0.71680635E+03</rscale>
<asrwt>0</asrwt>
<pdfrwt beam="1">  1        2 0.24851482E+00 0.81031793E+03</pdfrwt>
<pdfrwt beam="2">  1       -2 0.50539502E-01 0.81031793E+03</pdfrwt>
<totfact> 0.41188797E+01</totfact>
</mgrwt>
</event>
<event>
 4    5  0.8511149E-008  0.7877495E+03  0.7818608E-02  0.9737938E-01
         -2   -1    0    0    0  501 -0.00000000000E+00  0.00000000000E+00  0.33856795932E+03  0.33856795933E+03  0.25500000000E-02 0.  1.
          2   -1    0    0  501    0  0.00000000000E+00 -0.00000000000E+00 -0.26477935799E+04  0.26477935799E+04  0.25500000000E-02 0. -1.
    8880023    1    1    2    0    0 -0.25287754796E+03 -0.35041687555E+03 -0.17960577723E+03  0.80796502549E+03  0.65864270000E+03 0.  1.
    8880022    1    1    2    0    0  0.25287754796E+03  0.35041687555E+03 -0.21296198434E+04  0.21783965138E+04  0.15294330000E+03 0.  0.
<mgrwt>
<rscale>  0 0.68802193E+03</rscale>
<asrwt>0</asrwt>
<pdfrwt beam="1">  1        2 0.40735285E+00 0.78774948E+03</pdfrwt>
<pdfrwt beam="2">  1       -2 0.52087380E-01 0.78774948E+03</pdfrwt>
<totfact> 0.10381502E+01</totfact>
</mgrwt>
</event>
<event>
 4    5  0.8511149E-008  0.1113503E+04  0.7818608E-02  0.9246169E-01
         -2   -1    0    0    0  501 -0.00000000000E+00  0.00000000000E+00  0.15599818268E+04  0.15599818268E+04  0.25500000000E-02 0.  1.
          2   -1    0    0  501    0  0.00000000000E+00 -0.00000000000E+00 -0.14472094811E+04  0.14472094811E+04  0.25500000000E-02 0. -1.
    8880023    1    1    2    0    0 -0.33163419316E+03  0.83432514468E+03  0.11677012237E+04  0.16135104708E+04  0.65864270000E+03 0.  0.
    8880022    1    1    2    0    0  0.33163419316E+03 -0.83432514468E+03 -0.10549288780E+04  0.13936808372E+04  0.15294330000E+03 0.  0.
<mgrwt>
<rscale>  0 0.10589339E+04</rscale>
<asrwt>0</asrwt>
<pdfrwt beam="1">  1        2 0.22264761E+00 0.11135034E+04</pdfrwt>
<pdfrwt beam="2">  1       -2 0.23999720E+00 0.11135034E+04</pdfrwt>
<totfact> 0.98888632E-01</totfact>
</mgrwt>
</event>
<event>
 4    5  0.8511149E-008  0.1391582E+04  0.7818608E-02  0.8990252E-01
          2   -1    0    0  501    0  0.00000000000E+00  0.00000000000E+00  0.20338862768E+04  0.20338862768E+04  0.25500000000E-02 0. -1.
         -2   -1    0    0    0  501 -0.00000000000E+00 -0.00000000000E+00 -0.11223777753E+04  0.11223777753E+04  0.25500000000E-02 0.  1.
    8880023    1    1    2    0    0  0.38644770102E+03  0.11633350234E+04 -0.30267687183E+03  0.14241185685E+04  0.65864270000E+03 0.  0.
    8880022    1    1    2    0    0 -0.38644770102E+03 -0.11633350234E+04  0.12141853733E+04  0.17321454835E+04  0.15294330000E+03 0.  0.
<mgrwt>
<rscale>  0 0.13507620E+04</rscale>
<asrwt>0</asrwt>
<pdfrwt beam="1">  1        2 0.31290558E+00 0.13915820E+04</pdfrwt>
<pdfrwt beam="2">  1       -2 0.17267351E+00 0.13915820E+04</pdfrwt>
<totfact> 0.12423768E+00</totfact>
</mgrwt>
</event>
<event>
 4    5  0.8511149E-008  0.6939537E+03  0.7818608E-02  0.1002327E+00
         -2   -1    0    0    0  501 -0.00000000000E+00  0.00000000000E+00  0.39249220814E+03  0.39249220815E+03  0.25500000000E-02 0.  1.
          2   -1    0    0  501    0  0.00000000000E+00 -0.00000000000E+00 -0.10029541014E+04  0.10029541014E+04  0.25500000000E-02 0. -1.
    8880023    1    1    2    0    0  0.64632606635E+02  0.20876812800E+03  0.37255416486E+02  0.69495300376E+03  0.65864270000E+03 0.  1.
    8880022    1    1    2    0    0 -0.64632606635E+02 -0.20876812800E+03 -0.64771730970E+03  0.70049330575E+03  0.15294330000E+03 0.  0.
<mgrwt>
<rscale>  0 0.54641440E+03</rscale>
<asrwt>0</asrwt>
<pdfrwt beam="1">  1        2 0.15430063E+00 0.69395368E+03</pdfrwt>
<pdfrwt beam="2">  1       -2 0.60383417E-01 0.69395368E+03</pdfrwt>
<totfact> 0.65349463E+01</totfact>
</mgrwt>
</event>
<event>
 4    5  0.8511149E-008  0.7394433E+03  0.7818608E-02  0.9861572E-01
          2   -1    0    0  501    0  0.00000000000E+00  0.00000000000E+00  0.52854309042E+03  0.52854309043E+03  0.25500000000E-02 0. -1.
         -2   -1    0    0    0  501 -0.00000000000E+00 -0.00000000000E+00 -0.65062933191E+03  0.65062933192E+03  0.25500000000E-02 0.  1.
    8880023    1    1    2    0    0 -0.33600552289E+03 -0.81503080607E+01 -0.26171032041E+03  0.78439061507E+03  0.65864270000E+03 0.  1.
    8880022    1    1    2    0    0  0.33600552289E+03  0.81503080607E+01  0.13962407892E+03  0.39478180728E+03  0.15294330000E+03 0.  0.
<mgrwt>
<rscale>  0 0.62160377E+03</rscale>
<asrwt>0</asrwt>
<pdfrwt beam="1">  1        2 0.81314322E-01 0.73944327E+03</pdfrwt>
<pdfrwt beam="2">  1       -2 0.10009682E+00 0.73944327E+03</pdfrwt>
<totfact> 0.48155774E+01</totfact>
</mgrwt>
</event>
<event>
 4    5  0.8511149E-008  0.6689329E+03  0.7818608E-02  0.1016440E+00
          2   -1    0    0  501    0  0.00000000000E+00  0.00000000000E+00  0.17925866582E+04  0.17925866582E+04  0.25500000000E-02 0. -1.
         -2   -1    0    0    0  501 -0.00000000000E+00 -0.00000000000E+00 -0.16701092032E+03  0.16701092034E+03  0.25500000000E-02 0.  1.
    8880023    1    1    2    0    0  0.67733286766E+02  0.95253785514E+02  0.54736112508E+03  0.86433528755E+03  0.65864270000E+03 0.  0.
    8880022    1    1    2    0    0 -0.67733286766E+02 -0.95253785514E+02  0.10782146128E+04  0.10952622910E+04  0.15294330000E+03 0. -1.
<mgrwt>
<rscale>  0 0.48993614E+03</rscale>
<asrwt>0</asrwt>
<pdfrwt beam="1">  1        2 0.27578257E+00 0.66893295E+03</pdfrwt>
<pdfrwt beam="2">  1       -2 0.25693987E-01 0.66893295E+03</pdfrwt>
<totfact> 0.12235680E+02</totfact>
</mgrwt>
</event>
<event>
 4    5  0.8511149E-008  0.7174892E+03  0.7818608E-02  0.9931175E-01
         -2   -1    0    0    0  501 -0.00000000000E+00  0.00000000000E+00  0.84184690927E+03  0.84184690928E+03  0.25500000000E-02 0.  1.
          2   -1    0    0  501    0  0.00000000000E+00 -0.00000000000E+00 -0.70266660537E+03  0.70266660538E+03  0.25500000000E-02 0. -1.
    8880023    1    1    2    0    0  0.23339441554E+03 -0.16281170011E+03  0.63139477276E+03  0.95574587011E+03  0.65864270000E+03 0.  1.
    8880022    1    1    2    0    0 -0.23339441554E+03  0.16281170011E+03 -0.49221446886E+03  0.58876764455E+03  0.15294330000E+03 0.  0.
<mgrwt>
<rscale>  0 0.58773923E+03</rscale>
<asrwt>0</asrwt>
<pdfrwt beam="1">  1        2 0.10810255E+00 0.71748924E+03</pdfrwt>
<pdfrwt beam="2">  1       -2 0.12951491E+00 0.71748924E+03</pdfrwt>
<totfact> 0.18187908E+01</totfact>
</mgrwt>
</event>
<event>
 4    5  0.8511149E-008  0.2262186E+04  0.7818608E-02  0.8502503E-01
          2   -1    0    0  501    0  0.00000000000E+00  0.00000000000E+00  0.13127239524E+04  0.13127239524E+04  0.25500000000E-02 0. -1.
         -2   -1    0    0    0  501 -0.00000000000E+00 -0.00000000000E+00 -0.37413128680E+04  0.37413128680E+04  0.25500000000E-02 0.  1.
    8880023    1    1    2    0    0 -0.13990577124E+04 -0.16511552782E+04 -0.12787896935E+04  0.25986129996E+04  0.65864270000E+03 0. -1.
    8880022    1    1    2    0    0  0.13990577124E+04  0.16511552782E+04 -0.11497992220E+04  0.24554238207E+04  0.15294330000E+03 0.  1.
<mgrwt>
<rscale>  0 0.22386700E+04</rscale>
<asrwt>0</asrwt>
<pdfrwt beam="1">  1        2 0.20195753E+00 0.22621862E+04</pdfrwt>
<pdfrwt beam="2">  1       -2 0.57558659E+00 0.22621862E+04</pdfrwt>
<totfact> 0.89252753E-03</totfact>
</mgrwt>
</event>
<event>
 4    5  0.8511149E-008  0.7802101E+03  0.7818608E-02  0.9755344E-01
          2   -1    0    0  501    0  0.00000000000E+00  0.00000000000E+00  0.31051818794E+04  0.31051818794E+04  0.25500000000E-02 0. -1.
         -2   -1    0    0    0  501 -0.00000000000E+00 -0.00000000000E+00 -0.66240947751E+03  0.66240947751E+03  0.25500000000E-02 0.  1.
    8880023    1    1    2    0    0  0.37176584326E+03  0.19159280372E+03 -0.40923769986E+03  0.88102403253E+03  0.65864270000E+03 0.  1.
    8880022    1    1    2    0    0 -0.37176584326E+03 -0.19159280372E+03  0.28520101018E+04  0.28865673244E+04  0.15294330000E+03 0.  0.
<mgrwt>
<rscale>  0 0.67815126E+03</rscale>
<asrwt>0</asrwt>
<pdfrwt beam="1">  1        2 0.47772029E+00 0.78021013E+03</pdfrwt>
<pdfrwt beam="2">  1       -2 0.10190915E+00 0.78021013E+03</pdfrwt>
<totfact> 0.12557972E+00</totfact>
</mgrwt>
</event>
<event>
 4    5  0.8511149E-008  0.8905987E+03  0.7818608E-02  0.9541295E-01
         -2   -1    0    0    0  501 -0.00000000000E+00  0.00000000000E+00  0.28614032785E+03  0.28614032786E+03  0.25500000000E-02 0.  1.
          2   -1    0    0  501    0  0.00000000000E+00 -0.00000000000E+00 -0.24391897950E+04  0.24391897950E+04  0.25500000000E-02 0. -1.
    8880023    1    1    2    0    0 -0.59903643242E+03 -0.22611490636E+02 -0.65792843471E+03  0.11072650804E+04  0.65864270000E+03 0.  1.
    8880022    1    1    2    0    0  0.59903643242E+03  0.22611490636E+02 -0.14951210324E+04  0.16180650424E+04  0.15294330000E+03 0.  0.
<mgrwt>
<rscale>  0 0.81306566E+03</rscale>
<asrwt>0</asrwt>
<pdfrwt beam="1">  1        2 0.37525995E+00 0.89059875E+03</pdfrwt>
<pdfrwt beam="2">  1       -2 0.44021590E-01 0.89059875E+03</pdfrwt>
<totfact> 0.18919411E+01</totfact>
</mgrwt>
</event>
<event>
 4    5  0.8511149E-008  0.8188825E+03  0.7818608E-02  0.9671364E-01
          2   -1    0    0  501    0  0.00000000000E+00  0.00000000000E+00  0.14544058593E+04  0.14544058593E+04  0.25500000000E-02 0. -1.
         -2   -1    0    0    0  501 -0.00000000000E+00 -0.00000000000E+00 -0.66217685012E+03  0.66217685013E+03  0.25500000000E-02 0.  1.
    8880023    1    1    2    0    0  0.20201498911E+03 -0.44266050963E+03 -0.33078472429E+03  0.88316879627E+03  0.65864270000E+03 0.  1.
    8880022    1    1    2    0    0 -0.20201498911E+03  0.44266050963E+03  0.11230137334E+04  0.12334139131E+04  0.15294330000E+03 0.  0.
<mgrwt>
<rscale>  0 0.72747687E+03</rscale>
<asrwt>0</asrwt>
<pdfrwt beam="1">  1        2 0.22375475E+00 0.81888252E+03</pdfrwt>
<pdfrwt beam="2">  1       -2 0.10187336E+00 0.81888252E+03</pdfrwt>
<totfact> 0.10805280E+01</totfact>
</mgrwt>
</event>
<event>
 4    5  0.8511149E-008  0.8643680E+03  0.7818608E-02  0.9585840E-01
         -2   -1    0    0    0  501 -0.00000000000E+00  0.00000000000E+00  0.10800841612E+04  0.10800841612E+04  0.25500000000E-02 0.  1.
          2   -1    0    0  501    0  0.00000000000E+00 -0.00000000000E+00 -0.16580587530E+04  0.16580587530E+04  0.25500000000E-02 0. -1.
    8880023    1    1    2    0    0  0.29998494106E+02  0.55894723183E+03  0.84045489047E+03  0.12056104457E+04  0.65864270000E+03 0.  1.
    8880022    1    1    2    0    0 -0.29998494106E+02 -0.55894723183E+03 -0.14184294823E+04  0.15325324685E+04  0.15294330000E+03 0.  0.
<mgrwt>
<rscale>  0 0.78240498E+03</rscale>
<asrwt>0</asrwt>
<pdfrwt beam="1">  1        2 0.25508596E+00 0.86436805E+03</pdfrwt>
<pdfrwt beam="2">  1       -2 0.16616679E+00 0.86436805E+03</pdfrwt>
<totfact> 0.23792346E+00</totfact>
</mgrwt>
</event>
<event>
 4    5  0.8511149E-008  0.1663257E+04  0.7818608E-02  0.8802206E-01
          2   -1    0    0  501    0  0.00000000000E+00  0.00000000000E+00  0.23644052848E+04  0.23644052848E+04  0.25500000000E-02 0. -1.
         -2   -1    0    0    0  501 -0.00000000000E+00 -0.00000000000E+00 -0.11473660803E+04  0.11473660803E+04  0.25500000000E-02 0.  1.
    8880023    1    1    2    0    0  0.15077596749E+04 -0.24346107077E+03  0.21114011277E+03  0.16766045699E+04  0.65864270000E+03 0.  0.
    8880022    1    1    2    0    0 -0.15077596749E+04  0.24346107077E+03  0.10058990918E+04  0.18351667952E+04  0.15294330000E+03 0.  0.
<mgrwt>
<rscale>  0 0.16302022E+04</rscale>
<asrwt>0</asrwt>
<pdfrwt beam="1">  1        2 0.36375465E+00 0.16632567E+04</pdfrwt>
<pdfrwt beam="2">  1       -2 0.17651786E+00 0.16632567E+04</pdfrwt>
<totfact> 0.74004557E-01</totfact>
</mgrwt>
</event>
<event>
 4    5  0.8511149E-008  0.1138222E+04  0.7818608E-02  0.9219648E-01
          2   -1    0    0  501    0  0.00000000000E+00  0.00000000000E+00  0.38623034711E+04  0.38623034711E+04  0.25500000000E-02 0. -1.
         -2   -1    0    0    0  501 -0.00000000000E+00 -0.00000000000E+00 -0.70026778777E+03  0.70026778778E+03  0.25500000000E-02 0.  1.
    8880023    1    1    2    0    0  0.74819097676E+03 -0.54949879287E+03 -0.12358025317E+03  0.11449108901E+04  0.65864270000E+03 0.  0.
    8880022    1    1    2    0    0 -0.74819097676E+03  0.54949879287E+03  0.32856159365E+04  0.34176603688E+04  0.15294330000E+03 0.  0.
<mgrwt>
<rscale>  0 0.10852907E+04</rscale>
<asrwt>0</asrwt>
<pdfrwt beam="1">  1        2 0.59420052E+00 0.11382218E+04</pdfrwt>
<pdfrwt beam="2">  1       -2 0.10773351E+00 0.11382218E+04</pdfrwt>
<totfact> 0.30972396E-01</totfact>
</mgrwt>
</event>
<event>
 4    5  0.8511149E-008  0.7257926E+03  0.7818608E-02  0.9903452E-01
          2   -1    0    0  501    0  0.00000000000E+00  0.00000000000E+00  0.28948057778E+04  0.28948057778E+04  0.25500000000E-02 0. -1.
         -2   -1    0    0    0  501 -0.00000000000E+00 -0.00000000000E+00 -0.14477044173E+03  0.14477044175E+03  0.25500000000E-02 0.  1.
    8880023    1    1    2    0    0 -0.11443738204E+03 -0.28261064603E+03  0.88952682903E+03  0.11480561299E+04  0.65864270000E+03 0.  1.
    8880022    1    1    2    0    0  0.11443738204E+03  0.28261064603E+03  0.18605085070E+04  0.18915200896E+04  0.15294330000E+03 0.  0.
<mgrwt>
<rscale>  0 0.60094283E+03</rscale>
<asrwt>0</asrwt>
<pdfrwt beam="1">  1        2 0.44535471E+00 0.72579260E+03</pdfrwt>
<pdfrwt beam="2">  1       -2 0.22272377E-01 0.72579260E+03</pdfrwt>
<totfact> 0.37735460E+01</totfact>
</mgrwt>
</event>
<event>
 4    5  0.8511149E-008  0.8252212E+03  0.7818608E-02  0.9658703E-01
          2   -1    0    0  501    0  0.00000000000E+00  0.00000000000E+00  0.20735968382E+04  0.20735968382E+04  0.25500000000E-02 0. -1.
         -2   -1    0    0    0  501 -0.00000000000E+00 -0.00000000000E+00 -0.14835968103E+04  0.14835968103E+04  0.25500000000E-02 0.  1.
    8880023    1    1    2    0    0  0.31712593403E+03  0.38289803530E+03 -0.13315246706E+04  0.15665081928E+04  0.65864270000E+03 0.  0.
    8880022    1    1    2    0    0 -0.31712593403E+03 -0.38289803530E+03  0.19215246985E+04  0.19906854557E+04  0.15294330000E+03 0.  0.
<mgrwt>
<rscale>  0 0.73529736E+03</rscale>
<asrwt>0</asrwt>
<pdfrwt beam="1">  1        2 0.31901490E+00 0.82522116E+03</pdfrwt>
<pdfrwt beam="2">  1       -2 0.22824566E+00 0.82522116E+03</pdfrwt>
<totfact> 0.55136622E-01</totfact>
</mgrwt>
</event>
<event>
 4    5  0.8511149E-008  0.1053625E+04  0.7818608E-02  0.9314536E-01
         -2   -1    0    0    0  501 -0.00000000000E+00  0.00000000000E+00  0.46520740170E+04  0.46520740170E+04  0.25500000000E-02 0.  1.
          2   -1    0    0  501    0  0.00000000000E+00 -0.00000000000E+00 -0.47764636338E+03  0.47764636338E+03  0.25500000000E-02 0. -1.
    8880023    1    1    2    0    0 -0.22378937136E+03  0.79134987510E+03  0.41618417108E+04  0.42931402189E+04  0.65864270000E+03 0.  0.
    8880022    1    1    2    0    0  0.22378937136E+03 -0.79134987510E+03  0.12585942840E+02  0.83658016145E+03  0.15294330000E+03 0.  0.
<mgrwt>
<rscale>  0 0.99455609E+03</rscale>
<asrwt>0</asrwt>
<pdfrwt beam="1">  1        2 0.73484058E-01 0.10536254E+04</pdfrwt>
<pdfrwt beam="2">  1       -2 0.71570367E+00 0.10536254E+04</pdfrwt>
<totfact> 0.13090584E-02</totfact>
</mgrwt>
</event>
<event>
 4    5  0.8511149E-008  0.9166788E+03  0.7818608E-02  0.9499770E-01
         -2   -1    0    0    0  501 -0.00000000000E+00  0.00000000000E+00  0.44977156756E+03  0.44977156756E+03  0.25500000000E-02 0.  1.
          2   -1    0    0  501    0  0.00000000000E+00 -0.00000000000E+00 -0.29350884065E+04  0.29350884065E+04  0.25500000000E-02 0. -1.
    8880023    1    1    2    0    0 -0.61462316193E+03 -0.16949400222E+03 -0.11301292764E+03  0.92361895609E+03  0.65864270000E+03 0.  1.
    8880022    1    1    2    0    0  0.61462316193E+03  0.16949400222E+03 -0.23723039113E+04  0.24612410180E+04  0.15294330000E+03 0.  0.
<mgrwt>
<rscale>  0 0.84300760E+03</rscale>
<asrwt>0</asrwt>
<pdfrwt beam="1">  1        2 0.45155205E+00 0.91667882E+03</pdfrwt>
<pdfrwt beam="2">  1       -2 0.69195628E-01 0.91667882E+03</pdfrwt>
<totfact> 0.37657563E+00</totfact>
</mgrwt>
</event>
<event>
 4    5  0.1657306E-007  0.1186084E+04  0.7818608E-02  0.9170769E-01
         -2   -1    0    0    0  501 -0.00000000000E+00  0.00000000000E+00  0.20436116672E+04  0.20436116672E+04  0.25500000000E-02 0.  1.
          2   -1    0    0  501    0  0.00000000000E+00 -0.00000000000E+00 -0.28871056894E+04  0.28871056894E+04  0.25500000000E-02 0. -1.
    8880023    1    1    2    0    0  0.98267493364E+03  0.85651597931E+02  0.17713777942E+04  0.21318010502E+04  0.65864270000E+03 0.  0.
    8880022    1    1    2    0    0 -0.98267493364E+03 -0.85651597931E+02 -0.26148718164E+04  0.27989163064E+04  0.15294330000E+03 0.  0.
<mgrwt>
<rscale>  0 0.11360298E+04</rscale>
<asrwt>0</asrwt>
<pdfrwt beam="1">  1        2 0.44417010E+00 0.11860845E+04</pdfrwt>
<pdfrwt beam="2">  1       -2 0.31440180E+00 0.11860845E+04</pdfrwt>
<totfact> 0.52550261E-02</totfact>
</mgrwt>
</event>
<event>
 4    5  0.8511149E-008  0.1647140E+04  0.7818608E-02  0.8812168E-01
          2   -1    0    0  501    0  0.00000000000E+00  0.00000000000E+00  0.25880936325E+04  0.25880936326E+04  0.25500000000E-02 0. -1.
         -2   -1    0    0    0  501 -0.00000000000E+00 -0.00000000000E+00 -0.13989260530E+04  0.13989260530E+04  0.25500000000E-02 0.  1.
    8880023    1    1    2    0    0  0.11426024021E+04  0.98677160732E+03 -0.49515223616E+03  0.17199547662E+04  0.65864270000E+03 0.  0.
    8880022    1    1    2    0    0 -0.11426024021E+04 -0.98677160732E+03  0.16843198157E+04  0.22670649194E+04  0.15294330000E+03 0.  0.
<mgrwt>
<rscale>  0 0.16137130E+04</rscale>
<asrwt>0</asrwt>
<pdfrwt beam="1">  1        2 0.39816825E+00 0.16471395E+04</pdfrwt>
<pdfrwt beam="2">  1       -2 0.21521940E+00 0.16471395E+04</pdfrwt>
<totfact> 0.30289863E-01</totfact>
</mgrwt>
</event>
<event>
 4    5  0.8511149E-008  0.7597972E+03  0.7818608E-02  0.9805633E-01
         -2   -1    0    0    0  501 -0.00000000000E+00  0.00000000000E+00  0.12876710019E+04  0.12876710019E+04  0.25500000000E-02 0.  1.
          2   -1    0    0  501    0  0.00000000000E+00 -0.00000000000E+00 -0.13837387439E+04  0.13837387439E+04  0.25500000000E-02 0. -1.
    8880023    1    1    2    0    0 -0.35168076702E+03 -0.14072041235E+03  0.11397711015E+04  0.13698065434E+04  0.65864270000E+03 0.  1.
    8880022    1    1    2    0    0  0.35168076702E+03  0.14072041235E+03 -0.12358388435E+04  0.13016032023E+04  0.15294330000E+03 0.  0.
<mgrwt>
<rscale>  0 0.65061131E+03</rscale>
<asrwt>0</asrwt>
<pdfrwt beam="1">  1        2 0.21288288E+00 0.75979721E+03</pdfrwt>
<pdfrwt beam="2">  1       -2 0.19810323E+00 0.75979721E+03</pdfrwt>
<totfact> 0.20808070E+00</totfact>
</mgrwt>
</event>
<event>
 4    5  0.8511149E-008  0.8248953E+03  0.7818608E-02  0.9659347E-01
         -2   -1    0    0    0  501 -0.00000000000E+00  0.00000000000E+00  0.27184604226E+03  0.27184604227E+03  0.25500000000E-02 0.  1.
          2   -1    0    0  501    0  0.00000000000E+00 -0.00000000000E+00 -0.18537306189E+04  0.18537306189E+04  0.25500000000E-02 0. -1.
    8880023    1    1    2    0    0 -0.36910777912E+03  0.33226716461E+03 -0.61863204588E+03  0.10310954542E+04  0.65864270000E+03 0.  1.
    8880022    1    1    2    0    0  0.36910777912E+03 -0.33226716461E+03 -0.96325253072E+03  0.10944812069E+04  0.15294330000E+03 0.  1.
<mgrwt>
<rscale>  0 0.73489680E+03</rscale>
<asrwt>0</asrwt>
<pdfrwt beam="1">  1        2 0.28518932E+00 0.82489528E+03</pdfrwt>
<pdfrwt beam="2">  1       -2 0.41822469E-01 0.82489528E+03</pdfrwt>
<totfact> 0.44486791E+01</totfact>
</mgrwt>
</event>
<event>
 4    5  0.8511149E-008  0.7453140E+03  0.7818608E-02  0.9844730E-01
         -2   -1    0    0    0  501 -0.00000000000E+00  0.00000000000E+00  0.51241258321E+03  0.51241258322E+03  0.25500000000E-02 0.  1.
          2   -1    0    0  501    0  0.00000000000E+00 -0.00000000000E+00 -0.19263446126E+04  0.19263446126E+04  0.25500000000E-02 0. -1.
    8880023    1    1    2    0    0  0.29408628121E+00  0.34883046843E+03  0.20712118119E+03  0.77355812461E+03  0.65864270000E+03 0.  1.
    8880022    1    1    2    0    0 -0.29408628121E+00 -0.34883046843E+03 -0.16210532106E+04  0.16651990712E+04  0.15294330000E+03 0.  0.
<mgrwt>
<rscale>  0 0.63016362E+03</rscale>
<asrwt>0</asrwt>
<pdfrwt beam="1">  1        2 0.29636071E+00 0.74531402E+03</pdfrwt>
<pdfrwt beam="2">  1       -2 0.78832706E-01 0.74531402E+03</pdfrwt>
<totfact> 0.10848940E+01</totfact>
</mgrwt>
</event>
<event>
 4    5  0.8511149E-008  0.1206656E+04  0.7818608E-02  0.9150680E-01
         -2   -1    0    0    0  501 -0.00000000000E+00  0.00000000000E+00  0.80475074338E+03  0.80475074338E+03  0.25500000000E-02 0.  1.
          2   -1    0    0  501    0  0.00000000000E+00 -0.00000000000E+00 -0.24274830415E+04  0.24274830416E+04  0.25500000000E-02 0. -1.
    8880023    1    1    2    0    0  0.63721179815E+03 -0.78496432021E+03  0.11901434171E+03  0.12125108162E+04  0.65864270000E+03 0.  0.
    8880022    1    1    2    0    0 -0.63721179815E+03  0.78496432021E+03 -0.17417466399E+04  0.20197229687E+04  0.15294330000E+03 0.  0.
<mgrwt>
<rscale>  0 0.11577325E+04</rscale>
<asrwt>0</asrwt>
<pdfrwt beam="1">  1        2 0.37345893E+00 0.12066557E+04</pdfrwt>
<pdfrwt beam="2">  1       -2 0.12380781E+00 0.12066557E+04</pdfrwt>
<totfact> 0.18427830E+00</totfact>
</mgrwt>
</event>
<event>
 4    5  0.8511149E-008  0.1104101E+04  0.7818608E-02  0.9256503E-01
          2   -1    0    0  501    0  0.00000000000E+00  0.00000000000E+00  0.26257436385E+04  0.26257436385E+04  0.25500000000E-02 0. -1.
         -2   -1    0    0    0  501 -0.00000000000E+00 -0.00000000000E+00 -0.66593959264E+03  0.66593959265E+03  0.25500000000E-02 0.  1.
    8880023    1    1    2    0    0  0.80066254304E+03  0.37969640342E+03  0.21086445024E+04  0.23802146354E+04  0.65864270000E+03 0.  0.
    8880022    1    1    2    0    0 -0.80066254304E+03 -0.37969640342E+03 -0.14884045654E+03  0.91146859579E+03  0.15294330000E+03 0.  0.
<mgrwt>
<rscale>  0 0.10488778E+04</rscale>
<asrwt>0</asrwt>
<pdfrwt beam="1">  1        2 0.40396056E+00 0.11041015E+04</pdfrwt>
<pdfrwt beam="2">  1       -2 0.10245225E+00 0.11041015E+04</pdfrwt>
<totfact> 0.22832695E+00</totfact>
</mgrwt>
</event>
<event>
 4    5  0.8511149E-008  0.8020938E+03  0.7818608E-02  0.9706287E-01
          2   -1    0    0  501    0  0.00000000000E+00  0.00000000000E+00  0.12325758496E+04  0.12325758496E+04  0.25500000000E-02 0. -1.
         -2   -1    0    0    0  501 -0.00000000000E+00 -0.00000000000E+00 -0.59117227844E+03  0.59117227845E+03  0.25500000000E-02 0.  1.
    8880023    1    1    2    0    0 -0.29245312700E+02  0.45682491565E+03 -0.22406583887E+03  0.83280249656E+03  0.65864270000E+03 0.  0.
    8880022    1    1    2    0    0  0.29245312700E+02 -0.45682491565E+03  0.86546941006E+03  0.99094563152E+03  0.15294330000E+03 0.  0.
<mgrwt>
<rscale>  0 0.70643701E+03</rscale>
<asrwt>0</asrwt>
<pdfrwt beam="1">  1        2 0.18962705E+00 0.80209382E+03</pdfrwt>
<pdfrwt beam="2">  1       -2 0.90949581E-01 0.80209382E+03</pdfrwt>
<totfact> 0.18940823E+01</totfact>
</mgrwt>
</event>
<event>
 4    5  0.8511149E-008  0.1011073E+04  0.7818608E-02  0.9367212E-01
          2   -1    0    0  501    0  0.00000000000E+00  0.00000000000E+00  0.27832411964E+04  0.27832411964E+04  0.25500000000E-02 0. -1.
         -2   -1    0    0    0  501 -0.00000000000E+00 -0.00000000000E+00 -0.64110634230E+03  0.64110634230E+03  0.25500000000E-02 0.  1.
    8880023    1    1    2    0    0  0.37541580390E+03  0.66897087495E+03 -0.13180917073E+03  0.10196288154E+04  0.65864270000E+03 0.  0.
    8880022    1    1    2    0    0 -0.37541580390E+03 -0.66897087495E+03  0.22739440248E+04  0.24047187233E+04  0.15294330000E+03 0.  0.
<mgrwt>
<rscale>  0 0.94823869E+03</rscale>
<asrwt>0</asrwt>
<pdfrwt beam="1">  1        2 0.42819095E+00 0.10110733E+04</pdfrwt>
<pdfrwt beam="2">  1       -2 0.98631747E-01 0.10110733E+04</pdfrwt>
<totfact> 0.20459483E+00</totfact>
</mgrwt>
</event>
<event>
 4    5  0.8511149E-008  0.1185283E+04  0.7818608E-02  0.9171562E-01
          2   -1    0    0  501    0  0.00000000000E+00  0.00000000000E+00  0.16598683684E+04  0.16598683684E+04  0.25500000000E-02 0. -1.
         -2   -1    0    0    0  501 -0.00000000000E+00 -0.00000000000E+00 -0.96014679313E+03  0.96014679314E+03  0.25500000000E-02 0.  1.
    8880023    1    1    2    0    0  0.88401049976E+03  0.43544467791E+03 -0.28442964584E+03  0.12189327549E+04  0.65864270000E+03 0.  0.
    8880022    1    1    2    0    0 -0.88401049976E+03 -0.43544467791E+03  0.98415122107E+03  0.14010824066E+04  0.15294330000E+03 0.  0.
<mgrwt>
<rscale>  0 0.11351835E+04</rscale>
<asrwt>0</asrwt>
<pdfrwt beam="1">  1        2 0.25536436E+00 0.11852834E+04</pdfrwt>
<pdfrwt beam="2">  1       -2 0.14771489E+00 0.11852834E+04</pdfrwt>
<totfact> 0.31372714E+00</totfact>
</mgrwt>
</event>
<event>
 4    5  0.8511149E-008  0.6677395E+03  0.7818608E-02  0.1017338E+00
         -2   -1    0    0    0  501 -0.00000000000E+00  0.00000000000E+00  0.73767847386E+03  0.73767847386E+03  0.25500000000E-02 0.  1.
          2   -1    0    0  501    0  0.00000000000E+00 -0.00000000000E+00 -0.20478415572E+04  0.20478415572E+04  0.25500000000E-02 0. -1.
    8880023    1    1    2    0    0 -0.23128827506E+02  0.10738196165E+03  0.58093082839E+03  0.88507438218E+03  0.65864270000E+03 0.  1.
    8880022    1    1    2    0    0  0.23128827506E+02 -0.10738196165E+03 -0.18910939117E+04  0.19004456489E+04  0.15294330000E+03 0.  0.
<mgrwt>
<rscale>  0 0.48659628E+03</rscale>
<asrwt>0</asrwt>
<pdfrwt beam="1">  1        2 0.31505255E+00 0.66773950E+03</pdfrwt>
<pdfrwt beam="2">  1       -2 0.11348900E+00 0.66773950E+03</pdfrwt>
<totfact> 0.40302351E+00</totfact>
</mgrwt>
</event>
<event>
 4    5  0.8511149E-008  0.8984964E+03  0.7818608E-02  0.9528450E-01
          2   -1    0    0  501    0  0.00000000000E+00  0.00000000000E+00  0.94889599460E+03  0.94889599460E+03  0.25500000000E-02 0. -1.
         -2   -1    0    0    0  501 -0.00000000000E+00 -0.00000000000E+00 -0.81806720606E+03  0.81806720607E+03  0.25500000000E-02 0.  1.
    8880023    1    1    2    0    0  0.52014755307E+03  0.32083032207E+03 -0.36041727680E+03  0.96808904146E+03  0.65864270000E+03 0.  1.
    8880022    1    1    2    0    0 -0.52014755307E+03 -0.32083032207E+03  0.49124606533E+03  0.79887415920E+03  0.15294330000E+03 0.  0.
<mgrwt>
<rscale>  0 0.82218449E+03</rscale>
<asrwt>0</asrwt>
<pdfrwt beam="1">  1        2 0.14598400E+00 0.89849640E+03</pdfrwt>
<pdfrwt beam="2">  1       -2 0.12585649E+00 0.89849640E+03</pdfrwt>
<totfact> 0.12833882E+01</totfact>
</mgrwt>
</event>
<event>
 4    5  0.8511149E-008  0.6715819E+03  0.7818608E-02  0.1014553E+00
          2   -1    0    0  501    0  0.00000000000E+00  0.00000000000E+00  0.87163002534E+03  0.87163002534E+03  0.25500000000E-02 0. -1.
         -2   -1    0    0    0  501 -0.00000000000E+00 -0.00000000000E+00 -0.26839738540E+03  0.26839738541E+03  0.25500000000E-02 0.  1.
    8880023    1    1    2    0    0  0.10226343749E+03  0.82183908791E+02  0.21939027631E+03  0.70650853152E+03  0.65864270000E+03 0.  1.
    8880022    1    1    2    0    0 -0.10226343749E+03 -0.82183908791E+02  0.38384236363E+03  0.43351887923E+03  0.15294330000E+03 0.  0.
<mgrwt>
<rscale>  0 0.49704404E+03</rscale>
<asrwt>0</asrwt>
<pdfrwt beam="1">  1        2 0.13409692E+00 0.67158187E+03</pdfrwt>
<pdfrwt beam="2">  1       -2 0.41291906E-01 0.67158187E+03</pdfrwt>
<totfact> 0.17294674E+02</totfact>
</mgrwt>
</event>
<event>
 4    5  0.8511149E-008  0.1458346E+04  0.7818608E-02  0.8939623E-01
         -2   -1    0    0    0  501 -0.00000000000E+00  0.00000000000E+00  0.75136849808E+03  0.75136849808E+03  0.25500000000E-02 0.  1.
          2   -1    0    0  501    0  0.00000000000E+00 -0.00000000000E+00 -0.37750100873E+04  0.37750100873E+04  0.25500000000E-02 0. -1.
    8880023    1    1    2    0    0  0.51722433433E+03  0.11939188408E+04 -0.27858089843E+03  0.14847157080E+04  0.65864270000E+03 0.  0.
    8880022    1    1    2    0    0 -0.51722433433E+03 -0.11939188408E+04 -0.27450606908E+04  0.30416628773E+04  0.15294330000E+03 0.  0.
<mgrwt>
<rscale>  0 0.14197809E+04</rscale>
<asrwt>0</asrwt>
<pdfrwt beam="1">  1        2 0.58077077E+00 0.14583461E+04</pdfrwt>
<pdfrwt beam="2">  1       -2 0.11559516E+00 0.14583461E+04</pdfrwt>
<totfact> 0.28920141E-01</totfact>
</mgrwt>
</event>
<event>
 4    5  0.8511149E-008  0.7573539E+03  0.7818608E-02  0.9812007E-01
          2   -1    0    0  501    0  0.00000000000E+00  0.00000000000E+00  0.31008628073E+04  0.31008628073E+04  0.25500000000E-02 0. -1.
         -2   -1    0    0    0  501 -0.00000000000E+00 -0.00000000000E+00 -0.42610778634E+03  0.42610778635E+03  0.25500000000E-02 0.  1.
    8880023    1    1    2    0    0 -0.26985072648E+03 -0.25875720507E+03 -0.62633405876E+02  0.75993937624E+03  0.65864270000E+03 0.  1.
    8880022    1    1    2    0    0  0.26985072648E+03  0.25875720507E+03  0.27373884268E+04  0.27670312174E+04  0.15294330000E+03 0.  0.
<mgrwt>
<rscale>  0 0.64722155E+03</rscale>
<asrwt>0</asrwt>
<pdfrwt beam="1">  1        2 0.47705580E+00 0.75735389E+03</pdfrwt>
<pdfrwt beam="2">  1       -2 0.65555046E-01 0.75735389E+03</pdfrwt>
<totfact> 0.34435874E+00</totfact>
</mgrwt>
</event>
<event>
 4    5  0.8511149E-008  0.8134940E+03  0.7818608E-02  0.9682344E-01
          2   -1    0    0  501    0  0.00000000000E+00  0.00000000000E+00  0.13785323524E+04  0.13785323524E+04  0.25500000000E-02 0. -1.
         -2   -1    0    0    0  501 -0.00000000000E+00 -0.00000000000E+00 -0.65547514743E+03  0.65547514744E+03  0.25500000000E-02 0.  1.
    8880023    1    1    2    0    0  0.39507150248E+02 -0.47581660980E+03 -0.32200787052E+03  0.87490658703E+03  0.65864270000E+03 0.  0.
    8880022    1    1    2    0    0 -0.39507150248E+02  0.47581660980E+03  0.10450650755E+04  0.11591009129E+04  0.15294330000E+03 0.  0.
<mgrwt>
<rscale>  0 0.72077791E+03</rscale>
<asrwt>0</asrwt>
<pdfrwt beam="1">  1        2 0.21208190E+00 0.81349399E+03</pdfrwt>
<pdfrwt beam="2">  1       -2 0.10084233E+00 0.81349399E+03</pdfrwt>
<totfact> 0.12228005E+01</totfact>
</mgrwt>
</event>
<event>
 4    5  0.8511149E-008  0.1034027E+04  0.7818608E-02  0.9338334E-01
          2   -1    0    0  501    0  0.00000000000E+00  0.00000000000E+00  0.24035922928E+04  0.24035922928E+04  0.25500000000E-02 0. -1.
         -2   -1    0    0    0  501 -0.00000000000E+00 -0.00000000000E+00 -0.10034365438E+04  0.10034365438E+04  0.25500000000E-02 0.  1.
    8880023    1    1    2    0    0 -0.59091849751E+03 -0.53499228286E+03 -0.63675518173E+03  0.12143594118E+04  0.65864270000E+03 0.  0.
    8880022    1    1    2    0    0  0.59091849751E+03  0.53499228286E+03  0.20369109307E+04  0.21926694247E+04  0.15294330000E+03 0.  0.
<mgrwt>
<rscale>  0 0.97329054E+03</rscale>
<asrwt>0</asrwt>
<pdfrwt beam="1">  1        2 0.36978343E+00 0.10340269E+04</pdfrwt>
<pdfrwt beam="2">  1       -2 0.15437485E+00 0.10340269E+04</pdfrwt>
<totfact> 0.10966534E+00</totfact>
</mgrwt>
</event>
<event>
 4    5  0.8511149E-008  0.7727095E+03  0.7818608E-02  0.9773250E-01
         -2   -1    0    0    0  501 -0.00000000000E+00  0.00000000000E+00  0.16349518058E+03  0.16349518060E+03  0.25500000000E-02 0.  1.
          2   -1    0    0  501    0  0.00000000000E+00 -0.00000000000E+00 -0.22483734642E+04  0.22483734642E+04  0.25500000000E-02 0. -1.
    8880023    1    1    2    0    0 -0.38259604609E+03  0.12996171054E+03 -0.12019707998E+04  0.14289204984E+04  0.65864270000E+03 0.  1.
    8880022    1    1    2    0    0  0.38259604609E+03 -0.12996171054E+03 -0.88290748378E+03  0.98294814645E+03  0.15294330000E+03 0.  0.
<mgrwt>
<rscale>  0 0.66818084E+03</rscale>
<asrwt>0</asrwt>
<pdfrwt beam="1">  1        2 0.34590359E+00 0.77270951E+03</pdfrwt>
<pdfrwt beam="2">  1       -2 0.25153106E-01 0.77270951E+03</pdfrwt>
<totfact> 0.70832881E+01</totfact>
</mgrwt>
</event>
<event>
 4    5  0.8511149E-008  0.7815112E+03  0.7818608E-02  0.9752299E-01
          2   -1    0    0  501    0  0.00000000000E+00  0.00000000000E+00  0.24457763350E+04  0.24457763350E+04  0.25500000000E-02 0. -1.
         -2   -1    0    0    0  501 -0.00000000000E+00 -0.00000000000E+00 -0.31533444891E+03  0.31533444892E+03  0.25500000000E-02 0.  1.
    8880023    1    1    2    0    0 -0.35603179371E+03 -0.22403336729E+03  0.23872004444E+03  0.81715791232E+03  0.65864270000E+03 0.  1.
    8880022    1    1    2    0    0  0.35603179371E+03  0.22403336729E+03  0.18917218416E+04  0.19439528716E+04  0.15294330000E+03 0.  0.
<mgrwt>
<rscale>  0 0.67986504E+03</rscale>
<asrwt>0</asrwt>
<pdfrwt beam="1">  1        2 0.37627329E+00 0.78151122E+03</pdfrwt>
<pdfrwt beam="2">  1       -2 0.48512991E-01 0.78151122E+03</pdfrwt>
<totfact> 0.15668002E+01</totfact>
</mgrwt>
</event>
<event>
 4    5  0.8511149E-008  0.8556477E+03  0.7818608E-02  0.9601353E-01
         -2   -1    0    0    0  501 -0.00000000000E+00  0.00000000000E+00  0.33736617333E+03  0.33736617334E+03  0.25500000000E-02 0.  1.
          2   -1    0    0  501    0  0.00000000000E+00 -0.00000000000E+00 -0.30535258441E+04  0.30535258441E+04  0.25500000000E-02 0. -1.
    8880023    1    1    2    0    0 -0.28368277555E+03  0.46674064519E+03 -0.29637838597E+03  0.90552366118E+03  0.65864270000E+03 0. -1.
    8880022    1    1    2    0    0  0.28368277555E+03 -0.46674064519E+03 -0.24197812848E+04  0.24853683563E+04  0.15294330000E+03 0.  0.
<mgrwt>
<rscale>  0 0.77206710E+03</rscale>
<asrwt>0</asrwt>
<pdfrwt beam="1">  1        2 0.46977319E+00 0.85564768E+03</pdfrwt>
<pdfrwt beam="2">  1       -2 0.51902490E-01 0.85564768E+03</pdfrwt>
<totfact> 0.59137544E+00</totfact>
</mgrwt>
</event>
<event>
 4    5  0.8511149E-008  0.6975728E+03  0.7818608E-02  0.1000742E+00
         -2   -1    0    0    0  501 -0.00000000000E+00  0.00000000000E+00  0.16541187469E+03  0.16541187471E+03  0.25500000000E-02 0.  1.
          2   -1    0    0  501    0  0.00000000000E+00 -0.00000000000E+00 -0.25376230332E+04  0.25376230332E+04  0.25500000000E-02 0. -1.
    8880023    1    1    2    0    0  0.64168798466E+02 -0.22063541497E+03 -0.63270791495E+03  0.94176808873E+03  0.65864270000E+03 0.  1.
    8880022    1    1    2    0    0 -0.64168798466E+02  0.22063541497E+03 -0.17395032436E+04  0.17612668192E+04  0.15294330000E+03 0.  0.
<mgrwt>
<rscale>  0 0.55325951E+03</rscale>
<asrwt>0</asrwt>
<pdfrwt beam="1">  1        2 0.39040352E+00 0.69757281E+03</pdfrwt>
<pdfrwt beam="2">  1       -2 0.25447982E-01 0.69757281E+03</pdfrwt>
<totfact> 0.48221120E+01</totfact>
</mgrwt>
</event>
<event>
 4    5  0.8511149E-008  0.1029437E+04  0.7818608E-02  0.9344019E-01
          2   -1    0    0  501    0  0.00000000000E+00  0.00000000000E+00  0.14028522266E+04  0.14028522266E+04  0.25500000000E-02 0. -1.
         -2   -1    0    0    0  501 -0.00000000000E+00 -0.00000000000E+00 -0.76612136982E+03  0.76612136982E+03  0.25500000000E-02 0.  1.
    8880023    1    1    2    0    0 -0.41589312150E+03  0.67302533180E+03 -0.15294972898E+03  0.10407372443E+04  0.65864270000E+03 0.  1.
    8880022    1    1    2    0    0  0.41589312150E+03 -0.67302533180E+03  0.78968058579E+03  0.11282363522E+04  0.15294330000E+03 0.  0.
<mgrwt>
<rscale>  0 0.96829415E+03</rscale>
<asrwt>0</asrwt>
<pdfrwt beam="1">  1        2 0.21582342E+00 0.10294369E+04</pdfrwt>
<pdfrwt beam="2">  1       -2 0.11786483E+00 0.10294369E+04</pdfrwt>
<totfact> 0.79283123E+00</totfact>
</mgrwt>
</event>
<event>
 4    5  0.8511149E-008  0.6925221E+03  0.7818608E-02  0.1002976E+00
          2   -1    0    0  501    0  0.00000000000E+00  0.00000000000E+00  0.26461723201E+04  0.26461723201E+04  0.25500000000E-02 0. -1.
         -2   -1    0    0    0  501 -0.00000000000E+00 -0.00000000000E+00 -0.15875143949E+03  0.15875143951E+03  0.25500000000E-02 0.  1.
    8880023    1    1    2    0    0  0.10137289691E+03  0.18841505201E+03  0.65330389059E+03  0.95204667731E+03  0.65864270000E+03 0. -1.
    8880022    1    1    2    0    0 -0.10137289691E+03 -0.18841505201E+03  0.18341169900E+04  0.18528770823E+04  0.15294330000E+03 0.  0.
<mgrwt>
<rscale>  0 0.54364284E+03</rscale>
<asrwt>0</asrwt>
<pdfrwt beam="1">  1        2 0.40710342E+00 0.69252213E+03</pdfrwt>
<pdfrwt beam="2">  1       -2 0.24423299E-01 0.69252213E+03</pdfrwt>
<totfact> 0.45040616E+01</totfact>
</mgrwt>
</event>
<event>
 4    5  0.8511149E-008  0.1298421E+04  0.7818608E-02  0.9066924E-01
         -2   -1    0    0    0  501 -0.00000000000E+00  0.00000000000E+00  0.24758619170E+04  0.24758619170E+04  0.25500000000E-02 0.  1.
          2   -1    0    0  501    0  0.00000000000E+00 -0.00000000000E+00 -0.83563284999E+03  0.83563284999E+03  0.25500000000E-02 0. -1.
    8880023    1    1    2    0    0  0.98119752108E+03  0.53790231376E+03  0.17474621128E+04  0.21770442155E+04  0.65864270000E+03 0.  0.
    8880022    1    1    2    0    0 -0.98119752108E+03 -0.53790231376E+03 -0.10723304580E+03  0.11344505514E+04  0.15294330000E+03 0.  0.
<mgrwt>
<rscale>  0 0.12539230E+04</rscale>
<asrwt>0</asrwt>
<pdfrwt beam="1">  1        2 0.12855890E+00 0.12984212E+04</pdfrwt>
<pdfrwt beam="2">  1       -2 0.38090183E+00 0.12984212E+04</pdfrwt>
<totfact> 0.31285092E-01</totfact>
</mgrwt>
</event>
<event>
 4    5  0.8511149E-008  0.7779018E+03  0.7818608E-02  0.9760789E-01
         -2   -1    0    0    0  501 -0.00000000000E+00  0.00000000000E+00  0.33652480174E+03  0.33652480175E+03  0.25500000000E-02 0.  1.
          2   -1    0    0  501    0  0.00000000000E+00 -0.00000000000E+00 -0.26663386424E+04  0.26663386424E+04  0.25500000000E-02 0. -1.
    8880023    1    1    2    0    0 -0.40176911046E+03 -0.99511976286E+02 -0.16717006812E+03  0.79566141636E+03  0.65864270000E+03 0.  1.
    8880022    1    1    2    0    0  0.40176911046E+03  0.99511976286E+02 -0.21626437726E+04  0.22072020278E+04  0.15294330000E+03 0.  0.
<mgrwt>
<rscale>  0 0.67509965E+03</rscale>
<asrwt>0</asrwt>
<pdfrwt beam="1">  1        2 0.41020593E+00 0.77790183E+03</pdfrwt>
<pdfrwt beam="2">  1       -2 0.51773048E-01 0.77790183E+03</pdfrwt>
<totfact> 0.10270831E+01</totfact>
</mgrwt>
</event>
<event>
 4    5  0.8511149E-008  0.7452427E+03  0.7818608E-02  0.9844930E-01
          2   -1    0    0  501    0  0.00000000000E+00  0.00000000000E+00  0.42779150509E+04  0.42779150509E+04  0.25500000000E-02 0. -1.
         -2   -1    0    0    0  501 -0.00000000000E+00 -0.00000000000E+00 -0.17462691932E+03  0.17462691934E+03  0.25500000000E-02 0.  1.
    8880023    1    1    2    0    0  0.49304325206E+02  0.34517463774E+03  0.68222098810E+03  0.10103524780E+04  0.65864270000E+03 0.  1.
    8880022    1    1    2    0    0 -0.49304325206E+02 -0.34517463774E+03  0.34210671435E+04  0.34421894922E+04  0.15294330000E+03 0.  0.
<mgrwt>
<rscale>  0 0.63006063E+03</rscale>
<asrwt>0</asrwt>
<pdfrwt beam="1">  1        2 0.65814066E+00 0.74524268E+03</pdfrwt>
<pdfrwt beam="2">  1       -2 0.26865685E-01 0.74524268E+03</pdfrwt>
<totfact> 0.28007736E+00</totfact>
</mgrwt>
</event>
<event>
 4    5  0.8511149E-008  0.6803217E+03  0.7818608E-02  0.1009142E+00
         -2   -1    0    0    0  501 -0.00000000000E+00  0.00000000000E+00  0.26472461664E+03  0.26472461665E+03  0.25500000000E-02 0.  1.
          2   -1    0    0  501    0  0.00000000000E+00 -0.00000000000E+00 -0.23393882949E+04  0.23393882949E+04  0.25500000000E-02 0. -1.
    8880023    1    1    2    0    0  0.13426718275E+03 -0.10487991409E+03 -0.19105363596E+03  0.70663934989E+03  0.65864270000E+03 0.  0.
    8880022    1    1    2    0    0 -0.13426718275E+03  0.10487991409E+03 -0.18836100423E+04  0.18974735616E+04  0.15294330000E+03 0.  0.
<mgrwt>
<rscale>  0 0.51816967E+03</rscale>
<asrwt>0</asrwt>
<pdfrwt beam="1">  1        2 0.35990588E+00 0.68032175E+03</pdfrwt>
<pdfrwt beam="2">  1       -2 0.40726866E-01 0.68032175E+03</pdfrwt>
<totfact> 0.25848405E+01</totfact>
</mgrwt>
</event>
<event>
 4    5  0.8511149E-008  0.7407892E+03  0.7818608E-02  0.9857654E-01
         -2   -1    0    0    0  501 -0.00000000000E+00  0.00000000000E+00  0.95111124420E+03  0.95111124420E+03  0.25500000000E-02 0.  1.
          2   -1    0    0  501    0  0.00000000000E+00 -0.00000000000E+00 -0.82219287126E+03  0.82219287127E+03  0.25500000000E-02 0. -1.
    8880023    1    1    2    0    0  0.28059077293E+03  0.19033454313E+03  0.74693548724E+03  0.10519891865E+04  0.65864270000E+03 0.  1.
    8880022    1    1    2    0    0 -0.28059077293E+03 -0.19033454313E+03 -0.61801711430E+03  0.72131492896E+03  0.15294330000E+03 0.  0.
<mgrwt>
<rscale>  0 0.62358176E+03</rscale>
<asrwt>0</asrwt>
<pdfrwt beam="1">  1        2 0.12649121E+00 0.74078919E+03</pdfrwt>
<pdfrwt beam="2">  1       -2 0.14632481E+00 0.74078919E+03</pdfrwt>
<totfact> 0.10806107E+01</totfact>
</mgrwt>
</event>
<event>
 4    5  0.9474805E-008  0.8855131E+03  0.7818608E-02  0.9549700E-01
          2   -1    0    0  501    0  0.00000000000E+00  0.00000000000E+00  0.28101155661E+04  0.28101155661E+04  0.25500000000E-02 0. -1.
         -2   -1    0    0    0  501 -0.00000000000E+00 -0.00000000000E+00 -0.12140221906E+04  0.12140221906E+04  0.25500000000E-02 0.  1.
    8880023    1    1    2    0    0  0.58130646387E+03 -0.11138209651E+03 -0.10123678725E+04  0.13449989189E+04  0.65864270000E+03 0.  1.
    8880022    1    1    2    0    0 -0.58130646387E+03  0.11138209651E+03  0.26084612480E+04  0.26791388377E+04  0.15294330000E+03 0.  0.
<mgrwt>
<rscale>  0 0.80716769E+03</rscale>
<asrwt>0</asrwt>
<pdfrwt beam="1">  1        2 0.43232547E+00 0.88551306E+03</pdfrwt>
<pdfrwt beam="2">  1       -2 0.18677265E+00 0.88551306E+03</pdfrwt>
<totfact> 0.38455436E-01</totfact>
</mgrwt>
</event>
<event>
 4    5  0.8511149E-008  0.6863045E+03  0.7818608E-02  0.1005961E+00
         -2   -1    0    0    0  501 -0.00000000000E+00  0.00000000000E+00  0.27412794875E+03  0.27412794876E+03  0.25500000000E-02 0.  1.
          2   -1    0    0  501    0  0.00000000000E+00 -0.00000000000E+00 -0.23855565396E+04  0.23855565396E+04  0.25500000000E-02 0. -1.
    8880023    1    1    2    0    0  0.55833106574E+02 -0.18462479903E+03 -0.17579557624E+03  0.70846167370E+03  0.65864270000E+03 0.  1.
    8880022    1    1    2    0    0 -0.55833106574E+02  0.18462479903E+03 -0.19356330146E+04  0.19512228147E+04  0.15294330000E+03 0.  0.
<mgrwt>
<rscale>  0 0.53111981E+03</rscale>
<asrwt>0</asrwt>
<pdfrwt beam="1">  1        2 0.36700868E+00 0.68630449E+03</pdfrwt>
<pdfrwt beam="2">  1       -2 0.42173532E-01 0.68630449E+03</pdfrwt>
<totfact> 0.22729016E+01</totfact>
</mgrwt>
</event>
<event>
 4    5  0.8511149E-008  0.8312392E+03  0.7818608E-02  0.9646926E-01
         -2   -1    0    0    0  501 -0.00000000000E+00  0.00000000000E+00  0.11080597935E+04  0.11080597935E+04  0.25500000000E-02 0.  1.
          2   -1    0    0  501    0  0.00000000000E+00 -0.00000000000E+00 -0.21345377490E+04  0.21345377490E+04  0.25500000000E-02 0. -1.
    8880023    1    1    2    0    0 -0.49537109333E+03 -0.10842431923E+03  0.91146157363E+03  0.12335804634E+04  0.65864270000E+03 0.  1.
    8880022    1    1    2    0    0  0.49537109333E+03  0.10842431923E+03 -0.19379395290E+04  0.20090170792E+04  0.15294330000E+03 0.  0.
<mgrwt>
<rscale>  0 0.74266653E+03</rscale>
<asrwt>0</asrwt>
<pdfrwt beam="1">  1        2 0.32839042E+00 0.83123917E+03</pdfrwt>
<pdfrwt beam="2">  1       -2 0.17047074E+00 0.83123917E+03</pdfrwt>
<totfact> 0.12211984E+00</totfact>
</mgrwt>
</event>
<event>
 4    5  0.8511149E-008  0.7775562E+03  0.7818608E-02  0.9761609E-01
         -2   -1    0    0    0  501 -0.00000000000E+00  0.00000000000E+00  0.12006494663E+04  0.12006494663E+04  0.25500000000E-02 0.  1.
          2   -1    0    0  501    0  0.00000000000E+00 -0.00000000000E+00 -0.80869271578E+03  0.80869271579E+03  0.25500000000E-02 0. -1.
    8880023    1    1    2    0    0  0.20004538676E+03 -0.36161493126E+03  0.99479666962E+03  0.12626219289E+04  0.65864270000E+03 0.  0.
    8880022    1    1    2    0    0 -0.20004538676E+03  0.36161493126E+03 -0.60283991915E+03  0.74672025311E+03  0.15294330000E+03 0.  0.
<mgrwt>
<rscale>  0 0.67464153E+03</rscale>
<asrwt>0</asrwt>
<pdfrwt beam="1">  1        2 0.12441426E+00 0.77755625E+03</pdfrwt>
<pdfrwt beam="2">  1       -2 0.18471530E+00 0.77755625E+03</pdfrwt>
<totfact> 0.58072038E+00</totfact>
</mgrwt>
</event>
<event>
 4    5  0.8511149E-008  0.7280868E+03  0.7818608E-02  0.9896116E-01
          2   -1    0    0  501    0  0.00000000000E+00  0.00000000000E+00  0.24698186836E+04  0.24698186836E+04  0.25500000000E-02 0. -1.
         -2   -1    0    0    0  501 -0.00000000000E+00 -0.00000000000E+00 -0.52307527671E+03  0.52307527672E+03  0.25500000000E-02 0.  1.
    8880023    1    1    2    0    0 -0.14711933227E+03 -0.27323265111E+03 -0.24943797733E+03  0.76962957996E+03  0.65864270000E+03 0.  1.
    8880022    1    1    2    0    0  0.14711933227E+03  0.27323265111E+03  0.21961813842E+04  0.22232643803E+04  0.15294330000E+03 0.  0.
<mgrwt>
<rscale>  0 0.60449878E+03</rscale>
<asrwt>0</asrwt>
<pdfrwt beam="1">  1        2 0.37997210E+00 0.72808680E+03</pdfrwt>
<pdfrwt beam="2">  1       -2 0.80473120E-01 0.72808680E+03</pdfrwt>
<totfact> 0.52055115E+00</totfact>
</mgrwt>
</event>
<event>
 4    5  0.8511149E-008  0.6875368E+03  0.7818608E-02  0.1005346E+00
          2   -1    0    0  501    0  0.00000000000E+00  0.00000000000E+00  0.25209615311E+04  0.25209615311E+04  0.25500000000E-02 0. -1.
         -2   -1    0    0    0  501 -0.00000000000E+00 -0.00000000000E+00 -0.56323260342E+03  0.56323260342E+03  0.25500000000E-02 0.  1.
    8880023    1    1    2    0    0  0.88174528961E+02  0.17641395750E+03 -0.34412546353E+03  0.76884925237E+03  0.65864270000E+03 0.  1.
    8880022    1    1    2    0    0 -0.88174528961E+02 -0.17641395750E+03  0.23018543912E+04  0.23153448822E+04  0.15294330000E+03 0.  0.
<mgrwt>
<rscale>  0 0.53366996E+03</rscale>
<asrwt>0</asrwt>
<pdfrwt beam="1">  1        2 0.38784024E+00 0.68753679E+03</pdfrwt>
<pdfrwt beam="2">  1       -2 0.86651168E-01 0.68753679E+03</pdfrwt>
<totfact> 0.41506619E+00</totfact>
</mgrwt>
</event>
<event>
 4    5  0.9463083E-008  0.1175619E+04  0.7818608E-02  0.9181195E-01
         -2   -1    0    0    0  501 -0.00000000000E+00  0.00000000000E+00  0.23789514525E+04  0.23789514525E+04  0.25500000000E-02 0.  1.
          2   -1    0    0  501    0  0.00000000000E+00 -0.00000000000E+00 -0.16451045879E+04  0.16451045879E+04  0.25500000000E-02 0. -1.
    8880023    1    1    2    0    0 -0.81567901711E+03 -0.53191770211E+03  0.20598981912E+04  0.23717629445E+04  0.65864270000E+03 0.  1.
    8880022    1    1    2    0    0  0.81567901711E+03  0.53191770211E+03 -0.13260513266E+04  0.16522930959E+04  0.15294330000E+03 0.  0.
<mgrwt>
<rscale>  0 0.11249653E+04</rscale>
<asrwt>0</asrwt>
<pdfrwt beam="1">  1        2 0.25309302E+00 0.11756185E+04</pdfrwt>
<pdfrwt beam="2">  1       -2 0.36599253E+00 0.11756185E+04</pdfrwt>
<totfact> 0.12769560E-01</totfact>
</mgrwt>
</event>
<event>
 4    5  0.8511149E-008  0.8777591E+03  0.7818608E-02  0.9562722E-01
         -2   -1    0    0    0  501 -0.00000000000E+00  0.00000000000E+00  0.93588401291E+03  0.93588401292E+03  0.25500000000E-02 0.  1.
          2   -1    0    0  501    0  0.00000000000E+00 -0.00000000000E+00 -0.76602433297E+03  0.76602433297E+03  0.25500000000E-02 0. -1.
    8880023    1    1    2    0    0  0.37524282079E+03  0.44254232679E+03  0.50698332605E+03  0.10136533849E+04  0.65864270000E+03 0.  1.
    8880022    1    1    2    0    0 -0.37524282079E+03 -0.44254232679E+03 -0.33712364610E+03  0.68825496099E+03  0.15294330000E+03 0.  0.
<mgrwt>
<rscale>  0 0.79813387E+03</rscale>
<asrwt>0</asrwt>
<pdfrwt beam="1">  1        2 0.11784990E+00 0.87775913E+03</pdfrwt>
<pdfrwt beam="2">  1       -2 0.14398216E+00 0.87775913E+03</pdfrwt>
<totfact> 0.12209676E+01</totfact>
</mgrwt>
</event>
<event>
 4    5  0.8511149E-008  0.9012442E+03  0.7818608E-02  0.9524037E-01
          2   -1    0    0  501    0  0.00000000000E+00  0.00000000000E+00  0.86363514088E+03  0.86363514089E+03  0.25500000000E-02 0. -1.
         -2   -1    0    0    0  501 -0.00000000000E+00 -0.00000000000E+00 -0.10119393762E+04  0.10119393762E+04  0.25500000000E-02 0.  1.
    8880023    1    1    2    0    0  0.45971703154E+03  0.40876783342E+03 -0.61268412787E+03  0.10897811420E+04  0.65864270000E+03 0.  1.
    8880022    1    1    2    0    0 -0.45971703154E+03 -0.40876783342E+03  0.46437989253E+03  0.78579337508E+03  0.15294330000E+03 0.  0.
<mgrwt>
<rscale>  0 0.82534618E+03</rscale>
<asrwt>0</asrwt>
<pdfrwt beam="1">  1        2 0.13286694E+00 0.90124419E+03</pdfrwt>
<pdfrwt beam="2">  1       -2 0.15568298E+00 0.90124419E+03</pdfrwt>
<totfact> 0.84306897E+00</totfact>
</mgrwt>
</event>
<event>
 4    5  0.8511149E-008  0.6717976E+03  0.7818608E-02  0.1014406E+00
         -2   -1    0    0    0  501 -0.00000000000E+00  0.00000000000E+00  0.68879757085E+02  0.68879757132E+02  0.25500000000E-02 0.  1.
          2   -1    0    0  501    0  0.00000000000E+00 -0.00000000000E+00 -0.34135487542E+04  0.34135487542E+04  0.25500000000E-02 0. -1.
    8880023    1    1    2    0    0  0.80584467501E+02  0.10491852190E+03 -0.17419675716E+04  0.18670198122E+04  0.65864270000E+03 0.  1.
    8880022    1    1    2    0    0 -0.80584467501E+02 -0.10491852190E+03 -0.16027014256E+04  0.16154086991E+04  0.15294330000E+03 0.  0.
<mgrwt>
<rscale>  0 0.49760585E+03</rscale>
<asrwt>0</asrwt>
<pdfrwt beam="1">  1        2 0.52516121E+00 0.67179756E+03</pdfrwt>
<pdfrwt beam="2">  1       -2 0.10596888E-01 0.67179756E+03</pdfrwt>
<totfact> 0.63235776E+01</totfact>
</mgrwt>
</event>
<event>
 4    5  0.8511149E-008  0.7518439E+03  0.7818608E-02  0.9826700E-01
          2   -1    0    0  501    0  0.00000000000E+00  0.00000000000E+00  0.13614072414E+04  0.13614072414E+04  0.25500000000E-02 0. -1.
         -2   -1    0    0    0  501 -0.00000000000E+00 -0.00000000000E+00 -0.78303108991E+03  0.78303108992E+03  0.25500000000E-02 0.  1.
    8880023    1    1    2    0    0 -0.35845878551E+03 -0.54463924135E+02 -0.56161159979E+03  0.93844382635E+03  0.65864270000E+03 0.  1.
    8880022    1    1    2    0    0  0.35845878551E+03  0.54463924135E+02  0.11399877513E+04  0.12059945050E+04  0.15294330000E+03 0.  0.
<mgrwt>
<rscale>  0 0.63949167E+03</rscale>
<asrwt>0</asrwt>
<pdfrwt beam="1">  1        2 0.20944727E+00 0.75184388E+03</pdfrwt>
<pdfrwt beam="2">  1       -2 0.12046632E+00 0.75184388E+03</pdfrwt>
<totfact> 0.81872186E+00</totfact>
</mgrwt>
</event>
<event>
 4    5  0.8511149E-008  0.8893442E+03  0.7818608E-02  0.9543359E-01
          2   -1    0    0  501    0  0.00000000000E+00  0.00000000000E+00  0.14496460427E+04  0.14496460427E+04  0.25500000000E-02 0. -1.
         -2   -1    0    0    0  501 -0.00000000000E+00 -0.00000000000E+00 -0.63753887471E+03  0.63753887471E+03  0.25500000000E-02 0.  1.
    8880023    1    1    2    0    0 -0.36825786423E+03  0.47064745606E+03 -0.19096538166E+03  0.90961577917E+03  0.65864270000E+03 0.  1.
    8880022    1    1    2    0    0  0.36825786423E+03 -0.47064745606E+03  0.10030725497E+04  0.11775691382E+04  0.15294330000E+03 0.  0.
<mgrwt>
<rscale>  0 0.81161266E+03</rscale>
<asrwt>0</asrwt>
<pdfrwt beam="1">  1        2 0.22302247E+00 0.88934419E+03</pdfrwt>
<pdfrwt beam="2">  1       -2 0.98082904E-01 0.88934419E+03</pdfrwt>
<totfact> 0.11800336E+01</totfact>
</mgrwt>
</event>
<event>
 4    5  0.8511149E-008  0.1141088E+04  0.7818608E-02  0.9216631E-01
          2   -1    0    0  501    0  0.00000000000E+00  0.00000000000E+00  0.23514138807E+04  0.23514138807E+04  0.25500000000E-02 0. -1.
         -2   -1    0    0    0  501 -0.00000000000E+00 -0.00000000000E+00 -0.99637537173E+03  0.99637537173E+03  0.25500000000E-02 0.  1.
    8880023    1    1    2    0    0 -0.73088665776E+03 -0.57799427451E+03 -0.51572310530E+03  0.12522193160E+04  0.65864270000E+03 0.  0.
    8880022    1    1    2    0    0  0.73088665776E+03  0.57799427451E+03  0.18707616142E+04  0.20955699364E+04  0.15294330000E+03 0.  0.
<mgrwt>
<rscale>  0 0.10883402E+04</rscale>
<asrwt>0</asrwt>
<pdfrwt beam="1">  1        2 0.36175598E+00 0.11410885E+04</pdfrwt>
<pdfrwt beam="2">  1       -2 0.15328852E+00 0.11410885E+04</pdfrwt>
<totfact> 0.11785826E+00</totfact>
</mgrwt>
</event>
<event>
 4    5  0.8511149E-008  0.8097745E+03  0.7818608E-02  0.9690047E-01
         -2   -1    0    0    0  501 -0.00000000000E+00  0.00000000000E+00  0.67017054167E+03  0.67017054168E+03  0.25500000000E-02 0.  1.
          2   -1    0    0  501    0  0.00000000000E+00 -0.00000000000E+00 -0.18809324666E+04  0.18809324666E+04  0.25500000000E-02 0. -1.
    8880023    1    1    2    0    0 -0.19196614420E+03 -0.43020177245E+03  0.37310835829E+03  0.89159666825E+03  0.65864270000E+03 0.  1.
    8880022    1    1    2    0    0  0.19196614420E+03  0.43020177245E+03 -0.15838702832E+04  0.16595063400E+04  0.15294330000E+03 0.  0.
<mgrwt>
<rscale>  0 0.71612505E+03</rscale>
<asrwt>0</asrwt>
<pdfrwt beam="1">  1        2 0.28937422E+00 0.80977452E+03</pdfrwt>
<pdfrwt beam="2">  1       -2 0.10310316E+00 0.80977452E+03</pdfrwt>
<totfact> 0.61172167E+00</totfact>
</mgrwt>
</event>
<event>
 4    5  0.8511149E-008  0.7875994E+03  0.7818608E-02  0.9738279E-01
          2   -1    0    0  501    0  0.00000000000E+00  0.00000000000E+00  0.36565541647E+04  0.36565541647E+04  0.25500000000E-02 0. -1.
         -2   -1    0    0    0  501 -0.00000000000E+00 -0.00000000000E+00 -0.22230907171E+03  0.22230907172E+03  0.25500000000E-02 0.  1.
    8880023    1    1    2    0    0  0.34664927882E+03 -0.25755943419E+03  0.55525863529E+03  0.96365187852E+03  0.65864270000E+03 0.  1.
    8880022    1    1    2    0    0 -0.34664927882E+03  0.25755943419E+03  0.28789864577E+04  0.29152113579E+04  0.15294330000E+03 0.  0.
<mgrwt>
<rscale>  0 0.68782680E+03</rscale>
<asrwt>0</asrwt>
<pdfrwt beam="1">  1        2 0.56254678E+00 0.78759938E+03</pdfrwt>
<pdfrwt beam="2">  1       -2 0.34201396E-01 0.78759938E+03</pdfrwt>
<totfact> 0.54369111E+00</totfact>
</mgrwt>
</event>
<event>
 4    5  0.8511149E-008  0.1109334E+04  0.7818608E-02  0.9250735E-01
         -2   -1    0    0    0  501 -0.00000000000E+00  0.00000000000E+00  0.94344244332E+03  0.94344244332E+03  0.25500000000E-02 0.  1.
          2   -1    0    0  501    0  0.00000000000E+00 -0.00000000000E+00 -0.15061907983E+04  0.15061907983E+04  0.25500000000E-02 0. -1.
    8880023    1    1    2    0    0 -0.79118451217E+03 -0.41332586488E+03  0.35057740600E+03  0.11634113317E+04  0.65864270000E+03 0.  1.
    8880022    1    1    2    0    0  0.79118451217E+03  0.41332586488E+03 -0.91332576098E+03  0.12862219099E+04  0.15294330000E+03 0.  0.
<mgrwt>
<rscale>  0 0.10544763E+04</rscale>
<asrwt>0</asrwt>
<pdfrwt beam="1">  1        2 0.23172166E+00 0.11093338E+04</pdfrwt>
<pdfrwt beam="2">  1       -2 0.14514499E+00 0.11093338E+04</pdfrwt>
<totfact> 0.40378022E+00</totfact>
</mgrwt>
</event>
<event>
 4    5  0.8511149E-008  0.7357534E+03  0.7818608E-02  0.9872494E-01
         -2   -1    0    0    0  501 -0.00000000000E+00  0.00000000000E+00  0.89528600302E+02  0.89528600338E+02  0.25500000000E-02 0.  1.
          2   -1    0    0  501    0  0.00000000000E+00 -0.00000000000E+00 -0.39126571420E+04  0.39126571420E+04  0.25500000000E-02 0. -1.
    8880023    1    1    2    0    0 -0.13566176313E+03  0.29852771155E+03 -0.31825017035E+04  0.32664430513E+04  0.65864270000E+03 0. -1.
    8880022    1    1    2    0    0  0.13566176313E+03 -0.29852771155E+03 -0.64062683820E+03  0.73574269101E+03  0.15294330000E+03 0.  0.
<mgrwt>
<rscale>  0 0.61613051E+03</rscale>
<asrwt>0</asrwt>
<pdfrwt beam="1">  1        2 0.60194712E+00 0.73575343E+03</pdfrwt>
<pdfrwt beam="2">  1       -2 0.13773634E-01 0.73575343E+03</pdfrwt>
<totfact> 0.17863259E+01</totfact>
</mgrwt>
</event>
<event>
 4    5  0.8511149E-008  0.9352761E+03  0.7818608E-02  0.9471623E-01
          2   -1    0    0  501    0  0.00000000000E+00  0.00000000000E+00  0.11321120415E+04  0.11321120415E+04  0.25500000000E-02 0. -1.
         -2   -1    0    0    0  501 -0.00000000000E+00 -0.00000000000E+00 -0.10443482377E+04  0.10443482377E+04  0.25500000000E-02 0.  1.
    8880023    1    1    2    0    0  0.47097187127E+03  0.46809900683E+03  0.77056009975E+03  0.12118185744E+04  0.65864270000E+03 0.  0.
    8880022    1    1    2    0    0 -0.47097187127E+03 -0.46809900683E+03 -0.68279629594E+03  0.96464170472E+03  0.15294330000E+03 0.  0.
<mgrwt>
<rscale>  0 0.86408683E+03</rscale>
<asrwt>0</asrwt>
<pdfrwt beam="1">  1        2 0.17417108E+00 0.93527610E+03</pdfrwt>
<pdfrwt beam="2">  1       -2 0.16066896E+00 0.93527610E+03</pdfrwt>
<totfact> 0.51743341E+00</totfact>
</mgrwt>
</event>
<event>
 4    5  0.8511149E-008  0.1049829E+04  0.7818608E-02  0.9319087E-01
         -2   -1    0    0    0  501 -0.00000000000E+00  0.00000000000E+00  0.59876375072E+03  0.59876375072E+03  0.25500000000E-02 0.  1.
          2   -1    0    0  501    0  0.00000000000E+00 -0.00000000000E+00 -0.27106342533E+04  0.27106342533E+04  0.25500000000E-02 0. -1.
    8880023    1    1    2    0    0  0.78464597995E+03  0.22947947864E+03 -0.10996572091E+02  0.10498863157E+04  0.65864270000E+03 0.  1.
    8880022    1    1    2    0    0 -0.78464597995E+03 -0.22947947864E+03 -0.21008739305E+04  0.22595116884E+04  0.15294330000E+03 0.  0.
<mgrwt>
<rscale>  0 0.99044479E+03</rscale>
<asrwt>0</asrwt>
<pdfrwt beam="1">  1        2 0.41702065E+00 0.10498287E+04</pdfrwt>
<pdfrwt beam="2">  1       -2 0.92117501E-01 0.10498287E+04</pdfrwt>
<totfact> 0.26372564E+00</totfact>
</mgrwt>
</event>
<event>
 4    5  0.8511149E-008  0.2061350E+04  0.7818608E-02  0.8590273E-01
         -2   -1    0    0    0  501 -0.00000000000E+00  0.00000000000E+00  0.18804603205E+04  0.18804603205E+04  0.25500000000E-02 0.  1.
          2   -1    0    0  501    0  0.00000000000E+00 -0.00000000000E+00 -0.47108489357E+04  0.47108489357E+04  0.25500000000E-02 0. -1.
    8880023    1    1    2    0    0 -0.12542120787E+04  0.14974328594E+04  0.99834653326E+03  0.22903840538E+04  0.65864270000E+03 0.  0.
    8880022    1    1    2    0    0  0.12542120787E+04 -0.14974328594E+04 -0.38287351484E+04  0.43009252024E+04  0.15294330000E+03 0.  0.
<mgrwt>
<rscale>  0 0.20353422E+04</rscale>
<asrwt>0</asrwt>
<pdfrwt beam="1">  1        2 0.72474599E+00 0.20613499E+04</pdfrwt>
<pdfrwt beam="2">  1       -2 0.28930159E+00 0.20613499E+04</pdfrwt>
<totfact> 0.24454845E-03</totfact>
</mgrwt>
</event>
<event>
 4    5  0.8511149E-008  0.8641675E+03  0.7818608E-02  0.9586193E-01
          2   -1    0    0  501    0  0.00000000000E+00  0.00000000000E+00  0.19075246723E+04  0.19075246723E+04  0.25500000000E-02 0. -1.
         -2   -1    0    0    0  501 -0.00000000000E+00 -0.00000000000E+00 -0.28506493687E+03  0.28506493688E+03  0.25500000000E-02 0.  1.
    8880023    1    1    2    0    0  0.37895390041E+03 -0.41154481990E+03  0.74604261716E+03  0.11416501173E+04  0.65864270000E+03 0.  0.
    8880022    1    1    2    0    0 -0.37895390041E+03  0.41154481990E+03  0.87641711831E+03  0.10509394919E+04  0.15294330000E+03 0.  0.
<mgrwt>
<rscale>  0 0.78216807E+03</rscale>
<asrwt>0</asrwt>
<pdfrwt beam="1">  1        2 0.29346534E+00 0.86416746E+03</pdfrwt>
<pdfrwt beam="2">  1       -2 0.43856143E-01 0.86416746E+03</pdfrwt>
<totfact> 0.37685112E+01</totfact>
</mgrwt>
</event>
<event>
 4    5  0.1044952E-007  0.8427655E+03  0.7818608E-02  0.9624988E-01
          2   -1    0    0  501    0  0.00000000000E+00  0.00000000000E+00  0.20926532218E+04  0.20926532218E+04  0.25500000000E-02 0. -1.
         -2   -1    0    0    0  501 -0.00000000000E+00 -0.00000000000E+00 -0.17266367659E+04  0.17266367659E+04  0.25500000000E-02 0.  1.
    8880023    1    1    2    0    0 -0.50165397191E+03 -0.15743821738E+03 -0.15837878364E+04  0.17940561911E+04  0.65864270000E+03 0.  0.
    8880022    1    1    2    0    0  0.50165397191E+03  0.15743821738E+03  0.19498042923E+04  0.20252337966E+04  0.15294330000E+03 0.  0.
<mgrwt>
<rscale>  0 0.75664189E+03</rscale>
<asrwt>0</asrwt>
<pdfrwt beam="1">  1        2 0.32194665E+00 0.84276551E+03</pdfrwt>
<pdfrwt beam="2">  1       -2 0.26563643E+00 0.84276551E+03</pdfrwt>
<totfact> 0.31729932E-01</totfact>
</mgrwt>
</event>
<event>
 4    5  0.8511149E-008  0.7051237E+03  0.7818608E-02  0.9976575E-01
          2   -1    0    0  501    0  0.00000000000E+00  0.00000000000E+00  0.75704648159E+03  0.75704648159E+03  0.25500000000E-02 0. -1.
         -2   -1    0    0    0  501 -0.00000000000E+00 -0.00000000000E+00 -0.85094335618E+03  0.85094335618E+03  0.25500000000E-02 0.  1.
    8880023    1    1    2    0    0  0.19583406631E+03 -0.15823456984E+03 -0.66255174095E+03  0.96756094191E+03  0.65864270000E+03 0.  1.
    8880022    1    1    2    0    0 -0.19583406631E+03  0.15823456984E+03  0.56865486636E+03  0.64042889587E+03  0.15294330000E+03 0.  0.
<mgrwt>
<rscale>  0 0.56689409E+03</rscale>
<asrwt>0</asrwt>
<pdfrwt beam="1">  1        2 0.11646869E+00 0.70512365E+03</pdfrwt>
<pdfrwt beam="2">  1       -2 0.13091436E+00 0.70512365E+03</pdfrwt>
<totfact> 0.16112467E+01</totfact>
</mgrwt>
</event>
<event>
 4    5  0.8511149E-008  0.8290445E+03  0.7818608E-02  0.9651194E-01
          2   -1    0    0  501    0  0.00000000000E+00  0.00000000000E+00  0.17553910029E+04  0.17553910029E+04  0.25500000000E-02 0. -1.
         -2   -1    0    0    0  501 -0.00000000000E+00 -0.00000000000E+00 -0.42844636362E+03  0.42844636363E+03  0.25500000000E-02 0.  1.
    8880023    1    1    2    0    0  0.57066897082E+02  0.50024795190E+03  0.83019586098E+02  0.83319091573E+03  0.65864270000E+03 0.  0.
    8880022    1    1    2    0    0 -0.57066897082E+02 -0.50024795190E+03  0.12439250532E+04  0.13506464508E+04  0.15294330000E+03 0.  0.
<mgrwt>
<rscale>  0 0.73998521E+03</rscale>
<asrwt>0</asrwt>
<pdfrwt beam="1">  1        2 0.27006015E+00 0.82904454E+03</pdfrwt>
<pdfrwt beam="2">  1       -2 0.65914825E-01 0.82904454E+03</pdfrwt>
<totfact> 0.19716184E+01</totfact>
</mgrwt>
</event>
<event>
 4    5  0.8511149E-008  0.6905252E+03  0.7818608E-02  0.1003904E+00
          2   -1    0    0  501    0  0.00000000000E+00  0.00000000000E+00  0.16296916022E+04  0.16296916022E+04  0.25500000000E-02 0. -1.
         -2   -1    0    0    0  501 -0.00000000000E+00 -0.00000000000E+00 -0.13466598734E+04  0.13466598734E+04  0.25500000000E-02 0.  1.
    8880023    1    1    2    0    0 -0.10689523791E+03  0.17773095294E+03 -0.12466487129E+04  0.14251168735E+04  0.65864270000E+03 0.  1.
    8880022    1    1    2    0    0  0.10689523791E+03 -0.17773095294E+03  0.15296804418E+04  0.15512346020E+04  0.15294330000E+03 0.  0.
<mgrwt>
<rscale>  0 0.53971068E+03</rscale>
<asrwt>0</asrwt>
<pdfrwt beam="1">  1        2 0.25072178E+00 0.69052523E+03</pdfrwt>
<pdfrwt beam="2">  1       -2 0.20717844E+00 0.69052523E+03</pdfrwt>
<totfact> 0.13438977E+00</totfact>
</mgrwt>
</event>
<event>
 4    5  0.8511149E-008  0.1009328E+04  0.7818608E-02  0.9369454E-01
          2   -1    0    0  501    0  0.00000000000E+00  0.00000000000E+00  0.10379683099E+04  0.10379683099E+04  0.25500000000E-02 0. -1.
         -2   -1    0    0    0  501 -0.00000000000E+00 -0.00000000000E+00 -0.85712665735E+03  0.85712665736E+03  0.25500000000E-02 0.  1.
    8880023    1    1    2    0    0 -0.70645905957E+03  0.29300069601E+03 -0.19710617646E+03  0.10283943124E+04  0.65864270000E+03 0.  1.
    8880022    1    1    2    0    0  0.70645905957E+03 -0.29300069601E+03  0.37794782904E+03  0.86670065490E+03  0.15294330000E+03 0.  0.
<mgrwt>
<rscale>  0 0.94632737E+03</rscale>
<asrwt>0</asrwt>
<pdfrwt beam="1">  1        2 0.15968743E+00 0.10093285E+04</pdfrwt>
<pdfrwt beam="2">  1       -2 0.13186564E+00 0.10093285E+04</pdfrwt>
<totfact> 0.98890873E+00</totfact>
</mgrwt>
</event>
<event>
 4    5  0.8511149E-008  0.8397646E+03  0.7818608E-02  0.9630624E-01
         -2   -1    0    0    0  501 -0.00000000000E+00  0.00000000000E+00  0.35353917903E+03  0.35353917904E+03  0.25500000000E-02 0.  1.
          2   -1    0    0  501    0  0.00000000000E+00 -0.00000000000E+00 -0.14178722612E+04  0.14178722612E+04  0.25500000000E-02 0. -1.
    8880023    1    1    2    0    0 -0.51883487187E+03  0.46954131919E+02 -0.45436615515E+03  0.95480528067E+03  0.65864270000E+03 0.  0.
    8880022    1    1    2    0    0  0.51883487187E+03 -0.46954131919E+02 -0.60996692702E+03  0.81660615957E+03  0.15294330000E+03 0.  0.
<mgrwt>
<rscale>  0 0.75302000E+03</rscale>
<asrwt>0</asrwt>
<pdfrwt beam="1">  1        2 0.21813419E+00 0.83976456E+03</pdfrwt>
<pdfrwt beam="2">  1       -2 0.54390644E-01 0.83976456E+03</pdfrwt>
<totfact> 0.45507794E+01</totfact>
</mgrwt>
</event>
<event>
 4    5  0.8511149E-008  0.1004016E+04  0.7818608E-02  0.9376322E-01
          2   -1    0    0  501    0  0.00000000000E+00  0.00000000000E+00  0.11795204006E+04  0.11795204006E+04  0.25500000000E-02 0. -1.
         -2   -1    0    0    0  501 -0.00000000000E+00 -0.00000000000E+00 -0.12792664926E+04  0.12792664926E+04  0.25500000000E-02 0.  1.
    8880023    1    1    2    0    0  0.64877870175E+03 -0.39156643590E+03 -0.89838819206E+03  0.13472748893E+04  0.65864270000E+03 0.  0.
    8880022    1    1    2    0    0 -0.64877870175E+03  0.39156643590E+03  0.79864210006E+03  0.11115120038E+04  0.15294330000E+03 0.  0.
<mgrwt>
<rscale>  0 0.94050157E+03</rscale>
<asrwt>0</asrwt>
<pdfrwt beam="1">  1        2 0.18146468E+00 0.10040161E+04</pdfrwt>
<pdfrwt beam="2">  1       -2 0.19681023E+00 0.10040161E+04</pdfrwt>
<totfact> 0.26972437E+00</totfact>
</mgrwt>
</event>
<event>
 4    5  0.8511149E-008  0.7251030E+03  0.7818608E-02  0.9905683E-01
         -2   -1    0    0    0  501 -0.00000000000E+00  0.00000000000E+00  0.21636904160E+03  0.21636904161E+03  0.25500000000E-02 0.  1.
          2   -1    0    0  501    0  0.00000000000E+00 -0.00000000000E+00 -0.37132414782E+04  0.37132414782E+04  0.25500000000E-02 0. -1.
    8880023    1    1    2    0    0  0.29390180035E+03  0.74738964993E+02 -0.42799151756E+03  0.84199235537E+03  0.65864270000E+03 0.  1.
    8880022    1    1    2    0    0 -0.29390180035E+03 -0.74738964993E+02 -0.30688809190E+04  0.30876181644E+04  0.15294330000E+03 0.  0.
<mgrwt>
<rscale>  0 0.59986667E+03</rscale>
<asrwt>0</asrwt>
<pdfrwt beam="1">  1        2 0.57126787E+00 0.72510302E+03</pdfrwt>
<pdfrwt beam="2">  1       -2 0.33287548E-01 0.72510302E+03</pdfrwt>
<totfact> 0.52791637E+00</totfact>
</mgrwt>
</event>
<event>
 4    5  0.8511149E-008  0.1421313E+04  0.7818608E-02  0.8967296E-01
         -2   -1    0    0    0  501 -0.00000000000E+00  0.00000000000E+00  0.93729234875E+03  0.93729234876E+03  0.25500000000E-02 0.  1.
          2   -1    0    0  501    0  0.00000000000E+00 -0.00000000000E+00 -0.22895012306E+04  0.22895012306E+04  0.25500000000E-02 0. -1.
    8880023    1    1    2    0    0 -0.87312372865E+03  0.90773141658E+03 -0.70096946271E+02  0.14230408140E+04  0.65864270000E+03 0.  0.
    8880022    1    1    2    0    0  0.87312372865E+03 -0.90773141658E+03 -0.12821119356E+04  0.18037527654E+04  0.15294330000E+03 0.  0.
<mgrwt>
<rscale>  0 0.13815319E+04</rscale>
<asrwt>0</asrwt>
<pdfrwt beam="1">  1        2 0.35223096E+00 0.14213133E+04</pdfrwt>
<pdfrwt beam="2">  1       -2 0.14419882E+00 0.14213133E+04</pdfrwt>
<totfact> 0.14557003E+00</totfact>
</mgrwt>
</event>
<event>
 4    5  0.8511149E-008  0.9396525E+03  0.7818608E-02  0.9465161E-01
         -2   -1    0    0    0  501 -0.00000000000E+00  0.00000000000E+00  0.84443528896E+03  0.84443528896E+03  0.25500000000E-02 0.  1.
          2   -1    0    0  501    0  0.00000000000E+00 -0.00000000000E+00 -0.12649668567E+04  0.12649668567E+04  0.25500000000E-02 0. -1.
    8880023    1    1    2    0    0  0.41980282913E+03 -0.52240038135E+03  0.41519114036E+03  0.10272927835E+04  0.65864270000E+03 0.  1.
    8880022    1    1    2    0    0 -0.41980282913E+03  0.52240038135E+03 -0.83572270809E+03  0.10821093621E+04  0.15294330000E+03 0.  0.
<mgrwt>
<rscale>  0 0.86901829E+03</rscale>
<asrwt>0</asrwt>
<pdfrwt beam="1">  1        2 0.19461028E+00 0.93965248E+03</pdfrwt>
<pdfrwt beam="2">  1       -2 0.12991312E+00 0.93965248E+03</pdfrwt>
<totfact> 0.75284883E+00</totfact>
</mgrwt>
</event>
<event>
 4    5  0.8511149E-008  0.1044563E+04  0.7818608E-02  0.9325446E-01
          2   -1    0    0  501    0  0.00000000000E+00  0.00000000000E+00  0.16022449147E+04  0.16022449147E+04  0.25500000000E-02 0. -1.
         -2   -1    0    0    0  501 -0.00000000000E+00 -0.00000000000E+00 -0.12749353303E+04  0.12749353303E+04  0.25500000000E-02 0.  1.
    8880023    1    1    2    0    0  0.97070497507E+02 -0.80490907748E+03 -0.91313446261E+03  0.13874170453E+04  0.65864270000E+03 0.  1.
    8880022    1    1    2    0    0 -0.97070497507E+02  0.80490907748E+03  0.12404440470E+04  0.14897631997E+04  0.15294330000E+03 0.  0.
<mgrwt>
<rscale>  0 0.98473604E+03</rscale>
<asrwt>0</asrwt>
<pdfrwt beam="1">  1        2 0.24649922E+00 0.10445628E+04</pdfrwt>
<pdfrwt beam="2">  1       -2 0.19614390E+00 0.10445628E+04</pdfrwt>
<totfact> 0.15498084E+00</totfact>
</mgrwt>
</event>
<event>
 4    5  0.8511149E-008  0.1919063E+04  0.7818608E-02  0.8659385E-01
          2   -1    0    0  501    0  0.00000000000E+00  0.00000000000E+00  0.30842428244E+04  0.30842428244E+04  0.25500000000E-02 0. -1.
         -2   -1    0    0    0  501 -0.00000000000E+00 -0.00000000000E+00 -0.13380696416E+04  0.13380696416E+04  0.25500000000E-02 0.  1.
    8880023    1    1    2    0    0 -0.68742891283E+03  0.16662634957E+04  0.15988128480E+02  0.19191295876E+04  0.65864270000E+03 0.  0.
    8880022    1    1    2    0    0  0.68742891283E+03 -0.16662634957E+04  0.17301850543E+04  0.25031828784E+04  0.15294330000E+03 0.  0.
<mgrwt>
<rscale>  0 0.18909278E+04</rscale>
<asrwt>0</asrwt>
<pdfrwt beam="1">  1        2 0.47449889E+00 0.19190630E+04</pdfrwt>
<pdfrwt beam="2">  1       -2 0.20585687E+00 0.19190630E+04</pdfrwt>
<totfact> 0.16879455E-01</totfact>
</mgrwt>
</event>
<event>
 4    5  0.8511149E-008  0.1242430E+04  0.7818608E-02  0.9116942E-01
         -2   -1    0    0    0  501 -0.00000000000E+00  0.00000000000E+00  0.14336487271E+04  0.14336487271E+04  0.25500000000E-02 0.  1.
          2   -1    0    0  501    0  0.00000000000E+00 -0.00000000000E+00 -0.18046401819E+04  0.18046401819E+04  0.25500000000E-02 0. -1.
    8880023    1    1    2    0    0  0.10533339763E+04 -0.17579501214E+02  0.93388172377E+03  0.15542737161E+04  0.65864270000E+03 0.  1.
    8880022    1    1    2    0    0 -0.10533339763E+04  0.17579501214E+02 -0.13048731786E+04  0.16840151928E+04  0.15294330000E+03 0.  0.
<mgrwt>
<rscale>  0 0.11953438E+04</rscale>
<asrwt>0</asrwt>
<pdfrwt beam="1">  1        2 0.27763695E+00 0.12424298E+04</pdfrwt>
<pdfrwt beam="2">  1       -2 0.22056134E+00 0.12424298E+04</pdfrwt>
<totfact> 0.81201186E-01</totfact>
</mgrwt>
</event>
<event>
 4    5  0.8511149E-008  0.8864959E+03  0.7818608E-02  0.9548067E-01
         -2   -1    0    0    0  501 -0.00000000000E+00  0.00000000000E+00  0.46482429092E+03  0.46482429093E+03  0.25500000000E-02 0.  1.
          2   -1    0    0  501    0  0.00000000000E+00 -0.00000000000E+00 -0.16863450566E+04  0.16863450566E+04  0.25500000000E-02 0. -1.
    8880023    1    1    2    0    0 -0.44715821349E+03  0.39001828688E+03 -0.12528190233E+03  0.89530469300E+03  0.65864270000E+03 0.  0.
    8880022    1    1    2    0    0  0.44715821349E+03 -0.39001828688E+03 -0.10962388634E+04  0.12558646546E+04  0.15294330000E+03 0.  0.
<mgrwt>
<rscale>  0 0.80830912E+03</rscale>
<asrwt>0</asrwt>
<pdfrwt beam="1">  1        2 0.25943770E+00 0.88649588E+03</pdfrwt>
<pdfrwt beam="2">  1       -2 0.71511430E-01 0.88649588E+03</pdfrwt>
<totfact> 0.17898769E+01</totfact>
</mgrwt>
</event>
<event>
 4    5  0.8511149E-008  0.1160423E+04  0.7818608E-02  0.9196588E-01
         -2   -1    0    0    0  501 -0.00000000000E+00  0.00000000000E+00  0.91333200560E+03  0.91333200561E+03  0.25500000000E-02 0.  1.
          2   -1    0    0  501    0  0.00000000000E+00 -0.00000000000E+00 -0.23692030881E+04  0.23692030881E+04  0.25500000000E-02 0. -1.
    8880023    1    1    2    0    0 -0.23353612167E+03  0.92640794995E+03  0.36845181564E+03  0.12175129390E+04  0.65864270000E+03 0.  0.
    8880022    1    1    2    0    0  0.23353612167E+03 -0.92640794995E+03 -0.18243228981E+04  0.20650221547E+04  0.15294330000E+03 0.  0.
<mgrwt>
<rscale>  0 0.11088712E+04</rscale>
<asrwt>0</asrwt>
<pdfrwt beam="1">  1        2 0.36449278E+00 0.11604228E+04</pdfrwt>
<pdfrwt beam="2">  1       -2 0.14051262E+00 0.11604228E+04</pdfrwt>
<totfact> 0.14463563E+00</totfact>
</mgrwt>
</event>
<event>
 4    5  0.8511149E-008  0.9632791E+03  0.7818608E-02  0.9431260E-01
         -2   -1    0    0    0  501 -0.00000000000E+00  0.00000000000E+00  0.74846015102E+03  0.74846015102E+03  0.25500000000E-02 0.  1.
          2   -1    0    0  501    0  0.00000000000E+00 -0.00000000000E+00 -0.14059692034E+04  0.14059692034E+04  0.25500000000E-02 0. -1.
    8880023    1    1    2    0    0 -0.17910542210E+03  0.67971888324E+03  0.25115463243E+03  0.99548248006E+03  0.65864270000E+03 0.  0.
    8880022    1    1    2    0    0  0.17910542210E+03 -0.67971888324E+03 -0.90866368478E+03  0.11589468743E+04  0.15294330000E+03 0.  0.
<mgrwt>
<rscale>  0 0.89547130E+03</rscale>
<asrwt>0</asrwt>
<pdfrwt beam="1">  1        2 0.21630295E+00 0.96327915E+03</pdfrwt>
<pdfrwt beam="2">  1       -2 0.11514772E+00 0.96327915E+03</pdfrwt>
<totfact> 0.84184907E+00</totfact>
</mgrwt>
</event>
<event>
 4    5  0.8511149E-008  0.1169972E+04  0.7818608E-02  0.9186879E-01
         -2   -1    0    0    0  501 -0.00000000000E+00  0.00000000000E+00  0.94973609742E+03  0.94973609743E+03  0.25500000000E-02 0.  1.
          2   -1    0    0  501    0  0.00000000000E+00 -0.00000000000E+00 -0.28697752922E+04  0.28697752922E+04  0.25500000000E-02 0. -1.
    8880023    1    1    2    0    0 -0.62829296872E+03  0.73503142548E+03  0.45133132515E+03  0.12540069467E+04  0.65864270000E+03 0.  0.
    8880022    1    1    2    0    0  0.62829296872E+03 -0.73503142548E+03 -0.23713705199E+04  0.25655044429E+04  0.15294330000E+03 0.  0.
<mgrwt>
<rscale>  0 0.11189886E+04</rscale>
<asrwt>0</asrwt>
<pdfrwt beam="1">  1        2 0.44150389E+00 0.11699716E+04</pdfrwt>
<pdfrwt beam="2">  1       -2 0.14611325E+00 0.11699716E+04</pdfrwt>
<totfact> 0.66485096E-01</totfact>
</mgrwt>
</event>
<event>
 4    5  0.8511149E-008  0.1078605E+04  0.7818608E-02  0.9285259E-01
          2   -1    0    0  501    0  0.00000000000E+00  0.00000000000E+00  0.45428557147E+04  0.45428557147E+04  0.25500000000E-02 0. -1.
         -2   -1    0    0    0  501 -0.00000000000E+00 -0.00000000000E+00 -0.28987353817E+03  0.28987353818E+03  0.25500000000E-02 0.  1.
    8880023    1    1    2    0    0 -0.51194595254E+03 -0.68373217039E+03  0.10171193224E+04  0.14825384519E+04  0.65864270000E+03 0.  0.
    8880022    1    1    2    0    0  0.51194595254E+03  0.68373217039E+03  0.32358628541E+04  0.33501908010E+04  0.15294330000E+03 0.  0.
<mgrwt>
<rscale>  0 0.10215132E+04</rscale>
<asrwt>0</asrwt>
<pdfrwt beam="1">  1        2 0.69890084E+00 0.10786049E+04</pdfrwt>
<pdfrwt beam="2">  1       -2 0.44595932E-01 0.10786049E+04</pdfrwt>
<totfact> 0.56543519E-01</totfact>
</mgrwt>
</event>
<event>
 4    5  0.8511149E-008  0.8434092E+03  0.7818608E-02  0.9623785E-01
          2   -1    0    0  501    0  0.00000000000E+00  0.00000000000E+00  0.12623791698E+04  0.12623791698E+04  0.25500000000E-02 0. -1.
         -2   -1    0    0    0  501 -0.00000000000E+00 -0.00000000000E+00 -0.63779111550E+03  0.63779111551E+03  0.25500000000E-02 0.  1.
    8880023    1    1    2    0    0 -0.95062516156E+02  0.51816205542E+03 -0.23941706603E+03  0.87673230545E+03  0.65864270000E+03 0.  1.
    8880022    1    1    2    0    0  0.95062516156E+02 -0.51816205542E+03  0.86400512032E+03  0.10234379799E+04  0.15294330000E+03 0.  0.
<mgrwt>
<rscale>  0 0.75741726E+03</rscale>
<asrwt>0</asrwt>
<pdfrwt beam="1">  1        2 0.19421218E+00 0.84340916E+03</pdfrwt>
<pdfrwt beam="2">  1       -2 0.98121710E-01 0.84340916E+03</pdfrwt>
<totfact> 0.15169744E+01</totfact>
</mgrwt>
</event>
<event>
 4    5  0.8511149E-008  0.1220300E+04  0.7818608E-02  0.9137638E-01
          2   -1    0    0  501    0  0.00000000000E+00  0.00000000000E+00  0.10178636895E+04  0.10178636895E+04  0.25500000000E-02 0. -1.
         -2   -1    0    0    0  501 -0.00000000000E+00 -0.00000000000E+00 -0.17283734936E+04  0.17283734936E+04  0.25500000000E-02 0.  1.
    8880023    1    1    2    0    0  0.51424133382E+03 -0.88931272038E+03 -0.10941938887E+04  0.16390215790E+04  0.65864270000E+03 0.  0.
    8880022    1    1    2    0    0 -0.51424133382E+03  0.88931272038E+03  0.38368408461E+03  0.11072156040E+04  0.15294330000E+03 0.  0.
<mgrwt>
<rscale>  0 0.11720958E+04</rscale>
<asrwt>0</asrwt>
<pdfrwt beam="1">  1        2 0.15659441E+00 0.12202997E+04</pdfrwt>
<pdfrwt beam="2">  1       -2 0.26590361E+00 0.12202997E+04</pdfrwt>
<totfact> 0.12255621E+00</totfact>
</mgrwt>
</event>
<event>
 4    5  0.8511149E-008  0.6670653E+03  0.7818608E-02  0.1017860E+00
         -2   -1    0    0    0  501 -0.00000000000E+00  0.00000000000E+00  0.44399943437E+03  0.44399943438E+03  0.25500000000E-02 0.  1.
          2   -1    0    0  501    0  0.00000000000E+00 -0.00000000000E+00 -0.90426408888E+03  0.90426408889E+03  0.25500000000E-02 0. -1.
    8880023    1    1    2    0    0 -0.45067917329E+02  0.95576086172E+02  0.17229241850E+03  0.68895630424E+03  0.65864270000E+03 0.  1.
    8880022    1    1    2    0    0  0.45067917329E+02 -0.95576086172E+02 -0.63255707301E+03  0.65930721902E+03  0.15294330000E+03 0.  0.
<mgrwt>
<rscale>  0 0.48466777E+03</rscale>
<asrwt>0</asrwt>
<pdfrwt beam="1">  1        2 0.13911755E+00 0.66706530E+03</pdfrwt>
<pdfrwt beam="2">  1       -2 0.68307606E-01 0.66706530E+03</pdfrwt>
<totfact> 0.58341810E+01</totfact>
</mgrwt>
</event>
<event>
 4    5  0.8511149E-008  0.8350344E+03  0.7818608E-02  0.9639615E-01
         -2   -1    0    0    0  501 -0.00000000000E+00  0.00000000000E+00  0.15607151215E+04  0.15607151215E+04  0.25500000000E-02 0.  1.
          2   -1    0    0  501    0  0.00000000000E+00 -0.00000000000E+00 -0.14574962141E+04  0.14574962141E+04  0.25500000000E-02 0. -1.
    8880023    1    1    2    0    0 -0.36511215173E+03 -0.36078439321E+03  0.13916159698E+04  0.16229225106E+04  0.65864270000E+03 0.  1.
    8880022    1    1    2    0    0  0.36511215173E+03  0.36078439321E+03 -0.12883970624E+04  0.13952888250E+04  0.15294330000E+03 0.  0.
<mgrwt>
<rscale>  0 0.74728759E+03</rscale>
<asrwt>0</asrwt>
<pdfrwt beam="1">  1        2 0.22423019E+00 0.83503441E+03</pdfrwt>
<pdfrwt beam="2">  1       -2 0.24011002E+00 0.83503441E+03</pdfrwt>
<totfact> 0.10153064E+00</totfact>
</mgrwt>
</event>
<event>
 4    5  0.8511149E-008  0.1175076E+04  0.7818608E-02  0.9181739E-01
         -2   -1    0    0    0  501 -0.00000000000E+00  0.00000000000E+00  0.84536335750E+03  0.84536335750E+03  0.25500000000E-02 0.  1.
          2   -1    0    0  501    0  0.00000000000E+00 -0.00000000000E+00 -0.25188783358E+04  0.25188783358E+04  0.25500000000E-02 0. -1.
    8880023    1    1    2    0    0 -0.34585096566E+03  0.90960435352E+03  0.25161958830E+03  0.12017136073E+04  0.65864270000E+03 0.  0.
    8880022    1    1    2    0    0  0.34585096566E+03 -0.90960435352E+03 -0.19251345666E+04  0.21625280860E+04  0.15294330000E+03 0.  0.
<mgrwt>
<rscale>  0 0.11243911E+04</rscale>
<asrwt>0</asrwt>
<pdfrwt beam="1">  1        2 0.38751974E+00 0.11750758E+04</pdfrwt>
<pdfrwt beam="2">  1       -2 0.13005590E+00 0.11750758E+04</pdfrwt>
<totfact> 0.14474027E+00</totfact>
</mgrwt>
</event>
<event>
 4    5  0.8511149E-008  0.8105435E+03  0.7818608E-02  0.9688446E-01
          2   -1    0    0  501    0  0.00000000000E+00  0.00000000000E+00  0.94408109565E+03  0.94408109565E+03  0.25500000000E-02 0. -1.
         -2   -1    0    0    0  501 -0.00000000000E+00 -0.00000000000E+00 -0.69811214006E+03  0.69811214006E+03  0.25500000000E-02 0.  1.
    8880023    1    1    2    0    0 -0.38164253619E+02 -0.47086524309E+03 -0.33578189262E+03  0.87734273410E+03  0.65864270000E+03 0.  1.
    8880022    1    1    2    0    0  0.38164253619E+02  0.47086524309E+03  0.58175084821E+03  0.76485050161E+03  0.15294330000E+03 0.  0.
<mgrwt>
<rscale>  0 0.71708902E+03</rscale>
<asrwt>0</asrwt>
<pdfrwt beam="1">  1        2 0.14524325E+00 0.81054352E+03</pdfrwt>
<pdfrwt beam="2">  1       -2 0.10740187E+00 0.81054352E+03</pdfrwt>
<totfact> 0.19258703E+01</totfact>
</mgrwt>
</event>
<event>
 4    5  0.8511149E-008  0.7276043E+03  0.7818608E-02  0.9897648E-01
          2   -1    0    0  501    0  0.00000000000E+00  0.00000000000E+00  0.26412891014E+04  0.26412891014E+04  0.25500000000E-02 0. -1.
         -2   -1    0    0    0  501 -0.00000000000E+00 -0.00000000000E+00 -0.47147332525E+03  0.47147332526E+03  0.25500000000E-02 0.  1.
    8880023    1    1    2    0    0  0.30202934384E+03  0.66151743327E+02 -0.17037478675E+03  0.74728545544E+03  0.65864270000E+03 0.  1.
    8880022    1    1    2    0    0 -0.30202934384E+03 -0.66151743327E+02  0.23401905629E+04  0.23654769712E+04  0.15294330000E+03 0.  0.
<mgrwt>
<rscale>  0 0.60375394E+03</rscale>
<asrwt>0</asrwt>
<pdfrwt beam="1">  1        2 0.40635217E+00 0.72760428E+03</pdfrwt>
<pdfrwt beam="2">  1       -2 0.72534358E-01 0.72760428E+03</pdfrwt>
<totfact> 0.52365650E+00</totfact>
</mgrwt>
</event>
<event>
 4    5  0.8511149E-008  0.1356535E+04  0.7818608E-02  0.9018214E-01
         -2   -1    0    0    0  501 -0.00000000000E+00  0.00000000000E+00  0.10441719801E+04  0.10441719801E+04  0.25500000000E-02 0.  1.
          2   -1    0    0  501    0  0.00000000000E+00 -0.00000000000E+00 -0.30342476671E+04  0.30342476671E+04  0.25500000000E-02 0. -1.
    8880023    1    1    2    0    0 -0.79675296342E+03 -0.87838596402E+03  0.39288643475E+03  0.14122843706E+04  0.65864270000E+03 0.  0.
    8880022    1    1    2    0    0  0.79675296342E+03  0.87838596402E+03 -0.23829621217E+04  0.26661352766E+04  0.15294330000E+03 0. -1.
<mgrwt>
<rscale>  0 0.13144119E+04</rscale>
<asrwt>0</asrwt>
<pdfrwt beam="1">  1        2 0.46680733E+00 0.13565351E+04</pdfrwt>
<pdfrwt beam="2">  1       -2 0.16064184E+00 0.13565351E+04</pdfrwt>
<totfact> 0.39778501E-01</totfact>
</mgrwt>
</event>
<event>
 4    5  0.8511149E-008  0.1191363E+04  0.7818608E-02  0.9165565E-01
         -2   -1    0    0    0  501 -0.00000000000E+00  0.00000000000E+00  0.83696653086E+03  0.83696653086E+03  0.25500000000E-02 0.  1.
          2   -1    0    0  501    0  0.00000000000E+00 -0.00000000000E+00 -0.32390477012E+04  0.32390477012E+04  0.25500000000E-02 0. -1.
    8880023    1    1    2    0    0  0.64296131054E+03 -0.75639620327E+03  0.26983064375E+03  0.12215372470E+04  0.65864270000E+03 0.  0.
    8880022    1    1    2    0    0 -0.64296131054E+03  0.75639620327E+03 -0.26719118141E+04  0.28544769851E+04  0.15294330000E+03 0.  0.
<mgrwt>
<rscale>  0 0.11416037E+04</rscale>
<asrwt>0</asrwt>
<pdfrwt beam="1">  1        2 0.49831503E+00 0.11913625E+04</pdfrwt>
<pdfrwt beam="2">  1       -2 0.12876408E+00 0.11913625E+04</pdfrwt>
<totfact> 0.53988431E-01</totfact>
</mgrwt>
</event>
<event>
 4    5  0.8511149E-008  0.1133494E+04  0.7818608E-02  0.9224650E-01
          2   -1    0    0  501    0  0.00000000000E+00  0.00000000000E+00  0.20717956151E+04  0.20717956151E+04  0.25500000000E-02 0. -1.
         -2   -1    0    0    0  501 -0.00000000000E+00 -0.00000000000E+00 -0.12031516295E+04  0.12031516295E+04  0.25500000000E-02 0.  1.
    8880023    1    1    2    0    0  0.89540685595E+03 -0.22191158878E+03 -0.78253283078E+03  0.13773765021E+04  0.65864270000E+03 0.  0.
    8880022    1    1    2    0    0 -0.89540685595E+03  0.22191158878E+03  0.16511768164E+04  0.18975707426E+04  0.15294330000E+03 0. -1.
<mgrwt>
<rscale>  0 0.10802581E+04</rscale>
<asrwt>0</asrwt>
<pdfrwt beam="1">  1        2 0.31873778E+00 0.11334939E+04</pdfrwt>
<pdfrwt beam="2">  1       -2 0.18510025E+00 0.11334939E+04</pdfrwt>
<totfact> 0.99925459E-01</totfact>
</mgrwt>
</event>
<event>
 4    5  0.8511149E-008  0.1143816E+04  0.7818608E-02  0.9213772E-01
         -2   -1    0    0    0  501 -0.00000000000E+00  0.00000000000E+00  0.11465664452E+04  0.11465664452E+04  0.25500000000E-02 0.  1.
          2   -1    0    0  501    0  0.00000000000E+00 -0.00000000000E+00 -0.16372860842E+04  0.16372860842E+04  0.25500000000E-02 0. -1.
    8880023    1    1    2    0    0  0.82946075089E+03 -0.43185600041E+03  0.63831692652E+03  0.13098715385E+04  0.65864270000E+03 0.  0.
    8880022    1    1    2    0    0 -0.82946075089E+03  0.43185600041E+03 -0.11290365655E+04  0.14739809909E+04  0.15294330000E+03 0.  0.
<mgrwt>
<rscale>  0 0.10912403E+04</rscale>
<asrwt>0</asrwt>
<pdfrwt beam="1">  1        2 0.25189017E+00 0.11438160E+04</pdfrwt>
<pdfrwt beam="2">  1       -2 0.17639484E+00 0.11438160E+04</pdfrwt>
<totfact> 0.19940952E+00</totfact>
</mgrwt>
</event>
<event>
 4    5  0.8511149E-008  0.2356220E+04  0.7818608E-02  0.8464748E-01
          2   -1    0    0  501    0  0.00000000000E+00  0.00000000000E+00  0.21620473516E+04  0.21620473516E+04  0.25500000000E-02 0. -1.
         -2   -1    0    0    0  501 -0.00000000000E+00 -0.00000000000E+00 -0.40494229943E+04  0.40494229943E+04  0.25500000000E-02 0.  1.
    8880023    1    1    2    0    0 -0.11316795142E+04 -0.19588936879E+04 -0.28929190108E+04  0.37310526146E+04  0.65864270000E+03 0.  0.
    8880022    1    1    2    0    0  0.11316795142E+04  0.19588936879E+04  0.10055433680E+04  0.24804177313E+04  0.15294330000E+03 0.  0.
<mgrwt>
<rscale>  0 0.23337084E+04</rscale>
<asrwt>0</asrwt>
<pdfrwt beam="1">  1        2 0.33262267E+00 0.23562201E+04</pdfrwt>
<pdfrwt beam="2">  1       -2 0.62298815E+00 0.23562201E+04</pdfrwt>
<totfact> 0.18675986E-03</totfact>
</mgrwt>
</event>
<event>
 4    5  0.8511149E-008  0.7772359E+03  0.7818608E-02  0.9762370E-01
          2   -1    0    0  501    0  0.00000000000E+00  0.00000000000E+00  0.32969733632E+04  0.32969733632E+04  0.25500000000E-02 0. -1.
         -2   -1    0    0    0  501 -0.00000000000E+00 -0.00000000000E+00 -0.96946772954E+03  0.96946772954E+03  0.25500000000E-02 0.  1.
    8880023    1    1    2    0    0 -0.16881556800E+03  0.37654581076E+03 -0.79574189097E+03  0.11123402388E+04  0.65864270000E+03 0.  1.
    8880022    1    1    2    0    0  0.16881556800E+03 -0.37654581076E+03  0.31232475246E+04  0.31541008539E+04  0.15294330000E+03 0.  0.
<mgrwt>
<rscale>  0 0.67421657E+03</rscale>
<asrwt>0</asrwt>
<pdfrwt beam="1">  1        2 0.50722667E+00 0.77723590E+03</pdfrwt>
<pdfrwt beam="2">  1       -2 0.14914888E+00 0.77723590E+03</pdfrwt>
<totfact> 0.36575762E-01</totfact>
</mgrwt>
</event>
<event>
 4    5  0.8511149E-008  0.8051222E+03  0.7818608E-02  0.9699828E-01
         -2   -1    0    0    0  501 -0.00000000000E+00  0.00000000000E+00  0.61203913389E+03  0.61203913389E+03  0.25500000000E-02 0.  1.
          2   -1    0    0  501    0  0.00000000000E+00 -0.00000000000E+00 -0.10167555592E+04  0.10167555592E+04  0.25500000000E-02 0. -1.
    8880023    1    1    2    0    0  0.30325783388E+03 -0.34992323177E+03  0.22156192829E+03  0.83505178059E+03  0.65864270000E+03 0.  1.
    8880022    1    1    2    0    0 -0.30325783388E+03  0.34992323177E+03 -0.62627835360E+03  0.79374291250E+03  0.15294330000E+03 0.  0.
<mgrwt>
<rscale>  0 0.71027018E+03</rscale>
<asrwt>0</asrwt>
<pdfrwt beam="1">  1        2 0.15642393E+00 0.80512222E+03</pdfrwt>
<pdfrwt beam="2">  1       -2 0.94159867E-01 0.80512222E+03</pdfrwt>
<totfact> 0.23641388E+01</totfact>
</mgrwt>
</event>
<event>
 4    5  0.8511149E-008  0.1150626E+04  0.7818608E-02  0.9206679E-01
          2   -1    0    0  501    0  0.00000000000E+00  0.00000000000E+00  0.19591929295E+04  0.19591929295E+04  0.25500000000E-02 0. -1.
         -2   -1    0    0    0  501 -0.00000000000E+00 -0.00000000000E+00 -0.61461749033E+03  0.61461749033E+03  0.25500000000E-02 0.  1.
    8880023    1    1    2    0    0 -0.16382892688E+03 -0.92913374370E+03  0.10894496887E+04  0.15845631138E+04  0.65864270000E+03 0.  0.
    8880022    1    1    2    0    0  0.16382892688E+03  0.92913374370E+03  0.25512575040E+03  0.98924730603E+03  0.15294330000E+03 0.  0.
<mgrwt>
<rscale>  0 0.10984755E+04</rscale>
<asrwt>0</asrwt>
<pdfrwt beam="1">  1        2 0.30141430E+00 0.11506258E+04</pdfrwt>
<pdfrwt beam="2">  1       -2 0.94556537E-01 0.11506258E+04</pdfrwt>
<totfact> 0.65287551E+00</totfact>
</mgrwt>
</event>
<event>
 4    5  0.8511149E-008  0.7586348E+03  0.7818608E-02  0.9808655E-01
         -2   -1    0    0    0  501 -0.00000000000E+00  0.00000000000E+00  0.27417188760E+03  0.27417188761E+03  0.25500000000E-02 0.  1.
          2   -1    0    0  501    0  0.00000000000E+00 -0.00000000000E+00 -0.13091215103E+04  0.13091215103E+04  0.25500000000E-02 0. -1.
    8880023    1    1    2    0    0  0.12162965679E+03 -0.35626222388E+03 -0.48842613015E+03  0.90226760800E+03  0.65864270000E+03 0.  1.
    8880022    1    1    2    0    0 -0.12162965679E+03  0.35626222388E+03 -0.54652349252E+03  0.68102578987E+03  0.15294330000E+03 0. -1.
<mgrwt>
<rscale>  0 0.64900142E+03</rscale>
<asrwt>0</asrwt>
<pdfrwt beam="1">  1        2 0.20140331E+00 0.75863479E+03</pdfrwt>
<pdfrwt beam="2">  1       -2 0.42180291E-01 0.75863479E+03</pdfrwt>
<totfact> 0.88387559E+01</totfact>
</mgrwt>
</event>
<event>
 4    5  0.8511149E-008  0.1219005E+04  0.7818608E-02  0.9138866E-01
          2   -1    0    0  501    0  0.00000000000E+00  0.00000000000E+00  0.39903576751E+04  0.39903576751E+04  0.25500000000E-02 0. -1.
         -2   -1    0    0    0  501 -0.00000000000E+00 -0.00000000000E+00 -0.72208398251E+03  0.72208398252E+03  0.25500000000E-02 0.  1.
    8880023    1    1    2    0    0 -0.10193777954E+04 -0.11415656246E+03 -0.65814560591E+02  0.12207803133E+04  0.65864270000E+03 0.  0.
    8880022    1    1    2    0    0  0.10193777954E+04  0.11415656246E+03  0.33340882532E+04  0.34916613443E+04  0.15294330000E+03 0. -1.
<mgrwt>
<rscale>  0 0.11707338E+04</rscale>
<asrwt>0</asrwt>
<pdfrwt beam="1">  1        2 0.61390118E+00 0.12190049E+04</pdfrwt>
<pdfrwt beam="2">  1       -2 0.11108984E+00 0.12190049E+04</pdfrwt>
<totfact> 0.22535629E-01</totfact>
</mgrwt>
</event>
<event>
 4    5  0.1004122E-007  0.1212914E+04  0.7818608E-02  0.9144670E-01
         -2   -1    0    0    0  501 -0.00000000000E+00  0.00000000000E+00  0.11643076641E+04  0.11643076642E+04  0.25500000000E-02 0.  1.
          2   -1    0    0  501    0  0.00000000000E+00 -0.00000000000E+00 -0.31987873361E+04  0.31987873361E+04  0.25500000000E-02 0. -1.
    8880023    1    1    2    0    0 -0.90805865266E+03  0.46127987457E+03  0.72817311653E+03  0.14147070132E+04  0.65864270000E+03 0.  1.
    8880022    1    1    2    0    0  0.90805865266E+03 -0.46127987457E+03 -0.27626527885E+04  0.29483879871E+04  0.15294330000E+03 0.  0.
<mgrwt>
<rscale>  0 0.11643234E+04</rscale>
<asrwt>0</asrwt>
<pdfrwt beam="1">  1        2 0.49212113E+00 0.12129138E+04</pdfrwt>
<pdfrwt beam="2">  1       -2 0.17912426E+00 0.12129138E+04</pdfrwt>
<totfact> 0.23526011E-01</totfact>
</mgrwt>
</event>
<event>
 4    5  0.8511149E-008  0.1373681E+04  0.7818608E-02  0.9004408E-01
          2   -1    0    0  501    0  0.00000000000E+00  0.00000000000E+00  0.16431588235E+04  0.16431588235E+04  0.25500000000E-02 0. -1.
         -2   -1    0    0    0  501 -0.00000000000E+00 -0.00000000000E+00 -0.18368664279E+04  0.18368664279E+04  0.25500000000E-02 0.  1.
    8880023    1    1    2    0    0  0.78492257109E+03  0.91492452746E+03 -0.12595101716E+04  0.18636969744E+04  0.65864270000E+03 0.  0.
    8880022    1    1    2    0    0 -0.78492257109E+03 -0.91492452746E+03  0.10658025673E+04  0.16163282770E+04  0.15294330000E+03 0.  0.
<mgrwt>
<rscale>  0 0.13322070E+04</rscale>
<asrwt>0</asrwt>
<pdfrwt beam="1">  1        2 0.25279366E+00 0.13736814E+04</pdfrwt>
<pdfrwt beam="2">  1       -2 0.28259484E+00 0.13736814E+04</pdfrwt>
<totfact> 0.40817911E-01</totfact>
</mgrwt>
</event>
<event>
 4    5  0.8511149E-008  0.6779991E+03  0.7818608E-02  0.1010479E+00
          2   -1    0    0  501    0  0.00000000000E+00  0.00000000000E+00  0.31955958364E+03  0.31955958365E+03  0.25500000000E-02 0. -1.
         -2   -1    0    0    0  501 -0.00000000000E+00 -0.00000000000E+00 -0.20677905779E+04  0.20677905779E+04  0.25500000000E-02 0.  1.
    8880023    1    1    2    0    0  0.10151973985E+03 -0.12476495563E+03 -0.19640409799E+04  0.20777727808E+04  0.65864270000E+03 0.  1.
    8880022    1    1    2    0    0 -0.10151973985E+03  0.12476495563E+03  0.21580998565E+03  0.30957738072E+03  0.15294330000E+03 0.  0.
<mgrwt>
<rscale>  0 0.51284753E+03</rscale>
<asrwt>0</asrwt>
<pdfrwt beam="1">  1        2 0.49163014E-01 0.67799908E+03</pdfrwt>
<pdfrwt beam="2">  1       -2 0.31812162E+00 0.67799908E+03</pdfrwt>
<totfact> 0.26575308E+00</totfact>
</mgrwt>
</event>
<event>
 4    5  0.8511149E-008  0.6598260E+03  0.7818608E-02  0.1024335E+00
          2   -1    0    0  501    0  0.00000000000E+00  0.00000000000E+00  0.74528697463E+03  0.74528697464E+03  0.25500000000E-02 0. -1.
         -2   -1    0    0    0  501 -0.00000000000E+00 -0.00000000000E+00 -0.54869689592E+03  0.54869689592E+03  0.25500000000E-02 0.  1.
    8880023    1    1    2    0    0 -0.33050654866E+02  0.21629681645E+02 -0.33459194570E+03  0.73981225004E+03  0.65864270000E+03 0.  1.
    8880022    1    1    2    0    0  0.33050654866E+02 -0.21629681645E+02  0.53118202442E+03  0.55417162052E+03  0.15294330000E+03 0.  0.
<mgrwt>
<rscale>  0 0.46154060E+03</rscale>
<asrwt>0</asrwt>
<pdfrwt beam="1">  1        2 0.11465953E+00 0.65982603E+03</pdfrwt>
<pdfrwt beam="2">  1       -2 0.84414907E-01 0.65982603E+03</pdfrwt>
<totfact> 0.47246678E+01</totfact>
</mgrwt>
</event>
<event>
 4    5  0.8511149E-008  0.6861166E+03  0.7818608E-02  0.1006056E+00
          2   -1    0    0  501    0  0.00000000000E+00  0.00000000000E+00  0.12080119319E+04  0.12080119319E+04  0.25500000000E-02 0. -1.
         -2   -1    0    0    0  501 -0.00000000000E+00 -0.00000000000E+00 -0.47173309371E+03  0.47173309372E+03  0.25500000000E-02 0.  1.
    8880023    1    1    2    0    0 -0.16195215011E+03  0.10352405856E+03 -0.19767853741E+03  0.71402572786E+03  0.65864270000E+03 0.  1.
    8880022    1    1    2    0    0  0.16195215011E+03 -0.10352405856E+03  0.93395737562E+03  0.96571929779E+03  0.15294330000E+03 0.  0.
<mgrwt>
<rscale>  0 0.53072768E+03</rscale>
<asrwt>0</asrwt>
<pdfrwt beam="1">  1        2 0.18584798E+00 0.68611656E+03</pdfrwt>
<pdfrwt beam="2">  1       -2 0.72574324E-01 0.68611656E+03</pdfrwt>
<totfact> 0.32994908E+01</totfact>
</mgrwt>
</event>
<event>
 4    5  0.8511149E-008  0.1101574E+04  0.7818608E-02  0.9259305E-01
          2   -1    0    0  501    0  0.00000000000E+00  0.00000000000E+00  0.11254351161E+04  0.11254351161E+04  0.25500000000E-02 0. -1.
         -2   -1    0    0    0  501 -0.00000000000E+00 -0.00000000000E+00 -0.11575260149E+04  0.11575260149E+04  0.25500000000E-02 0.  1.
    8880023    1    1    2    0    0  0.30557226963E+03 -0.82842099035E+03  0.53278610682E+03  0.12236531335E+04  0.65864270000E+03 0.  0.
    8880022    1    1    2    0    0 -0.30557226963E+03  0.82842099035E+03 -0.56487700558E+03  0.10593079976E+04  0.15294330000E+03 0.  0.
<mgrwt>
<rscale>  0 0.10461718E+04</rscale>
<asrwt>0</asrwt>
<pdfrwt beam="1">  1        2 0.17314386E+00 0.11015743E+04</pdfrwt>
<pdfrwt beam="2">  1       -2 0.17808093E+00 0.11015743E+04</pdfrwt>
<totfact> 0.38544174E+00</totfact>
</mgrwt>
</event>
<event>
 4    5  0.8511149E-008  0.6647775E+03  0.7818608E-02  0.1019721E+00
          2   -1    0    0  501    0  0.00000000000E+00  0.00000000000E+00  0.10699521088E+04  0.10699521088E+04  0.25500000000E-02 0. -1.
         -2   -1    0    0    0  501 -0.00000000000E+00 -0.00000000000E+00 -0.93032336972E+03  0.93032336972E+03  0.25500000000E-02 0.  1.
    8880023    1    1    2    0    0 -0.35138333344E+02  0.82970949527E+02 -0.80220749676E+03  0.10418569744E+04  0.65864270000E+03 0.  1.
    8880022    1    1    2    0    0  0.35138333344E+02 -0.82970949527E+02  0.94183623582E+03  0.95841850413E+03  0.15294330000E+03 0.  0.
<mgrwt>
<rscale>  0 0.47787487E+03</rscale>
<asrwt>0</asrwt>
<pdfrwt beam="1">  1        2 0.16460802E+00 0.66477747E+03</pdfrwt>
<pdfrwt beam="2">  1       -2 0.14312667E+00 0.66477747E+03</pdfrwt>
<totfact> 0.79482224E+00</totfact>
</mgrwt>
</event>
<event>
 4    5  0.8511149E-008  0.1754248E+04  0.7818608E-02  0.8748276E-01
          2   -1    0    0  501    0  0.00000000000E+00  0.00000000000E+00  0.22136536598E+04  0.22136536598E+04  0.25500000000E-02 0. -1.
         -2   -1    0    0    0  501 -0.00000000000E+00 -0.00000000000E+00 -0.15262199632E+04  0.15262199632E+04  0.25500000000E-02 0.  1.
    8880023    1    1    2    0    0  0.54803662650E+03  0.15307616292E+04 -0.37198319060E+03  0.17932531917E+04  0.65864270000E+03 0.  0.
    8880022    1    1    2    0    0 -0.54803662650E+03 -0.15307616292E+04  0.10594168872E+04  0.19466204312E+04  0.15294330000E+03 0.  0.
<mgrwt>
<rscale>  0 0.17231394E+04</rscale>
<asrwt>0</asrwt>
<pdfrwt beam="1">  1        2 0.34056210E+00 0.17542478E+04</pdfrwt>
<pdfrwt beam="2">  1       -2 0.23480307E+00 0.17542478E+04</pdfrwt>
<totfact> 0.36974065E-01</totfact>
</mgrwt>
</event>
<event>
 4    5  0.8511149E-008  0.7760177E+03  0.7818608E-02  0.9765276E-01
         -2   -1    0    0    0  501 -0.00000000000E+00  0.00000000000E+00  0.17894909512E+04  0.17894909512E+04  0.25500000000E-02 0.  1.
          2   -1    0    0  501    0  0.00000000000E+00 -0.00000000000E+00 -0.50904708017E+03  0.50904708018E+03  0.25500000000E-02 0. -1.
    8880023    1    1    2    0    0 -0.21273506884E+03  0.35090894170E+03  0.15852323323E+04  0.17649830165E+04  0.65864270000E+03 0.  1.
    8880022    1    1    2    0    0  0.21273506884E+03 -0.35090894170E+03 -0.30478846120E+03  0.53355501495E+03  0.15294330000E+03 0.  0.
<mgrwt>
<rscale>  0 0.67259796E+03</rscale>
<asrwt>0</asrwt>
<pdfrwt beam="1">  1        2 0.78314936E-01 0.77601772E+03</pdfrwt>
<pdfrwt beam="2">  1       -2 0.27530630E+00 0.77601772E+03</pdfrwt>
<totfact> 0.27980079E+00</totfact>
</mgrwt>
</event>
<event>
 4    5  0.1194496E-007  0.8395824E+03  0.7818608E-02  0.9630968E-01
         -2   -1    0    0    0  501 -0.00000000000E+00  0.00000000000E+00  0.20504336545E+04  0.20504336545E+04  0.25500000000E-02 0.  1.
          2   -1    0    0  501    0  0.00000000000E+00 -0.00000000000E+00 -0.17165634508E+04  0.17165634508E+04  0.25500000000E-02 0. -1.
    8880023    1    1    2    0    0  0.10662252385E+03  0.50962736786E+03  0.19173489691E+04  0.20931138746E+04  0.65864270000E+03 0.  1.
    8880022    1    1    2    0    0 -0.10662252385E+03 -0.50962736786E+03 -0.15834787653E+04  0.16738832307E+04  0.15294330000E+03 0.  0.
<mgrwt>
<rscale>  0 0.75279979E+03</rscale>
<asrwt>0</asrwt>
<pdfrwt beam="1">  1        2 0.26408669E+00 0.83958241E+03</pdfrwt>
<pdfrwt beam="2">  1       -2 0.31545133E+00 0.83958241E+03</pdfrwt>
<totfact> 0.25549686E-01</totfact>
</mgrwt>
</event>
<event>
 4    5  0.1264764E-007  0.1552584E+04  0.7818608E-02  0.8873370E-01
         -2   -1    0    0    0  501 -0.00000000000E+00  0.00000000000E+00  0.24045943637E+04  0.24045943637E+04  0.25500000000E-02 0.  1.
          2   -1    0    0  501    0  0.00000000000E+00 -0.00000000000E+00 -0.29612400640E+04  0.29612400640E+04  0.25500000000E-02 0. -1.
    8880023    1    1    2    0    0 -0.14008824363E+04  0.11931010609E+03  0.19470703081E+04  0.24903010848E+04  0.65864270000E+03 0.  0.
    8880022    1    1    2    0    0  0.14008824363E+04 -0.11931010609E+03 -0.25037160084E+04  0.28755333428E+04  0.15294330000E+03 0.  0.
<mgrwt>
<rscale>  0 0.15167804E+04</rscale>
<asrwt>0</asrwt>
<pdfrwt beam="1">  1        2 0.45557539E+00 0.15525839E+04</pdfrwt>
<pdfrwt beam="2">  1       -2 0.36993760E+00 0.15525839E+04</pdfrwt>
<totfact> 0.20000843E-02</totfact>
</mgrwt>
</event>
<event>
 4    5  0.8511149E-008  0.7371352E+03  0.7818608E-02  0.9868372E-01
          2   -1    0    0  501    0  0.00000000000E+00  0.00000000000E+00  0.11143107196E+04  0.11143107196E+04  0.25500000000E-02 0. -1.
         -2   -1    0    0    0  501 -0.00000000000E+00 -0.00000000000E+00 -0.11442821109E+04  0.11442821109E+04  0.25500000000E-02 0.  1.
    8880023    1    1    2    0    0  0.31058840798E+03  0.11442462992E+03 -0.98848252011E+03  0.12330717959E+04  0.65864270000E+03 0.  1.
    8880022    1    1    2    0    0 -0.31058840798E+03 -0.11442462992E+03  0.95851112889E+03  0.10255210346E+04  0.15294330000E+03 0.  0.
<mgrwt>
<rscale>  0 0.61818910E+03</rscale>
<asrwt>0</asrwt>
<pdfrwt beam="1">  1        2 0.17143242E+00 0.73713524E+03</pdfrwt>
<pdfrwt beam="2">  1       -2 0.17604340E+00 0.73713524E+03</pdfrwt>
<totfact> 0.42248761E+00</totfact>
</mgrwt>
</event>
<event>
 4    5  0.8511149E-008  0.1165764E+04  0.7818608E-02  0.9191142E-01
          2   -1    0    0  501    0  0.00000000000E+00  0.00000000000E+00  0.28911801740E+04  0.28911801740E+04  0.25500000000E-02 0. -1.
         -2   -1    0    0    0  501 -0.00000000000E+00 -0.00000000000E+00 -0.66089880172E+03  0.66089880173E+03  0.25500000000E-02 0.  1.
    8880023    1    1    2    0    0 -0.25266299595E+02 -0.96153886248E+03  0.53093620855E+02  0.11669723685E+04  0.65864270000E+03 0.  0.
    8880022    1    1    2    0    0  0.25266299595E+02  0.96153886248E+03  0.21771877514E+04  0.23851066073E+04  0.15294330000E+03 0.  0.
<mgrwt>
<rscale>  0 0.11145322E+04</rscale>
<asrwt>0</asrwt>
<pdfrwt beam="1">  1        2 0.44479695E+00 0.11657639E+04</pdfrwt>
<pdfrwt beam="2">  1       -2 0.10167674E+00 0.11657639E+04</pdfrwt>
<totfact> 0.16037765E+00</totfact>
</mgrwt>
</event>
<event>
 4    5  0.8511149E-008  0.1259589E+04  0.7818608E-02  0.9101267E-01
          2   -1    0    0  501    0  0.00000000000E+00  0.00000000000E+00  0.20477381510E+04  0.20477381510E+04  0.25500000000E-02 0. -1.
         -2   -1    0    0    0  501 -0.00000000000E+00 -0.00000000000E+00 -0.96180854635E+03  0.96180854636E+03  0.25500000000E-02 0.  1.
    8880023    1    1    2    0    0 -0.10612930559E+04  0.16251831060E+03 -0.25480153411E+03  0.12851027896E+04  0.65864270000E+03 0.  0.
    8880022    1    1    2    0    0  0.10612930559E+04 -0.16251831060E+03  0.13407311388E+04  0.17244439078E+04  0.15294330000E+03 0.  0.
<mgrwt>
<rscale>  0 0.12133314E+04</rscale>
<asrwt>0</asrwt>
<pdfrwt beam="1">  1        2 0.31503664E+00 0.12595894E+04</pdfrwt>
<pdfrwt beam="2">  1       -2 0.14797055E+00 0.12595894E+04</pdfrwt>
<totfact> 0.18883277E+00</totfact>
</mgrwt>
</event>
<event>
 4    5  0.8511149E-008  0.8641299E+03  0.7818608E-02  0.9586259E-01
          2   -1    0    0  501    0  0.00000000000E+00  0.00000000000E+00  0.35583451945E+04  0.35583451945E+04  0.25500000000E-02 0. -1.
         -2   -1    0    0    0  501 -0.00000000000E+00 -0.00000000000E+00 -0.21718374988E+03  0.21718374990E+03  0.25500000000E-02 0.  1.
    8880023    1    1    2    0    0  0.50561993032E+03  0.23928808663E+03  0.82963800430E+03  0.11979230888E+04  0.65864270000E+03 0.  1.
    8880022    1    1    2    0    0 -0.50561993032E+03 -0.23928808663E+03  0.25115234403E+04  0.25776058555E+04  0.15294330000E+03 0. -1.
<mgrwt>
<rscale>  0 0.78212371E+03</rscale>
<asrwt>0</asrwt>
<pdfrwt beam="1">  1        2 0.54743767E+00 0.86412991E+03</pdfrwt>
<pdfrwt beam="2">  1       -2 0.33412888E-01 0.86412991E+03</pdfrwt>
<totfact> 0.65679559E+00</totfact>
</mgrwt>
</event>
<event>
 4    5  0.8511149E-008  0.7769689E+03  0.7818608E-02  0.9763006E-01
         -2   -1    0    0    0  501 -0.00000000000E+00  0.00000000000E+00  0.55389317025E+03  0.55389317025E+03  0.25500000000E-02 0.  1.
          2   -1    0    0  501    0  0.00000000000E+00 -0.00000000000E+00 -0.11859662063E+04  0.11859662063E+04  0.25500000000E-02 0. -1.
    8880023    1    1    2    0    0  0.41173660702E+03 -0.18532456375E+02  0.19690171391E+03  0.80153039662E+03  0.65864270000E+03 0.  1.
    8880022    1    1    2    0    0 -0.41173660702E+03  0.18532456375E+02 -0.82897474997E+03  0.93832897994E+03  0.15294330000E+03 0.  0.
<mgrwt>
<rscale>  0 0.67386218E+03</rscale>
<asrwt>0</asrwt>
<pdfrwt beam="1">  1        2 0.18245634E+00 0.77696891E+03</pdfrwt>
<pdfrwt beam="2">  1       -2 0.85214334E-01 0.77696891E+03</pdfrwt>
<totfact> 0.23501861E+01</totfact>
</mgrwt>
</event>
<event>
 4    5  0.8511149E-008  0.1018804E+04  0.7818608E-02  0.9357359E-01
         -2   -1    0    0    0  501 -0.00000000000E+00  0.00000000000E+00  0.13653536210E+04  0.13653536210E+04  0.25500000000E-02 0.  1.
          2   -1    0    0  501    0  0.00000000000E+00 -0.00000000000E+00 -0.10160209409E+04  0.10160209409E+04  0.25500000000E-02 0. -1.
    8880023    1    1    2    0    0  0.60475497637E+03 -0.48828605607E+03  0.94549376164E+03  0.13899354350E+04  0.65864270000E+03 0.  1.
    8880022    1    1    2    0    0 -0.60475497637E+03  0.48828605607E+03 -0.59616108158E+03  0.99143912683E+03  0.15294330000E+03 0.  0.
<mgrwt>
<rscale>  0 0.95669507E+03</rscale>
<asrwt>0</asrwt>
<pdfrwt beam="1">  1        2 0.15631092E+00 0.10188042E+04</pdfrwt>
<pdfrwt beam="2">  1       -2 0.21005440E+00 0.10188042E+04</pdfrwt>
<totfact> 0.27884750E+00</totfact>
</mgrwt>
</event>
<event>
 4    5  0.8511149E-008  0.6811814E+03  0.7818608E-02  0.1008663E+00
          2   -1    0    0  501    0  0.00000000000E+00  0.00000000000E+00  0.14664652175E+04  0.14664652175E+04  0.25500000000E-02 0. -1.
         -2   -1    0    0    0  501 -0.00000000000E+00 -0.00000000000E+00 -0.54414389121E+03  0.54414389122E+03  0.25500000000E-02 0.  1.
    8880023    1    1    2    0    0 -0.17098650339E+03 -0.31007282113E+02 -0.31594787433E+03  0.75088687659E+03  0.65864270000E+03 0.  1.
    8880022    1    1    2    0    0  0.17098650339E+03  0.31007282113E+02  0.12382692006E+04  0.12597222321E+04  0.15294330000E+03 0.  0.
<mgrwt>
<rscale>  0 0.52009421E+03</rscale>
<asrwt>0</asrwt>
<pdfrwt beam="1">  1        2 0.22561003E+00 0.68118136E+03</pdfrwt>
<pdfrwt beam="2">  1       -2 0.83714446E-01 0.68118136E+03</pdfrwt>
<totfact> 0.17085265E+01</totfact>
</mgrwt>
</event>
<event>
 4    5  0.8511149E-008  0.6628302E+03  0.7818608E-02  0.1021428E+00
         -2   -1    0    0    0  501 -0.00000000000E+00  0.00000000000E+00  0.14265668862E+03  0.14265668864E+03  0.25500000000E-02 0.  1.
          2   -1    0    0  501    0  0.00000000000E+00 -0.00000000000E+00 -0.13619048505E+04  0.13619048505E+04  0.25500000000E-02 0. -1.
    8880023    1    1    2    0    0  0.52480488385E+02 -0.52721103026E+02 -0.72721700025E+03  0.98396569457E+03  0.65864270000E+03 0.  0.
    8880022    1    1    2    0    0 -0.52480488385E+02  0.52721103026E+02 -0.49203116164E+03  0.52059584459E+03  0.15294330000E+03 0.  0.
<mgrwt>
<rscale>  0 0.47174966E+03</rscale>
<asrwt>0</asrwt>
<pdfrwt beam="1">  1        2 0.20952381E+00 0.66283024E+03</pdfrwt>
<pdfrwt beam="2">  1       -2 0.21947184E-01 0.66283024E+03</pdfrwt>
<totfact> 0.28043811E+02</totfact>
</mgrwt>
</event>
<event>
 4    5  0.8511149E-008  0.8201486E+03  0.7818608E-02  0.9668813E-01
         -2   -1    0    0    0  501 -0.00000000000E+00  0.00000000000E+00  0.39702250112E+03  0.39702250113E+03  0.25500000000E-02 0.  1.
          2   -1    0    0  501    0  0.00000000000E+00 -0.00000000000E+00 -0.22299960743E+04  0.22299960743E+04  0.25500000000E-02 0. -1.
    8880023    1    1    2    0    0  0.48470799170E+03 -0.62383063904E+02 -0.10750232982E+03  0.82716409561E+03  0.65864270000E+03 0.  1.
    8880022    1    1    2    0    0 -0.48470799170E+03  0.62383063904E+02 -0.17254712434E+04  0.17998544799E+04  0.15294330000E+03 0.  0.
<mgrwt>
<rscale>  0 0.72904392E+03</rscale>
<asrwt>0</asrwt>
<pdfrwt beam="1">  1        2 0.34307631E+00 0.82014858E+03</pdfrwt>
<pdfrwt beam="2">  1       -2 0.61080386E-01 0.82014858E+03</pdfrwt>
<totfact> 0.12757329E+01</totfact>
</mgrwt>
</event>
<event>
 4    5  0.8511149E-008  0.8284472E+03  0.7818608E-02  0.9652361E-01
         -2   -1    0    0    0  501 -0.00000000000E+00  0.00000000000E+00  0.16242065898E+04  0.16242065898E+04  0.25500000000E-02 0.  1.
          2   -1    0    0  501    0  0.00000000000E+00 -0.00000000000E+00 -0.70276652407E+03  0.70276652407E+03  0.25500000000E-02 0. -1.
    8880023    1    1    2    0    0 -0.45267823641E+03  0.21816740372E+03  0.13932321466E+04  0.16209320227E+04  0.65864270000E+03 0.  1.
    8880022    1    1    2    0    0  0.45267823641E+03 -0.21816740372E+03 -0.47179208088E+03  0.70604109112E+03  0.15294330000E+03 0.  0.
<mgrwt>
<rscale>  0 0.73925425E+03</rscale>
<asrwt>0</asrwt>
<pdfrwt beam="1">  1        2 0.10811793E+00 0.82844723E+03</pdfrwt>
<pdfrwt beam="2">  1       -2 0.24987794E+00 0.82844723E+03</pdfrwt>
<totfact> 0.26751001E+00</totfact>
</mgrwt>
</event>
<event>
 4    5  0.8511149E-008  0.1139575E+04  0.7818608E-02  0.9218223E-01
         -2   -1    0    0    0  501 -0.00000000000E+00  0.00000000000E+00  0.62309450966E+03  0.62309450967E+03  0.25500000000E-02 0.  1.
          2   -1    0    0  501    0  0.00000000000E+00 -0.00000000000E+00 -0.30153115750E+04  0.30153115750E+04  0.25500000000E-02 0. -1.
    8880023    1    1    2    0    0  0.72883979076E+03  0.57759234388E+03 -0.81032469908E+02  0.11424521100E+04  0.65864270000E+03 0.  1.
    8880022    1    1    2    0    0 -0.72883979076E+03 -0.57759234388E+03 -0.23111845955E+04  0.24959539747E+04  0.15294330000E+03 0.  0.
<mgrwt>
<rscale>  0 0.10867301E+04</rscale>
<asrwt>0</asrwt>
<pdfrwt beam="1">  1        2 0.46389408E+00 0.11395747E+04</pdfrwt>
<pdfrwt beam="2">  1       -2 0.95860696E-01 0.11395747E+04</pdfrwt>
<totfact> 0.15532606E+00</totfact>
</mgrwt>
</event>
<event>
 4    5  0.8511149E-008  0.9562735E+03  0.7818608E-02  0.9441145E-01
         -2   -1    0    0    0  501 -0.00000000000E+00  0.00000000000E+00  0.12215907476E+04  0.12215907476E+04  0.25500000000E-02 0.  1.
          2   -1    0    0  501    0  0.00000000000E+00 -0.00000000000E+00 -0.89010472045E+03  0.89010472045E+03  0.25500000000E-02 0. -1.
    8880023    1    1    2    0    0 -0.86473582100E+02  0.68787428792E+03  0.81191678620E+03  0.12544591625E+04  0.65864270000E+03 0.  1.
    8880022    1    1    2    0    0  0.86473582100E+02 -0.68787428792E+03 -0.48043075903E+03  0.85723630559E+03  0.15294330000E+03 0.  0.
<mgrwt>
<rscale>  0 0.88765610E+03</rscale>
<asrwt>0</asrwt>
<pdfrwt beam="1">  1        2 0.13693919E+00 0.95627346E+03</pdfrwt>
<pdfrwt beam="2">  1       -2 0.18793704E+00 0.95627346E+03</pdfrwt>
<totfact> 0.47484822E+00</totfact>
</mgrwt>
</event>
<event>
 4    5  0.8511149E-008  0.8281072E+03  0.7818608E-02  0.9653027E-01
          2   -1    0    0  501    0  0.00000000000E+00  0.00000000000E+00  0.21429982396E+04  0.21429982396E+04  0.25500000000E-02 0. -1.
         -2   -1    0    0    0  501 -0.00000000000E+00 -0.00000000000E+00 -0.75055864122E+03  0.75055864122E+03  0.25500000000E-02 0.  1.
    8880023    1    1    2    0    0 -0.49222652531E+03 -0.98307230449E+02 -0.47440414331E+03  0.95436930024E+03  0.65864270000E+03 0.  1.
    8880022    1    1    2    0    0  0.49222652531E+03  0.98307230449E+02  0.18668437417E+04  0.19391875806E+04  0.15294330000E+03 0.  0.
<mgrwt>
<rscale>  0 0.73883786E+03</rscale>
<asrwt>0</asrwt>
<pdfrwt beam="1">  1        2 0.32969203E+00 0.82810716E+03</pdfrwt>
<pdfrwt beam="2">  1       -2 0.11547056E+00 0.82810716E+03</pdfrwt>
<totfact> 0.33314302E+00</totfact>
</mgrwt>
</event>
<event>
 4    5  0.8511149E-008  0.8120645E+03  0.7818608E-02  0.9685293E-01
          2   -1    0    0  501    0  0.00000000000E+00  0.00000000000E+00  0.14173158898E+04  0.14173158898E+04  0.25500000000E-02 0. -1.
         -2   -1    0    0    0  501 -0.00000000000E+00 -0.00000000000E+00 -0.40879563070E+03  0.40879563071E+03  0.25500000000E-02 0.  1.
    8880023    1    1    2    0    0 -0.44027925293E+03  0.17830492961E+03  0.13944084709E+03  0.82394928520E+03  0.65864270000E+03 0.  1.
    8880022    1    1    2    0    0  0.44027925293E+03 -0.17830492961E+03  0.86907941202E+03  0.10021622353E+04  0.15294330000E+03 0.  0.
<mgrwt>
<rscale>  0 0.71899250E+03</rscale>
<asrwt>0</asrwt>
<pdfrwt beam="1">  1        2 0.21804860E+00 0.81206445E+03</pdfrwt>
<pdfrwt beam="2">  1       -2 0.62891635E-01 0.81206445E+03</pdfrwt>
<totfact> 0.33640308E+01</totfact>
</mgrwt>
</event>
<event>
 4    5  0.8511149E-008  0.8880173E+03  0.7818608E-02  0.9545548E-01
         -2   -1    0    0    0  501 -0.00000000000E+00  0.00000000000E+00  0.39126751598E+03  0.39126751598E+03  0.25500000000E-02 0.  1.
          2   -1    0    0  501    0  0.00000000000E+00 -0.00000000000E+00 -0.15568025039E+04  0.15568025040E+04  0.25500000000E-02 0. -1.
    8880023    1    1    2    0    0 -0.41207175560E+03  0.43007147521E+03 -0.42200514566E+03  0.98319029429E+03  0.65864270000E+03 0.  0.
    8880022    1    1    2    0    0  0.41207175560E+03 -0.43007147521E+03 -0.74352984231E+03  0.96487972565E+03  0.15294330000E+03 0.  0.
<mgrwt>
<rscale>  0 0.81007457E+03</rscale>
<asrwt>0</asrwt>
<pdfrwt beam="1">  1        2 0.23950807E+00 0.88801735E+03</pdfrwt>
<pdfrwt beam="2">  1       -2 0.60195003E-01 0.88801735E+03</pdfrwt>
<totfact> 0.30611805E+01</totfact>
</mgrwt>
</event>
<event>
 4    5  0.8511149E-008  0.1023755E+04  0.7818608E-02  0.9351118E-01
          2   -1    0    0  501    0  0.00000000000E+00  0.00000000000E+00  0.14345261251E+04  0.14345261251E+04  0.25500000000E-02 0. -1.
         -2   -1    0    0    0  501 -0.00000000000E+00 -0.00000000000E+00 -0.12720146003E+04  0.12720146003E+04  0.25500000000E-02 0.  1.
    8880023    1    1    2    0    0 -0.47459448173E+03 -0.62371804676E+03 -0.90977364255E+03  0.13695847586E+04  0.65864270000E+03 0.  1.
    8880022    1    1    2    0    0  0.47459448173E+03  0.62371804676E+03  0.10722851674E+04  0.13369559668E+04  0.15294330000E+03 0.  0.
<mgrwt>
<rscale>  0 0.96210023E+03</rscale>
<asrwt>0</asrwt>
<pdfrwt beam="1">  1        2 0.22069633E+00 0.10237550E+04</pdfrwt>
<pdfrwt beam="2">  1       -2 0.19569455E+00 0.10237550E+04</pdfrwt>
<totfact> 0.19438767E+00</totfact>
</mgrwt>
</event>
<event>
 4    5  0.8511149E-008  0.9965049E+03  0.7818608E-02  0.9386145E-01
          2   -1    0    0  501    0  0.00000000000E+00  0.00000000000E+00  0.97442384655E+03  0.97442384655E+03  0.25500000000E-02 0. -1.
         -2   -1    0    0    0  501 -0.00000000000E+00 -0.00000000000E+00 -0.89820439304E+03  0.89820439304E+03  0.25500000000E-02 0.  1.
    8880023    1    1    2    0    0 -0.18617039297E+03 -0.72425991230E+03  0.35819189608E+03  0.10589256237E+04  0.65864270000E+03 0.  0.
    8880022    1    1    2    0    0  0.18617039297E+03  0.72425991230E+03 -0.28197244257E+03  0.81370261593E+03  0.15294330000E+03 0.  0.
<mgrwt>
<rscale>  0 0.93224748E+03</rscale>
<asrwt>0</asrwt>
<pdfrwt beam="1">  1        2 0.14991136E+00 0.99650491E+03</pdfrwt>
<pdfrwt beam="2">  1       -2 0.13818529E+00 0.99650491E+03</pdfrwt>
<totfact> 0.96443650E+00</totfact>
</mgrwt>
</event>
<event>
 4    5  0.8511149E-008  0.7658150E+03  0.7818608E-02  0.9790279E-01
          2   -1    0    0  501    0  0.00000000000E+00  0.00000000000E+00  0.32023395477E+03  0.32023395478E+03  0.25500000000E-02 0. -1.
         -2   -1    0    0    0  501 -0.00000000000E+00 -0.00000000000E+00 -0.17299579344E+04  0.17299579345E+04  0.25500000000E-02 0.  1.
    8880023    1    1    2    0    0  0.13440512085E+03 -0.36687564910E+03 -0.23235077956E+03  0.80028717935E+03  0.65864270000E+03 0.  0.
    8880022    1    1    2    0    0 -0.13440512085E+03  0.36687564910E+03 -0.11773732001E+04  0.12499047099E+04  0.15294330000E+03 0.  0.
<mgrwt>
<rscale>  0 0.65886843E+03</rscale>
<asrwt>0</asrwt>
<pdfrwt beam="1">  1        2 0.49266763E-01 0.76581505E+03</pdfrwt>
<pdfrwt beam="2">  1       -2 0.26614737E+00 0.76581505E+03</pdfrwt>
<totfact> 0.53760378E+00</totfact>
</mgrwt>
</event>
<event>
 4    5  0.8511149E-008  0.7300652E+03  0.7818608E-02  0.9889893E-01
         -2   -1    0    0    0  501 -0.00000000000E+00  0.00000000000E+00  0.34908903805E+03  0.34908903806E+03  0.25500000000E-02 0.  1.
          2   -1    0    0  501    0  0.00000000000E+00 -0.00000000000E+00 -0.10368486387E+04  0.10368486387E+04  0.25500000000E-02 0. -1.
    8880023    1    1    2    0    0  0.23231227921E+03 -0.21264058581E+03 -0.15167589564E+03  0.74565460998E+03  0.65864270000E+03 0.  0.
    8880022    1    1    2    0    0 -0.23231227921E+03  0.21264058581E+03 -0.53608370499E+03  0.64028306675E+03  0.15294330000E+03 0. -1.
<mgrwt>
<rscale>  0 0.60753628E+03</rscale>
<asrwt>0</asrwt>
<pdfrwt beam="1">  1        2 0.15951517E+00 0.73006522E+03</pdfrwt>
<pdfrwt beam="2">  1       -2 0.53706006E-01 0.73006522E+03</pdfrwt>
<totfact> 0.79211532E+01</totfact>
</mgrwt>
</event>
<event>
 4    5  0.8511149E-008  0.6942553E+03  0.7818608E-02  0.1002192E+00
         -2   -1    0    0    0  501 -0.00000000000E+00  0.00000000000E+00  0.64593603925E+03  0.64593603926E+03  0.25500000000E-02 0.  1.
          2   -1    0    0  501    0  0.00000000000E+00 -0.00000000000E+00 -0.75937002583E+03  0.75937002583E+03  0.25500000000E-02 0. -1.
    8880023    1    1    2    0    0 -0.21944007765E+03 -0.51289273423E+01  0.41796658475E+03  0.81036197209E+03  0.65864270000E+03 0.  0.
    8880022    1    1    2    0    0  0.21944007765E+03  0.51289273423E+01 -0.53140057133E+03  0.59494409300E+03  0.15294330000E+03 0.  0.
<mgrwt>
<rscale>  0 0.54699359E+03</rscale>
<asrwt>0</asrwt>
<pdfrwt beam="1">  1        2 0.11682616E+00 0.69425533E+03</pdfrwt>
<pdfrwt beam="2">  1       -2 0.99374775E-01 0.69425533E+03</pdfrwt>
<totfact> 0.31518681E+01</totfact>
</mgrwt>
</event>
<event>
 4    5  0.8511149E-008  0.7980952E+03  0.7818608E-02  0.9714930E-01
          2   -1    0    0  501    0  0.00000000000E+00  0.00000000000E+00  0.36648186046E+03  0.36648186047E+03  0.25500000000E-02 0. -1.
         -2   -1    0    0    0  501 -0.00000000000E+00 -0.00000000000E+00 -0.12547981885E+04  0.12547981885E+04  0.25500000000E-02 0.  1.
    8880023    1    1    2    0    0  0.42531180824E+02 -0.44870573048E+03 -0.81323905232E+03  0.11394356921E+04  0.65864270000E+03 0.  1.
    8880022    1    1    2    0    0 -0.42531180824E+02  0.44870573048E+03 -0.75077275700E+02  0.48184435688E+03  0.15294330000E+03 0.  1.
<mgrwt>
<rscale>  0 0.70134791E+03</rscale>
<asrwt>0</asrwt>
<pdfrwt beam="1">  1        2 0.56381825E-01 0.79809519E+03</pdfrwt>
<pdfrwt beam="2">  1       -2 0.19304587E+00 0.79809519E+03</pdfrwt>
<totfact> 0.13143352E+01</totfact>
</mgrwt>
</event>
<event>
 4    5  0.8511149E-008  0.8035183E+03  0.7818608E-02  0.9703240E-01
          2   -1    0    0  501    0  0.00000000000E+00  0.00000000000E+00  0.22268454567E+04  0.22268454567E+04  0.25500000000E-02 0. -1.
         -2   -1    0    0    0  501 -0.00000000000E+00 -0.00000000000E+00 -0.23203532949E+03  0.23203532951E+03  0.25500000000E-02 0.  1.
    8880023    1    1    2    0    0  0.45822182445E+03  0.43176116496E+02  0.66374237032E+03  0.10422070609E+04  0.65864270000E+03 0.  0.
    8880022    1    1    2    0    0 -0.45822182445E+03 -0.43176116496E+02  0.13310677569E+04  0.14166737253E+04  0.15294330000E+03 0.  0.
<mgrwt>
<rscale>  0 0.70824222E+03</rscale>
<asrwt>0</asrwt>
<pdfrwt beam="1">  1        2 0.34259161E+00 0.80351828E+03</pdfrwt>
<pdfrwt beam="2">  1       -2 0.35697743E-01 0.80351828E+03</pdfrwt>
<totfact> 0.37847028E+01</totfact>
</mgrwt>
</event>
<event>
 4    5  0.8511149E-008  0.1296005E+04  0.7818608E-02  0.9069018E-01
          2   -1    0    0  501    0  0.00000000000E+00  0.00000000000E+00  0.18324114928E+04  0.18324114928E+04  0.25500000000E-02 0. -1.
         -2   -1    0    0    0  501 -0.00000000000E+00 -0.00000000000E+00 -0.96529131434E+03  0.96529131434E+03  0.25500000000E-02 0.  1.
    8880023    1    1    2    0    0 -0.10134948188E+03 -0.11115515721E+04 -0.11771108555E+03  0.13013395870E+04  0.65864270000E+03 0.  0.
    8880022    1    1    2    0    0  0.10134948188E+03  0.11115515721E+04  0.98483126403E+03  0.14963632201E+04  0.15294330000E+03 0.  0.
<mgrwt>
<rscale>  0 0.12514016E+04</rscale>
<asrwt>0</asrwt>
<pdfrwt beam="1">  1        2 0.28190946E+00 0.12960049E+04</pdfrwt>
<pdfrwt beam="2">  1       -2 0.14850636E+00 0.12960049E+04</pdfrwt>
<totfact> 0.24531438E+00</totfact>
</mgrwt>
</event>
<event>
 4    5  0.8511149E-008  0.1419303E+04  0.7818608E-02  0.8968827E-01
          2   -1    0    0  501    0  0.00000000000E+00  0.00000000000E+00  0.30485950762E+04  0.30485950762E+04  0.25500000000E-02 0. -1.
         -2   -1    0    0    0  501 -0.00000000000E+00 -0.00000000000E+00 -0.77043851095E+03  0.77043851095E+03  0.25500000000E-02 0.  1.
    8880023    1    1    2    0    0  0.85068182721E+03  0.92571728122E+03  0.26984223957E+03  0.14447273433E+04  0.65864270000E+03 0.  0.
    8880022    1    1    2    0    0 -0.85068182721E+03 -0.92571728122E+03  0.20083143257E+04  0.23743062438E+04  0.15294330000E+03 0.  0.
<mgrwt>
<rscale>  0 0.13794537E+04</rscale>
<asrwt>0</asrwt>
<pdfrwt beam="1">  1        2 0.46901463E+00 0.14193034E+04</pdfrwt>
<pdfrwt beam="2">  1       -2 0.11852900E+00 0.14193034E+04</pdfrwt>
<totfact> 0.85468004E-01</totfact>
</mgrwt>
</event>
<event>
 4    5  0.8511149E-008  0.1286699E+04  0.7818608E-02  0.9077132E-01
         -2   -1    0    0    0  501 -0.00000000000E+00  0.00000000000E+00  0.83177781557E+03  0.83177781558E+03  0.25500000000E-02 0.  1.
          2   -1    0    0  501    0  0.00000000000E+00 -0.00000000000E+00 -0.28702998232E+04  0.28702998232E+04  0.25500000000E-02 0. -1.
    8880023    1    1    2    0    0  0.10940259233E+04  0.15777021459E+03  0.99327378920E+02  0.12905271388E+04  0.65864270000E+03 0.  0.
    8880022    1    1    2    0    0 -0.10940259233E+04 -0.15777021459E+03 -0.21378493865E+04  0.24115505000E+04  0.15294330000E+03 0.  0.
<mgrwt>
<rscale>  0 0.12416854E+04</rscale>
<asrwt>0</asrwt>
<pdfrwt beam="1">  1        2 0.44158458E+00 0.12866990E+04</pdfrwt>
<pdfrwt beam="2">  1       -2 0.12796582E+00 0.12866990E+04</pdfrwt>
<totfact> 0.92224360E-01</totfact>
</mgrwt>
</event>
<event>
 4    5  0.8511149E-008  0.6891794E+03  0.7818608E-02  0.1004545E+00
          2   -1    0    0  501    0  0.00000000000E+00  0.00000000000E+00  0.98817014908E+03  0.98817014908E+03  0.25500000000E-02 0. -1.
         -2   -1    0    0    0  501 -0.00000000000E+00 -0.00000000000E+00 -0.86447305764E+03  0.86447305764E+03  0.25500000000E-02 0.  1.
    8880023    1    1    2    0    0  0.20226854849E+03  0.15669351328E+02 -0.70498619710E+03  0.98588733567E+03  0.65864270000E+03 0.  1.
    8880022    1    1    2    0    0 -0.20226854849E+03 -0.15669351328E+02  0.82868328854E+03  0.86675587105E+03  0.15294330000E+03 0.  0.
<mgrwt>
<rscale>  0 0.53701455E+03</rscale>
<asrwt>0</asrwt>
<pdfrwt beam="1">  1        2 0.15202618E+00 0.68917944E+03</pdfrwt>
<pdfrwt beam="2">  1       -2 0.13299585E+00 0.68917944E+03</pdfrwt>
<totfact> 0.10768909E+01</totfact>
</mgrwt>
</event>
<event>
 4    5  0.8511149E-008  0.1295346E+04  0.7818608E-02  0.9069589E-01
         -2   -1    0    0    0  501 -0.00000000000E+00  0.00000000000E+00  0.83159279436E+03  0.83159279437E+03  0.25500000000E-02 0.  1.
          2   -1    0    0  501    0  0.00000000000E+00 -0.00000000000E+00 -0.28485656936E+04  0.28485656936E+04  0.25500000000E-02 0. -1.
    8880023    1    1    2    0    0 -0.11083039005E+04  0.12559603763E+03  0.82395118959E+02  0.12979641992E+04  0.65864270000E+03 0. -1.
    8880022    1    1    2    0    0  0.11083039005E+04 -0.12559603763E+03 -0.20993680182E+04  0.23821942888E+04  0.15294330000E+03 0.  0.
<mgrwt>
<rscale>  0 0.12507142E+04</rscale>
<asrwt>0</asrwt>
<pdfrwt beam="1">  1        2 0.43824087E+00 0.12953463E+04</pdfrwt>
<pdfrwt beam="2">  1       -2 0.12793735E+00 0.12953463E+04</pdfrwt>
<totfact> 0.95017336E-01</totfact>
</mgrwt>
</event>
<event>
 4    5  0.8511149E-008  0.7654621E+03  0.7818608E-02  0.9791167E-01
          2   -1    0    0  501    0  0.00000000000E+00  0.00000000000E+00  0.18591514217E+04  0.18591514217E+04  0.25500000000E-02 0. -1.
         -2   -1    0    0    0  501 -0.00000000000E+00 -0.00000000000E+00 -0.45043626795E+03  0.45043626796E+03  0.25500000000E-02 0.  1.
    8880023    1    1    2    0    0  0.81806266439E+02  0.38135246440E+03 -0.73803171682E+02  0.76901175657E+03  0.65864270000E+03 0.  1.
    8880022    1    1    2    0    0 -0.81806266439E+02 -0.38135246440E+03  0.14825183254E+04  0.15405759331E+04  0.15294330000E+03 0.  0.
<mgrwt>
<rscale>  0 0.65838755E+03</rscale>
<asrwt>0</asrwt>
<pdfrwt beam="1">  1        2 0.28602330E+00 0.76546207E+03</pdfrwt>
<pdfrwt beam="2">  1       -2 0.69297887E-01 0.76546207E+03</pdfrwt>
<totfact> 0.15649064E+01</totfact>
</mgrwt>
</event>
<event>
 4    5  0.8511149E-008  0.7538686E+03  0.7818608E-02  0.9821248E-01
         -2   -1    0    0    0  501 -0.00000000000E+00  0.00000000000E+00  0.41236898182E+03  0.41236898182E+03  0.25500000000E-02 0.  1.
          2   -1    0    0  501    0  0.00000000000E+00 -0.00000000000E+00 -0.40731694084E+04  0.40731694084E+04  0.25500000000E-02 0. -1.
    8880023    1    1    2    0    0  0.11323598774E+03  0.34883415233E+03  0.48110049100E+02  0.75540216960E+03  0.65864270000E+03 0.  1.
    8880022    1    1    2    0    0 -0.11323598774E+03 -0.34883415233E+03 -0.37089104757E+04  0.37301362206E+04  0.15294330000E+03 0.  0.
<mgrwt>
<rscale>  0 0.64234636E+03</rscale>
<asrwt>0</asrwt>
<pdfrwt beam="1">  1        2 0.62664142E+00 0.75386860E+03</pdfrwt>
<pdfrwt beam="2">  1       -2 0.63441384E-01 0.75386860E+03</pdfrwt>
<totfact> 0.76473805E-01</totfact>
</mgrwt>
</event>
<event>
 4    5  0.8511149E-008  0.8066798E+03  0.7818608E-02  0.9696535E-01
         -2   -1    0    0    0  501 -0.00000000000E+00  0.00000000000E+00  0.99331186321E+03  0.99331186322E+03  0.25500000000E-02 0.  1.
          2   -1    0    0  501    0  0.00000000000E+00 -0.00000000000E+00 -0.10727895259E+04  0.10727895259E+04  0.25500000000E-02 0. -1.
    8880023    1    1    2    0    0  0.24538229972E+03 -0.39586569409E+03  0.75072985409E+03  0.11019653537E+04  0.65864270000E+03 0.  0.
    8880022    1    1    2    0    0 -0.24538229972E+03  0.39586569409E+03 -0.83020751674E+03  0.96413603534E+03  0.15294330000E+03 0.  0.
<mgrwt>
<rscale>  0 0.71223486E+03</rscale>
<asrwt>0</asrwt>
<pdfrwt beam="1">  1        2 0.16504454E+00 0.80667982E+03</pdfrwt>
<pdfrwt beam="2">  1       -2 0.15281721E+00 0.80667982E+03</pdfrwt>
<totfact> 0.65383024E+00</totfact>
</mgrwt>
</event>
<event>
 4    5  0.8511149E-008  0.8608587E+03  0.7818608E-02  0.9592038E-01
         -2   -1    0    0    0  501 -0.00000000000E+00  0.00000000000E+00  0.11174587804E+04  0.11174587804E+04  0.25500000000E-02 0.  1.
          2   -1    0    0  501    0  0.00000000000E+00 -0.00000000000E+00 -0.82856346345E+03  0.82856346345E+03  0.25500000000E-02 0. -1.
    8880023    1    1    2    0    0  0.50915010909E+03  0.21916595646E+03  0.80110537621E+03  0.11759453984E+04  0.65864270000E+03 0.  0.
    8880022    1    1    2    0    0 -0.50915010909E+03 -0.21916595646E+03 -0.51221005924E+03  0.77007684543E+03  0.15294330000E+03 0.  0.
<mgrwt>
<rscale>  0 0.77825424E+03</rscale>
<asrwt>0</asrwt>
<pdfrwt beam="1">  1        2 0.12747130E+00 0.86085873E+03</pdfrwt>
<pdfrwt beam="2">  1       -2 0.17191674E+00 0.86085873E+03</pdfrwt>
<totfact> 0.68251731E+00</totfact>
</mgrwt>
</event>
<event>
 4    5  0.8511149E-008  0.1457312E+04  0.7818608E-02  0.8940383E-01
          2   -1    0    0  501    0  0.00000000000E+00  0.00000000000E+00  0.98173927630E+03  0.98173927630E+03  0.25500000000E-02 0. -1.
         -2   -1    0    0    0  501 -0.00000000000E+00 -0.00000000000E+00 -0.22919661319E+04  0.22919661319E+04  0.25500000000E-02 0.  1.
    8880023    1    1    2    0    0 -0.11078156707E+04  0.68021421039E+03 -0.13177401985E+04  0.19647382445E+04  0.65864270000E+03 0.  0.
    8880022    1    1    2    0    0  0.11078156707E+04 -0.68021421039E+03  0.75133429100E+01  0.13089671637E+04  0.15294330000E+03 0.  0.
<mgrwt>
<rscale>  0 0.14187136E+04</rscale>
<asrwt>0</asrwt>
<pdfrwt beam="1">  1        2 0.15103681E+00 0.14573116E+04</pdfrwt>
<pdfrwt beam="2">  1       -2 0.35261017E+00 0.14573116E+04</pdfrwt>
<totfact> 0.36983944E-01</totfact>
</mgrwt>
</event>
<event>
 4    5  0.8511149E-008  0.9049264E+03  0.7818608E-02  0.9518169E-01
         -2   -1    0    0    0  501 -0.00000000000E+00  0.00000000000E+00  0.67427417421E+03  0.67427417422E+03  0.25500000000E-02 0.  1.
          2   -1    0    0  501    0  0.00000000000E+00 -0.00000000000E+00 -0.22540662200E+04  0.22540662200E+04  0.25500000000E-02 0. -1.
    8880023    1    1    2    0    0  0.43501250097E+03  0.44254453651E+03  0.29165834308E+03  0.95076618479E+03  0.65864270000E+03 0.  1.
    8880022    1    1    2    0    0 -0.43501250097E+03 -0.44254453651E+03 -0.18714503888E+04  0.19775742094E+04  0.15294330000E+03 0.  0.
<mgrwt>
<rscale>  0 0.82957448E+03</rscale>
<asrwt>0</asrwt>
<pdfrwt beam="1">  1        2 0.34677941E+00 0.90492638E+03</pdfrwt>
<pdfrwt beam="2">  1       -2 0.10373449E+00 0.90492638E+03</pdfrwt>
<totfact> 0.37057797E+00</totfact>
</mgrwt>
</event>
<event>
 4    5  0.8511149E-008  0.7597379E+03  0.7818608E-02  0.9805787E-01
          2   -1    0    0  501    0  0.00000000000E+00  0.00000000000E+00  0.53663574678E+03  0.53663574678E+03  0.25500000000E-02 0. -1.
         -2   -1    0    0    0  501 -0.00000000000E+00 -0.00000000000E+00 -0.11335792793E+04  0.11335792793E+04  0.25500000000E-02 0.  1.
    8880023    1    1    2    0    0 -0.34736306709E+03  0.15076593543E+03 -0.88805152128E+03  0.11686903689E+04  0.65864270000E+03 0.  1.
    8880022    1    1    2    0    0  0.34736306709E+03 -0.15076593543E+03  0.29110798874E+03  0.50152465720E+03  0.15294330000E+03 0.  0.
<mgrwt>
<rscale>  0 0.65052929E+03</rscale>
<asrwt>0</asrwt>
<pdfrwt beam="1">  1        2 0.82559346E-01 0.75973790E+03</pdfrwt>
<pdfrwt beam="2">  1       -2 0.17439681E+00 0.75973790E+03</pdfrwt>
<totfact> 0.11416168E+01</totfact>
</mgrwt>
</event>
<event>
 4    5  0.8511149E-008  0.1152604E+04  0.7818608E-02  0.9204631E-01
          2   -1    0    0  501    0  0.00000000000E+00  0.00000000000E+00  0.89123285742E+03  0.89123285742E+03  0.25500000000E-02 0. -1.
         -2   -1    0    0    0  501 -0.00000000000E+00 -0.00000000000E+00 -0.14913016268E+04  0.14913016268E+04  0.25500000000E-02 0.  1.
    8880023    1    1    2    0    0 -0.84128018067E+03  0.43235772249E+03 -0.80090752631E+03  0.14035485793E+04  0.65864270000E+03 0.  1.
    8880022    1    1    2    0    0  0.84128018067E+03 -0.43235772249E+03  0.20083875697E+03  0.97898590485E+03  0.15294330000E+03 0.  0.
<mgrwt>
<rscale>  0 0.11005758E+04</rscale>
<asrwt>0</asrwt>
<pdfrwt beam="1">  1        2 0.13711275E+00 0.11526039E+04</pdfrwt>
<pdfrwt beam="2">  1       -2 0.22943102E+00 0.11526039E+04</pdfrwt>
<totfact> 0.25083719E+00</totfact>
</mgrwt>
</event>
<event>
 4    5  0.8511149E-008  0.7550186E+03  0.7818608E-02  0.9818179E-01
         -2   -1    0    0    0  501 -0.00000000000E+00  0.00000000000E+00  0.53725736006E+03  0.53725736006E+03  0.25500000000E-02 0.  1.
          2   -1    0    0  501    0  0.00000000000E+00 -0.00000000000E+00 -0.16135185688E+04  0.16135185688E+04  0.25500000000E-02 0. -1.
    8880023    1    1    2    0    0  0.28756294728E+03  0.23140974244E+03  0.22638951443E+03  0.78822924080E+03  0.65864270000E+03 0.  1.
    8880022    1    1    2    0    0 -0.28756294728E+03 -0.23140974244E+03 -0.13026507231E+04  0.13625466880E+04  0.15294330000E+03 0.  0.
<mgrwt>
<rscale>  0 0.64396033E+03</rscale>
<asrwt>0</asrwt>
<pdfrwt beam="1">  1        2 0.24823362E+00 0.75501862E+03</pdfrwt>
<pdfrwt beam="2">  1       -2 0.82654979E-01 0.75501862E+03</pdfrwt>
<totfact> 0.14434984E+01</totfact>
</mgrwt>
</event>
<event>
 4    5  0.8511149E-008  0.8238632E+03  0.7818608E-02  0.9661393E-01
          2   -1    0    0  501    0  0.00000000000E+00  0.00000000000E+00  0.18101644050E+04  0.18101644051E+04  0.25500000000E-02 0. -1.
         -2   -1    0    0    0  501 -0.00000000000E+00 -0.00000000000E+00 -0.45650064998E+03  0.45650064999E+03  0.25500000000E-02 0.  1.
    8880023    1    1    2    0    0  0.12362353654E+03  0.47922604532E+03  0.70914151540E+01  0.82389372842E+03  0.65864270000E+03 0.  1.
    8880022    1    1    2    0    0 -0.12362353654E+03 -0.47922604532E+03  0.13465723399E+04  0.14427713266E+04  0.15294330000E+03 0.  0.
<mgrwt>
<rscale>  0 0.73362715E+03</rscale>
<asrwt>0</asrwt>
<pdfrwt beam="1">  1        2 0.27848683E+00 0.82386321E+03</pdfrwt>
<pdfrwt beam="2">  1       -2 0.70230869E-01 0.82386321E+03</pdfrwt>
<totfact> 0.16042476E+01</totfact>
</mgrwt>
</event>
<event>
 4    5  0.8511149E-008  0.8908951E+03  0.7818608E-02  0.9540809E-01
         -2   -1    0    0    0  501 -0.00000000000E+00  0.00000000000E+00  0.14839714594E+04  0.14839714594E+04  0.25500000000E-02 0.  1.
          2   -1    0    0  501    0  0.00000000000E+00 -0.00000000000E+00 -0.78124558478E+03  0.78124558478E+03  0.25500000000E-02 0. -1.
    8880023    1    1    2    0    0  0.55242227515E+03  0.23390931690E+03  0.11835202438E+04  0.14813555658E+04  0.65864270000E+03 0.  1.
    8880022    1    1    2    0    0 -0.55242227515E+03 -0.23390931690E+03 -0.48079436926E+03  0.78386147829E+03  0.15294330000E+03 0.  0.
<mgrwt>
<rscale>  0 0.81340874E+03</rscale>
<asrwt>0</asrwt>
<pdfrwt beam="1">  1        2 0.12019163E+00 0.89089514E+03</pdfrwt>
<pdfrwt beam="2">  1       -2 0.22830330E+00 0.89089514E+03</pdfrwt>
<totfact> 0.31387038E+00</totfact>
</mgrwt>
</event>
<event>
 4    5  0.8511149E-008  0.6691314E+03  0.7818608E-02  0.1016293E+00
          2   -1    0    0  501    0  0.00000000000E+00  0.00000000000E+00  0.25612563339E+04  0.25612563339E+04  0.25500000000E-02 0. -1.
         -2   -1    0    0    0  501 -0.00000000000E+00 -0.00000000000E+00 -0.44322107946E+03  0.44322107947E+03  0.25500000000E-02 0.  1.
    8880023    1    1    2    0    0 -0.31457985224E+02  0.11374129938E+03 -0.18430267263E+03  0.69404925576E+03  0.65864270000E+03 0.  1.
    8880022    1    1    2    0    0  0.31457985224E+02 -0.11374129938E+03  0.23023379271E+04  0.23104281576E+04  0.15294330000E+03 0.  0.
<mgrwt>
<rscale>  0 0.49048290E+03</rscale>
<asrwt>0</asrwt>
<pdfrwt beam="1">  1        2 0.39403943E+00 0.66913145E+03</pdfrwt>
<pdfrwt beam="2">  1       -2 0.68187860E-01 0.66913145E+03</pdfrwt>
<totfact> 0.67365047E+00</totfact>
</mgrwt>
</event>
<event>
 4    5  0.8511149E-008  0.8411934E+03  0.7818608E-02  0.9627934E-01
         -2   -1    0    0    0  501 -0.00000000000E+00  0.00000000000E+00  0.77015846292E+03  0.77015846293E+03  0.25500000000E-02 0.  1.
          2   -1    0    0  501    0  0.00000000000E+00 -0.00000000000E+00 -0.14187780565E+04  0.14187780565E+04  0.25500000000E-02 0. -1.
    8880023    1    1    2    0    0  0.17303021670E+03 -0.49381854368E+03  0.45620390307E+03  0.95693699762E+03  0.65864270000E+03 0.  1.
    8880022    1    1    2    0    0 -0.17303021670E+03  0.49381854368E+03 -0.11048234966E+04  0.12319995218E+04  0.15294330000E+03 0.  0.
<mgrwt>
<rscale>  0 0.75474596E+03</rscale>
<asrwt>0</asrwt>
<pdfrwt beam="1">  1        2 0.21827355E+00 0.84119345E+03</pdfrwt>
<pdfrwt beam="2">  1       -2 0.11848592E+00 0.84119345E+03</pdfrwt>
<totfact> 0.78246606E+00</totfact>
</mgrwt>
</event>
<event>
 4    5  0.8511149E-008  0.9500332E+03  0.7818608E-02  0.9450066E-01
          2   -1    0    0  501    0  0.00000000000E+00  0.00000000000E+00  0.27186982075E+04  0.27186982075E+04  0.25500000000E-02 0. -1.
         -2   -1    0    0    0  501 -0.00000000000E+00 -0.00000000000E+00 -0.50957162027E+03  0.50957162028E+03  0.25500000000E-02 0.  1.
    8880023    1    1    2    0    0  0.67168744802E+03 -0.13262292285E+03  0.42592402775E+02  0.95098747969E+03  0.65864270000E+03 0.  1.
    8880022    1    1    2    0    0 -0.67168744802E+03  0.13262292285E+03  0.21665341845E+04  0.22772823481E+04  0.15294330000E+03 0.  0.
<mgrwt>
<rscale>  0 0.88067500E+03</rscale>
<asrwt>0</asrwt>
<pdfrwt beam="1">  1        2 0.41826125E+00 0.95003320E+03</pdfrwt>
<pdfrwt beam="2">  1       -2 0.78395635E-01 0.95003320E+03</pdfrwt>
<totfact> 0.38272781E+00</totfact>
</mgrwt>
</event>
<event>
 4    5  0.8511149E-008  0.8742006E+03  0.7818608E-02  0.9568786E-01
          2   -1    0    0  501    0  0.00000000000E+00  0.00000000000E+00  0.45806237552E+03  0.45806237553E+03  0.25500000000E-02 0. -1.
         -2   -1    0    0    0  501 -0.00000000000E+00 -0.00000000000E+00 -0.13228304970E+04  0.13228304970E+04  0.25500000000E-02 0.  1.
    8880023    1    1    2    0    0  0.24235684077E+03 -0.52122902857E+03 -0.79565787604E+03  0.11820736866E+04  0.65864270000E+03 0.  0.
    8880022    1    1    2    0    0 -0.24235684077E+03  0.52122902857E+03 -0.69110245475E+02  0.59881918601E+03  0.15294330000E+03 0.  1.
<mgrwt>
<rscale>  0 0.79397042E+03</rscale>
<asrwt>0</asrwt>
<pdfrwt beam="1">  1        2 0.70471135E-01 0.87420063E+03</pdfrwt>
<pdfrwt beam="2">  1       -2 0.20351238E+00 0.87420063E+03</pdfrwt>
<totfact> 0.86561091E+00</totfact>
</mgrwt>
</event>
<event>
 4    5  0.8511149E-008  0.1060069E+04  0.7818608E-02  0.9306874E-01
         -2   -1    0    0    0  501 -0.00000000000E+00  0.00000000000E+00  0.12344662872E+04  0.12344662872E+04  0.25500000000E-02 0.  1.
          2   -1    0    0  501    0  0.00000000000E+00 -0.00000000000E+00 -0.19061774364E+04  0.19061774364E+04  0.25500000000E-02 0. -1.
    8880023    1    1    2    0    0  0.77603968666E+03 -0.29614021260E+03  0.87751878485E+03  0.13761489908E+04  0.65864270000E+03 0.  1.
    8880022    1    1    2    0    0 -0.77603968666E+03  0.29614021260E+03 -0.15492299341E+04  0.17644947329E+04  0.15294330000E+03 0.  0.
<mgrwt>
<rscale>  0 0.10015251E+04</rscale>
<asrwt>0</asrwt>
<pdfrwt beam="1">  1        2 0.29325807E+00 0.10600693E+04</pdfrwt>
<pdfrwt beam="2">  1       -2 0.18991789E+00 0.10600693E+04</pdfrwt>
<totfact> 0.11557449E+00</totfact>
</mgrwt>
</event>
<event>
 4    5  0.8511149E-008  0.6724440E+03  0.7818608E-02  0.1013968E+00
         -2   -1    0    0    0  501 -0.00000000000E+00  0.00000000000E+00  0.39980990659E+03  0.39980990659E+03  0.25500000000E-02 0.  1.
          2   -1    0    0  501    0  0.00000000000E+00 -0.00000000000E+00 -0.13875890197E+04  0.13875890197E+04  0.25500000000E-02 0. -1.
    8880023    1    1    2    0    0 -0.10277497968E+03 -0.88362844831E+02  0.10066458772E+03  0.67993694875E+03  0.65864270000E+03 0.  1.
    8880022    1    1    2    0    0  0.10277497968E+03  0.88362844831E+02 -0.10884437009E+04  0.11074619776E+04  0.15294330000E+03 0.  0.
<mgrwt>
<rscale>  0 0.49927542E+03</rscale>
<asrwt>0</asrwt>
<pdfrwt beam="1">  1        2 0.21347523E+00 0.67244397E+03</pdfrwt>
<pdfrwt beam="2">  1       -2 0.61509217E-01 0.67244397E+03</pdfrwt>
<totfact> 0.37224258E+01</totfact>
</mgrwt>
</event>
<event>
 4    5  0.8511149E-008  0.7517953E+03  0.7818608E-02  0.9826831E-01
          2   -1    0    0  501    0  0.00000000000E+00  0.00000000000E+00  0.18720838695E+04  0.18720838695E+04  0.25500000000E-02 0. -1.
         -2   -1    0    0    0  501 -0.00000000000E+00 -0.00000000000E+00 -0.96306170921E+03  0.96306170921E+03  0.25500000000E-02 0.  1.
    8880023    1    1    2    0    0 -0.54961520415E+02 -0.35828097776E+03 -0.79036527636E+03  0.10908132306E+04  0.65864270000E+03 0.  1.
    8880022    1    1    2    0    0  0.54961520415E+02  0.35828097776E+03  0.16993874367E+04  0.17443323481E+04  0.15294330000E+03 0.  0.
<mgrwt>
<rscale>  0 0.63942302E+03</rscale>
<asrwt>0</asrwt>
<pdfrwt beam="1">  1        2 0.28801290E+00 0.75179534E+03</pdfrwt>
<pdfrwt beam="2">  1       -2 0.14816334E+00 0.75179534E+03</pdfrwt>
<totfact> 0.25196236E+00</totfact>
</mgrwt>
</event>
<event>
 4    5  0.8511149E-008  0.1050296E+04  0.7818608E-02  0.9318525E-01
          2   -1    0    0  501    0  0.00000000000E+00  0.00000000000E+00  0.69510055330E+03  0.69510055330E+03  0.25500000000E-02 0. -1.
         -2   -1    0    0    0  501 -0.00000000000E+00 -0.00000000000E+00 -0.25748164646E+04  0.25748164646E+04  0.25500000000E-02 0.  1.
    8880023    1    1    2    0    0 -0.75382459026E+03  0.31790039293E+03 -0.21516668945E+04  0.23943251249E+04  0.65864270000E+03 0.  1.
    8880022    1    1    2    0    0  0.75382459026E+03 -0.31790039293E+03  0.27195098322E+03  0.87559189295E+03  0.15294330000E+03 0.  0.
<mgrwt>
<rscale>  0 0.99095135E+03</rscale>
<asrwt>0</asrwt>
<pdfrwt beam="1">  1        2 0.10693855E+00 0.10502963E+04</pdfrwt>
<pdfrwt beam="2">  1       -2 0.39612561E+00 0.10502963E+04</pdfrwt>
<totfact> 0.32859366E-01</totfact>
</mgrwt>
</event>
<event>
 4    5  0.8511149E-008  0.6901657E+03  0.7818608E-02  0.1004074E+00
         -2   -1    0    0    0  501 -0.00000000000E+00  0.00000000000E+00  0.44797000669E+03  0.44797000670E+03  0.25500000000E-02 0.  1.
          2   -1    0    0  501    0  0.00000000000E+00 -0.00000000000E+00 -0.15209698333E+04  0.15209698333E+04  0.25500000000E-02 0. -1.
    8880023    1    1    2    0    0  0.61078405289E+02  0.19694647242E+03  0.16085179062E+03  0.70866211229E+03  0.65864270000E+03 0.  1.
    8880022    1    1    2    0    0 -0.61078405289E+02 -0.19694647242E+03 -0.12338516172E+04  0.12602777277E+04  0.15294330000E+03 0.  0.
<mgrwt>
<rscale>  0 0.53899415E+03</rscale>
<asrwt>0</asrwt>
<pdfrwt beam="1">  1        2 0.23399536E+00 0.69016570E+03</pdfrwt>
<pdfrwt beam="2">  1       -2 0.68918464E-01 0.69016570E+03</pdfrwt>
<totfact> 0.24509156E+01</totfact>
</mgrwt>
</event>
<event>
 4    5  0.8511149E-008  0.1102592E+04  0.7818608E-02  0.9258176E-01
         -2   -1    0    0    0  501 -0.00000000000E+00  0.00000000000E+00  0.15061754202E+04  0.15061754202E+04  0.25500000000E-02 0.  1.
          2   -1    0    0  501    0  0.00000000000E+00 -0.00000000000E+00 -0.80855296742E+03  0.80855296742E+03  0.25500000000E-02 0. -1.
    8880023    1    1    2    0    0 -0.81206137653E+03  0.34993483633E+03  0.86558544303E+03  0.14017654705E+04  0.65864270000E+03 0.  1.
    8880022    1    1    2    0    0  0.81206137653E+03 -0.34993483633E+03 -0.16796299022E+03  0.91296291711E+03  0.15294330000E+03 0.  0.
<mgrwt>
<rscale>  0 0.10472612E+04</rscale>
<asrwt>0</asrwt>
<pdfrwt beam="1">  1        2 0.12439276E+00 0.11025916E+04</pdfrwt>
<pdfrwt beam="2">  1       -2 0.23171930E+00 0.11025916E+04</pdfrwt>
<totfact> 0.27892119E+00</totfact>
</mgrwt>
</event>
<event>
 4    5  0.8511149E-008  0.9053766E+03  0.7818608E-02  0.9517455E-01
         -2   -1    0    0    0  501 -0.00000000000E+00  0.00000000000E+00  0.73823418288E+03  0.73823418289E+03  0.25500000000E-02 0.  1.
          2   -1    0    0  501    0  0.00000000000E+00 -0.00000000000E+00 -0.34641255543E+04  0.34641255543E+04  0.25500000000E-02 0. -1.
    8880023    1    1    2    0    0  0.39983887179E+03  0.47542137453E+03  0.41572874091E+03  0.99626161174E+03  0.65864270000E+03 0.  1.
    8880022    1    1    2    0    0 -0.39983887179E+03 -0.47542137453E+03 -0.31416201123E+04  0.32060981254E+04  0.15294330000E+03 0.  0.
<mgrwt>
<rscale>  0 0.83009083E+03</rscale>
<asrwt>0</asrwt>
<pdfrwt beam="1">  1        2 0.53294239E+00 0.90537661E+03</pdfrwt>
<pdfrwt beam="2">  1       -2 0.11357449E+00 0.90537661E+03</pdfrwt>
<totfact> 0.54981741E-01</totfact>
</mgrwt>
</event>
<event>
 4    5  0.8511149E-008  0.1707462E+04  0.7818608E-02  0.8775530E-01
          2   -1    0    0  501    0  0.00000000000E+00  0.00000000000E+00  0.11717849077E+04  0.11717849077E+04  0.25500000000E-02 0. -1.
         -2   -1    0    0    0  501 -0.00000000000E+00 -0.00000000000E+00 -0.24047697891E+04  0.24047697891E+04  0.25500000000E-02 0.  1.
    8880023    1    1    2    0    0 -0.47292754187E+03 -0.15026494654E+04 -0.99449092060E+03  0.19759651498E+04  0.65864270000E+03 0.  0.
    8880022    1    1    2    0    0  0.47292754187E+03  0.15026494654E+04 -0.23849396078E+03  0.16005895470E+04  0.15294330000E+03 0.  0.
<mgrwt>
<rscale>  0 0.16753841E+04</rscale>
<asrwt>0</asrwt>
<pdfrwt beam="1">  1        2 0.18027460E+00 0.17074619E+04</pdfrwt>
<pdfrwt beam="2">  1       -2 0.36996458E+00 0.17074619E+04</pdfrwt>
<totfact> 0.21198407E-01</totfact>
</mgrwt>
</event>
<event>
 4    5  0.8511149E-008  0.1074837E+04  0.7818608E-02  0.9289603E-01
          2   -1    0    0  501    0  0.00000000000E+00  0.00000000000E+00  0.41159159142E+04  0.41159159142E+04  0.25500000000E-02 0. -1.
         -2   -1    0    0    0  501 -0.00000000000E+00 -0.00000000000E+00 -0.48219178427E+03  0.48219178428E+03  0.25500000000E-02 0.  1.
    8880023    1    1    2    0    0 -0.12892297633E+03 -0.83954984941E+03  0.24660652431E+03  0.11027647381E+04  0.65864270000E+03 0.  1.
    8880022    1    1    2    0    0  0.12892297633E+03  0.83954984941E+03  0.33871176056E+04  0.34953429604E+04  0.15294330000E+03 0.  0.
<mgrwt>
<rscale>  0 0.10174572E+04</rscale>
<asrwt>0</asrwt>
<pdfrwt beam="1">  1        2 0.63321784E+00 0.10748373E+04</pdfrwt>
<pdfrwt beam="2">  1       -2 0.74183351E-01 0.10748373E+04</pdfrwt>
<totfact> 0.46828801E-01</totfact>
</mgrwt>
</event>
<event>
 4    5  0.8511149E-008  0.8629828E+03  0.7818608E-02  0.9588280E-01
          2   -1    0    0  501    0  0.00000000000E+00  0.00000000000E+00  0.83064056052E+03  0.83064056052E+03  0.25500000000E-02 0. -1.
         -2   -1    0    0    0  501 -0.00000000000E+00 -0.00000000000E+00 -0.18055781839E+04  0.18055781839E+04  0.25500000000E-02 0.  1.
    8880023    1    1    2    0    0  0.36623840879E+03 -0.42047408929E+03 -0.15793692939E+04  0.17997629301E+04  0.65864270000E+03 0.  1.
    8880022    1    1    2    0    0 -0.36623840879E+03  0.42047408929E+03  0.60443167056E+03  0.83645581427E+03  0.15294330000E+03 0.  0.
<mgrwt>
<rscale>  0 0.78076798E+03</rscale>
<asrwt>0</asrwt>
<pdfrwt beam="1">  1        2 0.12779086E+00 0.86298276E+03</pdfrwt>
<pdfrwt beam="2">  1       -2 0.27778126E+00 0.86298276E+03</pdfrwt>
<totfact> 0.14514092E+00</totfact>
</mgrwt>
</event>
<event>
 4    5  0.8511149E-008  0.1250083E+04  0.7818608E-02  0.9109911E-01
         -2   -1    0    0    0  501 -0.00000000000E+00  0.00000000000E+00  0.78516501513E+03  0.78516501513E+03  0.25500000000E-02 0.  1.
          2   -1    0    0  501    0  0.00000000000E+00 -0.00000000000E+00 -0.27364897332E+04  0.27364897332E+04  0.25500000000E-02 0. -1.
    8880023    1    1    2    0    0 -0.98845048464E+03  0.38969706566E+03 -0.20940082207E+04  0.24387658350E+04  0.65864270000E+03 0.  0.
    8880022    1    1    2    0    0  0.98845048464E+03 -0.38969706566E+03  0.14268350264E+03  0.10828889133E+04  0.15294330000E+03 0.  0.
<mgrwt>
<rscale>  0 0.12033707E+04</rscale>
<asrwt>0</asrwt>
<pdfrwt beam="1">  1        2 0.42099841E+00 0.12500833E+04</pdfrwt>
<pdfrwt beam="2">  1       -2 0.12079462E+00 0.12500833E+04</pdfrwt>
<totfact> 0.12894455E+00</totfact>
</mgrwt>
</event>
<event>
 4    5  0.8511149E-008  0.7960251E+03  0.7818608E-02  0.9719457E-01
         -2   -1    0    0    0  501 -0.00000000000E+00  0.00000000000E+00  0.46416758263E+03  0.46416758264E+03  0.25500000000E-02 0.  1.
          2   -1    0    0  501    0  0.00000000000E+00 -0.00000000000E+00 -0.13834714383E+04  0.13834714383E+04  0.25500000000E-02 0. -1.
    8880023    1    1    2    0    0 -0.42548604982E+03 -0.13713976087E+03  0.19914331094E+02  0.79627412331E+03  0.65864270000E+03 0.  0.
    8880022    1    1    2    0    0  0.42548604982E+03  0.13713976087E+03 -0.93921818672E+03  0.10513648976E+04  0.15294330000E+03 0.  0.
<mgrwt>
<rscale>  0 0.69870027E+03</rscale>
<asrwt>0</asrwt>
<pdfrwt beam="1">  1        2 0.21284176E+00 0.79602506E+03</pdfrwt>
<pdfrwt beam="2">  1       -2 0.71410398E-01 0.79602506E+03</pdfrwt>
<totfact> 0.26750789E+01</totfact>
</mgrwt>
</event>
<event>
 4    5  0.8511149E-008  0.6697055E+03  0.7818608E-02  0.1015875E+00
         -2   -1    0    0    0  501 -0.00000000000E+00  0.00000000000E+00  0.24844030947E+04  0.24844030947E+04  0.25500000000E-02 0.  1.
          2   -1    0    0  501    0  0.00000000000E+00 -0.00000000000E+00 -0.22538251811E+03  0.22538251812E+03  0.25500000000E-02 0. -1.
    8880023    1    1    2    0    0 -0.11599659242E+03 -0.35213711434E+02  0.23851695123E+04  0.24774057042E+04  0.65864270000E+03 0.  1.
    8880022    1    1    2    0    0  0.11599659242E+03  0.35213711434E+02 -0.12614893567E+03  0.23237990858E+03  0.15294330000E+03 0.  0.
<mgrwt>
<rscale>  0 0.49205063E+03</rscale>
<asrwt>0</asrwt>
<pdfrwt beam="1">  1        2 0.34674235E-01 0.66970547E+03</pdfrwt>
<pdfrwt beam="2">  1       -2 0.38221584E+00 0.66970547E+03</pdfrwt>
<totfact> 0.15705907E+00</totfact>
</mgrwt>
</event>
<event>
 4    5  0.8511149E-008  0.8101151E+03  0.7818608E-02  0.9689337E-01
          2   -1    0    0  501    0  0.00000000000E+00  0.00000000000E+00  0.10380910041E+04  0.10380910041E+04  0.25500000000E-02 0. -1.
         -2   -1    0    0    0  501 -0.00000000000E+00 -0.00000000000E+00 -0.73342703148E+03  0.73342703148E+03  0.25500000000E-02 0.  1.
    8880023    1    1    2    0    0  0.30474122821E+03 -0.36001256266E+03 -0.40506010770E+03  0.90573735628E+03  0.65864270000E+03 0.  1.
    8880022    1    1    2    0    0 -0.30474122821E+03  0.36001256266E+03  0.70972408029E+03  0.86578067927E+03  0.15294330000E+03 0.  0.
<mgrwt>
<rscale>  0 0.71655210E+03</rscale>
<asrwt>0</asrwt>
<pdfrwt beam="1">  1        2 0.15970631E+00 0.81011510E+03</pdfrwt>
<pdfrwt beam="2">  1       -2 0.11283493E+00 0.81011510E+03</pdfrwt>
<totfact> 0.14867848E+01</totfact>
</mgrwt>
</event>
<event>
 4    5  0.8511149E-008  0.8180460E+03  0.7818608E-02  0.9673055E-01
          2   -1    0    0  501    0  0.00000000000E+00  0.00000000000E+00  0.12521649523E+04  0.12521649523E+04  0.25500000000E-02 0. -1.
         -2   -1    0    0    0  501 -0.00000000000E+00 -0.00000000000E+00 -0.72449308856E+03  0.72449308856E+03  0.25500000000E-02 0.  1.
    8880023    1    1    2    0    0  0.40485119622E+03  0.26736588065E+03 -0.40610722195E+03  0.91330295477E+03  0.65864270000E+03 0.  0.
    8880022    1    1    2    0    0 -0.40485119622E+03 -0.26736588065E+03  0.93377908568E+03  0.10633550861E+04  0.15294330000E+03 0.  0.
<mgrwt>
<rscale>  0 0.72644002E+03</rscale>
<asrwt>0</asrwt>
<pdfrwt beam="1">  1        2 0.19264076E+00 0.81804597E+03</pdfrwt>
<pdfrwt beam="2">  1       -2 0.11146048E+00 0.81804597E+03</pdfrwt>
<totfact> 0.11358600E+01</totfact>
</mgrwt>
</event>
<event>
 4    5  0.8511149E-008  0.8780552E+03  0.7818608E-02  0.9562220E-01
          2   -1    0    0  501    0  0.00000000000E+00  0.00000000000E+00  0.14419221451E+04  0.14419221451E+04  0.25500000000E-02 0. -1.
         -2   -1    0    0    0  501 -0.00000000000E+00 -0.00000000000E+00 -0.77655211323E+03  0.77655211324E+03  0.25500000000E-02 0.  1.
    8880023    1    1    2    0    0 -0.54112540196E+03 -0.21060412660E+03 -0.42362274495E+03  0.97490370555E+03  0.65864270000E+03 0.  1.
    8880022    1    1    2    0    0  0.54112540196E+03  0.21060412660E+03  0.10889927768E+04  0.12435705528E+04  0.15294330000E+03 0.  0.
<mgrwt>
<rscale>  0 0.79847981E+03</rscale>
<asrwt>0</asrwt>
<pdfrwt beam="1">  1        2 0.22183418E+00 0.87805524E+03</pdfrwt>
<pdfrwt beam="2">  1       -2 0.11946956E+00 0.87805524E+03</pdfrwt>
<totfact> 0.74050894E+00</totfact>
</mgrwt>
</event>
<event>
 4    5  0.9002975E-008  0.1316868E+04  0.7818608E-02  0.9051128E-01
         -2   -1    0    0    0  501 -0.00000000000E+00  0.00000000000E+00  0.18512395689E+04  0.18512395689E+04  0.25500000000E-02 0.  1.
          2   -1    0    0  501    0  0.00000000000E+00 -0.00000000000E+00 -0.22543442813E+04  0.22543442813E+04  0.25500000000E-02 0. -1.
    8880023    1    1    2    0    0  0.52197773140E+03 -0.10138397449E+04  0.14283276223E+04  0.19427459390E+04  0.65864270000E+03 0.  0.
    8880022    1    1    2    0    0 -0.52197773140E+03  0.10138397449E+04 -0.18314323347E+04  0.21628379112E+04  0.15294330000E+03 0.  0.
<mgrwt>
<rscale>  0 0.12731554E+04</rscale>
<asrwt>0</asrwt>
<pdfrwt beam="1">  1        2 0.34682220E+00 0.13168682E+04</pdfrwt>
<pdfrwt beam="2">  1       -2 0.28480609E+00 0.13168682E+04</pdfrwt>
<totfact> 0.18193342E-01</totfact>
</mgrwt>
</event>
<event>
 4    5  0.8511149E-008  0.1118622E+04  0.7818608E-02  0.9240601E-01
         -2   -1    0    0    0  501 -0.00000000000E+00  0.00000000000E+00  0.43301666614E+03  0.43301666615E+03  0.25500000000E-02 0.  1.
          2   -1    0    0  501    0  0.00000000000E+00 -0.00000000000E+00 -0.50316286080E+04  0.50316286080E+04  0.25500000000E-02 0. -1.
    8880023    1    1    2    0    0 -0.85112097266E+03  0.30511978012E+03 -0.43333697438E+03  0.11996233284E+04  0.65864270000E+03 0.  0.
    8880022    1    1    2    0    0  0.85112097266E+03 -0.30511978012E+03 -0.41652749675E+04  0.42650219458E+04  0.15294330000E+03 0.  0.
<mgrwt>
<rscale>  0 0.10644012E+04</rscale>
<asrwt>0</asrwt>
<pdfrwt beam="1">  1        2 0.77409667E+00 0.11186220E+04</pdfrwt>
<pdfrwt beam="2">  1       -2 0.66617952E-01 0.11186220E+04</pdfrwt>
<totfact> 0.69734953E-02</totfact>
</mgrwt>
</event>
<event>
 4    5  0.8511149E-008  0.1417503E+04  0.7818608E-02  0.8970201E-01
          2   -1    0    0  501    0  0.00000000000E+00  0.00000000000E+00  0.81246693548E+03  0.81246693548E+03  0.25500000000E-02 0. -1.
         -2   -1    0    0    0  501 -0.00000000000E+00 -0.00000000000E+00 -0.28915087838E+04  0.28915087838E+04  0.25500000000E-02 0.  1.
    8880023    1    1    2    0    0 -0.27476793009E+03 -0.12247473434E+04 -0.19807183755E+04  0.24356844952E+04  0.65864270000E+03 0.  1.
    8880022    1    1    2    0    0  0.27476793009E+03  0.12247473434E+04 -0.98323472743E+02  0.12682912240E+04  0.15294330000E+03 0.  0.
<mgrwt>
<rscale>  0 0.13775913E+04</rscale>
<asrwt>0</asrwt>
<pdfrwt beam="1">  1        2 0.12499491E+00 0.14175026E+04</pdfrwt>
<pdfrwt beam="2">  1       -2 0.44484750E+00 0.14175026E+04</pdfrwt>
<totfact> 0.12174484E-01</totfact>
</mgrwt>
</event>
<event>
 4    5  0.8511149E-008  0.7926424E+03  0.7818608E-02  0.9726936E-01
         -2   -1    0    0    0  501 -0.00000000000E+00  0.00000000000E+00  0.15609194218E+03  0.15609194220E+03  0.25500000000E-02 0.  1.
          2   -1    0    0  501    0  0.00000000000E+00 -0.00000000000E+00 -0.31238298670E+04  0.31238298670E+04  0.25500000000E-02 0. -1.
    8880023    1    1    2    0    0 -0.38306380594E+03 -0.21848083405E+03 -0.11068927384E+04  0.13614306795E+04  0.65864270000E+03 0.  0.
    8880022    1    1    2    0    0  0.38306380594E+03  0.21848083405E+03 -0.18608451864E+04  0.19184911297E+04  0.15294330000E+03 0.  0.
<mgrwt>
<rscale>  0 0.69435411E+03</rscale>
<asrwt>0</asrwt>
<pdfrwt beam="1">  1        2 0.48058916E+00 0.79264239E+03</pdfrwt>
<pdfrwt beam="2">  1       -2 0.24014147E-01 0.79264239E+03</pdfrwt>
<totfact> 0.23630733E+01</totfact>
</mgrwt>
</event>
<event>
 4    5  0.8511149E-008  0.6826833E+03  0.7818608E-02  0.1007845E+00
          2   -1    0    0  501    0  0.00000000000E+00  0.00000000000E+00  0.10959448445E+04  0.10959448445E+04  0.25500000000E-02 0. -1.
         -2   -1    0    0    0  501 -0.00000000000E+00 -0.00000000000E+00 -0.21300881902E+03  0.21300881904E+03  0.25500000000E-02 0.  1.
    8880023    1    1    2    0    0 -0.15634632285E+03 -0.88329695817E+02  0.45531124001E+03  0.82058810579E+03  0.65864270000E+03 0. -1.
    8880022    1    1    2    0    0  0.15634632285E+03  0.88329695817E+02  0.42762478549E+03  0.48836555777E+03  0.15294330000E+03 0.  0.
<mgrwt>
<rscale>  0 0.52340259E+03</rscale>
<asrwt>0</asrwt>
<pdfrwt beam="1">  1        2 0.16860689E+00 0.68268332E+03</pdfrwt>
<pdfrwt beam="2">  1       -2 0.32770588E-01 0.68268332E+03</pdfrwt>
<totfact> 0.19318745E+02</totfact>
</mgrwt>
</event>
<event>
 4    5  0.8511149E-008  0.9261536E+03  0.7818608E-02  0.9485287E-01
          2   -1    0    0  501    0  0.00000000000E+00  0.00000000000E+00  0.87297967516E+03  0.87297967516E+03  0.25500000000E-02 0. -1.
         -2   -1    0    0    0  501 -0.00000000000E+00 -0.00000000000E+00 -0.10623763255E+04  0.10623763255E+04  0.25500000000E-02 0.  1.
    8880023    1    1    2    0    0  0.41373770872E+03  0.50276381214E+03 -0.64276306306E+03  0.11273441817E+04  0.65864270000E+03 0.  1.
    8880022    1    1    2    0    0 -0.41373770872E+03 -0.50276381214E+03  0.45336641274E+03  0.80801181899E+03  0.15294330000E+03 0.  0.
<mgrwt>
<rscale>  0 0.85377264E+03</rscale>
<asrwt>0</asrwt>
<pdfrwt beam="1">  1        2 0.13430456E+00 0.92615363E+03</pdfrwt>
<pdfrwt beam="2">  1       -2 0.16344251E+00 0.92615363E+03</pdfrwt>
<totfact> 0.72594854E+00</totfact>
</mgrwt>
</event>
<event>
 4    5  0.8511149E-008  0.8190675E+03  0.7818608E-02  0.9670990E-01
          2   -1    0    0  501    0  0.00000000000E+00  0.00000000000E+00  0.11841840004E+04  0.11841840004E+04  0.25500000000E-02 0. -1.
         -2   -1    0    0    0  501 -0.00000000000E+00 -0.00000000000E+00 -0.17597440252E+04  0.17597440252E+04  0.25500000000E-02 0.  1.
    8880023    1    1    2    0    0  0.36787305573E+02 -0.48549774368E+03 -0.16010886364E+04  0.17984316481E+04  0.65864270000E+03 0.  0.
    8880022    1    1    2    0    0 -0.36787305573E+02  0.48549774368E+03  0.10255286115E+04  0.11454963776E+04  0.15294330000E+03 0.  0.
<mgrwt>
<rscale>  0 0.72770598E+03</rscale>
<asrwt>0</asrwt>
<pdfrwt beam="1">  1        2 0.18218215E+00 0.81906750E+03</pdfrwt>
<pdfrwt beam="2">  1       -2 0.27072985E+00 0.81906750E+03</pdfrwt>
<totfact> 0.95519228E-01</totfact>
</mgrwt>
</event>
<event>
 4    5  0.8511149E-008  0.7664025E+03  0.7818608E-02  0.9788805E-01
          2   -1    0    0  501    0  0.00000000000E+00  0.00000000000E+00  0.21987128968E+04  0.21987128968E+04  0.25500000000E-02 0. -1.
         -2   -1    0    0    0  501 -0.00000000000E+00 -0.00000000000E+00 -0.68307592097E+03  0.68307592097E+03  0.25500000000E-02 0.  1.
    8880023    1    1    2    0    0 -0.18503838771E+02 -0.39143347490E+03 -0.43843690241E+03  0.88294942153E+03  0.65864270000E+03 0.  0.
    8880022    1    1    2    0    0  0.18503838771E+02  0.39143347490E+03  0.19540738783E+04  0.19988393963E+04  0.15294330000E+03 0.  0.
<mgrwt>
<rscale>  0 0.65966781E+03</rscale>
<asrwt>0</asrwt>
<pdfrwt beam="1">  1        2 0.33826352E+00 0.76640248E+03</pdfrwt>
<pdfrwt beam="2">  1       -2 0.10508861E+00 0.76640248E+03</pdfrwt>
<totfact> 0.39405300E+00</totfact>
</mgrwt>
</event>
<event>
 4    5  0.8511149E-008  0.7316974E+03  0.7818608E-02  0.9884827E-01
          2   -1    0    0  501    0  0.00000000000E+00  0.00000000000E+00  0.30257476978E+04  0.30257476978E+04  0.25500000000E-02 0. -1.
         -2   -1    0    0    0  501 -0.00000000000E+00 -0.00000000000E+00 -0.25005223552E+03  0.25005223553E+03  0.25500000000E-02 0.  1.
    8880023    1    1    2    0    0  0.29703169667E+03  0.11551202383E+03  0.32652331608E+03  0.80124811306E+03  0.65864270000E+03 0.  1.
    8880022    1    1    2    0    0 -0.29703169667E+03 -0.11551202383E+03  0.24491721462E+04  0.24745518203E+04  0.15294330000E+03 0.  0.
<mgrwt>
<rscale>  0 0.61002284E+03</rscale>
<asrwt>0</asrwt>
<pdfrwt beam="1">  1        2 0.46549967E+00 0.73169738E+03</pdfrwt>
<pdfrwt beam="2">  1       -2 0.38469573E-01 0.73169738E+03</pdfrwt>
<totfact> 0.11420990E+01</totfact>
</mgrwt>
</event>
<event>
 4    5  0.8511149E-008  0.1300681E+04  0.7818608E-02  0.9064972E-01
         -2   -1    0    0    0  501 -0.00000000000E+00  0.00000000000E+00  0.20488015563E+04  0.20488015563E+04  0.25500000000E-02 0.  1.
          2   -1    0    0  501    0  0.00000000000E+00 -0.00000000000E+00 -0.85756460249E+03  0.85756460250E+03  0.25500000000E-02 0. -1.
    8880023    1    1    2    0    0 -0.10868486595E+04 -0.27698437083E+03  0.12067885001E+04  0.17742911375E+04  0.65864270000E+03 0.  0.
    8880022    1    1    2    0    0  0.10868486595E+04  0.27698437083E+03 -0.15551546310E+02  0.11320750213E+04  0.15294330000E+03 0.  0.
<mgrwt>
<rscale>  0 0.12562805E+04</rscale>
<asrwt>0</asrwt>
<pdfrwt beam="1">  1        2 0.13193302E+00 0.13006808E+04</pdfrwt>
<pdfrwt beam="2">  1       -2 0.31520024E+00 0.13006808E+04</pdfrwt>
<totfact> 0.77988449E-01</totfact>
</mgrwt>
</event>
<event>
 4    5  0.8511149E-008  0.1083342E+04  0.7818608E-02  0.9279833E-01
         -2   -1    0    0    0  501 -0.00000000000E+00  0.00000000000E+00  0.90439793918E+03  0.90439793919E+03  0.25500000000E-02 0.  1.
          2   -1    0    0  501    0  0.00000000000E+00 -0.00000000000E+00 -0.10698027819E+04  0.10698027820E+04  0.25500000000E-02 0. -1.
    8880023    1    1    2    0    0 -0.72735634981E+03 -0.45910012402E+03  0.88165523284E+01  0.10833781064E+04  0.65864270000E+03 0.  0.
    8880022    1    1    2    0    0  0.72735634981E+03  0.45910012402E+03 -0.17422139509E+03  0.89082261478E+03  0.15294330000E+03 0.  0.
<mgrwt>
<rscale>  0 0.10266086E+04</rscale>
<asrwt>0</asrwt>
<pdfrwt beam="1">  1        2 0.16458504E+00 0.10833422E+04</pdfrwt>
<pdfrwt beam="2">  1       -2 0.13913814E+00 0.10833422E+04</pdfrwt>
<totfact> 0.81711465E+00</totfact>
</mgrwt>
</event>
<event>
 4    5  0.8511149E-008  0.1480407E+04  0.7818608E-02  0.8923596E-01
          2   -1    0    0  501    0  0.00000000000E+00  0.00000000000E+00  0.25286534952E+04  0.25286534952E+04  0.25500000000E-02 0. -1.
         -2   -1    0    0    0  501 -0.00000000000E+00 -0.00000000000E+00 -0.13847257797E+04  0.13847257797E+04  0.25500000000E-02 0.  1.
    8880023    1    1    2    0    0 -0.11211203518E+04 -0.70773245027E+03 -0.69966115726E+03  0.16374162591E+04  0.65864270000E+03 0.  0.
    8880022    1    1    2    0    0  0.11211203518E+04  0.70773245027E+03  0.18435888728E+04  0.22759630158E+04  0.15294330000E+03 0.  0.
<mgrwt>
<rscale>  0 0.14425294E+04</rscale>
<asrwt>0</asrwt>
<pdfrwt beam="1">  1        2 0.38902361E+00 0.14804075E+04</pdfrwt>
<pdfrwt beam="2">  1       -2 0.21303474E+00 0.14804075E+04</pdfrwt>
<totfact> 0.34518356E-01</totfact>
</mgrwt>
</event>
<event>
 4    5  0.8511149E-008  0.7913367E+03  0.7818608E-02  0.9729851E-01
         -2   -1    0    0    0  501 -0.00000000000E+00  0.00000000000E+00  0.75954102927E+03  0.75954102928E+03  0.25500000000E-02 0.  1.
          2   -1    0    0  501    0  0.00000000000E+00 -0.00000000000E+00 -0.22349177494E+04  0.22349177494E+04  0.25500000000E-02 0. -1.
    8880023    1    1    2    0    0 -0.38998286737E+03  0.20079093580E+03  0.51922825066E+03  0.94647335899E+03  0.65864270000E+03 0.  1.
    8880022    1    1    2    0    0  0.38998286737E+03 -0.20079093580E+03 -0.19946049708E+04  0.20479854197E+04  0.15294330000E+03 0.  0.
<mgrwt>
<rscale>  0 0.69266979E+03</rscale>
<asrwt>0</asrwt>
<pdfrwt beam="1">  1        2 0.34383350E+00 0.79133674E+03</pdfrwt>
<pdfrwt beam="2">  1       -2 0.11685247E+00 0.79133674E+03</pdfrwt>
<totfact> 0.28965667E+00</totfact>
</mgrwt>
</event>
<event>
 4    5  0.8511149E-008  0.2182709E+04  0.7818608E-02  0.8536001E-01
         -2   -1    0    0    0  501 -0.00000000000E+00  0.00000000000E+00  0.25986795524E+04  0.25986795524E+04  0.25500000000E-02 0.  1.
          2   -1    0    0  501    0  0.00000000000E+00 -0.00000000000E+00 -0.21712941988E+04  0.21712941988E+04  0.25500000000E-02 0. -1.
    8880023    1    1    2    0    0 -0.14688049337E+04  0.14741161908E+04  0.12635899790E+04  0.25220777781E+04  0.65864270000E+03 0.  0.
    8880022    1    1    2    0    0  0.14688049337E+04 -0.14741161908E+04 -0.83620462544E+03  0.22478959731E+04  0.15294330000E+03 0.  0.
<mgrwt>
<rscale>  0 0.21582679E+04</rscale>
<asrwt>0</asrwt>
<pdfrwt beam="1">  1        2 0.33404526E+00 0.21827086E+04</pdfrwt>
<pdfrwt beam="2">  1       -2 0.39979686E+00 0.21827086E+04</pdfrwt>
<totfact> 0.34649370E-02</totfact>
</mgrwt>
</event>
<event>
 4    5  0.8511149E-008  0.6724017E+03  0.7818608E-02  0.1013997E+00
         -2   -1    0    0    0  501 -0.00000000000E+00  0.00000000000E+00  0.40791460485E+03  0.40791460485E+03  0.25500000000E-02 0.  1.
          2   -1    0    0  501    0  0.00000000000E+00 -0.00000000000E+00 -0.58081067203E+03  0.58081067204E+03  0.25500000000E-02 0. -1.
    8880023    1    1    2    0    0 -0.45828396522E+02 -0.12733236856E+03  0.64603191395E+02  0.67549800341E+03  0.65864270000E+03 0.  0.
    8880022    1    1    2    0    0  0.45828396522E+02  0.12733236856E+03 -0.23749925858E+03  0.31322727348E+03  0.15294330000E+03 0.  0.
<mgrwt>
<rscale>  0 0.49916675E+03</rscale>
<asrwt>0</asrwt>
<pdfrwt beam="1">  1        2 0.89355488E-01 0.67240165E+03</pdfrwt>
<pdfrwt beam="2">  1       -2 0.62756093E-01 0.67240165E+03</pdfrwt>
<totfact> 0.12328034E+02</totfact>
</mgrwt>
</event>
<event>
 4    5  0.8511149E-008  0.1094073E+04  0.7818608E-02  0.9267684E-01
         -2   -1    0    0    0  501 -0.00000000000E+00  0.00000000000E+00  0.57106415360E+03  0.57106415360E+03  0.25500000000E-02 0.  1.
          2   -1    0    0  501    0  0.00000000000E+00 -0.00000000000E+00 -0.25102716101E+04  0.25102716101E+04  0.25500000000E-02 0. -1.
    8880023    1    1    2    0    0  0.31136814814E+03 -0.81623203483E+03 -0.17667977223E+03  0.11082467264E+04  0.65864270000E+03 0.  1.
    8880022    1    1    2    0    0 -0.31136814814E+03  0.81623203483E+03 -0.17625276843E+04  0.19730890373E+04  0.15294330000E+03 0.  0.
<mgrwt>
<rscale>  0 0.10381312E+04</rscale>
<asrwt>0</asrwt>
<pdfrwt beam="1">  1        2 0.38619563E+00 0.10940727E+04</pdfrwt>
<pdfrwt beam="2">  1       -2 0.87856025E-01 0.10940727E+04</pdfrwt>
<totfact> 0.38266390E+00</totfact>
</mgrwt>
</event>
<event>
 4    5  0.8978099E-008  0.8259888E+03  0.7818608E-02  0.9657188E-01
          2   -1    0    0  501    0  0.00000000000E+00  0.00000000000E+00  0.13202554917E+04  0.13202554917E+04  0.25500000000E-02 0. -1.
         -2   -1    0    0    0  501 -0.00000000000E+00 -0.00000000000E+00 -0.20972183194E+04  0.20972183194E+04  0.25500000000E-02 0.  1.
    8880023    1    1    2    0    0 -0.66495461341E+02  0.49398945672E+03 -0.19587504055E+04  0.21257846991E+04  0.65864270000E+03 0.  0.
    8880022    1    1    2    0    0  0.66495461341E+02 -0.49398945672E+03  0.11817875778E+04  0.12916891119E+04  0.15294330000E+03 0.  0.
<mgrwt>
<rscale>  0 0.73624024E+03</rscale>
<asrwt>0</asrwt>
<pdfrwt beam="1">  1        2 0.20311623E+00 0.82598876E+03</pdfrwt>
<pdfrwt beam="2">  1       -2 0.32264897E+00 0.82598876E+03</pdfrwt>
<totfact> 0.38590582E-01</totfact>
</mgrwt>
</event>
<event>
 4    5  0.8511149E-008  0.1400928E+04  0.7818608E-02  0.8982962E-01
         -2   -1    0    0    0  501 -0.00000000000E+00  0.00000000000E+00  0.99406035889E+03  0.99406035889E+03  0.25500000000E-02 0.  1.
          2   -1    0    0  501    0  0.00000000000E+00 -0.00000000000E+00 -0.32219419464E+04  0.32219419464E+04  0.25500000000E-02 0. -1.
    8880023    1    1    2    0    0  0.80456591821E+03  0.93886258866E+03  0.26810820267E+03  0.14263525131E+04  0.65864270000E+03 0.  0.
    8880022    1    1    2    0    0 -0.80456591821E+03 -0.93886258866E+03 -0.24959897901E+04  0.27896497921E+04  0.15294330000E+03 0.  0.
<mgrwt>
<rscale>  0 0.13604409E+04</rscale>
<asrwt>0</asrwt>
<pdfrwt beam="1">  1        2 0.49568337E+00 0.14009281E+04</pdfrwt>
<pdfrwt beam="2">  1       -2 0.15293236E+00 0.14009281E+04</pdfrwt>
<totfact> 0.34319267E-01</totfact>
</mgrwt>
</event>
<event>
 4    5  0.8511149E-008  0.1088435E+04  0.7818608E-02  0.9274043E-01
         -2   -1    0    0    0  501 -0.00000000000E+00  0.00000000000E+00  0.48874846180E+03  0.48874846181E+03  0.25500000000E-02 0.  1.
          2   -1    0    0  501    0  0.00000000000E+00 -0.00000000000E+00 -0.27301071470E+04  0.27301071470E+04  0.25500000000E-02 0. -1.
    8880023    1    1    2    0    0 -0.86209165071E+03  0.87622588779E+02 -0.36770476009E+03  0.11488675856E+04  0.65864270000E+03 0.  0.
    8880022    1    1    2    0    0  0.86209165071E+03 -0.87622588779E+02 -0.18736539251E+04  0.20699880233E+04  0.15294330000E+03 0. -1.
<mgrwt>
<rscale>  0 0.10320801E+04</rscale>
<asrwt>0</asrwt>
<pdfrwt beam="1">  1        2 0.42001647E+00 0.10884346E+04</pdfrwt>
<pdfrwt beam="2">  1       -2 0.75192073E-01 0.10884346E+04</pdfrwt>
<totfact> 0.40592374E+00</totfact>
</mgrwt>
</event>
<event>
 4    5  0.8584011E-008  0.7153783E+03  0.7818608E-02  0.9938546E-01
         -2   -1    0    0    0  501 -0.00000000000E+00  0.00000000000E+00  0.13163056667E+04  0.13163056667E+04  0.25500000000E-02 0.  1.
          2   -1    0    0  501    0  0.00000000000E+00 -0.00000000000E+00 -0.24678717391E+04  0.24678717391E+04  0.25500000000E-02 0. -1.
    8880023    1    1    2    0    0 -0.53953700772E+02  0.27394321240E+03  0.12076211078E+04  0.14036077913E+04  0.65864270000E+03 0.  0.
    8880022    1    1    2    0    0  0.53953700772E+02 -0.27394321240E+03 -0.23591871802E+04  0.23805696145E+04  0.15294330000E+03 0.  0.
<mgrwt>
<rscale>  0 0.58429002E+03</rscale>
<asrwt>0</asrwt>
<pdfrwt beam="1">  1        2 0.37967258E+00 0.71537829E+03</pdfrwt>
<pdfrwt beam="2">  1       -2 0.20250856E+00 0.71537829E+03</pdfrwt>
<totfact> 0.49621764E-01</totfact>
</mgrwt>
</event>
<event>
 4    5  0.9635525E-008  0.1289035E+04  0.7818608E-02  0.9075087E-01
         -2   -1    0    0    0  501 -0.00000000000E+00  0.00000000000E+00  0.14668115181E+04  0.14668115181E+04  0.25500000000E-02 0.  1.
          2   -1    0    0  501    0  0.00000000000E+00 -0.00000000000E+00 -0.23460234122E+04  0.23460234122E+04  0.25500000000E-02 0. -1.
    8880023    1    1    2    0    0 -0.32479640177E+03  0.10593900847E+04  0.99624035898E+03  0.16291424472E+04  0.65864270000E+03 0.  0.
    8880022    1    1    2    0    0  0.32479640177E+03 -0.10593900847E+04 -0.18754522531E+04  0.21836924831E+04  0.15294330000E+03 0.  0.
<mgrwt>
<rscale>  0 0.12441247E+04</rscale>
<asrwt>0</asrwt>
<pdfrwt beam="1">  1        2 0.36092668E+00 0.12890346E+04</pdfrwt>
<pdfrwt beam="2">  1       -2 0.22566331E+00 0.12890346E+04</pdfrwt>
<totfact> 0.37398675E-01</totfact>
</mgrwt>
</event>
<event>
 4    5  0.8511149E-008  0.8994705E+03  0.7818608E-02  0.9526882E-01
         -2   -1    0    0    0  501 -0.00000000000E+00  0.00000000000E+00  0.55898714813E+03  0.55898714814E+03  0.25500000000E-02 0.  1.
          2   -1    0    0  501    0  0.00000000000E+00 -0.00000000000E+00 -0.14501358249E+04  0.14501358249E+04  0.25500000000E-02 0. -1.
    8880023    1    1    2    0    0  0.14333566358E+03 -0.59556015004E+03 -0.10250230804E+04  0.13637153392E+04  0.65864270000E+03 0.  0.
    8880022    1    1    2    0    0 -0.14333566358E+03  0.59556015004E+03  0.13387440369E+03  0.64540763379E+03  0.15294330000E+03 0.  0.
<mgrwt>
<rscale>  0 0.82330597E+03</rscale>
<asrwt>0</asrwt>
<pdfrwt beam="1">  1        2 0.22309782E+00 0.89947052E+03</pdfrwt>
<pdfrwt beam="2">  1       -2 0.85998023E-01 0.89947052E+03</pdfrwt>
<totfact> 0.15992038E+01</totfact>
</mgrwt>
</event>
<event>
 4    5  0.8511149E-008  0.7586391E+03  0.7818608E-02  0.9808643E-01
         -2   -1    0    0    0  501 -0.00000000000E+00  0.00000000000E+00  0.10313713838E+04  0.10313713838E+04  0.25500000000E-02 0.  1.
          2   -1    0    0  501    0  0.00000000000E+00 -0.00000000000E+00 -0.10221452761E+04  0.10221452761E+04  0.25500000000E-02 0. -1.
    8880023    1    1    2    0    0 -0.37442101739E+03 -0.39141304445E+02  0.83806123239E+03  0.11304335343E+04  0.65864270000E+03 0.  1.
    8880022    1    1    2    0    0  0.37442101739E+03  0.39141304445E+02 -0.82883512468E+03  0.92308312567E+03  0.15294330000E+03 0.  0.
<mgrwt>
<rscale>  0 0.64900745E+03</rscale>
<asrwt>0</asrwt>
<pdfrwt beam="1">  1        2 0.15725312E+00 0.75863914E+03</pdfrwt>
<pdfrwt beam="2">  1       -2 0.15867252E+00 0.75863914E+03</pdfrwt>
<totfact> 0.63965848E+00</totfact>
</mgrwt>
</event>
<event>
 4    5  0.8511149E-008  0.1001136E+04  0.7818608E-02  0.9380073E-01
         -2   -1    0    0    0  501 -0.00000000000E+00  0.00000000000E+00  0.54147183548E+03  0.54147183549E+03  0.25500000000E-02 0.  1.
          2   -1    0    0  501    0  0.00000000000E+00 -0.00000000000E+00 -0.16466714019E+04  0.16466714019E+04  0.25500000000E-02 0. -1.
    8880023    1    1    2    0    0  0.53033055294E+03  0.53592231987E+03 -0.23830311975E+03  0.10291072886E+04  0.65864270000E+03 0.  1.
    8880022    1    1    2    0    0 -0.53033055294E+03 -0.53592231987E+03 -0.86689644668E+03  0.11590359488E+04  0.15294330000E+03 0.  1.
<mgrwt>
<rscale>  0 0.93733911E+03</rscale>
<asrwt>0</asrwt>
<pdfrwt beam="1">  1        2 0.25333406E+00 0.10011361E+04</pdfrwt>
<pdfrwt beam="2">  1       -2 0.83303360E-01 0.10011361E+04</pdfrwt>
<totfact> 0.13219033E+01</totfact>
</mgrwt>
</event>
<event>
 4    5  0.8511149E-008  0.7426126E+03  0.7818608E-02  0.9852401E-01
          2   -1    0    0  501    0  0.00000000000E+00  0.00000000000E+00  0.22559960041E+03  0.22559960042E+03  0.25500000000E-02 0. -1.
         -2   -1    0    0    0  501 -0.00000000000E+00 -0.00000000000E+00 -0.24351521594E+04  0.24351521594E+04  0.25500000000E-02 0.  1.
    8880023    1    1    2    0    0  0.26952531685E+03  0.21217774108E+03 -0.21573287497E+04  0.22815654342E+04  0.65864270000E+03 0.  1.
    8880022    1    1    2    0    0 -0.26952531685E+03 -0.21217774108E+03 -0.52223809299E+02  0.37918632558E+03  0.15294330000E+03 0.  0.
<mgrwt>
<rscale>  0 0.62624646E+03</rscale>
<asrwt>0</asrwt>
<pdfrwt beam="1">  1        2 0.34707633E-01 0.74261262E+03</pdfrwt>
<pdfrwt beam="2">  1       -2 0.37463878E+00 0.74261262E+03</pdfrwt>
<totfact> 0.17315101E+00</totfact>
</mgrwt>
</event>
<event>
 4    5  0.8511149E-008  0.1317775E+04  0.7818608E-02  0.9050360E-01
         -2   -1    0    0    0  501 -0.00000000000E+00  0.00000000000E+00  0.49563342667E+03  0.49563342667E+03  0.25500000000E-02 0.  1.
          2   -1    0    0  501    0  0.00000000000E+00 -0.00000000000E+00 -0.38577395354E+04  0.38577395354E+04  0.25500000000E-02 0. -1.
    8880023    1    1    2    0    0 -0.49487019030E+03 -0.10285058491E+04 -0.79298950925E+03  0.15379737823E+04  0.65864270000E+03 0.  0.
    8880022    1    1    2    0    0  0.49487019030E+03  0.10285058491E+04 -0.25691165995E+04  0.28153991798E+04  0.15294330000E+03 0.  0.
<mgrwt>
<rscale>  0 0.12740999E+04</rscale>
<asrwt>0</asrwt>
<pdfrwt beam="1">  1        2 0.59349837E+00 0.13177750E+04</pdfrwt>
<pdfrwt beam="2">  1       -2 0.76251299E-01 0.13177750E+04</pdfrwt>
<totfact> 0.67976343E-01</totfact>
</mgrwt>
</event>
<event>
 4    5  0.8511149E-008  0.8681732E+03  0.7818608E-02  0.9579187E-01
         -2   -1    0    0    0  501 -0.00000000000E+00  0.00000000000E+00  0.17246904398E+04  0.17246904398E+04  0.25500000000E-02 0.  1.
          2   -1    0    0  501    0  0.00000000000E+00 -0.00000000000E+00 -0.64028872536E+03  0.64028872537E+03  0.25500000000E-02 0. -1.
    8880023    1    1    2    0    0  0.51184506604E+03 -0.24068456386E+03  0.14386368429E+04  0.16802977721E+04  0.65864270000E+03 0.  0.
    8880022    1    1    2    0    0 -0.51184506604E+03  0.24068456386E+03 -0.35423512839E+03  0.68468139314E+03  0.15294330000E+03 0.  0.
<mgrwt>
<rscale>  0 0.78689168E+03</rscale>
<asrwt>0</asrwt>
<pdfrwt beam="1">  1        2 0.98505957E-01 0.86817316E+03</pdfrwt>
<pdfrwt beam="2">  1       -2 0.26533699E+00 0.86817316E+03</pdfrwt>
<totfact> 0.24104063E+00</totfact>
</mgrwt>
</event>
<event>
 4    5  0.8511149E-008  0.9312858E+03  0.7818608E-02  0.9477567E-01
         -2   -1    0    0    0  501 -0.00000000000E+00  0.00000000000E+00  0.85334540458E+03  0.85334540459E+03  0.25500000000E-02 0.  1.
          2   -1    0    0  501    0  0.00000000000E+00 -0.00000000000E+00 -0.19159674461E+04  0.19159674461E+04  0.25500000000E-02 0. -1.
    8880023    1    1    2    0    0  0.36615381062E+03 -0.54718779859E+03  0.50699279830E+03  0.10603466432E+04  0.65864270000E+03 0.  0.
    8880022    1    1    2    0    0 -0.36615381062E+03  0.54718779859E+03 -0.15696148398E+04  0.17089662075E+04  0.15294330000E+03 0.  0.
<mgrwt>
<rscale>  0 0.85958117E+03</rscale>
<asrwt>0</asrwt>
<pdfrwt beam="1">  1        2 0.29476422E+00 0.93128583E+03</pdfrwt>
<pdfrwt beam="2">  1       -2 0.13128391E+00 0.93128583E+03</pdfrwt>
<totfact> 0.31718917E+00</totfact>
</mgrwt>
</event>
<event>
 4    5  0.8511149E-008  0.1082135E+04  0.7818608E-02  0.9281212E-01
         -2   -1    0    0    0  501 -0.00000000000E+00  0.00000000000E+00  0.15094856694E+04  0.15094856694E+04  0.25500000000E-02 0.  1.
          2   -1    0    0  501    0  0.00000000000E+00 -0.00000000000E+00 -0.12125223543E+04  0.12125223543E+04  0.25500000000E-02 0. -1.
    8880023    1    1    2    0    0  0.77742619008E+03  0.36443780348E+03  0.10952680975E+04  0.15396846448E+04  0.65864270000E+03 0.  0.
    8880022    1    1    2    0    0 -0.77742619008E+03 -0.36443780348E+03 -0.79830478239E+03  0.11823233789E+04  0.15294330000E+03 0.  0.
<mgrwt>
<rscale>  0 0.10253108E+04</rscale>
<asrwt>0</asrwt>
<pdfrwt beam="1">  1        2 0.18654190E+00 0.10821352E+04</pdfrwt>
<pdfrwt beam="2">  1       -2 0.23222857E+00 0.10821352E+04</pdfrwt>
<totfact> 0.15179831E+00</totfact>
</mgrwt>
</event>
<event>
 4    5  0.8511149E-008  0.9559475E+03  0.7818608E-02  0.9441608E-01
          2   -1    0    0  501    0  0.00000000000E+00  0.00000000000E+00  0.27460804655E+04  0.27460804655E+04  0.25500000000E-02 0. -1.
         -2   -1    0    0    0  501 -0.00000000000E+00 -0.00000000000E+00 -0.84706352594E+03  0.84706352594E+03  0.25500000000E-02 0.  1.
    8880023    1    1    2    0    0 -0.69281379738E+03 -0.58744199714E+01 -0.50883219879E+03  0.10829339220E+04  0.65864270000E+03 0.  1.
    8880022    1    1    2    0    0  0.69281379738E+03  0.58744199714E+01  0.24078491383E+04  0.25102100694E+04  0.15294330000E+03 0.  0.
<mgrwt>
<rscale>  0 0.88729194E+03</rscale>
<asrwt>0</asrwt>
<pdfrwt beam="1">  1        2 0.42247392E+00 0.95594753E+03</pdfrwt>
<pdfrwt beam="2">  1       -2 0.13031747E+00 0.95594753E+03</pdfrwt>
<totfact> 0.10960021E+00</totfact>
</mgrwt>
</event>
<event>
 4    5  0.8511149E-008  0.7231178E+03  0.7818608E-02  0.9912174E-01
          2   -1    0    0  501    0  0.00000000000E+00  0.00000000000E+00  0.15543620112E+04  0.15543620112E+04  0.25500000000E-02 0. -1.
         -2   -1    0    0    0  501 -0.00000000000E+00 -0.00000000000E+00 -0.13976054060E+04  0.13976054060E+04  0.25500000000E-02 0.  1.
    8880023    1    1    2    0    0  0.20444305349E+03 -0.21746771646E+03 -0.12834963265E+04  0.14731809788E+04  0.65864270000E+03 0.  1.
    8880022    1    1    2    0    0 -0.20444305349E+03  0.21746771646E+03  0.14402529318E+04  0.14787864384E+04  0.15294330000E+03 0.  0.
<mgrwt>
<rscale>  0 0.59674887E+03</rscale>
<asrwt>0</asrwt>
<pdfrwt beam="1">  1        2 0.23913262E+00 0.72311782E+03</pdfrwt>
<pdfrwt beam="2">  1       -2 0.21501621E+00 0.72311782E+03</pdfrwt>
<totfact> 0.13098032E+00</totfact>
</mgrwt>
</event>
<event>
 4    5  0.8511149E-008  0.1012479E+04  0.7818608E-02  0.9365410E-01
          2   -1    0    0  501    0  0.00000000000E+00  0.00000000000E+00  0.22327823413E+04  0.22327823413E+04  0.25500000000E-02 0. -1.
         -2   -1    0    0    0  501 -0.00000000000E+00 -0.00000000000E+00 -0.56488145134E+03  0.56488145135E+03  0.25500000000E-02 0.  1.
    8880023    1    1    2    0    0 -0.87300246413E+02  0.76399142562E+03  0.66527377514E+02  0.10146626679E+04  0.65864270000E+03 0.  1.
    8880022    1    1    2    0    0  0.87300246413E+02 -0.76399142562E+03  0.16013735125E+04  0.17830011248E+04  0.15294330000E+03 0.  0.
<mgrwt>
<rscale>  0 0.94977814E+03</rscale>
<asrwt>0</asrwt>
<pdfrwt beam="1">  1        2 0.34350498E+00 0.10124794E+04</pdfrwt>
<pdfrwt beam="2">  1       -2 0.86904838E-01 0.10124794E+04</pdfrwt>
<totfact> 0.56876701E+00</totfact>
</mgrwt>
</event>
<event>
 4    5  0.8511149E-008  0.1277396E+04  0.7818608E-02  0.9085330E-01
          2   -1    0    0  501    0  0.00000000000E+00  0.00000000000E+00  0.15777292562E+04  0.15777292562E+04  0.25500000000E-02 0. -1.
         -2   -1    0    0    0  501 -0.00000000000E+00 -0.00000000000E+00 -0.90837430401E+03  0.90837430401E+03  0.25500000000E-02 0.  1.
    8880023    1    1    2    0    0  0.48523670930E+03  0.98105882797E+03  0.23585667245E+03  0.12989879384E+04  0.65864270000E+03 0.  0.
    8880022    1    1    2    0    0 -0.48523670930E+03 -0.98105882797E+03  0.43349827979E+03  0.11871156218E+04  0.15294330000E+03 0.  0.
<mgrwt>
<rscale>  0 0.12319641E+04</rscale>
<asrwt>0</asrwt>
<pdfrwt beam="1">  1        2 0.24272757E+00 0.12773963E+04</pdfrwt>
<pdfrwt beam="2">  1       -2 0.13974990E+00 0.12773963E+04</pdfrwt>
<totfact> 0.40000996E+00</totfact>
</mgrwt>
</event>
<event>
 4    5  0.8511149E-008  0.7090849E+03  0.7818608E-02  0.9961415E-01
         -2   -1    0    0    0  501 -0.00000000000E+00  0.00000000000E+00  0.46988954474E+03  0.46988954475E+03  0.25500000000E-02 0.  1.
          2   -1    0    0  501    0  0.00000000000E+00 -0.00000000000E+00 -0.26503335175E+04  0.26503335175E+04  0.25500000000E-02 0. -1.
    8880023    1    1    2    0    0  0.14230297785E+03  0.22077389149E+03  0.18701554818E+03  0.73333230544E+03  0.65864270000E+03 0.  1.
    8880022    1    1    2    0    0 -0.14230297785E+03 -0.22077389149E+03 -0.23674595209E+04  0.23868907568E+04  0.15294330000E+03 0.  0.
<mgrwt>
<rscale>  0 0.57374993E+03</rscale>
<asrwt>0</asrwt>
<pdfrwt beam="1">  1        2 0.40774361E+00 0.70908494E+03</pdfrwt>
<pdfrwt beam="2">  1       -2 0.72290701E-01 0.70908494E+03</pdfrwt>
<totfact> 0.52310044E+00</totfact>
</mgrwt>
</event>
<event>
 4    5  0.8511149E-008  0.9445046E+03  0.7818608E-02  0.9458065E-01
         -2   -1    0    0    0  501 -0.00000000000E+00  0.00000000000E+00  0.22197689773E+03  0.22197689775E+03  0.25500000000E-02 0.  1.
          2   -1    0    0  501    0  0.00000000000E+00 -0.00000000000E+00 -0.37025896716E+04  0.37025896716E+04  0.25500000000E-02 0. -1.
    8880023    1    1    2    0    0  0.46236972806E+03  0.49446222299E+03 -0.11253808154E+04  0.14692075555E+04  0.65864270000E+03 0.  0.
    8880022    1    1    2    0    0 -0.46236972806E+03 -0.49446222299E+03 -0.23552319585E+04  0.24553590138E+04  0.15294330000E+03 0.  0.
<mgrwt>
<rscale>  0 0.87447375E+03</rscale>
<asrwt>0</asrwt>
<pdfrwt beam="1">  1        2 0.56962913E+00 0.94450456E+03</pdfrwt>
<pdfrwt beam="2">  1       -2 0.34150295E-01 0.94450456E+03</pdfrwt>
<totfact> 0.49118698E+00</totfact>
</mgrwt>
</event>
<event>
 4    5  0.8511149E-008  0.8026695E+03  0.7818608E-02  0.9705054E-01
          2   -1    0    0  501    0  0.00000000000E+00  0.00000000000E+00  0.22732573299E+04  0.22732573299E+04  0.25500000000E-02 0. -1.
         -2   -1    0    0    0  501 -0.00000000000E+00 -0.00000000000E+00 -0.70796669412E+03  0.70796669412E+03  0.25500000000E-02 0.  1.
    8880023    1    1    2    0    0 -0.10327435056E+02  0.45865172159E+03 -0.44212542075E+03  0.91638046223E+03  0.65864270000E+03 0.  0.
    8880022    1    1    2    0    0  0.10327435056E+02 -0.45865172159E+03  0.20074160565E+04  0.20648435618E+04  0.15294330000E+03 0.  0.
<mgrwt>
<rscale>  0 0.70716699E+03</rscale>
<asrwt>0</asrwt>
<pdfrwt beam="1">  1        2 0.34973189E+00 0.80266946E+03</pdfrwt>
<pdfrwt beam="2">  1       -2 0.10891795E+00 0.80266946E+03</pdfrwt>
<totfact> 0.32669944E+00</totfact>
</mgrwt>
</event>
<event>
 4    5  0.8511149E-008  0.9304470E+03  0.7818608E-02  0.9478823E-01
         -2   -1    0    0    0  501 -0.00000000000E+00  0.00000000000E+00  0.70854842305E+03  0.70854842305E+03  0.25500000000E-02 0.  1.
          2   -1    0    0  501    0  0.00000000000E+00 -0.00000000000E+00 -0.22313524686E+04  0.22313524686E+04  0.25500000000E-02 0. -1.
    8880023    1    1    2    0    0  0.60747420303E+03 -0.25079167619E+03  0.31485362049E+03  0.98227510443E+03  0.65864270000E+03 0.  0.
    8880022    1    1    2    0    0 -0.60747420303E+03  0.25079167619E+03 -0.18376576660E+04  0.19576257872E+04  0.15294330000E+03 0.  0.
<mgrwt>
<rscale>  0 0.85863281E+03</rscale>
<asrwt>0</asrwt>
<pdfrwt beam="1">  1        2 0.34328499E+00 0.93044698E+03</pdfrwt>
<pdfrwt beam="2">  1       -2 0.10900745E+00 0.93044698E+03</pdfrwt>
<totfact> 0.33725470E+00</totfact>
</mgrwt>
</event>
<event>
 4    5  0.8511149E-008  0.1112672E+04  0.7818608E-02  0.9247077E-01
          2   -1    0    0  501    0  0.00000000000E+00  0.00000000000E+00  0.32381148870E+04  0.32381148870E+04  0.25500000000E-02 0. -1.
         -2   -1    0    0    0  501 -0.00000000000E+00 -0.00000000000E+00 -0.57460270698E+03  0.57460270698E+03  0.25500000000E-02 0.  1.
    8880023    1    1    2    0    0  0.15710184254E+03 -0.88292040286E+03  0.12929670075E+03  0.11201594841E+04  0.65864270000E+03 0.  1.
    8880022    1    1    2    0    0 -0.15710184254E+03  0.88292040286E+03  0.25342154792E+04  0.26925581099E+04  0.15294330000E+03 0.  0.
<mgrwt>
<rscale>  0 0.10580456E+04</rscale>
<asrwt>0</asrwt>
<pdfrwt beam="1">  1        2 0.49817153E+00 0.11126723E+04</pdfrwt>
<pdfrwt beam="2">  1       -2 0.88400416E-01 0.11126723E+04</pdfrwt>
<totfact> 0.13604736E+00</totfact>
</mgrwt>
</event>
<event>
 4    5  0.8511149E-008  0.9656872E+03  0.7818608E-02  0.9427894E-01
          2   -1    0    0  501    0  0.00000000000E+00  0.00000000000E+00  0.34216258098E+04  0.34216258098E+04  0.25500000000E-02 0. -1.
         -2   -1    0    0    0  501 -0.00000000000E+00 -0.00000000000E+00 -0.64090507921E+03  0.64090507922E+03  0.25500000000E-02 0.  1.
    8880023    1    1    2    0    0 -0.19023059590E+03 -0.68011318434E+03  0.31187137499E+04  0.32648012624E+04  0.65864270000E+03 0. -1.
    8880022    1    1    2    0    0  0.19023059590E+03  0.68011318434E+03 -0.33799301926E+03  0.79772962663E+03  0.15294330000E+03 0.  0.
<mgrwt>
<rscale>  0 0.89815241E+03</rscale>
<asrwt>0</asrwt>
<pdfrwt beam="1">  1        2 0.52640396E+00 0.96568723E+03</pdfrwt>
<pdfrwt beam="2">  1       -2 0.98600783E-01 0.96568723E+03</pdfrwt>
<totfact> 0.81647863E-01</totfact>
</mgrwt>
</event>
<event>
 4    5  0.8511149E-008  0.9956068E+03  0.7818608E-02  0.9387328E-01
          2   -1    0    0  501    0  0.00000000000E+00  0.00000000000E+00  0.14939179792E+04  0.14939179792E+04  0.25500000000E-02 0. -1.
         -2   -1    0    0    0  501 -0.00000000000E+00 -0.00000000000E+00 -0.17714022824E+04  0.17714022824E+04  0.25500000000E-02 0.  1.
    8880023    1    1    2    0    0 -0.74652648790E+03  0.10993758943E+02 -0.15144664248E+04  0.18124131477E+04  0.65864270000E+03 0.  0.
    8880022    1    1    2    0    0  0.74652648790E+03 -0.10993758943E+02  0.12369821215E+04  0.14529071140E+04  0.15294330000E+03 0. -1.
<mgrwt>
<rscale>  0 0.93125914E+03</rscale>
<asrwt>0</asrwt>
<pdfrwt beam="1">  1        2 0.22983353E+00 0.99560678E+03</pdfrwt>
<pdfrwt beam="2">  1       -2 0.27252343E+00 0.99560678E+03</pdfrwt>
<totfact> 0.59963866E-01</totfact>
</mgrwt>
</event>
<event>
 4    5  0.8511149E-008  0.6590528E+03  0.7818608E-02  0.1025148E+00
          2   -1    0    0  501    0  0.00000000000E+00  0.00000000000E+00  0.22739559332E+03  0.22739559333E+03  0.25500000000E-02 0. -1.
         -2   -1    0    0    0  501 -0.00000000000E+00 -0.00000000000E+00 -0.10872712746E+04  0.10872712746E+04  0.25500000000E-02 0.  1.
    8880023    1    1    2    0    0  0.16436668080E+02  0.16440337157E+02 -0.93401006693E+03  0.11431209298E+04  0.65864270000E+03 0.  1.
    8880022    1    1    2    0    0 -0.16436668080E+02 -0.16440337157E+02  0.74134385645E+02  0.17154593814E+03  0.15294330000E+03 0.  0.
<mgrwt>
<rscale>  0 0.45873596E+03</rscale>
<asrwt>0</asrwt>
<pdfrwt beam="1">  1        2 0.34983938E-01 0.65905285E+03</pdfrwt>
<pdfrwt beam="2">  1       -2 0.16727250E+00 0.65905285E+03</pdfrwt>
<totfact> 0.33993610E+01</totfact>
</mgrwt>
</event>
<event>
 4    5  0.8511149E-008  0.1350014E+04  0.7818608E-02  0.9023530E-01
         -2   -1    0    0    0  501 -0.00000000000E+00  0.00000000000E+00  0.17129631507E+04  0.17129631507E+04  0.25500000000E-02 0.  1.
          2   -1    0    0  501    0  0.00000000000E+00 -0.00000000000E+00 -0.95919858183E+03  0.95919858183E+03  0.25500000000E-02 0. -1.
    8880023    1    1    2    0    0 -0.10140600209E+04  0.60034100784E+03  0.58731464473E+03  0.14722349506E+04  0.65864270000E+03 0.  0.
    8880022    1    1    2    0    0  0.10140600209E+04 -0.60034100784E+03  0.16644992415E+03  0.11999267819E+04  0.15294330000E+03 0.  0.
<mgrwt>
<rscale>  0 0.13076381E+04</rscale>
<asrwt>0</asrwt>
<pdfrwt beam="1">  1        2 0.14756901E+00 0.13500138E+04</pdfrwt>
<pdfrwt beam="2">  1       -2 0.26353279E+00 0.13500138E+04</pdfrwt>
<totfact> 0.13659305E+00</totfact>
</mgrwt>
</event>
<event>
 4    5  0.8511149E-008  0.7908633E+03  0.7818608E-02  0.9730911E-01
          2   -1    0    0  501    0  0.00000000000E+00  0.00000000000E+00  0.19254555973E+04  0.19254555973E+04  0.25500000000E-02 0. -1.
         -2   -1    0    0    0  501 -0.00000000000E+00 -0.00000000000E+00 -0.25117263772E+03  0.25117263773E+03  0.25500000000E-02 0.  1.
    8880023    1    1    2    0    0 -0.39964521504E+03  0.17871262468E+03  0.55812844428E+03  0.96797317458E+03  0.65864270000E+03 0.  0.
    8880022    1    1    2    0    0  0.39964521504E+03 -0.17871262468E+03  0.11161545153E+04  0.12086550605E+04  0.15294330000E+03 0.  0.
<mgrwt>
<rscale>  0 0.69205803E+03</rscale>
<asrwt>0</asrwt>
<pdfrwt beam="1">  1        2 0.29622394E+00 0.79086327E+03</pdfrwt>
<pdfrwt beam="2">  1       -2 0.38641944E-01 0.79086327E+03</pdfrwt>
<totfact> 0.47621942E+01</totfact>
</mgrwt>
</event>
<event>
 4    5  0.8511149E-008  0.7966008E+03  0.7818608E-02  0.9718195E-01
          2   -1    0    0  501    0  0.00000000000E+00  0.00000000000E+00  0.22344990857E+04  0.22344990857E+04  0.25500000000E-02 0. -1.
         -2   -1    0    0    0  501 -0.00000000000E+00 -0.00000000000E+00 -0.33282114563E+03  0.33282114564E+03  0.25500000000E-02 0.  1.
    8880023    1    1    2    0    0 -0.12814244358E+03  0.42935077608E+03  0.22890439552E+03  0.82883653595E+03  0.65864270000E+03 0.  0.
    8880022    1    1    2    0    0  0.12814244358E+03 -0.42935077608E+03  0.16727735445E+04  0.17384836953E+04  0.15294330000E+03 0.  0.
<mgrwt>
<rscale>  0 0.69943749E+03</rscale>
<asrwt>0</asrwt>
<pdfrwt beam="1">  1        2 0.34376910E+00 0.79660077E+03</pdfrwt>
<pdfrwt beam="2">  1       -2 0.51203251E-01 0.79660077E+03</pdfrwt>
<totfact> 0.18380955E+01</totfact>
</mgrwt>
</event>
<event>
 4    5  0.8511149E-008  0.7129604E+03  0.7818608E-02  0.9947168E-01
          2   -1    0    0  501    0  0.00000000000E+00  0.00000000000E+00  0.58598915581E+03  0.58598915582E+03  0.25500000000E-02 0. -1.
         -2   -1    0    0    0  501 -0.00000000000E+00 -0.00000000000E+00 -0.72193114739E+03  0.72193114739E+03  0.25500000000E-02 0.  1.
    8880023    1    1    2    0    0 -0.20524102683E+03 -0.17993995364E+03 -0.46708947189E+03  0.85234092183E+03  0.65864270000E+03 0.  0.
    8880022    1    1    2    0    0  0.20524102683E+03  0.17993995364E+03  0.33114748031E+03  0.45557938138E+03  0.15294330000E+03 0. -1.
<mgrwt>
<rscale>  0 0.58028788E+03</rscale>
<asrwt>0</asrwt>
<pdfrwt beam="1">  1        2 0.90152178E-01 0.71296036E+03</pdfrwt>
<pdfrwt beam="2">  1       -2 0.11106633E+00 0.71296036E+03</pdfrwt>
<totfact> 0.33266132E+01</totfact>
</mgrwt>
</event>
<event>
 4    5  0.8511149E-008  0.9959043E+03  0.7818608E-02  0.9386936E-01
         -2   -1    0    0    0  501 -0.00000000000E+00  0.00000000000E+00  0.54709450149E+03  0.54709450150E+03  0.25500000000E-02 0.  1.
          2   -1    0    0  501    0  0.00000000000E+00 -0.00000000000E+00 -0.18753077944E+04  0.18753077944E+04  0.25500000000E-02 0. -1.
    8880023    1    1    2    0    0 -0.26979937773E+03 -0.69657989025E+03 -0.13309541161E+03  0.10047585992E+04  0.65864270000E+03 0.  0.
    8880022    1    1    2    0    0  0.26979937773E+03  0.69657989025E+03 -0.11951178813E+04  0.14176436968E+04  0.15294330000E+03 0.  0.
<mgrwt>
<rscale>  0 0.93158662E+03</rscale>
<asrwt>0</asrwt>
<pdfrwt beam="1">  1        2 0.28850889E+00 0.99590434E+03</pdfrwt>
<pdfrwt beam="2">  1       -2 0.84168386E-01 0.99590434E+03</pdfrwt>
<totfact> 0.96633898E+00</totfact>
</mgrwt>
</event>
<event>
 4    5  0.8511149E-008  0.1645654E+04  0.7818608E-02  0.8813092E-01
          2   -1    0    0  501    0  0.00000000000E+00  0.00000000000E+00  0.39316395910E+04  0.39316395910E+04  0.25500000000E-02 0. -1.
         -2   -1    0    0    0  501 -0.00000000000E+00 -0.00000000000E+00 -0.76203404819E+03  0.76203404820E+03  0.25500000000E-02 0.  1.
    8880023    1    1    2    0    0 -0.87680450294E+03 -0.12270209411E+04  0.68362767142E+03  0.17819998669E+04  0.65864270000E+03 0.  0.
    8880022    1    1    2    0    0  0.87680450294E+03  0.12270209411E+04  0.24859778714E+04  0.29116737723E+04  0.15294330000E+03 0.  0.
<mgrwt>
<rscale>  0 0.16121926E+04</rscale>
<asrwt>0</asrwt>
<pdfrwt beam="1">  1        2 0.60486763E+00 0.16456539E+04</pdfrwt>
<pdfrwt beam="2">  1       -2 0.11723601E+00 0.16456539E+04</pdfrwt>
<totfact> 0.20695016E-01</totfact>
</mgrwt>
</event>
<event>
 4    5  0.8511149E-008  0.7193435E+03  0.7818608E-02  0.9924814E-01
         -2   -1    0    0    0  501 -0.00000000000E+00  0.00000000000E+00  0.30943281482E+03  0.30943281483E+03  0.25500000000E-02 0.  1.
          2   -1    0    0  501    0  0.00000000000E+00 -0.00000000000E+00 -0.22758335065E+04  0.22758335065E+04  0.25500000000E-02 0. -1.
    8880023    1    1    2    0    0 -0.28722153659E+03 -0.33891652356E+02 -0.14385211312E+03  0.73358604941E+03  0.65864270000E+03 0.  1.
    8880022    1    1    2    0    0  0.28722153659E+03  0.33891652356E+02 -0.18225485786E+04  0.18516802719E+04  0.15294330000E+03 0.  0.
<mgrwt>
<rscale>  0 0.59073640E+03</rscale>
<asrwt>0</asrwt>
<pdfrwt beam="1">  1        2 0.35012822E+00 0.71934349E+03</pdfrwt>
<pdfrwt beam="2">  1       -2 0.47605050E-01 0.71934349E+03</pdfrwt>
<totfact> 0.20444709E+01</totfact>
</mgrwt>
</event>
<event>
 4    5  0.8511149E-008  0.7549956E+03  0.7818608E-02  0.9818240E-01
          2   -1    0    0  501    0  0.00000000000E+00  0.00000000000E+00  0.93321629429E+03  0.93321629429E+03  0.25500000000E-02 0. -1.
         -2   -1    0    0    0  501 -0.00000000000E+00 -0.00000000000E+00 -0.60879820381E+03  0.60879820382E+03  0.25500000000E-02 0.  1.
    8880023    1    1    2    0    0 -0.34687231496E+03 -0.12604639086E+03 -0.29030176239E+03  0.80888405538E+03  0.65864270000E+03 0.  1.
    8880022    1    1    2    0    0  0.34687231496E+03  0.12604639086E+03  0.61471985287E+03  0.73313044273E+03  0.15294330000E+03 0.  0.
<mgrwt>
<rscale>  0 0.64392802E+03</rscale>
<asrwt>0</asrwt>
<pdfrwt beam="1">  1        2 0.14357174E+00 0.75499556E+03</pdfrwt>
<pdfrwt beam="2">  1       -2 0.93661263E-01 0.75499556E+03</pdfrwt>
<totfact> 0.27237844E+01</totfact>
</mgrwt>
</event>
<event>
 4    5  0.8511149E-008  0.7091516E+03  0.7818608E-02  0.9961165E-01
          2   -1    0    0  501    0  0.00000000000E+00  0.00000000000E+00  0.84659226371E+03  0.84659226372E+03  0.25500000000E-02 0. -1.
         -2   -1    0    0    0  501 -0.00000000000E+00 -0.00000000000E+00 -0.39989886877E+03  0.39989886878E+03  0.25500000000E-02 0.  1.
    8880023    1    1    2    0    0  0.24411108317E+03 -0.97445386700E+02  0.36968815349E+01  0.70916126340E+03  0.65864270000E+03 0.  0.
    8880022    1    1    2    0    0 -0.24411108317E+03  0.97445386700E+02  0.44299651340E+03  0.53732986909E+03  0.15294330000E+03 0.  0.
<mgrwt>
<rscale>  0 0.57386379E+03</rscale>
<asrwt>0</asrwt>
<pdfrwt beam="1">  1        2 0.13024496E+00 0.70915163E+03</pdfrwt>
<pdfrwt beam="2">  1       -2 0.61522904E-01 0.70915163E+03</pdfrwt>
<totfact> 0.79647475E+01</totfact>
</mgrwt>
</event>
<event>
 4    5  0.8511149E-008  0.1154034E+04  0.7818608E-02  0.9203153E-01
          2   -1    0    0  501    0  0.00000000000E+00  0.00000000000E+00  0.90858364483E+03  0.90858364484E+03  0.25500000000E-02 0. -1.
         -2   -1    0    0    0  501 -0.00000000000E+00 -0.00000000000E+00 -0.17849716637E+04  0.17849716637E+04  0.25500000000E-02 0.  1.
    8880023    1    1    2    0    0 -0.68748824177E+02 -0.94512351075E+03  0.28314999454E+03  0.11882630084E+04  0.65864270000E+03 0.  0.
    8880022    1    1    2    0    0  0.68748824177E+02  0.94512351075E+03 -0.11595380134E+04  0.15052923002E+04  0.15294330000E+03 0.  0.
<mgrwt>
<rscale>  0 0.11020941E+04</rscale>
<asrwt>0</asrwt>
<pdfrwt beam="1">  1        2 0.13978210E+00 0.11540343E+04</pdfrwt>
<pdfrwt beam="2">  1       -2 0.27461103E+00 0.11540343E+04</pdfrwt>
<totfact> 0.12904869E+00</totfact>
</mgrwt>
</event>
<event>
 4    5  0.8511149E-008  0.1167571E+04  0.7818608E-02  0.9189309E-01
          2   -1    0    0  501    0  0.00000000000E+00  0.00000000000E+00  0.53712746466E+03  0.53712746467E+03  0.25500000000E-02 0. -1.
         -2   -1    0    0    0  501 -0.00000000000E+00 -0.00000000000E+00 -0.23093513927E+04  0.23093513927E+04  0.25500000000E-02 0.  1.
    8880023    1    1    2    0    0 -0.95721810930E+03  0.11465026731E+03 -0.57414821786E+03  0.13011024460E+04  0.65864270000E+03 0. -1.
    8880022    1    1    2    0    0  0.95721810930E+03 -0.11465026731E+03 -0.11980757101E+04  0.15453764114E+04  0.15294330000E+03 0.  0.
<mgrwt>
<rscale>  0 0.11164461E+04</rscale>
<asrwt>0</asrwt>
<pdfrwt beam="1">  1        2 0.82634996E-01 0.11675707E+04</pdfrwt>
<pdfrwt beam="2">  1       -2 0.35528482E+00 0.11675707E+04</pdfrwt>
<totfact> 0.81080562E-01</totfact>
</mgrwt>
</event>
<event>
 4    5  0.8511149E-008  0.9260324E+03  0.7818608E-02  0.9485471E-01
          2   -1    0    0  501    0  0.00000000000E+00  0.00000000000E+00  0.84614235820E+03  0.84614235820E+03  0.25500000000E-02 0. -1.
         -2   -1    0    0    0  501 -0.00000000000E+00 -0.00000000000E+00 -0.10797478817E+04  0.10797478817E+04  0.25500000000E-02 0.  1.
    8880023    1    1    2    0    0 -0.53761088875E+03 -0.36701545952E+03 -0.65612436355E+03  0.11349163854E+04  0.65864270000E+03 0.  0.
    8880022    1    1    2    0    0  0.53761088875E+03  0.36701545952E+03  0.42251884005E+03  0.79097385446E+03  0.15294330000E+03 0.  0.
<mgrwt>
<rscale>  0 0.85363526E+03</rscale>
<asrwt>0</asrwt>
<pdfrwt beam="1">  1        2 0.13017575E+00 0.92603241E+03</pdfrwt>
<pdfrwt beam="2">  1       -2 0.16611506E+00 0.92603241E+03</pdfrwt>
<totfact> 0.72474113E+00</totfact>
</mgrwt>
</event>
<event>
 4    5  0.8511149E-008  0.1000998E+04  0.7818608E-02  0.9380253E-01
         -2   -1    0    0    0  501 -0.00000000000E+00  0.00000000000E+00  0.34062223634E+03  0.34062223635E+03  0.25500000000E-02 0.  1.
          2   -1    0    0  501    0  0.00000000000E+00 -0.00000000000E+00 -0.26261553625E+04  0.26261553626E+04  0.25500000000E-02 0. -1.
    8880023    1    1    2    0    0 -0.73247267688E+03 -0.17796121752E+03 -0.75482699186E+03  0.12536986924E+04  0.65864270000E+03 0. -1.
    8880022    1    1    2    0    0  0.73247267688E+03  0.17796121752E+03 -0.15307061343E+04  0.17130789065E+04  0.15294330000E+03 0. -1.
<mgrwt>
<rscale>  0 0.93718721E+03</rscale>
<asrwt>0</asrwt>
<pdfrwt beam="1">  1        2 0.40402389E+00 0.10009978E+04</pdfrwt>
<pdfrwt beam="2">  1       -2 0.52403423E-01 0.10009978E+04</pdfrwt>
<totfact> 0.10240226E+01</totfact>
</mgrwt>
</event>
<event>
 4    5  0.8511149E-008  0.1253979E+04  0.7818608E-02  0.9106357E-01
         -2   -1    0    0    0  501 -0.00000000000E+00  0.00000000000E+00  0.76406607758E+03  0.76406607758E+03  0.25500000000E-02 0.  1.
          2   -1    0    0  501    0  0.00000000000E+00 -0.00000000000E+00 -0.28448180448E+04  0.28448180448E+04  0.25500000000E-02 0. -1.
    8880023    1    1    2    0    0  0.70198434666E+03 -0.80366149605E+03  0.12862294778E+02  0.12540452416E+04  0.65864270000E+03 0.  0.
    8880022    1    1    2    0    0 -0.70198434666E+03  0.80366149605E+03 -0.20936142620E+04  0.23548388808E+04  0.15294330000E+03 0.  0.
<mgrwt>
<rscale>  0 0.12074542E+04</rscale>
<asrwt>0</asrwt>
<pdfrwt beam="1">  1        2 0.43766431E+00 0.12539793E+04</pdfrwt>
<pdfrwt beam="2">  1       -2 0.11754863E+00 0.12539793E+04</pdfrwt>
<totfact> 0.11880059E+00</totfact>
</mgrwt>
</event>
<event>
 4    5  0.8511149E-008  0.1134962E+04  0.7818608E-02  0.9223093E-01
         -2   -1    0    0    0  501 -0.00000000000E+00  0.00000000000E+00  0.11370040717E+04  0.11370040717E+04  0.25500000000E-02 0.  1.
          2   -1    0    0  501    0  0.00000000000E+00 -0.00000000000E+00 -0.12669058916E+04  0.12669058916E+04  0.25500000000E-02 0. -1.
    8880023    1    1    2    0    0 -0.88822031822E+03 -0.25572315176E+03  0.53533883525E+03  0.12548814840E+04  0.65864270000E+03 0.  0.
    8880022    1    1    2    0    0  0.88822031822E+03  0.25572315176E+03 -0.66524065518E+03  0.11490284794E+04  0.15294330000E+03 0.  0.
<mgrwt>
<rscale>  0 0.10818218E+04</rscale>
<asrwt>0</asrwt>
<pdfrwt beam="1">  1        2 0.19490860E+00 0.11349625E+04</pdfrwt>
<pdfrwt beam="2">  1       -2 0.17492370E+00 0.11349625E+04</pdfrwt>
<totfact> 0.33236688E+00</totfact>
</mgrwt>
</event>
<event>
 4    5  0.8511149E-008  0.7499857E+03  0.7818608E-02  0.9831759E-01
          2   -1    0    0  501    0  0.00000000000E+00  0.00000000000E+00  0.29889979733E+04  0.29889979733E+04  0.25500000000E-02 0. -1.
         -2   -1    0    0    0  501 -0.00000000000E+00 -0.00000000000E+00 -0.30822662475E+03  0.30822662476E+03  0.25500000000E-02 0.  1.
    8880023    1    1    2    0    0 -0.20264348670E+03  0.29597972672E+03  0.18672921426E+03  0.77288187135E+03  0.65864270000E+03 0.  1.
    8880022    1    1    2    0    0  0.20264348670E+03 -0.29597972672E+03  0.24940421343E+04  0.25243427267E+04  0.15294330000E+03 0.  0.
<mgrwt>
<rscale>  0 0.63685657E+03</rscale>
<asrwt>0</asrwt>
<pdfrwt beam="1">  1        2 0.45984586E+00 0.74998572E+03</pdfrwt>
<pdfrwt beam="2">  1       -2 0.47419479E-01 0.74998572E+03</pdfrwt>
<totfact> 0.79329056E+00</totfact>
</mgrwt>
</event>
<event>
 4    5  0.8511149E-008  0.1176644E+04  0.7818608E-02  0.9180167E-01
          2   -1    0    0  501    0  0.00000000000E+00  0.00000000000E+00  0.91374425756E+03  0.91374425756E+03  0.25500000000E-02 0. -1.
         -2   -1    0    0    0  501 -0.00000000000E+00 -0.00000000000E+00 -0.16929361218E+04  0.16929361218E+04  0.25500000000E-02 0.  1.
    8880023    1    1    2    0    0  0.63005262644E+03  0.74411986475E+03 -0.10566664138E+04  0.15814660292E+04  0.65864270000E+03 0.  0.
    8880022    1    1    2    0    0 -0.63005262644E+03 -0.74411986475E+03  0.27747454952E+03  0.10252143502E+04  0.15294330000E+03 0.  0.
<mgrwt>
<rscale>  0 0.11260500E+04</rscale>
<asrwt>0</asrwt>
<pdfrwt beam="1">  1        2 0.14057604E+00 0.11766439E+04</pdfrwt>
<pdfrwt beam="2">  1       -2 0.26045171E+00 0.11766439E+04</pdfrwt>
<totfact> 0.15565805E+00</totfact>
</mgrwt>
</event>
<event>
 4    5  0.8511149E-008  0.8242602E+03  0.7818608E-02  0.9660605E-01
         -2   -1    0    0    0  501 -0.00000000000E+00  0.00000000000E+00  0.34745513081E+03  0.34745513082E+03  0.25500000000E-02 0.  1.
          2   -1    0    0  501    0  0.00000000000E+00 -0.00000000000E+00 -0.23435474461E+04  0.23435474461E+04  0.25500000000E-02 0. -1.
    8880023    1    1    2    0    0 -0.50562244246E+02 -0.49298899741E+03 -0.23789220667E+03  0.85790302504E+03  0.65864270000E+03 0.  1.
    8880022    1    1    2    0    0  0.50562244246E+02  0.49298899741E+03 -0.17582001087E+04  0.18330995519E+04  0.15294330000E+03 0.  0.
<mgrwt>
<rscale>  0 0.73411573E+03</rscale>
<asrwt>0</asrwt>
<pdfrwt beam="1">  1        2 0.36054575E+00 0.82426021E+03</pdfrwt>
<pdfrwt beam="2">  1       -2 0.53454637E-01 0.82426021E+03</pdfrwt>
<totfact> 0.14574362E+01</totfact>
</mgrwt>
</event>
<event>
 4    5  0.8511149E-008  0.1664113E+04  0.7818608E-02  0.8801680E-01
          2   -1    0    0  501    0  0.00000000000E+00  0.00000000000E+00  0.24736928913E+04  0.24736928913E+04  0.25500000000E-02 0. -1.
         -2   -1    0    0    0  501 -0.00000000000E+00 -0.00000000000E+00 -0.12302124827E+04  0.12302124827E+04  0.25500000000E-02 0.  1.
    8880023    1    1    2    0    0  0.97386385047E+03 -0.11777314042E+04 -0.94767278793E+02  0.16668092581E+04  0.65864270000E+03 0.  0.
    8880022    1    1    2    0    0 -0.97386385047E+03  0.11777314042E+04  0.13382476874E+04  0.20370961159E+04  0.15294330000E+03 0.  0.
<mgrwt>
<rscale>  0 0.16310781E+04</rscale>
<asrwt>0</asrwt>
<pdfrwt beam="1">  1        2 0.38056814E+00 0.16641131E+04</pdfrwt>
<pdfrwt beam="2">  1       -2 0.18926346E+00 0.16641131E+04</pdfrwt>
<totfact> 0.52269175E-01</totfact>
</mgrwt>
</event>
<event>
 4    5  0.8511149E-008  0.7678393E+03  0.7818608E-02  0.9785219E-01
          2   -1    0    0  501    0  0.00000000000E+00  0.00000000000E+00  0.93157540329E+03  0.93157540330E+03  0.25500000000E-02 0. -1.
         -2   -1    0    0    0  501 -0.00000000000E+00 -0.00000000000E+00 -0.97493225495E+03  0.97493225496E+03  0.25500000000E-02 0.  1.
    8880023    1    1    2    0    0 -0.38751243195E+03  0.74840276552E+02 -0.75605894756E+03  0.10775909662E+04  0.65864270000E+03 0.  1.
    8880022    1    1    2    0    0  0.38751243195E+03 -0.74840276552E+02  0.71270209590E+03  0.82891669209E+03  0.15294330000E+03 0.  0.
<mgrwt>
<rscale>  0 0.66161821E+03</rscale>
<asrwt>0</asrwt>
<pdfrwt beam="1">  1        2 0.14331929E+00 0.76783928E+03</pdfrwt>
<pdfrwt beam="2">  1       -2 0.14998958E+00 0.76783928E+03</pdfrwt>
<totfact> 0.84972861E+00</totfact>
</mgrwt>
</event>
<event>
 4    5  0.8511149E-008  0.1037367E+04  0.7818608E-02  0.9334225E-01
         -2   -1    0    0    0  501 -0.00000000000E+00  0.00000000000E+00  0.11820555446E+04  0.11820555446E+04  0.25500000000E-02 0.  1.
          2   -1    0    0  501    0  0.00000000000E+00 -0.00000000000E+00 -0.17979398248E+04  0.17979398248E+04  0.25500000000E-02 0. -1.
    8880023    1    1    2    0    0  0.52886303999E+03  0.60218190962E+03  0.82413793218E+03  0.13248896954E+04  0.65864270000E+03 0.  1.
    8880022    1    1    2    0    0 -0.52886303999E+03 -0.60218190962E+03 -0.14400222124E+04  0.16551056741E+04  0.15294330000E+03 0.  0.
<mgrwt>
<rscale>  0 0.97692199E+03</rscale>
<asrwt>0</asrwt>
<pdfrwt beam="1">  1        2 0.27660612E+00 0.10373666E+04</pdfrwt>
<pdfrwt beam="2">  1       -2 0.18185470E+00 0.10373666E+04</pdfrwt>
<totfact> 0.15085277E+00</totfact>
</mgrwt>
</event>
<event>
 4    5  0.8511149E-008  0.9599898E+03  0.7818608E-02  0.9435884E-01
          2   -1    0    0  501    0  0.00000000000E+00  0.00000000000E+00  0.75671973789E+03  0.75671973790E+03  0.25500000000E-02 0. -1.
         -2   -1    0    0    0  501 -0.00000000000E+00 -0.00000000000E+00 -0.10239202901E+04  0.10239202901E+04  0.25500000000E-02 0.  1.
    8880023    1    1    2    0    0 -0.28966972032E+03  0.63550113440E+03  0.12017846184E+03  0.96748297538E+03  0.65864270000E+03 0.  0.
    8880022    1    1    2    0    0  0.28966972032E+03 -0.63550113440E+03 -0.38737901406E+03  0.81315705263E+03  0.15294330000E+03 0.  0.
<mgrwt>
<rscale>  0 0.89180474E+03</rscale>
<asrwt>0</asrwt>
<pdfrwt beam="1">  1        2 0.11641842E+00 0.95998982E+03</pdfrwt>
<pdfrwt beam="2">  1       -2 0.15752620E+00 0.95998982E+03</pdfrwt>
<totfact> 0.96970229E+00</totfact>
</mgrwt>
</event>
<event>
 4    5  0.8511149E-008  0.2273749E+04  0.7818608E-02  0.8497754E-01
          2   -1    0    0  501    0  0.00000000000E+00  0.00000000000E+00  0.27606302103E+04  0.27606302103E+04  0.25500000000E-02 0. -1.
         -2   -1    0    0    0  501 -0.00000000000E+00 -0.00000000000E+00 -0.19671387702E+04  0.19671387702E+04  0.25500000000E-02 0.  1.
    8880023    1    1    2    0    0 -0.18513188229E+04  0.11440026453E+04 -0.28952696770E+03  0.22921080925E+04  0.65864270000E+03 0.  0.
    8880022    1    1    2    0    0  0.18513188229E+04 -0.11440026453E+04  0.10830184078E+04  0.24356608880E+04  0.15294330000E+03 0.  0.
<mgrwt>
<rscale>  0 0.22503610E+04</rscale>
<asrwt>0</asrwt>
<pdfrwt beam="1">  1        2 0.42471234E+00 0.22737488E+04</pdfrwt>
<pdfrwt beam="2">  1       -2 0.30263673E+00 0.22737488E+04</pdfrwt>
<totfact> 0.64486824E-02</totfact>
</mgrwt>
</event>
<event>
 4    5  0.8511149E-008  0.7350401E+03  0.7818608E-02  0.9874638E-01
         -2   -1    0    0    0  501 -0.00000000000E+00  0.00000000000E+00  0.13715834747E+04  0.13715834747E+04  0.25500000000E-02 0.  1.
          2   -1    0    0  501    0  0.00000000000E+00 -0.00000000000E+00 -0.19050206519E+04  0.19050206519E+04  0.25500000000E-02 0. -1.
    8880023    1    1    2    0    0  0.17352175196E+03  0.27634024521E+03  0.12538123484E+04  0.14533854756E+04  0.65864270000E+03 0.  1.
    8880022    1    1    2    0    0 -0.17352175196E+03 -0.27634024521E+03 -0.17872495256E+04  0.18232186510E+04  0.15294330000E+03 0.  0.
<mgrwt>
<rscale>  0 0.61506349E+03</rscale>
<asrwt>0</asrwt>
<pdfrwt beam="1">  1        2 0.29308010E+00 0.73504009E+03</pdfrwt>
<pdfrwt beam="2">  1       -2 0.21101284E+00 0.73504009E+03</pdfrwt>
<totfact> 0.89068174E-01</totfact>
</mgrwt>
</event>
<event>
 4    5  0.8511149E-008  0.1129486E+04  0.7818608E-02  0.9228916E-01
          2   -1    0    0  501    0  0.00000000000E+00  0.00000000000E+00  0.10935725930E+04  0.10935725930E+04  0.25500000000E-02 0. -1.
         -2   -1    0    0    0  501 -0.00000000000E+00 -0.00000000000E+00 -0.11500407157E+04  0.11500407157E+04  0.25500000000E-02 0.  1.
    8880023    1    1    2    0    0  0.50412207284E+03 -0.76667416052E+03 -0.47282540613E+03  0.12244600458E+04  0.65864270000E+03 0.  0.
    8880022    1    1    2    0    0 -0.50412207284E+03  0.76667416052E+03  0.41635728348E+03  0.10191532629E+04  0.15294330000E+03 0.  0.
<mgrwt>
<rscale>  0 0.10759887E+04</rscale>
<asrwt>0</asrwt>
<pdfrwt beam="1">  1        2 0.16824194E+00 0.11294860E+04</pdfrwt>
<pdfrwt beam="2">  1       -2 0.17692934E+00 0.11294860E+04</pdfrwt>
<totfact> 0.40974929E+00</totfact>
</mgrwt>
</event>
<event>
 4    5  0.8511149E-008  0.8026026E+03  0.7818608E-02  0.9705197E-01
          2   -1    0    0  501    0  0.00000000000E+00  0.00000000000E+00  0.15673795823E+04  0.15673795823E+04  0.25500000000E-02 0. -1.
         -2   -1    0    0    0  501 -0.00000000000E+00 -0.00000000000E+00 -0.27690214363E+03  0.27690214364E+03  0.25500000000E-02 0.  1.
    8880023    1    1    2    0    0 -0.17573454271E+03 -0.42364852101E+03  0.60329199288E+03  0.10040578339E+04  0.65864270000E+03 0.  0.
    8880022    1    1    2    0    0  0.17573454271E+03  0.42364852101E+03  0.68718544579E+03  0.84022389206E+03  0.15294330000E+03 0.  0.
<mgrwt>
<rscale>  0 0.70708221E+03</rscale>
<asrwt>0</asrwt>
<pdfrwt beam="1">  1        2 0.24113532E+00 0.80260258E+03</pdfrwt>
<pdfrwt beam="2">  1       -2 0.42600329E-01 0.80260258E+03</pdfrwt>
<totfact> 0.61756602E+01</totfact>
</mgrwt>
</event>
<event>
 4    5  0.8511149E-008  0.9181756E+03  0.7818608E-02  0.9497462E-01
         -2   -1    0    0    0  501 -0.00000000000E+00  0.00000000000E+00  0.11038450053E+04  0.11038450053E+04  0.25500000000E-02 0.  1.
          2   -1    0    0  501    0  0.00000000000E+00 -0.00000000000E+00 -0.11897384684E+04  0.11897384684E+04  0.25500000000E-02 0. -1.
    8880023    1    1    2    0    0 -0.49830041833E+03  0.40116435063E+03  0.78099833943E+03  0.12054064690E+04  0.65864270000E+03 0. -1.
    8880022    1    1    2    0    0  0.49830041833E+03 -0.40116435063E+03 -0.86689180255E+03  0.10881770047E+04  0.15294330000E+03 0. -1.
<mgrwt>
<rscale>  0 0.84471187E+03</rscale>
<asrwt>0</asrwt>
<pdfrwt beam="1">  1        2 0.18303669E+00 0.91817555E+03</pdfrwt>
<pdfrwt beam="2">  1       -2 0.16982231E+00 0.91817555E+03</pdfrwt>
<totfact> 0.41085027E+00</totfact>
</mgrwt>
</event>
<event>
 4    5  0.8511149E-008  0.1492021E+04  0.7818608E-02  0.8915291E-01
         -2   -1    0    0    0  501 -0.00000000000E+00  0.00000000000E+00  0.15918284344E+04  0.15918284344E+04  0.25500000000E-02 0.  1.
          2   -1    0    0  501    0  0.00000000000E+00 -0.00000000000E+00 -0.16428806399E+04  0.16428806399E+04  0.25500000000E-02 0. -1.
    8880023    1    1    2    0    0  0.60844624424E+03 -0.11925224193E+04  0.74706228692E+03  0.16686008569E+04  0.65864270000E+03 0.  0.
    8880022    1    1    2    0    0 -0.60844624424E+03  0.11925224193E+04 -0.79811449236E+03  0.15661082174E+04  0.15294330000E+03 0.  0.
<mgrwt>
<rscale>  0 0.14544941E+04</rscale>
<asrwt>0</asrwt>
<pdfrwt beam="1">  1        2 0.25275087E+00 0.14920210E+04</pdfrwt>
<pdfrwt beam="2">  1       -2 0.24489668E+00 0.14920210E+04</pdfrwt>
<totfact> 0.68539846E-01</totfact>
</mgrwt>
</event>
<event>
 4    5  0.8511149E-008  0.1392722E+04  0.7818608E-02  0.8989359E-01
          2   -1    0    0  501    0  0.00000000000E+00  0.00000000000E+00  0.23380890658E+04  0.23380890658E+04  0.25500000000E-02 0. -1.
         -2   -1    0    0    0  501 -0.00000000000E+00 -0.00000000000E+00 -0.10703312518E+04  0.10703312518E+04  0.25500000000E-02 0.  1.
    8880023    1    1    2    0    0  0.42369495154E+01  0.12271293499E+04 -0.28684510600E+03  0.14219545401E+04  0.65864270000E+03 0.  0.
    8880022    1    1    2    0    0 -0.42369495154E+01 -0.12271293499E+04  0.15546029200E+04  0.19864657775E+04  0.15294330000E+03 0.  0.
<mgrwt>
<rscale>  0 0.13519429E+04</rscale>
<asrwt>0</asrwt>
<pdfrwt beam="1">  1        2 0.35970600E+00 0.13927220E+04</pdfrwt>
<pdfrwt beam="2">  1       -2 0.16466635E+00 0.13927220E+04</pdfrwt>
<totfact> 0.95717259E-01</totfact>
</mgrwt>
</event>
<event>
 4    5  0.8511149E-008  0.7810497E+03  0.7818608E-02  0.9753377E-01
         -2   -1    0    0    0  501 -0.00000000000E+00  0.00000000000E+00  0.47797073353E+03  0.47797073353E+03  0.25500000000E-02 0.  1.
          2   -1    0    0  501    0  0.00000000000E+00 -0.00000000000E+00 -0.26040549184E+04  0.26040549184E+04  0.25500000000E-02 0. -1.
    8880023    1    1    2    0    0  0.14488508728E+03 -0.39400096832E+03  0.12151808580E+03  0.79044626825E+03  0.65864270000E+03 0.  1.
    8880022    1    1    2    0    0 -0.14488508728E+03  0.39400096832E+03 -0.22476022707E+04  0.22915793837E+04  0.15294330000E+03 0.  0.
<mgrwt>
<rscale>  0 0.67925766E+03</rscale>
<asrwt>0</asrwt>
<pdfrwt beam="1">  1        2 0.40062383E+00 0.78104972E+03</pdfrwt>
<pdfrwt beam="2">  1       -2 0.73533960E-01 0.78104972E+03</pdfrwt>
<totfact> 0.52871123E+00</totfact>
</mgrwt>
</event>
<event>
 4    5  0.8511149E-008  0.6779179E+03  0.7818608E-02  0.1010527E+00
          2   -1    0    0  501    0  0.00000000000E+00  0.00000000000E+00  0.89754503354E+03  0.89754503355E+03  0.25500000000E-02 0. -1.
         -2   -1    0    0    0  501 -0.00000000000E+00 -0.00000000000E+00 -0.12196070926E+04  0.12196070926E+04  0.25500000000E-02 0.  1.
    8880023    1    1    2    0    0 -0.13192995875E+03 -0.91416351045E+02 -0.11088839996E+04  0.12996908840E+04  0.65864270000E+03 0.  0.
    8880022    1    1    2    0    0  0.13192995875E+03  0.91416351045E+02  0.78682194052E+03  0.81746124211E+03  0.15294330000E+03 0. -1.
<mgrwt>
<rscale>  0 0.51265808E+03</rscale>
<asrwt>0</asrwt>
<pdfrwt beam="1">  1        2 0.13808385E+00 0.67791789E+03</pdfrwt>
<pdfrwt beam="2">  1       -2 0.18763186E+00 0.67791789E+03</pdfrwt>
<totfact> 0.48830480E+00</totfact>
</mgrwt>
</event>
<event>
 4    5  0.8511149E-008  0.1195973E+04  0.7818608E-02  0.9161047E-01
          2   -1    0    0  501    0  0.00000000000E+00  0.00000000000E+00  0.28881337289E+04  0.28881337289E+04  0.25500000000E-02 0. -1.
         -2   -1    0    0    0  501 -0.00000000000E+00 -0.00000000000E+00 -0.43571859978E+03  0.43571859979E+03  0.25500000000E-02 0.  1.
    8880023    1    1    2    0    0  0.71440581686E+03  0.69725615353E+03  0.10238862677E+04  0.15743872174E+04  0.65864270000E+03 0. -1.
    8880022    1    1    2    0    0 -0.71440581686E+03 -0.69725615353E+03  0.14285288614E+04  0.17494651113E+04  0.15294330000E+03 0.  0.
<mgrwt>
<rscale>  0 0.11464697E+04</rscale>
<asrwt>0</asrwt>
<pdfrwt beam="1">  1        2 0.44432828E+00 0.11959733E+04</pdfrwt>
<pdfrwt beam="2">  1       -2 0.67033629E-01 0.11959733E+04</pdfrwt>
<totfact> 0.41488417E+00</totfact>
</mgrwt>
</event>
<event>
 4    5  0.8511149E-008  0.1066422E+04  0.7818608E-02  0.9299395E-01
         -2   -1    0    0    0  501 -0.00000000000E+00  0.00000000000E+00  0.86148594945E+03  0.86148594946E+03  0.25500000000E-02 0.  1.
          2   -1    0    0  501    0  0.00000000000E+00 -0.00000000000E+00 -0.27130859485E+04  0.27130859485E+04  0.25500000000E-02 0. -1.
    8880023    1    1    2    0    0  0.33173483834E+03 -0.77032352469E+03  0.42161763646E+03  0.11467423308E+04  0.65864270000E+03 0.  1.
    8880022    1    1    2    0    0 -0.33173483834E+03  0.77032352469E+03 -0.22732176355E+04  0.24278295671E+04  0.15294330000E+03 0.  0.
<mgrwt>
<rscale>  0 0.10083856E+04</rscale>
<asrwt>0</asrwt>
<pdfrwt beam="1">  1        2 0.41739783E+00 0.10664223E+04</pdfrwt>
<pdfrwt beam="2">  1       -2 0.13253630E+00 0.10664223E+04</pdfrwt>
<totfact> 0.10789651E+00</totfact>
</mgrwt>
</event>
<event>
 4    5  0.8511149E-008  0.8828242E+03  0.7818608E-02  0.9554187E-01
         -2   -1    0    0    0  501 -0.00000000000E+00  0.00000000000E+00  0.22865305908E+03  0.22865305909E+03  0.25500000000E-02 0.  1.
          2   -1    0    0  501    0  0.00000000000E+00 -0.00000000000E+00 -0.42514906560E+04  0.42514906560E+04  0.25500000000E-02 0. -1.
    8880023    1    1    2    0    0  0.17931838387E+03 -0.55983323290E+03 -0.77111978403E+03  0.11721792777E+04  0.65864270000E+03 0.  1.
    8880022    1    1    2    0    0 -0.17931838387E+03  0.55983323290E+03 -0.32517178129E+04  0.33079644374E+04  0.15294330000E+03 0.  0.
<mgrwt>
<rscale>  0 0.80404078E+03</rscale>
<asrwt>0</asrwt>
<pdfrwt beam="1">  1        2 0.65407543E+00 0.88282418E+03</pdfrwt>
<pdfrwt beam="2">  1       -2 0.35177397E-01 0.88282418E+03</pdfrwt>
<totfact> 0.17315202E+00</totfact>
</mgrwt>
</event>
<event>
 4    5  0.8511149E-008  0.1210062E+04  0.7818608E-02  0.9147403E-01
         -2   -1    0    0    0  501 -0.00000000000E+00  0.00000000000E+00  0.60616967311E+03  0.60616967311E+03  0.25500000000E-02 0.  1.
          2   -1    0    0  501    0  0.00000000000E+00 -0.00000000000E+00 -0.25524850937E+04  0.25524850937E+04  0.25500000000E-02 0. -1.
    8880023    1    1    2    0    0  0.73878667098E+03  0.69615648916E+03 -0.34807771365E+03  0.12591298200E+04  0.65864270000E+03 0.  0.
    8880022    1    1    2    0    0 -0.73878667098E+03 -0.69615648916E+03 -0.15982377069E+04  0.18995249468E+04  0.15294330000E+03 0.  0.
<mgrwt>
<rscale>  0 0.11613205E+04</rscale>
<asrwt>0</asrwt>
<pdfrwt beam="1">  1        2 0.39269001E+00 0.12100619E+04</pdfrwt>
<pdfrwt beam="2">  1       -2 0.93256874E-01 0.12100619E+04</pdfrwt>
<totfact> 0.31065509E+00</totfact>
</mgrwt>
</event>
<event>
 4    5  0.8511149E-008  0.1103664E+04  0.7818608E-02  0.9256988E-01
         -2   -1    0    0    0  501 -0.00000000000E+00  0.00000000000E+00  0.14305410623E+04  0.14305410623E+04  0.25500000000E-02 0.  1.
          2   -1    0    0  501    0  0.00000000000E+00 -0.00000000000E+00 -0.10728652421E+04  0.10728652421E+04  0.25500000000E-02 0. -1.
    8880023    1    1    2    0    0  0.76298337242E+03 -0.44957805305E+03  0.92549864416E+03  0.14403548170E+04  0.65864270000E+03 0.  1.
    8880022    1    1    2    0    0 -0.76298337242E+03  0.44957805305E+03 -0.56782282391E+03  0.10630514873E+04  0.15294330000E+03 0.  0.
<mgrwt>
<rscale>  0 0.10484095E+04</rscale>
<asrwt>0</asrwt>
<pdfrwt beam="1">  1        2 0.16505619E+00 0.11036640E+04</pdfrwt>
<pdfrwt beam="2">  1       -2 0.22008324E+00 0.11036640E+04</pdfrwt>
<totfact> 0.21954021E+00</totfact>
</mgrwt>
</event>
<event>
 4    5  0.8511149E-008  0.7379566E+03  0.7818608E-02  0.9865940E-01
         -2   -1    0    0    0  501 -0.00000000000E+00  0.00000000000E+00  0.85503418056E+03  0.85503418056E+03  0.25500000000E-02 0.  1.
          2   -1    0    0  501    0  0.00000000000E+00 -0.00000000000E+00 -0.51008690284E+03  0.51008690285E+03  0.25500000000E-02 0. -1.
    8880023    1    1    2    0    0  0.76049885553E+02  0.32401561591E+03  0.57243182786E+03  0.93394759395E+03  0.65864270000E+03 0.  1.
    8880022    1    1    2    0    0 -0.76049885553E+02 -0.32401561591E+03 -0.22748455014E+03  0.43117348946E+03  0.15294330000E+03 0.  0.
<mgrwt>
<rscale>  0 0.61940761E+03</rscale>
<asrwt>0</asrwt>
<pdfrwt beam="1">  1        2 0.78474908E-01 0.73795658E+03</pdfrwt>
<pdfrwt beam="2">  1       -2 0.13154372E+00 0.73795658E+03</pdfrwt>
<totfact> 0.25703649E+01</totfact>
</mgrwt>
</event>
<event>
 4    5  0.8511149E-008  0.8432946E+03  0.7818608E-02  0.9623999E-01
         -2   -1    0    0    0  501 -0.00000000000E+00  0.00000000000E+00  0.20868047102E+03  0.20868047103E+03  0.25500000000E-02 0.  1.
          2   -1    0    0  501    0  0.00000000000E+00 -0.00000000000E+00 -0.29347505146E+04  0.29347505146E+04  0.25500000000E-02 0. -1.
    8880023    1    1    2    0    0 -0.49717238247E+03 -0.17365234980E+03 -0.88508578645E+03  0.12225066757E+04  0.65864270000E+03 0.  0.
    8880022    1    1    2    0    0  0.49717238247E+03  0.17365234980E+03 -0.18409842571E+04  0.19209243099E+04  0.15294330000E+03 0.  0.
<mgrwt>
<rscale>  0 0.75727925E+03</rscale>
<asrwt>0</asrwt>
<pdfrwt beam="1">  1        2 0.45150005E+00 0.84329456E+03</pdfrwt>
<pdfrwt beam="2">  1       -2 0.32104690E-01 0.84329456E+03</pdfrwt>
<totfact> 0.17995899E+01</totfact>
</mgrwt>
</event>
<event>
 4    5  0.8511149E-008  0.2826362E+04  0.7818608E-02  0.8300854E-01
         -2   -1    0    0    0  501 -0.00000000000E+00  0.00000000000E+00  0.16574127752E+04  0.16574127752E+04  0.25500000000E-02 0.  1.
          2   -1    0    0  501    0  0.00000000000E+00 -0.00000000000E+00 -0.50851753068E+04  0.50851753068E+04  0.25500000000E-02 0. -1.
    8880023    1    1    2    0    0 -0.17003189506E+04  0.21594975704E+04 -0.80112970389E+03  0.29377088520E+04  0.65864270000E+03 0.  0.
    8880022    1    1    2    0    0  0.17003189506E+04 -0.21594975704E+04 -0.26266328276E+04  0.38048792300E+04  0.15294330000E+03 0.  0.
<mgrwt>
<rscale>  0 0.28077895E+04</rscale>
<asrwt>0</asrwt>
<pdfrwt beam="1">  1        2 0.78233465E+00 0.28263624E+04</pdfrwt>
<pdfrwt beam="2">  1       -2 0.25498658E+00 0.28263624E+04</pdfrwt>
<totfact> 0.12996715E-03</totfact>
</mgrwt>
</event>
<event>
 4    5  0.8511149E-008  0.1023717E+04  0.7818608E-02  0.9351166E-01
          2   -1    0    0  501    0  0.00000000000E+00  0.00000000000E+00  0.19804576703E+04  0.19804576703E+04  0.25500000000E-02 0. -1.
         -2   -1    0    0    0  501 -0.00000000000E+00 -0.00000000000E+00 -0.67631808034E+03  0.67631808034E+03  0.25500000000E-02 0.  1.
    8880023    1    1    2    0    0 -0.78320975576E+03 -0.27710516999E+02 -0.11323545473E+03  0.10299601297E+04  0.65864270000E+03 0.  1.
    8880022    1    1    2    0    0  0.78320975576E+03  0.27710516999E+02  0.14173750447E+04  0.16268156210E+04  0.15294330000E+03 0.  0.
<mgrwt>
<rscale>  0 0.96205828E+03</rscale>
<asrwt>0</asrwt>
<pdfrwt beam="1">  1        2 0.30468579E+00 0.10237166E+04</pdfrwt>
<pdfrwt beam="2">  1       -2 0.10404894E+00 0.10237166E+04</pdfrwt>
<totfact> 0.51320280E+00</totfact>
</mgrwt>
</event>
<event>
 4    5  0.8511149E-008  0.9929314E+03  0.7818608E-02  0.9390865E-01
          2   -1    0    0  501    0  0.00000000000E+00  0.00000000000E+00  0.17816077300E+04  0.17816077300E+04  0.25500000000E-02 0. -1.
         -2   -1    0    0    0  501 -0.00000000000E+00 -0.00000000000E+00 -0.19495823965E+04  0.19495823965E+04  0.25500000000E-02 0.  1.
    8880023    1    1    2    0    0  0.46172707690E+03  0.58216028282E+03 -0.17299990349E+04  0.19946953039E+04  0.65864270000E+03 0.  0.
    8880022    1    1    2    0    0 -0.46172707690E+03 -0.58216028282E+03  0.15620243684E+04  0.17364948226E+04  0.15294330000E+03 0.  0.
<mgrwt>
<rscale>  0 0.92831322E+03</rscale>
<asrwt>0</asrwt>
<pdfrwt beam="1">  1        2 0.27409350E+00 0.99293136E+03</pdfrwt>
<pdfrwt beam="2">  1       -2 0.29993575E+00 0.99293136E+03</pdfrwt>
<totfact> 0.28357380E-01</totfact>
</mgrwt>
</event>
<event>
 4    5  0.8511149E-008  0.1567774E+04  0.7818608E-02  0.8863204E-01
          2   -1    0    0  501    0  0.00000000000E+00  0.00000000000E+00  0.30034278582E+04  0.30034278582E+04  0.25500000000E-02 0. -1.
         -2   -1    0    0    0  501 -0.00000000000E+00 -0.00000000000E+00 -0.10508022668E+04  0.10508022668E+04  0.25500000000E-02 0.  1.
    8880023    1    1    2    0    0 -0.14215940871E+04 -0.56347499730E+02 -0.78438229951E+02  0.15697348666E+04  0.65864270000E+03 0.  1.
    8880022    1    1    2    0    0  0.14215940871E+04  0.56347499730E+02  0.20310638214E+04  0.24844952584E+04  0.15294330000E+03 0.  0.
<mgrwt>
<rscale>  0 0.15323764E+04</rscale>
<asrwt>0</asrwt>
<pdfrwt beam="1">  1        2 0.46206582E+00 0.15677739E+04</pdfrwt>
<pdfrwt beam="2">  1       -2 0.16166189E+00 0.15677739E+04</pdfrwt>
<totfact> 0.39839580E-01</totfact>
</mgrwt>
</event>
<event>
 4    5  0.8511149E-008  0.1025869E+04  0.7818608E-02  0.9348469E-01
         -2   -1    0    0    0  501 -0.00000000000E+00  0.00000000000E+00  0.65832197666E+03  0.65832197667E+03  0.25500000000E-02 0.  1.
          2   -1    0    0  501    0  0.00000000000E+00 -0.00000000000E+00 -0.13469275762E+04  0.13469275762E+04  0.25500000000E-02 0. -1.
    8880023    1    1    2    0    0 -0.19217147177E+03 -0.76267057149E+03 -0.14277726701E+03  0.10357566458E+04  0.65864270000E+03 0.  0.
    8880022    1    1    2    0    0  0.19217147177E+03  0.76267057149E+03 -0.54582833253E+03  0.96949290703E+03  0.15294330000E+03 0.  0.
<mgrwt>
<rscale>  0 0.96440549E+03</rscale>
<asrwt>0</asrwt>
<pdfrwt beam="1">  1        2 0.20721963E+00 0.10258686E+04</pdfrwt>
<pdfrwt beam="2">  1       -2 0.10128030E+00 0.10258686E+04</pdfrwt>
<totfact> 0.12343772E+01</totfact>
</mgrwt>
</event>
<event>
 4    5  0.8511149E-008  0.8549672E+03  0.7818608E-02  0.9602579E-01
          2   -1    0    0  501    0  0.00000000000E+00  0.00000000000E+00  0.14622667883E+04  0.14622667883E+04  0.25500000000E-02 0. -1.
         -2   -1    0    0    0  501 -0.00000000000E+00 -0.00000000000E+00 -0.43390821753E+03  0.43390821754E+03  0.25500000000E-02 0.  1.
    8880023    1    1    2    0    0 -0.54119403844E+03  0.65327936847E+02  0.17597110617E+03  0.87288874609E+03  0.65864270000E+03 0.  1.
    8880022    1    1    2    0    0  0.54119403844E+03 -0.65327936847E+02  0.85238746459E+03  0.10232862597E+04  0.15294330000E+03 0.  0.
<mgrwt>
<rscale>  0 0.77125702E+03</rscale>
<asrwt>0</asrwt>
<pdfrwt beam="1">  1        2 0.22496412E+00 0.85496721E+03</pdfrwt>
<pdfrwt beam="2">  1       -2 0.66755110E-01 0.85496721E+03</pdfrwt>
<totfact> 0.27795558E+01</totfact>
</mgrwt>
</event>
<event>
 4    5  0.8511149E-008  0.6991091E+03  0.7818608E-02  0.1000092E+00
         -2   -1    0    0    0  501 -0.00000000000E+00  0.00000000000E+00  0.53172694562E+03  0.53172694563E+03  0.25500000000E-02 0.  1.
          2   -1    0    0  501    0  0.00000000000E+00 -0.00000000000E+00 -0.22390679790E+04  0.22390679790E+04  0.25500000000E-02 0. -1.
    8880023    1    1    2    0    0 -0.19428422491E+03  0.13113718313E+03  0.28786377205E+03  0.75605494402E+03  0.65864270000E+03 0.  1.
    8880022    1    1    2    0    0  0.19428422491E+03 -0.13113718313E+03 -0.19952048054E+04  0.20147399806E+04  0.15294330000E+03 0.  0.
<mgrwt>
<rscale>  0 0.55610036E+03</rscale>
<asrwt>0</asrwt>
<pdfrwt beam="1">  1        2 0.34447199E+00 0.69910910E+03</pdfrwt>
<pdfrwt beam="2">  1       -2 0.81804147E-01 0.69910910E+03</pdfrwt>
<totfact> 0.67821564E+00</totfact>
</mgrwt>
</event>
<event>
 4    5  0.8511149E-008  0.1142889E+04  0.7818608E-02  0.9214743E-01
         -2   -1    0    0    0  501 -0.00000000000E+00  0.00000000000E+00  0.12724046116E+04  0.12724046116E+04  0.25500000000E-02 0.  1.
          2   -1    0    0  501    0  0.00000000000E+00 -0.00000000000E+00 -0.16372303125E+04  0.16372303125E+04  0.25500000000E-02 0. -1.
    8880023    1    1    2    0    0  0.92874145294E+03  0.99114506502E+02  0.81013023552E+03  0.14008945630E+04  0.65864270000E+03 0.  0.
    8880022    1    1    2    0    0 -0.92874145294E+03 -0.99114506502E+02 -0.11749559364E+04  0.15087403612E+04  0.15294330000E+03 0.  0.
<mgrwt>
<rscale>  0 0.10902545E+04</rscale>
<asrwt>0</asrwt>
<pdfrwt beam="1">  1        2 0.25188159E+00 0.11428887E+04</pdfrwt>
<pdfrwt beam="2">  1       -2 0.19575455E+00 0.11428887E+04</pdfrwt>
<totfact> 0.14727112E+00</totfact>
</mgrwt>
</event>
<event>
 4    5  0.8511149E-008  0.1237089E+04  0.7818608E-02  0.9121886E-01
          2   -1    0    0  501    0  0.00000000000E+00  0.00000000000E+00  0.12673275245E+04  0.12673275245E+04  0.25500000000E-02 0. -1.
         -2   -1    0    0    0  501 -0.00000000000E+00 -0.00000000000E+00 -0.13197847181E+04  0.13197847181E+04  0.25500000000E-02 0.  1.
    8880023    1    1    2    0    0 -0.90530649308E+03 -0.52630674081E+03 -0.62269860232E+03  0.13849701756E+04  0.65864270000E+03 0.  0.
    8880022    1    1    2    0    0  0.90530649308E+03  0.52630674081E+03  0.57024140868E+03  0.12021420669E+04  0.15294330000E+03 0.  0.
<mgrwt>
<rscale>  0 0.11897384E+04</rscale>
<asrwt>0</asrwt>
<pdfrwt beam="1">  1        2 0.19497346E+00 0.12370889E+04</pdfrwt>
<pdfrwt beam="2">  1       -2 0.20304380E+00 0.12370889E+04</pdfrwt>
<totfact> 0.21225173E+00</totfact>
</mgrwt>
</event>
<event>
 4    5  0.8511149E-008  0.8241324E+03  0.7818608E-02  0.9660859E-01
          2   -1    0    0  501    0  0.00000000000E+00  0.00000000000E+00  0.22970704567E+04  0.22970704567E+04  0.25500000000E-02 0. -1.
         -2   -1    0    0    0  501 -0.00000000000E+00 -0.00000000000E+00 -0.82506285998E+03  0.82506285998E+03  0.25500000000E-02 0.  1.
    8880023    1    1    2    0    0 -0.42140706934E+03  0.26038449405E+03 -0.57862804003E+03  0.10069779629E+04  0.65864270000E+03 0.  1.
    8880022    1    1    2    0    0  0.42140706934E+03 -0.26038449405E+03  0.20506356367E+04  0.21151553537E+04  0.15294330000E+03 0.  0.
<mgrwt>
<rscale>  0 0.73395846E+03</rscale>
<asrwt>0</asrwt>
<pdfrwt beam="1">  1        2 0.35339545E+00 0.82413240E+03</pdfrwt>
<pdfrwt beam="2">  1       -2 0.12693275E+00 0.82413240E+03</pdfrwt>
<totfact> 0.21644170E+00</totfact>
</mgrwt>
</event>
<event>
 4    5  0.8511149E-008  0.9549591E+03  0.7818608E-02  0.9443015E-01
         -2   -1    0    0    0  501 -0.00000000000E+00  0.00000000000E+00  0.14022212381E+04  0.14022212381E+04  0.25500000000E-02 0.  1.
          2   -1    0    0  501    0  0.00000000000E+00 -0.00000000000E+00 -0.18925341710E+04  0.18925341710E+04  0.25500000000E-02 0. -1.
    8880023    1    1    2    0    0  0.44842283120E+03  0.52635889446E+03  0.11578684454E+04  0.15008685034E+04  0.65864270000E+03 0.  1.
    8880022    1    1    2    0    0 -0.44842283120E+03 -0.52635889446E+03 -0.16481813784E+04  0.17938869057E+04  0.15294330000E+03 0.  0.
<mgrwt>
<rscale>  0 0.88618731E+03</rscale>
<asrwt>0</asrwt>
<pdfrwt beam="1">  1        2 0.29115910E+00 0.95495912E+03</pdfrwt>
<pdfrwt beam="2">  1       -2 0.21572634E+00 0.95495912E+03</pdfrwt>
<totfact> 0.81108811E-01</totfact>
</mgrwt>
</event>
<event>
 4    5  0.8511149E-008  0.7794349E+03  0.7818608E-02  0.9757166E-01
          2   -1    0    0  501    0  0.00000000000E+00  0.00000000000E+00  0.85002009990E+03  0.85002009991E+03  0.25500000000E-02 0. -1.
         -2   -1    0    0    0  501 -0.00000000000E+00 -0.00000000000E+00 -0.10108282230E+04  0.10108282230E+04  0.25500000000E-02 0.  1.
    8880023    1    1    2    0    0 -0.39944945514E+03  0.11894837644E+03 -0.77753546720E+03  0.11009451360E+04  0.65864270000E+03 0.  1.
    8880022    1    1    2    0    0  0.39944945514E+03 -0.11894837644E+03  0.61672734411E+03  0.75990318690E+03  0.15294330000E+03 0.  0.
<mgrwt>
<rscale>  0 0.67712802E+03</rscale>
<asrwt>0</asrwt>
<pdfrwt beam="1">  1        2 0.13077232E+00 0.77943492E+03</pdfrwt>
<pdfrwt beam="2">  1       -2 0.15551203E+00 0.77943492E+03</pdfrwt>
<totfact> 0.87536254E+00</totfact>
</mgrwt>
</event>
<event>
 4    5  0.8511149E-008  0.1294198E+04  0.7818608E-02  0.9070586E-01
         -2   -1    0    0    0  501 -0.00000000000E+00  0.00000000000E+00  0.70003202255E+03  0.70003202256E+03  0.25500000000E-02 0.  1.
          2   -1    0    0  501    0  0.00000000000E+00 -0.00000000000E+00 -0.23158624716E+04  0.23158624716E+04  0.25500000000E-02 0. -1.
    8880023    1    1    2    0    0  0.11137456753E+04 -0.26637555477E+02 -0.38839009353E+03  0.13512202113E+04  0.65864270000E+03 0.  0.
    8880022    1    1    2    0    0 -0.11137456753E+04  0.26637555477E+02 -0.12274403555E+04  0.16646742828E+04  0.15294330000E+03 0.  0.
<mgrwt>
<rscale>  0 0.12495159E+04</rscale>
<asrwt>0</asrwt>
<pdfrwt beam="1">  1        2 0.35628653E+00 0.12941983E+04</pdfrwt>
<pdfrwt beam="2">  1       -2 0.10769724E+00 0.12941983E+04</pdfrwt>
<totfact> 0.29800482E+00</totfact>
</mgrwt>
</event>
<event>
 4    5  0.1033775E-007  0.1043857E+04  0.7818608E-02  0.9326303E-01
          2   -1    0    0  501    0  0.00000000000E+00  0.00000000000E+00  0.31094135729E+04  0.31094135729E+04  0.25500000000E-02 0. -1.
         -2   -1    0    0    0  501 -0.00000000000E+00 -0.00000000000E+00 -0.98584283614E+03  0.98584283615E+03  0.25500000000E-02 0.  1.
    8880023    1    1    2    0    0 -0.36647238630E+03  0.72216641035E+03 -0.63119347127E+03  0.12198531627E+04  0.65864270000E+03 0.  0.
    8880022    1    1    2    0    0  0.36647238630E+03 -0.72216641035E+03  0.27547642080E+04  0.28754032463E+04  0.15294330000E+03 0.  0.
<mgrwt>
<rscale>  0 0.98396980E+03</rscale>
<asrwt>0</asrwt>
<pdfrwt beam="1">  1        2 0.47837132E+00 0.10438566E+04</pdfrwt>
<pdfrwt beam="2">  1       -2 0.15166813E+00 0.10438566E+04</pdfrwt>
<totfact> 0.43675572E-01</totfact>
</mgrwt>
</event>
<event>
 4    5  0.8511149E-008  0.7012335E+03  0.7818608E-02  0.9992122E-01
          2   -1    0    0  501    0  0.00000000000E+00  0.00000000000E+00  0.19166027188E+04  0.19166027188E+04  0.25500000000E-02 0. -1.
         -2   -1    0    0    0  501 -0.00000000000E+00 -0.00000000000E+00 -0.99426217783E+03  0.99426217783E+03  0.25500000000E-02 0.  1.
    8880023    1    1    2    0    0  0.19780235145E+03 -0.13708572334E+03 -0.85784694401E+03  0.11079845899E+04  0.65864270000E+03 0.  1.
    8880022    1    1    2    0    0 -0.19780235145E+03  0.13708572334E+03  0.17801874849E+04  0.18028803067E+04  0.15294330000E+03 0.  0.
<mgrwt>
<rscale>  0 0.55997024E+03</rscale>
<asrwt>0</asrwt>
<pdfrwt beam="1">  1        2 0.29486195E+00 0.70123354E+03</pdfrwt>
<pdfrwt beam="2">  1       -2 0.15296341E+00 0.70123354E+03</pdfrwt>
<totfact> 0.22107829E+00</totfact>
</mgrwt>
</event>
<event>
 4    5  0.8511149E-008  0.9222576E+03  0.7818608E-02  0.9491206E-01
         -2   -1    0    0    0  501 -0.00000000000E+00  0.00000000000E+00  0.56165864140E+03  0.56165864140E+03  0.25500000000E-02 0.  1.
          2   -1    0    0  501    0  0.00000000000E+00 -0.00000000000E+00 -0.25101948580E+04  0.25101948580E+04  0.25500000000E-02 0. -1.
    8880023    1    1    2    0    0  0.58036993395E+03  0.28270072493E+03  0.91373028540E+02  0.92677300172E+03  0.65864270000E+03 0.  1.
    8880022    1    1    2    0    0 -0.58036993395E+03 -0.28270072493E+03 -0.20399092452E+04  0.21450804977E+04  0.15294330000E+03 0.  0.
<mgrwt>
<rscale>  0 0.84935281E+03</rscale>
<asrwt>0</asrwt>
<pdfrwt beam="1">  1        2 0.38618382E+00 0.92225765E+03</pdfrwt>
<pdfrwt beam="2">  1       -2 0.86409023E-01 0.92225765E+03</pdfrwt>
<totfact> 0.40692048E+00</totfact>
</mgrwt>
</event>
<event>
 4    5  0.8511149E-008  0.6704104E+03  0.7818608E-02  0.1015370E+00
          2   -1    0    0  501    0  0.00000000000E+00  0.00000000000E+00  0.99452627699E+03  0.99452627699E+03  0.25500000000E-02 0. -1.
         -2   -1    0    0    0  501 -0.00000000000E+00 -0.00000000000E+00 -0.58637503477E+03  0.58637503477E+03  0.25500000000E-02 0.  1.
    8880023    1    1    2    0    0 -0.11938615759E+03  0.37240873443E+02 -0.37846067511E+03  0.76985883521E+03  0.65864270000E+03 0.  1.
    8880022    1    1    2    0    0  0.11938615759E+03 -0.37240873443E+02  0.78661191733E+03  0.81104247655E+03  0.15294330000E+03 0.  0.
<mgrwt>
<rscale>  0 0.49394956E+03</rscale>
<asrwt>0</asrwt>
<pdfrwt beam="1">  1        2 0.15300404E+00 0.67041043E+03</pdfrwt>
<pdfrwt beam="2">  1       -2 0.90211545E-01 0.67041043E+03</pdfrwt>
<totfact> 0.27348923E+01</totfact>
</mgrwt>
</event>
<event>
 4    5  0.8511149E-008  0.9070087E+03  0.7818608E-02  0.9514873E-01
          2   -1    0    0  501    0  0.00000000000E+00  0.00000000000E+00  0.24618353399E+04  0.24618353399E+04  0.25500000000E-02 0. -1.
         -2   -1    0    0    0  501 -0.00000000000E+00 -0.00000000000E+00 -0.42384731078E+03  0.42384731079E+03  0.25500000000E-02 0.  1.
    8880023    1    1    2    0    0  0.43683203610E+03  0.44500820873E+03  0.18644392880E+03  0.92597304413E+03  0.65864270000E+03 0.  1.
    8880022    1    1    2    0    0 -0.43683203610E+03 -0.44500820873E+03  0.18515441004E+04  0.19597096066E+04  0.15294330000E+03 0.  0.
<mgrwt>
<rscale>  0 0.83196137E+03</rscale>
<asrwt>0</asrwt>
<pdfrwt beam="1">  1        2 0.37874390E+00 0.90700868E+03</pdfrwt>
<pdfrwt beam="2">  1       -2 0.65207279E-01 0.90700868E+03</pdfrwt>
<totfact> 0.81252859E+00</totfact>
</mgrwt>
</event>
<event>
 4    5  0.8511149E-008  0.7008865E+03  0.7818608E-02  0.9993543E-01
         -2   -1    0    0    0  501 -0.00000000000E+00  0.00000000000E+00  0.35685498181E+03  0.35685498182E+03  0.25500000000E-02 0.  1.
          2   -1    0    0  501    0  0.00000000000E+00 -0.00000000000E+00 -0.17397222227E+04  0.17397222227E+04  0.25500000000E-02 0. -1.
    8880023    1    1    2    0    0  0.22019029236E+03  0.94593692984E+02 -0.16639654493E+02  0.70108402918E+03  0.65864270000E+03 0.  1.
    8880022    1    1    2    0    0 -0.22019029236E+03 -0.94593692984E+02 -0.13662275864E+04  0.13954931753E+04  0.15294330000E+03 0.  0.
<mgrwt>
<rscale>  0 0.55934263E+03</rscale>
<asrwt>0</asrwt>
<pdfrwt beam="1">  1        2 0.26764957E+00 0.70088654E+03</pdfrwt>
<pdfrwt beam="2">  1       -2 0.54900767E-01 0.70088654E+03</pdfrwt>
<totfact> 0.30072571E+01</totfact>
</mgrwt>
</event>
<event>
 4    5  0.8511149E-008  0.9084808E+03  0.7818608E-02  0.9512552E-01
         -2   -1    0    0    0  501 -0.00000000000E+00  0.00000000000E+00  0.76774238671E+03  0.76774238671E+03  0.25500000000E-02 0.  1.
          2   -1    0    0  501    0  0.00000000000E+00 -0.00000000000E+00 -0.95904045485E+03  0.95904045485E+03  0.25500000000E-02 0. -1.
    8880023    1    1    2    0    0  0.26686174902E+02 -0.62515195909E+03  0.25446013438E+03  0.94344437575E+03  0.65864270000E+03 0.  0.
    8880022    1    1    2    0    0 -0.26686174902E+02  0.62515195909E+03 -0.44575820252E+03  0.78333846581E+03  0.15294330000E+03 0.  0.
<mgrwt>
<rscale>  0 0.83364701E+03</rscale>
<asrwt>0</asrwt>
<pdfrwt beam="1">  1        2 0.14754469E+00 0.90848078E+03</pdfrwt>
<pdfrwt beam="2">  1       -2 0.11811421E+00 0.90848078E+03</pdfrwt>
<totfact> 0.14798908E+01</totfact>
</mgrwt>
</event>
<event>
 4    5  0.8511149E-008  0.1048865E+04  0.7818608E-02  0.9320247E-01
         -2   -1    0    0    0  501 -0.00000000000E+00  0.00000000000E+00  0.12599049821E+04  0.12599049821E+04  0.25500000000E-02 0.  1.
          2   -1    0    0  501    0  0.00000000000E+00 -0.00000000000E+00 -0.18590109764E+04  0.18590109764E+04  0.25500000000E-02 0. -1.
    8880023    1    1    2    0    0 -0.15182162363E+03  0.80203370626E+03  0.91507933793E+03  0.13919368780E+04  0.65864270000E+03 0.  1.
    8880022    1    1    2    0    0  0.15182162363E+03 -0.80203370626E+03 -0.15141853322E+04  0.17269790805E+04  0.15294330000E+03 0.  0.
<mgrwt>
<rscale>  0 0.98940074E+03</rscale>
<asrwt>0</asrwt>
<pdfrwt beam="1">  1        2 0.28600169E+00 0.10488651E+04</pdfrwt>
<pdfrwt beam="2">  1       -2 0.19383154E+00 0.10488651E+04</pdfrwt>
<totfact> 0.11570701E+00</totfact>
</mgrwt>
</event>
<event>
 4    5  0.8511149E-008  0.8973235E+03  0.7818608E-02  0.9530342E-01
         -2   -1    0    0    0  501 -0.00000000000E+00  0.00000000000E+00  0.71319422794E+03  0.71319422795E+03  0.25500000000E-02 0.  1.
          2   -1    0    0  501    0  0.00000000000E+00 -0.00000000000E+00 -0.15889996847E+04  0.15889996847E+04  0.25500000000E-02 0. -1.
    8880023    1    1    2    0    0  0.20459518239E+03  0.57403833634E+03  0.31893204389E+03  0.95231667797E+03  0.65864270000E+03 0.  1.
    8880022    1    1    2    0    0 -0.20459518239E+03 -0.57403833634E+03 -0.11947375006E+04  0.13498772347E+04  0.15294330000E+03 0.  0.
<mgrwt>
<rscale>  0 0.82083318E+03</rscale>
<asrwt>0</asrwt>
<pdfrwt beam="1">  1        2 0.24446149E+00 0.89732347E+03</pdfrwt>
<pdfrwt beam="2">  1       -2 0.10972219E+00 0.89732347E+03</pdfrwt>
<totfact> 0.75297212E+00</totfact>
</mgrwt>
</event>
<event>
 4    5  0.8511149E-008  0.1538978E+04  0.7818608E-02  0.8882592E-01
         -2   -1    0    0    0  501 -0.00000000000E+00  0.00000000000E+00  0.68293868676E+03  0.68293868676E+03  0.25500000000E-02 0.  1.
          2   -1    0    0  501    0  0.00000000000E+00 -0.00000000000E+00 -0.35449127181E+04  0.35449127181E+04  0.25500000000E-02 0. -1.
    8880023    1    1    2    0    0 -0.20888644990E+03  0.13751396064E+04 -0.21871380202E+04  0.26743270951E+04  0.65864270000E+03 0.  0.
    8880022    1    1    2    0    0  0.20888644990E+03 -0.13751396064E+04 -0.67483601110E+03  0.15535243097E+04  0.15294330000E+03 0.  0.
<mgrwt>
<rscale>  0 0.15028021E+04</rscale>
<asrwt>0</asrwt>
<pdfrwt beam="1">  1        2 0.54537117E+00 0.15389778E+04</pdfrwt>
<pdfrwt beam="2">  1       -2 0.10506749E+00 0.15389778E+04</pdfrwt>
<totfact> 0.53096933E-01</totfact>
</mgrwt>
</event>
<event>
 4    5  0.8511149E-008  0.9343304E+03  0.7818608E-02  0.9473027E-01
         -2   -1    0    0    0  501 -0.00000000000E+00  0.00000000000E+00  0.84494716231E+03  0.84494716231E+03  0.25500000000E-02 0.  1.
          2   -1    0    0  501    0  0.00000000000E+00 -0.00000000000E+00 -0.92596601038E+03  0.92596601038E+03  0.25500000000E-02 0. -1.
    8880023    1    1    2    0    0 -0.65310432338E+03  0.11232908301E+03  0.31244165317E+03  0.98518682137E+03  0.65864270000E+03 0.  1.
    8880022    1    1    2    0    0  0.65310432338E+03 -0.11232908301E+03 -0.39346050124E+03  0.78572635132E+03  0.15294330000E+03 0. -1.
<mgrwt>
<rscale>  0 0.86301978E+03</rscale>
<asrwt>0</asrwt>
<pdfrwt beam="1">  1        2 0.14245631E+00 0.93433039E+03</pdfrwt>
<pdfrwt beam="2">  1       -2 0.12999187E+00 0.93433039E+03</pdfrwt>
<totfact> 0.12207975E+01</totfact>
</mgrwt>
</event>
<event>
 4    5  0.8511149E-008  0.7464732E+03  0.7818608E-02  0.9841477E-01
         -2   -1    0    0    0  501 -0.00000000000E+00  0.00000000000E+00  0.60466533089E+03  0.60466533090E+03  0.25500000000E-02 0.  1.
          2   -1    0    0  501    0  0.00000000000E+00 -0.00000000000E+00 -0.13635072996E+04  0.13635072996E+04  0.25500000000E-02 0. -1.
    8880023    1    1    2    0    0 -0.23559541533E+03 -0.26058943238E+03  0.32830814554E+03  0.81548053115E+03  0.65864270000E+03 0.  1.
    8880022    1    1    2    0    0  0.23559541533E+03  0.26058943238E+03 -0.10871501143E+04  0.11526920994E+04  0.15294330000E+03 0.  0.
<mgrwt>
<rscale>  0 0.63183372E+03</rscale>
<asrwt>0</asrwt>
<pdfrwt beam="1">  1        2 0.20977035E+00 0.74647321E+03</pdfrwt>
<pdfrwt beam="2">  1       -2 0.93025436E-01 0.74647321E+03</pdfrwt>
<totfact> 0.15197193E+01</totfact>
</mgrwt>
</event>
<event>
 4    5  0.8511149E-008  0.9155476E+03  0.7818608E-02  0.9501520E-01
         -2   -1    0    0    0  501 -0.00000000000E+00  0.00000000000E+00  0.31460016679E+03  0.31460016680E+03  0.25500000000E-02 0.  1.
          2   -1    0    0  501    0  0.00000000000E+00 -0.00000000000E+00 -0.29684186378E+04  0.29684186378E+04  0.25500000000E-02 0. -1.
    8880023    1    1    2    0    0  0.62902948065E+03 -0.93483691605E+02 -0.52370687507E+03  0.10547494420E+04  0.65864270000E+03 0.  0.
    8880022    1    1    2    0    0 -0.62902948065E+03  0.93483691605E+02 -0.21301115959E+04  0.22282693626E+04  0.15294330000E+03 0.  0.
<mgrwt>
<rscale>  0 0.84171864E+03</rscale>
<asrwt>0</asrwt>
<pdfrwt beam="1">  1        2 0.45667977E+00 0.91554765E+03</pdfrwt>
<pdfrwt beam="2">  1       -2 0.48400028E-01 0.91554765E+03</pdfrwt>
<totfact> 0.76236841E+00</totfact>
</mgrwt>
</event>
<event>
 4    5  0.8511149E-008  0.8120637E+03  0.7818608E-02  0.9685294E-01
          2   -1    0    0  501    0  0.00000000000E+00  0.00000000000E+00  0.68610979845E+03  0.68610979846E+03  0.25500000000E-02 0. -1.
         -2   -1    0    0    0  501 -0.00000000000E+00 -0.00000000000E+00 -0.22583983371E+04  0.22583983371E+04  0.25500000000E-02 0.  1.
    8880023    1    1    2    0    0 -0.47495040683E+03 -0.77015935586E+01 -0.20798226344E+04  0.22327359003E+04  0.65864270000E+03 0.  1.
    8880022    1    1    2    0    0  0.47495040683E+03  0.77015935586E+01  0.50753409579E+03  0.71177223526E+03  0.15294330000E+03 0.  0.
<mgrwt>
<rscale>  0 0.71899153E+03</rscale>
<asrwt>0</asrwt>
<pdfrwt beam="1">  1        2 0.10555535E+00 0.81206367E+03</pdfrwt>
<pdfrwt beam="2">  1       -2 0.34744590E+00 0.81206367E+03</pdfrwt>
<totfact> 0.70769055E-01</totfact>
</mgrwt>
</event>
<event>
 4    5  0.8511149E-008  0.6833674E+03  0.7818608E-02  0.1007480E+00
         -2   -1    0    0    0  501 -0.00000000000E+00  0.00000000000E+00  0.20443502755E+03  0.20443502757E+03  0.25500000000E-02 0.  1.
          2   -1    0    0  501    0  0.00000000000E+00 -0.00000000000E+00 -0.10598831533E+04  0.10598831533E+04  0.25500000000E-02 0. -1.
    8880023    1    1    2    0    0 -0.67219150836E+02 -0.16929969854E+03 -0.55012329075E+03  0.87728367331E+03  0.65864270000E+03 0.  1.
    8880022    1    1    2    0    0  0.67219150836E+02  0.16929969854E+03 -0.30532483502E+03  0.38703450758E+03  0.15294330000E+03 0.  1.
<mgrwt>
<rscale>  0 0.52488761E+03</rscale>
<asrwt>0</asrwt>
<pdfrwt beam="1">  1        2 0.16305894E+00 0.68336740E+03</pdfrwt>
<pdfrwt beam="2">  1       -2 0.31451543E-01 0.68336740E+03</pdfrwt>
<totfact> 0.21957318E+02</totfact>
</mgrwt>
</event>
<event>
 4    5  0.8511149E-008  0.1068048E+04  0.7818608E-02  0.9297493E-01
         -2   -1    0    0    0  501 -0.00000000000E+00  0.00000000000E+00  0.47004497837E+03  0.47004497838E+03  0.25500000000E-02 0.  1.
          2   -1    0    0  501    0  0.00000000000E+00 -0.00000000000E+00 -0.34381662652E+04  0.34381662652E+04  0.25500000000E-02 0. -1.
    8880023    1    1    2    0    0  0.35685670301E+03  0.76129537917E+03 -0.30413041146E+03  0.11105056840E+04  0.65864270000E+03 0.  0.
    8880022    1    1    2    0    0 -0.35685670301E+03 -0.76129537917E+03 -0.26639908754E+04  0.27977055596E+04  0.15294330000E+03 0.  0.
<mgrwt>
<rscale>  0 0.10101400E+04</rscale>
<asrwt>0</asrwt>
<pdfrwt beam="1">  1        2 0.52894864E+00 0.10680485E+04</pdfrwt>
<pdfrwt beam="2">  1       -2 0.72314614E-01 0.10680485E+04</pdfrwt>
<totfact> 0.15887666E+00</totfact>
</mgrwt>
</event>
<event>
 4    5  0.8511149E-008  0.7815870E+03  0.7818608E-02  0.9752122E-01
          2   -1    0    0  501    0  0.00000000000E+00  0.00000000000E+00  0.21900449875E+04  0.21900449875E+04  0.25500000000E-02 0. -1.
         -2   -1    0    0    0  501 -0.00000000000E+00 -0.00000000000E+00 -0.63376844726E+03  0.63376844727E+03  0.25500000000E-02 0.  1.
    8880023    1    1    2    0    0  0.27334064884E+03 -0.31992648098E+03 -0.35670401441E+03  0.85913678987E+03  0.65864270000E+03 0.  0.
    8880022    1    1    2    0    0 -0.27334064884E+03  0.31992648098E+03  0.19129805546E+04  0.19646766449E+04  0.15294330000E+03 0.  0.
<mgrwt>
<rscale>  0 0.67996474E+03</rscale>
<asrwt>0</asrwt>
<pdfrwt beam="1">  1        2 0.33693000E+00 0.78158702E+03</pdfrwt>
<pdfrwt beam="2">  1       -2 0.97502838E-01 0.78158702E+03</pdfrwt>
<totfact> 0.47495495E+00</totfact>
</mgrwt>
</event>
<event>
 4    5  0.8511149E-008  0.7718951E+03  0.7818608E-02  0.9775232E-01
         -2   -1    0    0    0  501 -0.00000000000E+00  0.00000000000E+00  0.21550928577E+03  0.21550928579E+03  0.25500000000E-02 0.  1.
          2   -1    0    0  501    0  0.00000000000E+00 -0.00000000000E+00 -0.17449928329E+04  0.17449928329E+04  0.25500000000E-02 0. -1.
    8880023    1    1    2    0    0 -0.37962022931E+03 -0.13379206398E+03 -0.78805248254E+03  0.11031086784E+04  0.65864270000E+03 0.  0.
    8880022    1    1    2    0    0  0.37962022931E+03  0.13379206398E+03 -0.74143106461E+03  0.85739344030E+03  0.15294330000E+03 0.  0.
<mgrwt>
<rscale>  0 0.66708849E+03</rscale>
<asrwt>0</asrwt>
<pdfrwt beam="1">  1        2 0.26846043E+00 0.77189510E+03</pdfrwt>
<pdfrwt beam="2">  1       -2 0.33155276E-01 0.77189510E+03</pdfrwt>
<totfact> 0.80251225E+01</totfact>
</mgrwt>
</event>
<event>
 4    5  0.8511149E-008  0.1109816E+04  0.7818608E-02  0.9250206E-01
          2   -1    0    0  501    0  0.00000000000E+00  0.00000000000E+00  0.15890833262E+04  0.15890833262E+04  0.25500000000E-02 0. -1.
         -2   -1    0    0    0  501 -0.00000000000E+00 -0.00000000000E+00 -0.11660443338E+04  0.11660443338E+04  0.25500000000E-02 0.  1.
    8880023    1    1    2    0    0 -0.36542762075E+03  0.81507248157E+03 -0.69993327313E+03  0.13120965244E+04  0.65864270000E+03 0.  0.
    8880022    1    1    2    0    0  0.36542762075E+03 -0.81507248157E+03  0.11229722655E+04  0.14430311356E+04  0.15294330000E+03 0.  0.
<mgrwt>
<rscale>  0 0.10549916E+04</rscale>
<asrwt>0</asrwt>
<pdfrwt beam="1">  1        2 0.24447436E+00 0.11098156E+04</pdfrwt>
<pdfrwt beam="2">  1       -2 0.17939144E+00 0.11098156E+04</pdfrwt>
<totfact> 0.20297606E+00</totfact>
</mgrwt>
</event>
<event>
 4    5  0.8511149E-008  0.7896622E+03  0.7818608E-02  0.9733611E-01
         -2   -1    0    0    0  501 -0.00000000000E+00  0.00000000000E+00  0.36126307944E+03  0.36126307945E+03  0.25500000000E-02 0.  1.
          2   -1    0    0  501    0  0.00000000000E+00 -0.00000000000E+00 -0.25605589450E+04  0.25605589450E+04  0.25500000000E-02 0. -1.
    8880023    1    1    2    0    0  0.18225485717E+03  0.39565063468E+03 -0.12833340680E+03  0.80002245422E+03  0.65864270000E+03 0.  1.
    8880022    1    1    2    0    0 -0.18225485717E+03 -0.39565063468E+03 -0.20709624587E+04  0.21217995702E+04  0.15294330000E+03 0.  0.
<mgrwt>
<rscale>  0 0.69050395E+03</rscale>
<asrwt>0</asrwt>
<pdfrwt beam="1">  1        2 0.39393213E+00 0.78966225E+03</pdfrwt>
<pdfrwt beam="2">  1       -2 0.55578937E-01 0.78966225E+03</pdfrwt>
<totfact> 0.10187253E+01</totfact>
</mgrwt>
</event>
<event>
 4    5  0.1032547E-007  0.1924366E+04  0.7818608E-02  0.8656692E-01
          2   -1    0    0  501    0  0.00000000000E+00  0.00000000000E+00  0.25503466788E+04  0.25503466788E+04  0.25500000000E-02 0. -1.
         -2   -1    0    0    0  501 -0.00000000000E+00 -0.00000000000E+00 -0.27255711775E+04  0.27255711775E+04  0.25500000000E-02 0.  1.
    8880023    1    1    2    0    0  0.93650218927E+03 -0.15467185166E+04 -0.19486111983E+04  0.27386621421E+04  0.65864270000E+03 0.  0.
    8880022    1    1    2    0    0 -0.93650218927E+03  0.15467185166E+04  0.17733866996E+04  0.25372557143E+04  0.15294330000E+03 0.  0.
<mgrwt>
<rscale>  0 0.18963167E+04</rscale>
<asrwt>0</asrwt>
<pdfrwt beam="1">  1        2 0.39236103E+00 0.19243661E+04</pdfrwt>
<pdfrwt beam="2">  1       -2 0.41931864E+00 0.19243661E+04</pdfrwt>
<totfact> 0.16007551E-02</totfact>
</mgrwt>
</event>
<event>
 4    5  0.8511149E-008  0.7255586E+03  0.7818608E-02  0.9904208E-01
         -2   -1    0    0    0  501 -0.00000000000E+00  0.00000000000E+00  0.84776855039E+03  0.84776855040E+03  0.25500000000E-02 0.  1.
          2   -1    0    0  501    0  0.00000000000E+00 -0.00000000000E+00 -0.14637975463E+04  0.14637975463E+04  0.25500000000E-02 0. -1.
    8880023    1    1    2    0    0  0.25931151743E+03 -0.15931905381E+03  0.66610954585E+03  0.98495540879E+03  0.65864270000E+03 0.  0.
    8880022    1    1    2    0    0 -0.25931151743E+03  0.15931905381E+03 -0.12821385417E+04  0.13266106879E+04  0.15294330000E+03 0.  0.
<mgrwt>
<rscale>  0 0.60057798E+03</rscale>
<asrwt>0</asrwt>
<pdfrwt beam="1">  1        2 0.22519962E+00 0.72555856E+03</pdfrwt>
<pdfrwt beam="2">  1       -2 0.13042593E+00 0.72555856E+03</pdfrwt>
<totfact> 0.58950489E+00</totfact>
</mgrwt>
</event>
<event>
 4    5  0.8511149E-008  0.6972537E+03  0.7818608E-02  0.1000879E+00
          2   -1    0    0  501    0  0.00000000000E+00  0.00000000000E+00  0.86081563477E+03  0.86081563478E+03  0.25500000000E-02 0. -1.
         -2   -1    0    0    0  501 -0.00000000000E+00 -0.00000000000E+00 -0.11808506154E+04  0.11808506154E+04  0.25500000000E-02 0.  1.
    8880023    1    1    2    0    0  0.22874172636E+03 -0.54556725329E+01 -0.10506336233E+04  0.12609495464E+04  0.65864270000E+03 0.  1.
    8880022    1    1    2    0    0 -0.22874172636E+03  0.54556725329E+01  0.73059864275E+03  0.78071670377E+03  0.15294330000E+03 0.  0.
<mgrwt>
<rscale>  0 0.55266479E+03</rscale>
<asrwt>0</asrwt>
<pdfrwt beam="1">  1        2 0.13243317E+00 0.69725372E+03</pdfrwt>
<pdfrwt beam="2">  1       -2 0.18166933E+00 0.69725372E+03</pdfrwt>
<totfact> 0.56581669E+00</totfact>
</mgrwt>
</event>
<event>
 4    5  0.8511149E-008  0.8153766E+03  0.7818608E-02  0.9678484E-01
          2   -1    0    0  501    0  0.00000000000E+00  0.00000000000E+00  0.33383413205E+04  0.33383413205E+04  0.25500000000E-02 0. -1.
         -2   -1    0    0    0  501 -0.00000000000E+00 -0.00000000000E+00 -0.27797564534E+03  0.27797564535E+03  0.25500000000E-02 0.  1.
    8880023    1    1    2    0    0  0.47545300607E+03  0.70521644142E+02  0.39935445633E+03  0.90792238177E+03  0.65864270000E+03 0.  0.
    8880022    1    1    2    0    0 -0.47545300607E+03 -0.70521644142E+02  0.26610112188E+04  0.27083945840E+04  0.15294330000E+03 0. -1.
<mgrwt>
<rscale>  0 0.72312390E+03</rscale>
<asrwt>0</asrwt>
<pdfrwt beam="1">  1        2 0.51359096E+00 0.81537664E+03</pdfrwt>
<pdfrwt beam="2">  1       -2 0.42765485E-01 0.81537664E+03</pdfrwt>
<totfact> 0.57892954E+00</totfact>
</mgrwt>
</event>
<event>
 4    5  0.8511149E-008  0.9502674E+03  0.7818608E-02  0.9449729E-01
          2   -1    0    0  501    0  0.00000000000E+00  0.00000000000E+00  0.89867274809E+03  0.89867274809E+03  0.25500000000E-02 0. -1.
         -2   -1    0    0    0  501 -0.00000000000E+00 -0.00000000000E+00 -0.18446481659E+04  0.18446481660E+04  0.25500000000E-02 0.  1.
    8880023    1    1    2    0    0 -0.54169884584E+03  0.41923779245E+03 -0.15494930566E+04  0.18176734869E+04  0.65864270000E+03 0.  1.
    8880022    1    1    2    0    0  0.54169884584E+03 -0.41923779245E+03  0.60351763871E+03  0.92564742718E+03  0.15294330000E+03 0.  0.
<mgrwt>
<rscale>  0 0.88093738E+03</rscale>
<asrwt>0</asrwt>
<pdfrwt beam="1">  1        2 0.13825735E+00 0.95026742E+03</pdfrwt>
<pdfrwt beam="2">  1       -2 0.28379202E+00 0.95026742E+03</pdfrwt>
<totfact> 0.11831782E+00</totfact>
</mgrwt>
</event>
<event>
 4    5  0.8651297E-008  0.1553155E+04  0.7818608E-02  0.8872985E-01
         -2   -1    0    0    0  501 -0.00000000000E+00  0.00000000000E+00  0.13387343955E+04  0.13387343955E+04  0.25500000000E-02 0.  1.
          2   -1    0    0  501    0  0.00000000000E+00 -0.00000000000E+00 -0.37675827910E+04  0.37675827910E+04  0.25500000000E-02 0. -1.
    8880023    1    1    2    0    0 -0.15239792917E+03 -0.13983047504E+04  0.67630158180E+03  0.16940116114E+04  0.65864270000E+03 0.  0.
    8880022    1    1    2    0    0  0.15239792917E+03  0.13983047504E+04 -0.31051499773E+04  0.34123055751E+04  0.15294330000E+03 0.  0.
<mgrwt>
<rscale>  0 0.15173673E+04</rscale>
<asrwt>0</asrwt>
<pdfrwt beam="1">  1        2 0.57962812E+00 0.15531553E+04</pdfrwt>
<pdfrwt beam="2">  1       -2 0.20595914E+00 0.15531553E+04</pdfrwt>
<totfact> 0.59668717E-02</totfact>
</mgrwt>
</event>
<event>
 4    5  0.8511149E-008  0.7199942E+03  0.7818608E-02  0.9922606E-01
         -2   -1    0    0    0  501 -0.00000000000E+00  0.00000000000E+00  0.30470774865E+03  0.30470774866E+03  0.25500000000E-02 0.  1.
          2   -1    0    0  501    0  0.00000000000E+00 -0.00000000000E+00 -0.23733043497E+04  0.23733043497E+04  0.25500000000E-02 0. -1.
    8880023    1    1    2    0    0  0.28711854391E+03  0.46306998608E+02 -0.15510450645E+03  0.73651137843E+03  0.65864270000E+03 0.  0.
    8880022    1    1    2    0    0 -0.28711854391E+03 -0.46306998608E+02 -0.19134920946E+04  0.19415007200E+04  0.15294330000E+03 0. -1.
<mgrwt>
<rscale>  0 0.59178119E+03</rscale>
<asrwt>0</asrwt>
<pdfrwt beam="1">  1        2 0.36512373E+00 0.71999417E+03</pdfrwt>
<pdfrwt beam="2">  1       -2 0.46878117E-01 0.71999417E+03</pdfrwt>
<totfact> 0.18611520E+01</totfact>
</mgrwt>
</event>
<event>
 4    5  0.8511149E-008  0.7567995E+03  0.7818608E-02  0.9813465E-01
         -2   -1    0    0    0  501 -0.00000000000E+00  0.00000000000E+00  0.26529127022E+03  0.26529127023E+03  0.25500000000E-02 0.  1.
          2   -1    0    0  501    0  0.00000000000E+00 -0.00000000000E+00 -0.28578230988E+04  0.28578230988E+04  0.25500000000E-02 0. -1.
    8880023    1    1    2    0    0  0.97257277120E+02 -0.35982811610E+03 -0.33107584029E+03  0.82604882990E+03  0.65864270000E+03 0.  1.
    8880022    1    1    2    0    0 -0.97257277120E+02  0.35982811610E+03 -0.22614559883E+04  0.22970655391E+04  0.15294330000E+03 0.  0.
<mgrwt>
<rscale>  0 0.64644925E+03</rscale>
<asrwt>0</asrwt>
<pdfrwt beam="1">  1        2 0.43966507E+00 0.75679948E+03</pdfrwt>
<pdfrwt beam="2">  1       -2 0.40814043E-01 0.75679948E+03</pdfrwt>
<totfact> 0.12807000E+01</totfact>
</mgrwt>
</event>
<event>
 4    5  0.8511149E-008  0.1019103E+04  0.7818608E-02  0.9356982E-01
          2   -1    0    0  501    0  0.00000000000E+00  0.00000000000E+00  0.11646612488E+04  0.11646612488E+04  0.25500000000E-02 0. -1.
         -2   -1    0    0    0  501 -0.00000000000E+00 -0.00000000000E+00 -0.11119819374E+04  0.11119819374E+04  0.25500000000E-02 0.  1.
    8880023    1    1    2    0    0 -0.50519835113E+03 -0.59121441733E+03 -0.65721352171E+03  0.12126416126E+04  0.65864270000E+03 0.  1.
    8880022    1    1    2    0    0  0.50519835113E+03  0.59121441733E+03  0.70989283305E+03  0.10640015736E+04  0.15294330000E+03 0.  0.
<mgrwt>
<rscale>  0 0.95702102E+03</rscale>
<asrwt>0</asrwt>
<pdfrwt beam="1">  1        2 0.17917865E+00 0.10191026E+04</pdfrwt>
<pdfrwt beam="2">  1       -2 0.17107414E+00 0.10191026E+04</pdfrwt>
<totfact> 0.41204982E+00</totfact>
</mgrwt>
</event>
<event>
 4    5  0.8511149E-008  0.7758355E+03  0.7818608E-02  0.9765712E-01
          2   -1    0    0  501    0  0.00000000000E+00  0.00000000000E+00  0.64030400868E+03  0.64030400869E+03  0.25500000000E-02 0. -1.
         -2   -1    0    0    0  501 -0.00000000000E+00 -0.00000000000E+00 -0.13186268296E+04  0.13186268296E+04  0.25500000000E-02 0.  1.
    8880023    1    1    2    0    0 -0.34932934498E+03  0.21466139194E+03 -0.11033992697E+04  0.13488553144E+04  0.65864270000E+03 0.  0.
    8880022    1    1    2    0    0  0.34932934498E+03 -0.21466139194E+03  0.42507644884E+03  0.61007552387E+03  0.15294330000E+03 0.  0.
<mgrwt>
<rscale>  0 0.67235547E+03</rscale>
<asrwt>0</asrwt>
<pdfrwt beam="1">  1        2 0.98508310E-01 0.77583549E+03</pdfrwt>
<pdfrwt beam="2">  1       -2 0.20286567E+00 0.77583549E+03</pdfrwt>
<totfact> 0.59379565E+00</totfact>
</mgrwt>
</event>
<event>
 4    5  0.8511149E-008  0.6795593E+03  0.7818608E-02  0.1009574E+00
         -2   -1    0    0    0  501 -0.00000000000E+00  0.00000000000E+00  0.22610559575E+03  0.22610559576E+03  0.25500000000E-02 0.  1.
          2   -1    0    0  501    0  0.00000000000E+00 -0.00000000000E+00 -0.12017611775E+04  0.12017611775E+04  0.25500000000E-02 0. -1.
    8880023    1    1    2    0    0  0.11211194776E+03 -0.12418337255E+03 -0.35412969971E+03  0.76629540605E+03  0.65864270000E+03 0.  1.
    8880022    1    1    2    0    0 -0.11211194776E+03  0.12418337255E+03 -0.62152588201E+03  0.66157136718E+03  0.15294330000E+03 0.  0.
<mgrwt>
<rscale>  0 0.51644271E+03</rscale>
<asrwt>0</asrwt>
<pdfrwt beam="1">  1        2 0.18488633E+00 0.67955927E+03</pdfrwt>
<pdfrwt beam="2">  1       -2 0.34785477E-01 0.67955927E+03</pdfrwt>
<totfact> 0.14915878E+02</totfact>
</mgrwt>
</event>
<event>
 4    5  0.8511149E-008  0.1267587E+04  0.7818608E-02  0.9094068E-01
         -2   -1    0    0    0  501 -0.00000000000E+00  0.00000000000E+00  0.48250350953E+03  0.48250350954E+03  0.25500000000E-02 0.  1.
          2   -1    0    0  501    0  0.00000000000E+00 -0.00000000000E+00 -0.34507423423E+04  0.34507423423E+04  0.25500000000E-02 0. -1.
    8880023    1    1    2    0    0 -0.83877364405E+00 -0.10830355737E+04 -0.78399589255E+03  0.14904450756E+04  0.65864270000E+03 0.  0.
    8880022    1    1    2    0    0  0.83877364405E+00  0.10830355737E+04 -0.21842429402E+04  0.24428007762E+04  0.15294330000E+03 0.  0.
<mgrwt>
<rscale>  0 0.12217040E+04</rscale>
<asrwt>0</asrwt>
<pdfrwt beam="1">  1        2 0.53088342E+00 0.12675871E+04</pdfrwt>
<pdfrwt beam="2">  1       -2 0.74231311E-01 0.12675871E+04</pdfrwt>
<totfact> 0.14288352E+00</totfact>
</mgrwt>
</event>
<event>
 4    5  0.8511149E-008  0.9107849E+03  0.7818608E-02  0.9508935E-01
         -2   -1    0    0    0  501 -0.00000000000E+00  0.00000000000E+00  0.55292177236E+03  0.55292177237E+03  0.25500000000E-02 0.  1.
          2   -1    0    0  501    0  0.00000000000E+00 -0.00000000000E+00 -0.34679260606E+04  0.34679260606E+04  0.25500000000E-02 0. -1.
    8880023    1    1    2    0    0 -0.56505953874E+03 -0.27645374443E+03  0.11901566139E+03  0.91852811011E+03  0.65864270000E+03 0.  1.
    8880022    1    1    2    0    0  0.56505953874E+03  0.27645374443E+03 -0.30340199497E+04  0.31023197229E+04  0.15294330000E+03 0.  0.
<mgrwt>
<rscale>  0 0.83628239E+03</rscale>
<asrwt>0</asrwt>
<pdfrwt beam="1">  1        2 0.53352707E+00 0.91078492E+03</pdfrwt>
<pdfrwt beam="2">  1       -2 0.85064890E-01 0.91078492E+03</pdfrwt>
<totfact> 0.10817195E+00</totfact>
</mgrwt>
</event>
<event>
 4    5  0.8511149E-008  0.1361658E+04  0.7818608E-02  0.9014063E-01
         -2   -1    0    0    0  501 -0.00000000000E+00  0.00000000000E+00  0.12859704169E+04  0.12859704169E+04  0.25500000000E-02 0.  1.
          2   -1    0    0  501    0  0.00000000000E+00 -0.00000000000E+00 -0.15975233494E+04  0.15975233494E+04  0.25500000000E-02 0. -1.
    8880023    1    1    2    0    0 -0.69868476108E+03  0.96547566338E+03  0.48098784320E+03  0.14441132793E+04  0.65864270000E+03 0.  0.
    8880022    1    1    2    0    0  0.69868476108E+03 -0.96547566338E+03 -0.79254077570E+03  0.14393804869E+04  0.15294330000E+03 0.  0.
<mgrwt>
<rscale>  0 0.13197315E+04</rscale>
<asrwt>0</asrwt>
<pdfrwt beam="1">  1        2 0.24577282E+00 0.13616585E+04</pdfrwt>
<pdfrwt beam="2">  1       -2 0.19784160E+00 0.13616585E+04</pdfrwt>
<totfact> 0.14664988E+00</totfact>
</mgrwt>
</event>
<event>
 4    5  0.8511149E-008  0.7213231E+03  0.7818608E-02  0.9918134E-01
          2   -1    0    0  501    0  0.00000000000E+00  0.00000000000E+00  0.40111302403E+04  0.40111302403E+04  0.25500000000E-02 0. -1.
         -2   -1    0    0    0  501 -0.00000000000E+00 -0.00000000000E+00 -0.13983511303E+03  0.13983511305E+03  0.25500000000E-02 0.  1.
    8880023    1    1    2    0    0  0.17670190999E+03  0.23510263581E+03  0.86430214146E+03  0.11257553963E+04  0.65864270000E+03 0.  1.
    8880022    1    1    2    0    0 -0.17670190999E+03 -0.23510263581E+03  0.30069929858E+04  0.30252099570E+04  0.15294330000E+03 0.  0.
<mgrwt>
<rscale>  0 0.59390420E+03</rscale>
<asrwt>0</asrwt>
<pdfrwt beam="1">  1        2 0.61709687E+00 0.72132310E+03</pdfrwt>
<pdfrwt beam="2">  1       -2 0.21513098E-01 0.72132310E+03</pdfrwt>
<totfact> 0.69793430E+00</totfact>
</mgrwt>
</event>
<event>
 4    5  0.8511149E-008  0.6879800E+03  0.7818608E-02  0.1005128E+00
         -2   -1    0    0    0  501 -0.00000000000E+00  0.00000000000E+00  0.68535673526E+03  0.68535673526E+03  0.25500000000E-02 0.  1.
          2   -1    0    0  501    0  0.00000000000E+00 -0.00000000000E+00 -0.71226461804E+03  0.71226461804E+03  0.25500000000E-02 0. -1.
    8880023    1    1    2    0    0  0.19352816535E+03  0.45311744563E+02  0.47535222945E+03  0.83622739329E+03  0.65864270000E+03 0.  1.
    8880022    1    1    2    0    0 -0.19352816535E+03 -0.45311744563E+02 -0.50226011224E+03  0.56139396001E+03  0.15294330000E+03 0.  0.
<mgrwt>
<rscale>  0 0.53457844E+03</rscale>
<asrwt>0</asrwt>
<pdfrwt beam="1">  1        2 0.10957917E+00 0.68798002E+03</pdfrwt>
<pdfrwt beam="2">  1       -2 0.10543950E+00 0.68798002E+03</pdfrwt>
<totfact> 0.29725183E+01</totfact>
</mgrwt>
</event>
<event>
 4    5  0.8511149E-008  0.1050670E+04  0.7818608E-02  0.9318077E-01
          2   -1    0    0  501    0  0.00000000000E+00  0.00000000000E+00  0.17046494936E+04  0.17046494936E+04  0.25500000000E-02 0. -1.
         -2   -1    0    0    0  501 -0.00000000000E+00 -0.00000000000E+00 -0.68464922156E+03  0.68464922157E+03  0.25500000000E-02 0.  1.
    8880023    1    1    2    0    0 -0.45783565857E+03 -0.67858933815E+03 -0.27600909870E+02  0.10510323480E+04  0.65864270000E+03 0.  0.
    8880022    1    1    2    0    0  0.45783565857E+03  0.67858933815E+03  0.10476011819E+04  0.13382663672E+04  0.15294330000E+03 0.  0.
<mgrwt>
<rscale>  0 0.99135598E+03</rscale>
<asrwt>0</asrwt>
<pdfrwt beam="1">  1        2 0.26225377E+00 0.10506699E+04</pdfrwt>
<pdfrwt beam="2">  1       -2 0.10533065E+00 0.10506699E+04</pdfrwt>
<totfact> 0.70502279E+00</totfact>
</mgrwt>
</event>
<event>
 4    5  0.8511149E-008  0.8641012E+03  0.7818608E-02  0.9586309E-01
          2   -1    0    0  501    0  0.00000000000E+00  0.00000000000E+00  0.37236697657E+04  0.37236697657E+04  0.25500000000E-02 0. -1.
         -2   -1    0    0    0  501 -0.00000000000E+00 -0.00000000000E+00 -0.70709010121E+03  0.70709010121E+03  0.25500000000E-02 0.  1.
    8880023    1    1    2    0    0 -0.51523403688E+03  0.21770304695E+03 -0.40931039637E+03  0.95614116963E+03  0.65864270000E+03 0.  0.
    8880022    1    1    2    0    0  0.51523403688E+03 -0.21770304695E+03  0.34258900608E+04  0.34746186973E+04  0.15294330000E+03 0.  0.
<mgrwt>
<rscale>  0 0.78208983E+03</rscale>
<asrwt>0</asrwt>
<pdfrwt beam="1">  1        2 0.57287226E+00 0.86410123E+03</pdfrwt>
<pdfrwt beam="2">  1       -2 0.10878309E+00 0.86410123E+03</pdfrwt>
<totfact> 0.40476140E-01</totfact>
</mgrwt>
</event>
<event>
 4    5  0.8511149E-008  0.1158001E+04  0.7818608E-02  0.9199071E-01
         -2   -1    0    0    0  501 -0.00000000000E+00  0.00000000000E+00  0.12124209507E+04  0.12124209507E+04  0.25500000000E-02 0.  1.
          2   -1    0    0  501    0  0.00000000000E+00 -0.00000000000E+00 -0.14406865099E+04  0.14406865099E+04  0.25500000000E-02 0. -1.
    8880023    1    1    2    0    0 -0.94966627024E+03 -0.72725775825E+02  0.66757326808E+03  0.13366448062E+04  0.65864270000E+03 0.  0.
    8880022    1    1    2    0    0  0.94966627024E+03  0.72725775825E+02 -0.89583882727E+03  0.13164626545E+04  0.15294330000E+03 0.  0.
<mgrwt>
<rscale>  0 0.11063024E+04</rscale>
<asrwt>0</asrwt>
<pdfrwt beam="1">  1        2 0.22164408E+00 0.11580005E+04</pdfrwt>
<pdfrwt beam="2">  1       -2 0.18652630E+00 0.11580005E+04</pdfrwt>
<totfact> 0.21870565E+00</totfact>
</mgrwt>
</event>
<event>
 4    5  0.1664933E-007  0.8834831E+03  0.7818608E-02  0.9553084E-01
         -2   -1    0    0    0  501 -0.00000000000E+00  0.00000000000E+00  0.25561895914E+04  0.25561895914E+04  0.25500000000E-02 0.  1.
          2   -1    0    0  501    0  0.00000000000E+00 -0.00000000000E+00 -0.21469124343E+04  0.21469124343E+04  0.25500000000E-02 0. -1.
    8880023    1    1    2    0    0 -0.12310758276E+03  0.57582698320E+03  0.24337739693E+04  0.25891693903E+04  0.65864270000E+03 0.  1.
    8880022    1    1    2    0    0  0.12310758276E+03 -0.57582698320E+03 -0.20244968122E+04  0.21139326355E+04  0.15294330000E+03 0.  0.
<mgrwt>
<rscale>  0 0.80480760E+03</rscale>
<asrwt>0</asrwt>
<pdfrwt beam="1">  1        2 0.33029422E+00 0.88348311E+03</pdfrwt>
<pdfrwt beam="2">  1       -2 0.39325994E+00 0.88348311E+03</pdfrwt>
<totfact> 0.47851042E-02</totfact>
</mgrwt>
</event>
<event>
 4    5  0.8511149E-008  0.6597123E+03  0.7818608E-02  0.1024453E+00
          2   -1    0    0  501    0  0.00000000000E+00  0.00000000000E+00  0.22009811988E+04  0.22009811988E+04  0.25500000000E-02 0. -1.
         -2   -1    0    0    0  501 -0.00000000000E+00 -0.00000000000E+00 -0.16586591300E+03  0.16586591302E+03  0.25500000000E-02 0.  1.
    8880023    1    1    2    0    0 -0.11305618138E+02 -0.35808582305E+02  0.51061740036E+03  0.83423642176E+03  0.65864270000E+03 0.  1.
    8880022    1    1    2    0    0  0.11305618138E+02  0.35808582305E+02  0.15244978855E+04  0.15326106901E+04  0.15294330000E+03 0.  0.
<mgrwt>
<rscale>  0 0.46113295E+03</rscale>
<asrwt>0</asrwt>
<pdfrwt beam="1">  1        2 0.33861248E+00 0.65971227E+03</pdfrwt>
<pdfrwt beam="2">  1       -2 0.25517834E-01 0.65971227E+03</pdfrwt>
<totfact> 0.74328202E+01</totfact>
</mgrwt>
</event>
<event>
 4    5  0.8511149E-008  0.9059321E+03  0.7818608E-02  0.9516575E-01
          2   -1    0    0  501    0  0.00000000000E+00  0.00000000000E+00  0.20576611570E+04  0.20576611571E+04  0.25500000000E-02 0. -1.
         -2   -1    0    0    0  501 -0.00000000000E+00 -0.00000000000E+00 -0.88959482765E+03  0.88959482765E+03  0.25500000000E-02 0.  1.
    8880023    1    1    2    0    0  0.58600176107E+03  0.20857759219E+03 -0.58664384925E+03  0.10792886028E+04  0.65864270000E+03 0.  1.
    8880022    1    1    2    0    0 -0.58600176107E+03 -0.20857759219E+03  0.17547101786E+04  0.18679673819E+04  0.15294330000E+03 0.  0.
<mgrwt>
<rscale>  0 0.83072764E+03</rscale>
<asrwt>0</asrwt>
<pdfrwt beam="1">  1        2 0.31656325E+00 0.90593205E+03</pdfrwt>
<pdfrwt beam="2">  1       -2 0.13686074E+00 0.90593205E+03</pdfrwt>
<totfact> 0.23925339E+00</totfact>
</mgrwt>
</event>
<event>
 4    5  0.8511149E-008  0.6855149E+03  0.7818608E-02  0.1006362E+00
          2   -1    0    0  501    0  0.00000000000E+00  0.00000000000E+00  0.17466145811E+04  0.17466145811E+04  0.25500000000E-02 0. -1.
         -2   -1    0    0    0  501 -0.00000000000E+00 -0.00000000000E+00 -0.35962953867E+03  0.35962953868E+03  0.25500000000E-02 0.  1.
    8880023    1    1    2    0    0 -0.71033338762E+02 -0.17628025870E+03 -0.12527093844E+02  0.68562934532E+03  0.65864270000E+03 0.  1.
    8880022    1    1    2    0    0  0.71033338762E+02  0.17628025870E+03  0.13995121363E+04  0.14206147745E+04  0.15294330000E+03 0.  0.
<mgrwt>
<rscale>  0 0.52946633E+03</rscale>
<asrwt>0</asrwt>
<pdfrwt beam="1">  1        2 0.26870993E+00 0.68551489E+03</pdfrwt>
<pdfrwt beam="2">  1       -2 0.55327622E-01 0.68551489E+03</pdfrwt>
<totfact> 0.29399136E+01</totfact>
</mgrwt>
</event>
<event>
 4    5  0.9960723E-008  0.9419944E+03  0.7818608E-02  0.9461727E-01
         -2   -1    0    0    0  501 -0.00000000000E+00  0.00000000000E+00  0.13660154956E+04  0.13660154956E+04  0.25500000000E-02 0.  1.
          2   -1    0    0  501    0  0.00000000000E+00 -0.00000000000E+00 -0.39046403289E+04  0.39046403289E+04  0.25500000000E-02 0. -1.
    8880023    1    1    2    0    0 -0.21636421398E+03  0.63775370381E+03  0.11678402661E+04  0.15004013974E+04  0.65864270000E+03 0.  0.
    8880022    1    1    2    0    0  0.21636421398E+03 -0.63775370381E+03 -0.37064650993E+04  0.37702544271E+04  0.15294330000E+03 0.  0.
<mgrwt>
<rscale>  0 0.87165301E+03</rscale>
<asrwt>0</asrwt>
<pdfrwt beam="1">  1        2 0.60071389E+00 0.94199441E+03</pdfrwt>
<pdfrwt beam="2">  1       -2 0.21015623E+00 0.94199441E+03</pdfrwt>
<totfact> 0.49406104E-02</totfact>
</mgrwt>
</event>
<event>
 4    5  0.8511149E-008  0.7496604E+03  0.7818608E-02  0.9832651E-01
          2   -1    0    0  501    0  0.00000000000E+00  0.00000000000E+00  0.18885375303E+04  0.18885375303E+04  0.25500000000E-02 0. -1.
         -2   -1    0    0    0  501 -0.00000000000E+00 -0.00000000000E+00 -0.27266855727E+03  0.27266855729E+03  0.25500000000E-02 0.  1.
    8880023    1    1    2    0    0 -0.34028559987E+03 -0.11129322183E+03  0.33250985003E+03  0.82009357840E+03  0.65864270000E+03 0.  1.
    8880022    1    1    2    0    0  0.34028559987E+03  0.11129322183E+03  0.12833591230E+04  0.13411125092E+04  0.15294330000E+03 0.  0.
<mgrwt>
<rscale>  0 0.63639364E+03</rscale>
<asrwt>0</asrwt>
<pdfrwt beam="1">  1        2 0.29054423E+00 0.74966037E+03</pdfrwt>
<pdfrwt beam="2">  1       -2 0.41949010E-01 0.74966037E+03</pdfrwt>
<totfact> 0.42692011E+01</totfact>
</mgrwt>
</event>
<event>
 4    5  0.8511149E-008  0.6590668E+03  0.7818608E-02  0.1025134E+00
          2   -1    0    0  501    0  0.00000000000E+00  0.00000000000E+00  0.21782620139E+04  0.21782620139E+04  0.25500000000E-02 0. -1.
         -2   -1    0    0    0  501 -0.00000000000E+00 -0.00000000000E+00 -0.25108546447E+03  0.25108546448E+03  0.25500000000E-02 0.  1.
    8880023    1    1    2    0    0 -0.90272007597E+01  0.21848889855E+02  0.19085799685E+03  0.68614564457E+03  0.65864270000E+03 0.  1.
    8880022    1    1    2    0    0  0.90272007597E+01 -0.21848889855E+02  0.17363185525E+04  0.17432018338E+04  0.15294330000E+03 0.  0.
<mgrwt>
<rscale>  0 0.45878736E+03</rscale>
<asrwt>0</asrwt>
<pdfrwt beam="1">  1        2 0.33511723E+00 0.65906682E+03</pdfrwt>
<pdfrwt beam="2">  1       -2 0.38628534E-01 0.65906682E+03</pdfrwt>
<totfact> 0.35271343E+01</totfact>
</mgrwt>
</event>
<event>
 4    5  0.8511149E-008  0.7378796E+03  0.7818608E-02  0.9866167E-01
          2   -1    0    0  501    0  0.00000000000E+00  0.00000000000E+00  0.17907519856E+04  0.17907519856E+04  0.25500000000E-02 0. -1.
         -2   -1    0    0    0  501 -0.00000000000E+00 -0.00000000000E+00 -0.58948716177E+03  0.58948716178E+03  0.25500000000E-02 0.  1.
    8880023    1    1    2    0    0 -0.32866001564E+03 -0.51367563346E+02 -0.32818944175E+03  0.80757324645E+03  0.65864270000E+03 0.  1.
    8880022    1    1    2    0    0  0.32866001564E+03  0.51367563346E+02  0.15294542656E+04  0.15726659009E+04  0.15294330000E+03 0.  0.
<mgrwt>
<rscale>  0 0.61929350E+03</rscale>
<asrwt>0</asrwt>
<pdfrwt beam="1">  1        2 0.27550031E+00 0.73787956E+03</pdfrwt>
<pdfrwt beam="2">  1       -2 0.90690333E-01 0.73787956E+03</pdfrwt>
<totfact> 0.93601749E+00</totfact>
</mgrwt>
</event>
<event>
 4    5  0.8511149E-008  0.8114027E+03  0.7818608E-02  0.9686663E-01
          2   -1    0    0  501    0  0.00000000000E+00  0.00000000000E+00  0.97058355753E+03  0.97058355753E+03  0.25500000000E-02 0. -1.
         -2   -1    0    0    0  501 -0.00000000000E+00 -0.00000000000E+00 -0.10637766805E+04  0.10637766806E+04  0.25500000000E-02 0.  1.
    8880023    1    1    2    0    0  0.42271622389E+03  0.21418461435E+03 -0.81983328304E+03  0.11534733951E+04  0.65864270000E+03 0.  0.
    8880022    1    1    2    0    0 -0.42271622389E+03 -0.21418461435E+03  0.72664016002E+03  0.88088684298E+03  0.15294330000E+03 0.  0.
<mgrwt>
<rscale>  0 0.71816474E+03</rscale>
<asrwt>0</asrwt>
<pdfrwt beam="1">  1        2 0.14932055E+00 0.81140265E+03</pdfrwt>
<pdfrwt beam="2">  1       -2 0.16365795E+00 0.81140265E+03</pdfrwt>
<totfact> 0.63031829E+00</totfact>
</mgrwt>
</event>
<event>
 4    5  0.8511149E-008  0.8691184E+03  0.7818608E-02  0.9577545E-01
          2   -1    0    0  501    0  0.00000000000E+00  0.00000000000E+00  0.14874429652E+04  0.14874429652E+04  0.25500000000E-02 0. -1.
         -2   -1    0    0    0  501 -0.00000000000E+00 -0.00000000000E+00 -0.56012334597E+03  0.56012334598E+03  0.25500000000E-02 0.  1.
    8880023    1    1    2    0    0 -0.25125956034E+03  0.50835541144E+03 -0.89085453386E+02  0.87367214404E+03  0.65864270000E+03 0.  1.
    8880022    1    1    2    0    0  0.25125956034E+03 -0.50835541144E+03  0.10164050726E+04  0.11738941672E+04  0.15294330000E+03 0.  0.
<mgrwt>
<rscale>  0 0.78800405E+03</rscale>
<asrwt>0</asrwt>
<pdfrwt beam="1">  1        2 0.22883738E+00 0.86911840E+03</pdfrwt>
<pdfrwt beam="2">  1       -2 0.86172822E-01 0.86911840E+03</pdfrwt>
<totfact> 0.15215636E+01</totfact>
</mgrwt>
</event>
<event>
 4    5  0.8511149E-008  0.9022573E+03  0.7818608E-02  0.9522418E-01
          2   -1    0    0  501    0  0.00000000000E+00  0.00000000000E+00  0.16778327563E+04  0.16778327563E+04  0.25500000000E-02 0. -1.
         -2   -1    0    0    0  501 -0.00000000000E+00 -0.00000000000E+00 -0.10434304023E+04  0.10434304024E+04  0.25500000000E-02 0.  1.
    8880023    1    1    2    0    0  0.23134777661E+03 -0.57160851159E+03 -0.76594604600E+03  0.11835293135E+04  0.65864270000E+03 0.  1.
    8880022    1    1    2    0    0 -0.23134777661E+03  0.57160851159E+03  0.14003484000E+04  0.15377338452E+04  0.15294330000E+03 0.  0.
<mgrwt>
<rscale>  0 0.82651054E+03</rscale>
<asrwt>0</asrwt>
<pdfrwt beam="1">  1        2 0.25812811E+00 0.90225733E+03</pdfrwt>
<pdfrwt beam="2">  1       -2 0.16052776E+00 0.90225733E+03</pdfrwt>
<totfact> 0.25365418E+00</totfact>
</mgrwt>
</event>
<event>
 4    5  0.8511149E-008  0.7289032E+03  0.7818608E-02  0.9893537E-01
          2   -1    0    0  501    0  0.00000000000E+00  0.00000000000E+00  0.26264270088E+04  0.26264270088E+04  0.25500000000E-02 0. -1.
         -2   -1    0    0    0  501 -0.00000000000E+00 -0.00000000000E+00 -0.36786211282E+03  0.36786211283E+03  0.25500000000E-02 0.  1.
    8880023    1    1    2    0    0  0.26721196778E+03 -0.16151599008E+03  0.20304146935E+02  0.72918592651E+03  0.65864270000E+03 0.  1.
    8880022    1    1    2    0    0 -0.26721196778E+03  0.16151599008E+03  0.22382607490E+04  0.22651031951E+04  0.15294330000E+03 0.  0.
<mgrwt>
<rscale>  0 0.60575538E+03</rscale>
<asrwt>0</asrwt>
<pdfrwt beam="1">  1        2 0.40406569E+00 0.72890319E+03</pdfrwt>
<pdfrwt beam="2">  1       -2 0.56594172E-01 0.72890319E+03</pdfrwt>
<totfact> 0.90839107E+00</totfact>
</mgrwt>
</event>
<event>
 4    5  0.8511149E-008  0.7313894E+03  0.7818608E-02  0.9885778E-01
          2   -1    0    0  501    0  0.00000000000E+00  0.00000000000E+00  0.14594877214E+04  0.14594877214E+04  0.25500000000E-02 0. -1.
         -2   -1    0    0    0  501 -0.00000000000E+00 -0.00000000000E+00 -0.45986029775E+03  0.45986029775E+03  0.25500000000E-02 0.  1.
    8880023    1    1    2    0    0 -0.18045307352E+03 -0.26183388408E+03 -0.12381309226E+03  0.74179524309E+03  0.65864270000E+03 0.  0.
    8880022    1    1    2    0    0  0.18045307352E+03  0.26183388408E+03  0.11234405159E+04  0.11775527760E+04  0.15294330000E+03 0.  0.
<mgrwt>
<rscale>  0 0.60955499E+03</rscale>
<asrwt>0</asrwt>
<pdfrwt beam="1">  1        2 0.22453657E+00 0.73138943E+03</pdfrwt>
<pdfrwt beam="2">  1       -2 0.70747739E-01 0.73138943E+03</pdfrwt>
<totfact> 0.24917895E+01</totfact>
</mgrwt>
</event>
<event>
 4    5  0.8511149E-008  0.7774018E+03  0.7818608E-02  0.9761976E-01
          2   -1    0    0  501    0  0.00000000000E+00  0.00000000000E+00  0.27638112621E+03  0.27638112622E+03  0.25500000000E-02 0. -1.
         -2   -1    0    0    0  501 -0.00000000000E+00 -0.00000000000E+00 -0.21929208670E+04  0.21929208670E+04  0.25500000000E-02 0.  1.
    8880023    1    1    2    0    0 -0.24233001746E+03  0.33439422005E+03 -0.18716021143E+04  0.20266346519E+04  0.65864270000E+03 0.  1.
    8880022    1    1    2    0    0  0.24233001746E+03 -0.33439422005E+03 -0.44937626473E+02  0.44266734130E+03  0.15294330000E+03 0.  0.
<mgrwt>
<rscale>  0 0.67443666E+03</rscale>
<asrwt>0</asrwt>
<pdfrwt beam="1">  1        2 0.42520175E-01 0.77740179E+03</pdfrwt>
<pdfrwt beam="2">  1       -2 0.33737243E+00 0.77740179E+03</pdfrwt>
<totfact> 0.23468012E+00</totfact>
</mgrwt>
</event>
<event>
 4    5  0.8511149E-008  0.1127327E+04  0.7818608E-02  0.9231224E-01
         -2   -1    0    0    0  501 -0.00000000000E+00  0.00000000000E+00  0.60720627929E+03  0.60720627929E+03  0.25500000000E-02 0.  1.
          2   -1    0    0  501    0  0.00000000000E+00 -0.00000000000E+00 -0.18463248756E+04  0.18463248757E+04  0.25500000000E-02 0. -1.
    8880023    1    1    2    0    0 -0.83196469604E+03 -0.38064462750E+03 -0.38124933043E+03  0.11900490940E+04  0.65864270000E+03 0.  0.
    8880022    1    1    2    0    0  0.83196469604E+03  0.38064462750E+03 -0.85786926593E+03  0.12634820609E+04  0.15294330000E+03 0.  0.
<mgrwt>
<rscale>  0 0.10736875E+04</rscale>
<asrwt>0</asrwt>
<pdfrwt beam="1">  1        2 0.28404998E+00 0.11273268E+04</pdfrwt>
<pdfrwt beam="2">  1       -2 0.93416352E-01 0.11273268E+04</pdfrwt>
<totfact> 0.77720730E+00</totfact>
</mgrwt>
</event>
<event>
 4    5  0.8511149E-008  0.8013804E+03  0.7818608E-02  0.9707819E-01
         -2   -1    0    0    0  501 -0.00000000000E+00  0.00000000000E+00  0.29013443549E+03  0.29013443550E+03  0.25500000000E-02 0.  1.
          2   -1    0    0  501    0  0.00000000000E+00 -0.00000000000E+00 -0.18905871188E+04  0.18905871188E+04  0.25500000000E-02 0. -1.
    8880023    1    1    2    0    0  0.33956311738E+03  0.30511842809E+03 -0.41763777282E+03  0.90367686780E+03  0.65864270000E+03 0.  0.
    8880022    1    1    2    0    0 -0.33956311738E+03 -0.30511842809E+03 -0.11828149104E+04  0.12770446865E+04  0.15294330000E+03 0.  0.
<mgrwt>
<rscale>  0 0.70553141E+03</rscale>
<asrwt>0</asrwt>
<pdfrwt beam="1">  1        2 0.29085955E+00 0.80138042E+03</pdfrwt>
<pdfrwt beam="2">  1       -2 0.44636068E-01 0.80138042E+03</pdfrwt>
<totfact> 0.37429229E+01</totfact>
</mgrwt>
</event>
<event>
 4    5  0.8511149E-008  0.9939041E+03  0.7818608E-02  0.9389577E-01
          2   -1    0    0  501    0  0.00000000000E+00  0.00000000000E+00  0.37571535414E+04  0.37571535414E+04  0.25500000000E-02 0. -1.
         -2   -1    0    0    0  501 -0.00000000000E+00 -0.00000000000E+00 -0.46882984309E+03  0.46882984309E+03  0.25500000000E-02 0.  1.
    8880023    1    1    2    0    0 -0.71034633116E+03 -0.22235846622E+03  0.16000996428E+03  0.10067018390E+04  0.65864270000E+03 0.  0.
    8880022    1    1    2    0    0  0.71034633116E+03  0.22235846622E+03  0.31283137341E+04  0.32192815456E+04  0.15294330000E+03 0.  0.
<mgrwt>
<rscale>  0 0.92938464E+03</rscale>
<asrwt>0</asrwt>
<pdfrwt beam="1">  1        2 0.57802360E+00 0.99390412E+03</pdfrwt>
<pdfrwt beam="2">  1       -2 0.72127671E-01 0.99390412E+03</pdfrwt>
<totfact> 0.96315385E-01</totfact>
</mgrwt>
</event>
<event>
 4    5  0.8511149E-008  0.1649870E+04  0.7818608E-02  0.8810471E-01
          2   -1    0    0  501    0  0.00000000000E+00  0.00000000000E+00  0.19170561536E+04  0.19170561536E+04  0.25500000000E-02 0. -1.
         -2   -1    0    0    0  501 -0.00000000000E+00 -0.00000000000E+00 -0.17633401942E+04  0.17633401942E+04  0.25500000000E-02 0.  1.
    8880023    1    1    2    0    0 -0.13053090986E+04 -0.76447851114E+03 -0.85257674959E+03  0.18571366554E+04  0.65864270000E+03 0.  0.
    8880022    1    1    2    0    0  0.13053090986E+04  0.76447851114E+03  0.10062927089E+04  0.18232596924E+04  0.15294330000E+03 0.  0.
<mgrwt>
<rscale>  0 0.16165066E+04</rscale>
<asrwt>0</asrwt>
<pdfrwt beam="1">  1        2 0.29493171E+00 0.16498695E+04</pdfrwt>
<pdfrwt beam="2">  1       -2 0.27128311E+00 0.16498695E+04</pdfrwt>
<totfact> 0.32641268E-01</totfact>
</mgrwt>
</event>
<event>
 4    5  0.8511149E-008  0.7555970E+03  0.7818608E-02  0.9816643E-01
          2   -1    0    0  501    0  0.00000000000E+00  0.00000000000E+00  0.19193922473E+04  0.19193922473E+04  0.25500000000E-02 0. -1.
         -2   -1    0    0    0  501 -0.00000000000E+00 -0.00000000000E+00 -0.37089707746E+03  0.37089707747E+03  0.25500000000E-02 0.  1.
    8880023    1    1    2    0    0  0.15697108525E+03 -0.33537552701E+03  0.70410179603E+02  0.75887051951E+03  0.65864270000E+03 0.  1.
    8880022    1    1    2    0    0 -0.15697108525E+03  0.33537552701E+03  0.14780849902E+04  0.15314188052E+04  0.15294330000E+03 0.  0.
<mgrwt>
<rscale>  0 0.64477008E+03</rscale>
<asrwt>0</asrwt>
<pdfrwt beam="1">  1        2 0.29529111E+00 0.75559703E+03</pdfrwt>
<pdfrwt beam="2">  1       -2 0.57061089E-01 0.75559703E+03</pdfrwt>
<totfact> 0.21992014E+01</totfact>
</mgrwt>
</event>
<event>
 4    5  0.8511149E-008  0.9393110E+03  0.7818608E-02  0.9465663E-01
          2   -1    0    0  501    0  0.00000000000E+00  0.00000000000E+00  0.14913270850E+04  0.14913270850E+04  0.25500000000E-02 0. -1.
         -2   -1    0    0    0  501 -0.00000000000E+00 -0.00000000000E+00 -0.54788966747E+03  0.54788966748E+03  0.25500000000E-02 0.  1.
    8880023    1    1    2    0    0 -0.59694935470E+03 -0.30355634505E+03  0.89929329740E+02  0.94360610284E+03  0.65864270000E+03 0.  1.
    8880022    1    1    2    0    0  0.59694935470E+03  0.30355634505E+03  0.85350808781E+03  0.10956106497E+04  0.15294330000E+03 0. -1.
<mgrwt>
<rscale>  0 0.86863390E+03</rscale>
<asrwt>0</asrwt>
<pdfrwt beam="1">  1        2 0.22943493E+00 0.93931102E+03</pdfrwt>
<pdfrwt beam="2">  1       -2 0.84290720E-01 0.93931102E+03</pdfrwt>
<totfact> 0.15807323E+01</totfact>
</mgrwt>
</event>
<event>
 4    5  0.8511149E-008  0.6997366E+03  0.7818608E-02  0.9998296E-01
         -2   -1    0    0    0  501 -0.00000000000E+00  0.00000000000E+00  0.21710050950E+03  0.21710050951E+03  0.25500000000E-02 0.  1.
          2   -1    0    0  501    0  0.00000000000E+00 -0.00000000000E+00 -0.13149136465E+04  0.13149136465E+04  0.25500000000E-02 0. -1.
    8880023    1    1    2    0    0 -0.28770697138E+02  0.23450648274E+03 -0.46699623071E+03  0.84125901435E+03  0.65864270000E+03 0.  0.
    8880022    1    1    2    0    0  0.28770697138E+02 -0.23450648274E+03 -0.63081690631E+03  0.69075514168E+03  0.15294330000E+03 0.  0.
<mgrwt>
<rscale>  0 0.55725025E+03</rscale>
<asrwt>0</asrwt>
<pdfrwt beam="1">  1        2 0.20229440E+00 0.69973656E+03</pdfrwt>
<pdfrwt beam="2">  1       -2 0.33400079E-01 0.69973656E+03</pdfrwt>
<totfact> 0.13823010E+02</totfact>
</mgrwt>
</event>
<event>
 4    5  0.8511149E-008  0.7580111E+03  0.7818608E-02  0.9810284E-01
          2   -1    0    0  501    0  0.00000000000E+00  0.00000000000E+00  0.10036942084E+04  0.10036942084E+04  0.25500000000E-02 0. -1.
         -2   -1    0    0    0  501 -0.00000000000E+00 -0.00000000000E+00 -0.38053433421E+03  0.38053433422E+03  0.25500000000E-02 0.  1.
    8880023    1    1    2    0    0 -0.34032858981E+03 -0.15794652320E+03  0.17093239055E+03  0.77704487749E+03  0.65864270000E+03 0.  0.
    8880022    1    1    2    0    0  0.34032858981E+03  0.15794652320E+03  0.45222748365E+03  0.60718366515E+03  0.15294330000E+03 0.  0.
<mgrwt>
<rscale>  0 0.64813558E+03</rscale>
<asrwt>0</asrwt>
<pdfrwt beam="1">  1        2 0.15441449E+00 0.75801112E+03</pdfrwt>
<pdfrwt beam="2">  1       -2 0.58543744E-01 0.75801112E+03</pdfrwt>
<totfact> 0.69301563E+01</totfact>
</mgrwt>
</event>
<event>
 4    5  0.8511149E-008  0.1435860E+04  0.7818608E-02  0.8956308E-01
         -2   -1    0    0    0  501 -0.00000000000E+00  0.00000000000E+00  0.76574001172E+03  0.76574001173E+03  0.25500000000E-02 0.  1.
          2   -1    0    0  501    0  0.00000000000E+00 -0.00000000000E+00 -0.47191686309E+04  0.47191686309E+04  0.25500000000E-02 0. -1.
    8880023    1    1    2    0    0 -0.20149677784E+03  0.12598741539E+04 -0.11888064931E+03  0.14407729350E+04  0.65864270000E+03 0.  0.
    8880022    1    1    2    0    0  0.20149677784E+03 -0.12598741539E+04 -0.38345479699E+04  0.40441357076E+04  0.15294330000E+03 0.  0.
<mgrwt>
<rscale>  0 0.13965662E+04</rscale>
<asrwt>0</asrwt>
<pdfrwt beam="1">  1        2 0.72602593E+00 0.14358600E+04</pdfrwt>
<pdfrwt beam="2">  1       -2 0.11780616E+00 0.14358600E+04</pdfrwt>
<totfact> 0.40377251E-02</totfact>
</mgrwt>
</event>
<event>
 4    5  0.8511149E-008  0.8398104E+03  0.7818608E-02  0.9630538E-01
          2   -1    0    0  501    0  0.00000000000E+00  0.00000000000E+00  0.37378697390E+03  0.37378697391E+03  0.25500000000E-02 0. -1.
         -2   -1    0    0    0  501 -0.00000000000E+00 -0.00000000000E+00 -0.21831593444E+04  0.21831593444E+04  0.25500000000E-02 0.  1.
    8880023    1    1    2    0    0 -0.38207339705E+03  0.35424739408E+03 -0.18300443623E+04  0.20135401340E+04  0.65864270000E+03 0.  1.
    8880022    1    1    2    0    0  0.38207339705E+03 -0.35424739408E+03  0.20671991753E+02  0.54340618436E+03  0.15294330000E+03 0.  0.
<mgrwt>
<rscale>  0 0.75307540E+03</rscale>
<asrwt>0</asrwt>
<pdfrwt beam="1">  1        2 0.57505690E-01 0.83981040E+03</pdfrwt>
<pdfrwt beam="2">  1       -2 0.33587066E+00 0.83981040E+03</pdfrwt>
<totfact> 0.16958325E+00</totfact>
</mgrwt>
</event>
<event>
 4    5  0.8511149E-008  0.9305941E+03  0.7818608E-02  0.9478603E-01
          2   -1    0    0  501    0  0.00000000000E+00  0.00000000000E+00  0.35359552340E+03  0.35359552341E+03  0.25500000000E-02 0. -1.
         -2   -1    0    0    0  501 -0.00000000000E+00 -0.00000000000E+00 -0.19288045937E+04  0.19288045937E+04  0.25500000000E-02 0.  1.
    8880023    1    1    2    0    0 -0.64582711297E+01 -0.65738374559E+03 -0.11706646912E+04  0.14954802318E+04  0.65864270000E+03 0.  1.
    8880022    1    1    2    0    0  0.64582711297E+01  0.65738374559E+03 -0.40454437912E+03  0.78691988532E+03  0.15294330000E+03 0. -1.
<mgrwt>
<rscale>  0 0.85879912E+03</rscale>
<asrwt>0</asrwt>
<pdfrwt beam="1">  1        2 0.54399313E-01 0.93059406E+03</pdfrwt>
<pdfrwt beam="2">  1       -2 0.29673916E+00 0.93059406E+03</pdfrwt>
<totfact> 0.30889297E+00</totfact>
</mgrwt>
</event>
<event>
 4    5  0.8511149E-008  0.1065732E+04  0.7818608E-02  0.9300204E-01
         -2   -1    0    0    0  501 -0.00000000000E+00  0.00000000000E+00  0.11889848484E+04  0.11889848484E+04  0.25500000000E-02 0.  1.
          2   -1    0    0  501    0  0.00000000000E+00 -0.00000000000E+00 -0.15583290777E+04  0.15583290777E+04  0.25500000000E-02 0. -1.
    8880023    1    1    2    0    0  0.76082458636E+03  0.35088599791E+03  0.77722035149E+03  0.13190362830E+04  0.65864270000E+03 0.  0.
    8880022    1    1    2    0    0 -0.76082458636E+03 -0.35088599791E+03 -0.11465645809E+04  0.14282776431E+04  0.15294330000E+03 0.  0.
<mgrwt>
<rscale>  0 0.10076409E+04</rscale>
<asrwt>0</asrwt>
<pdfrwt beam="1">  1        2 0.23974294E+00 0.10657323E+04</pdfrwt>
<pdfrwt beam="2">  1       -2 0.18292075E+00 0.10657323E+04</pdfrwt>
<totfact> 0.20071220E+00</totfact>
</mgrwt>
</event>
<event>
 4    5  0.8511149E-008  0.8083956E+03  0.7818608E-02  0.9692928E-01
         -2   -1    0    0    0  501 -0.00000000000E+00  0.00000000000E+00  0.19123637870E+03  0.19123637872E+03  0.25500000000E-02 0.  1.
          2   -1    0    0  501    0  0.00000000000E+00 -0.00000000000E+00 -0.34660774066E+04  0.34660774066E+04  0.25500000000E-02 0. -1.
    8880023    1    1    2    0    0  0.45483514205E+03  0.11321795648E+03 -0.81269399833E+03  0.11462875090E+04  0.65864270000E+03 0.  1.
    8880022    1    1    2    0    0 -0.45483514205E+03 -0.11321795648E+03 -0.24621470296E+04  0.25110262763E+04  0.15294330000E+03 0.  0.
<mgrwt>
<rscale>  0 0.71439390E+03</rscale>
<asrwt>0</asrwt>
<pdfrwt beam="1">  1        2 0.53324263E+00 0.80839564E+03</pdfrwt>
<pdfrwt beam="2">  1       -2 0.29420984E-01 0.80839564E+03</pdfrwt>
<totfact> 0.97396369E+00</totfact>
</mgrwt>
</event>
<event>
 4    5  0.8511149E-008  0.7119839E+03  0.7818608E-02  0.9950706E-01
          2   -1    0    0  501    0  0.00000000000E+00  0.00000000000E+00  0.23103255784E+04  0.23103255784E+04  0.25500000000E-02 0. -1.
         -2   -1    0    0    0  501 -0.00000000000E+00 -0.00000000000E+00 -0.56744090188E+03  0.56744090189E+03  0.25500000000E-02 0.  1.
    8880023    1    1    2    0    0  0.26288604199E+03 -0.63260042640E+02 -0.32786344061E+03  0.78384663425E+03  0.65864270000E+03 0.  1.
    8880022    1    1    2    0    0 -0.26288604199E+03  0.63260042640E+02  0.20707481172E+04  0.20939198461E+04  0.15294330000E+03 0.  0.
<mgrwt>
<rscale>  0 0.57865538E+03</rscale>
<asrwt>0</asrwt>
<pdfrwt beam="1">  1        2 0.35543470E+00 0.71198393E+03</pdfrwt>
<pdfrwt beam="2">  1       -2 0.87298601E-01 0.71198393E+03</pdfrwt>
<totfact> 0.53303351E+00</totfact>
</mgrwt>
</event>
<event>
 4    5  0.8511149E-008  0.1123817E+04  0.7818608E-02  0.9234991E-01
          2   -1    0    0  501    0  0.00000000000E+00  0.00000000000E+00  0.14319261468E+04  0.14319261468E+04  0.25500000000E-02 0. -1.
         -2   -1    0    0    0  501 -0.00000000000E+00 -0.00000000000E+00 -0.78445213404E+03  0.78445213405E+03  0.25500000000E-02 0.  1.
    8880023    1    1    2    0    0  0.84727316691E+03 -0.33359020279E+03  0.63945978181E+03  0.12930093819E+04  0.65864270000E+03 0.  0.
    8880022    1    1    2    0    0 -0.84727316691E+03  0.33359020279E+03  0.80142309757E+01  0.92336889902E+03  0.15294330000E+03 0.  0.
<mgrwt>
<rscale>  0 0.10699449E+04</rscale>
<asrwt>0</asrwt>
<pdfrwt beam="1">  1        2 0.22029633E+00 0.11238169E+04</pdfrwt>
<pdfrwt beam="2">  1       -2 0.12068494E+00 0.11238169E+04</pdfrwt>
<totfact> 0.71306921E+00</totfact>
</mgrwt>
</event>
<event>
 4    5  0.8511149E-008  0.9430138E+03  0.7818608E-02  0.9460238E-01
         -2   -1    0    0    0  501 -0.00000000000E+00  0.00000000000E+00  0.40708573252E+03  0.40708573253E+03  0.25500000000E-02 0.  1.
          2   -1    0    0  501    0  0.00000000000E+00 -0.00000000000E+00 -0.29259912329E+04  0.29259912329E+04  0.25500000000E-02 0. -1.
    8880023    1    1    2    0    0  0.82848385303E+02 -0.66977680767E+03 -0.27116291468E+03  0.98122594727E+03  0.65864270000E+03 0.  1.
    8880022    1    1    2    0    0 -0.82848385303E+02  0.66977680767E+03 -0.22477425857E+04  0.23518510181E+04  0.15294330000E+03 0.  0.
<mgrwt>
<rscale>  0 0.87279894E+03</rscale>
<asrwt>0</asrwt>
<pdfrwt beam="1">  1        2 0.45015248E+00 0.94301380E+03</pdfrwt>
<pdfrwt beam="2">  1       -2 0.62628576E-01 0.94301380E+03</pdfrwt>
<totfact> 0.47118572E+00</totfact>
</mgrwt>
</event>
<event>
 4    5  0.8511149E-008  0.7175708E+03  0.7818608E-02  0.9930893E-01
          2   -1    0    0  501    0  0.00000000000E+00  0.00000000000E+00  0.54842153033E+03  0.54842153034E+03  0.25500000000E-02 0. -1.
         -2   -1    0    0    0  501 -0.00000000000E+00 -0.00000000000E+00 -0.67652443031E+03  0.67652443032E+03  0.25500000000E-02 0.  1.
    8880023    1    1    2    0    0  0.25537408210E+03  0.12602257367E+03 -0.38291060629E+03  0.81334393067E+03  0.65864270000E+03 0.  0.
    8880022    1    1    2    0    0 -0.25537408210E+03 -0.12602257367E+03  0.25480770631E+03  0.41160202999E+03  0.15294330000E+03 0.  0.
<mgrwt>
<rscale>  0 0.58787165E+03</rscale>
<asrwt>0</asrwt>
<pdfrwt beam="1">  1        2 0.84372543E-01 0.71757078E+03</pdfrwt>
<pdfrwt beam="2">  1       -2 0.10408068E+00 0.71757078E+03</pdfrwt>
<totfact> 0.42076878E+01</totfact>
</mgrwt>
</event>
<event>
 4    5  0.8511149E-008  0.6699748E+03  0.7818608E-02  0.1015681E+00
         -2   -1    0    0    0  501 -0.00000000000E+00  0.00000000000E+00  0.29840006973E+03  0.29840006974E+03  0.25500000000E-02 0.  1.
          2   -1    0    0  501    0  0.00000000000E+00 -0.00000000000E+00 -0.24385933982E+04  0.24385933982E+04  0.25500000000E-02 0. -1.
    8880023    1    1    2    0    0  0.12076099916E+03  0.21745109183E+02 -0.88318481580E+02  0.67577098868E+03  0.65864270000E+03 0.  1.
    8880022    1    1    2    0    0 -0.12076099916E+03 -0.21745109183E+02 -0.20518748469E+04  0.20612224792E+04  0.15294330000E+03 0.  0.
<mgrwt>
<rscale>  0 0.49277957E+03</rscale>
<asrwt>0</asrwt>
<pdfrwt beam="1">  1        2 0.37516820E+00 0.66997483E+03</pdfrwt>
<pdfrwt beam="2">  1       -2 0.45907705E-01 0.66997483E+03</pdfrwt>
<totfact> 0.17990410E+01</totfact>
</mgrwt>
</event>
<event>
 4    5  0.8511149E-008  0.9207668E+03  0.7818608E-02  0.9493484E-01
         -2   -1    0    0    0  501 -0.00000000000E+00  0.00000000000E+00  0.23279267486E+04  0.23279267486E+04  0.25500000000E-02 0.  1.
          2   -1    0    0  501    0  0.00000000000E+00 -0.00000000000E+00 -0.78989701841E+03  0.78989701842E+03  0.25500000000E-02 0. -1.
    8880023    1    1    2    0    0  0.63502860522E+03 -0.10363422772E+03  0.20722835243E+04  0.22676354632E+04  0.65864270000E+03 0.  1.
    8880022    1    1    2    0    0 -0.63502860522E+03  0.10363422772E+03 -0.53425379404E+03  0.85018830389E+03  0.15294330000E+03 0.  0.
<mgrwt>
<rscale>  0 0.84765912E+03</rscale>
<asrwt>0</asrwt>
<pdfrwt beam="1">  1        2 0.12152262E+00 0.92076685E+03</pdfrwt>
<pdfrwt beam="2">  1       -2 0.35814258E+00 0.92076685E+03</pdfrwt>
<totfact> 0.49663881E-01</totfact>
</mgrwt>
</event>
<event>
 4    5  0.8511149E-008  0.1149240E+04  0.7818608E-02  0.9208117E-01
         -2   -1    0    0    0  501 -0.00000000000E+00  0.00000000000E+00  0.62993367237E+03  0.62993367238E+03  0.25500000000E-02 0.  1.
          2   -1    0    0  501    0  0.00000000000E+00 -0.00000000000E+00 -0.20030581965E+04  0.20030581965E+04  0.25500000000E-02 0. -1.
    8880023    1    1    2    0    0  0.17902725995E+03 -0.92460398015E+03 -0.12031994025E+04  0.16638636628E+04  0.65864270000E+03 0.  0.
    8880022    1    1    2    0    0 -0.17902725995E+03  0.92460398015E+03 -0.16992512166E+03  0.96912820612E+03  0.15294330000E+03 0.  0.
<mgrwt>
<rscale>  0 0.10970043E+04</rscale>
<asrwt>0</asrwt>
<pdfrwt beam="1">  1        2 0.30816280E+00 0.11492404E+04</pdfrwt>
<pdfrwt beam="2">  1       -2 0.96912873E-01 0.11492404E+04</pdfrwt>
<totfact> 0.58270428E+00</totfact>
</mgrwt>
</event>
<event>
 4    5  0.1389540E-007  0.1080586E+04  0.7818608E-02  0.9282985E-01
          2   -1    0    0  501    0  0.00000000000E+00  0.00000000000E+00  0.29205457637E+04  0.29205457637E+04  0.25500000000E-02 0. -1.
         -2   -1    0    0    0  501 -0.00000000000E+00 -0.00000000000E+00 -0.17988944214E+04  0.17988944214E+04  0.25500000000E-02 0.  1.
    8880023    1    1    2    0    0 -0.57833223064E+03 -0.63197105195E+03 -0.15613710821E+04  0.18988273860E+04  0.65864270000E+03 0.  1.
    8880022    1    1    2    0    0  0.57833223064E+03  0.63197105195E+03  0.26830224244E+04  0.28206127991E+04  0.15294330000E+03 0.  0.
<mgrwt>
<rscale>  0 0.10236445E+04</rscale>
<asrwt>0</asrwt>
<pdfrwt beam="1">  1        2 0.44931473E+00 0.10805859E+04</pdfrwt>
<pdfrwt beam="2">  1       -2 0.27675299E+00 0.10805859E+04</pdfrwt>
<totfact> 0.86633547E-02</totfact>
</mgrwt>
</event>
<event>
 4    5  0.9772403E-008  0.7835686E+03  0.7818608E-02  0.9747520E-01
          2   -1    0    0  501    0  0.00000000000E+00  0.00000000000E+00  0.18211319284E+04  0.18211319284E+04  0.25500000000E-02 0. -1.
         -2   -1    0    0    0  501 -0.00000000000E+00 -0.00000000000E+00 -0.16001083936E+04  0.16001083936E+04  0.25500000000E-02 0.  1.
    8880023    1    1    2    0    0 -0.39442718253E+03  0.15683339958E+03 -0.14728479894E+04  0.16683107995E+04  0.65864270000E+03 0.  1.
    8880022    1    1    2    0    0  0.39442718253E+03 -0.15683339958E+03  0.16938715242E+04  0.17529295225E+04  0.15294330000E+03 0.  0.
<mgrwt>
<rscale>  0 0.68256596E+03</rscale>
<asrwt>0</asrwt>
<pdfrwt beam="1">  1        2 0.28017414E+00 0.78356858E+03</pdfrwt>
<pdfrwt beam="2">  1       -2 0.24617052E+00 0.78356858E+03</pdfrwt>
<totfact> 0.59324566E-01</totfact>
</mgrwt>
</event>
<event>
 4    5  0.8511149E-008  0.1227922E+04  0.7818608E-02  0.9130447E-01
         -2   -1    0    0    0  501 -0.00000000000E+00  0.00000000000E+00  0.10891372868E+04  0.10891372868E+04  0.25500000000E-02 0.  1.
          2   -1    0    0  501    0  0.00000000000E+00 -0.00000000000E+00 -0.12186101483E+04  0.12186101483E+04  0.25500000000E-02 0. -1.
    8880023    1    1    2    0    0 -0.98389546122E+03 -0.32547018211E+03 -0.25053553849E+03  0.12532196058E+04  0.65864270000E+03 0.  0.
    8880022    1    1    2    0    0  0.98389546122E+03  0.32547018211E+03  0.12106267700E+03  0.10545278293E+04  0.15294330000E+03 0.  0.
<mgrwt>
<rscale>  0 0.11801093E+04</rscale>
<asrwt>0</asrwt>
<pdfrwt beam="1">  1        2 0.18747848E+00 0.12279215E+04</pdfrwt>
<pdfrwt beam="2">  1       -2 0.16755958E+00 0.12279215E+04</pdfrwt>
<totfact> 0.39708952E+00</totfact>
</mgrwt>
</event>
<event>
 4    5  0.8511149E-008  0.1364643E+04  0.7818608E-02  0.9011655E-01
          2   -1    0    0  501    0  0.00000000000E+00  0.00000000000E+00  0.40525036005E+04  0.40525036005E+04  0.25500000000E-02 0. -1.
         -2   -1    0    0    0  501 -0.00000000000E+00 -0.00000000000E+00 -0.13033297302E+04  0.13033297302E+04  0.25500000000E-02 0.  1.
    8880023    1    1    2    0    0 -0.10198666887E+04  0.62314689214E+03 -0.81774447855E+03  0.15908979698E+04  0.65864270000E+03 0.  0.
    8880022    1    1    2    0    0  0.10198666887E+04 -0.62314689214E+03  0.35669183488E+04  0.37649353609E+04  0.15294330000E+03 0.  0.
<mgrwt>
<rscale>  0 0.13228293E+04</rscale>
<asrwt>0</asrwt>
<pdfrwt beam="1">  1        2 0.62346208E+00 0.13646429E+04</pdfrwt>
<pdfrwt beam="2">  1       -2 0.20051227E+00 0.13646429E+04</pdfrwt>
<totfact> 0.39996431E-02</totfact>
</mgrwt>
</event>
<event>
 4    5  0.8511149E-008  0.9108151E+03  0.7818608E-02  0.9508888E-01
         -2   -1    0    0    0  501 -0.00000000000E+00  0.00000000000E+00  0.95609455591E+03  0.95609455591E+03  0.25500000000E-02 0.  1.
          2   -1    0    0  501    0  0.00000000000E+00 -0.00000000000E+00 -0.11309844538E+04  0.11309844538E+04  0.25500000000E-02 0. -1.
    8880023    1    1    2    0    0 -0.59986458970E+03 -0.18956894468E+03  0.58981529654E+03  0.10851111469E+04  0.65864270000E+03 0.  1.
    8880022    1    1    2    0    0  0.59986458970E+03  0.18956894468E+03 -0.76470519442E+03  0.10019678628E+04  0.15294330000E+03 0.  0.
<mgrwt>
<rscale>  0 0.83631688E+03</rscale>
<asrwt>0</asrwt>
<pdfrwt beam="1">  1        2 0.17399761E+00 0.91081508E+03</pdfrwt>
<pdfrwt beam="2">  1       -2 0.14709147E+00 0.91081508E+03</pdfrwt>
<totfact> 0.65833209E+00</totfact>
</mgrwt>
</event>
<event>
 4    5  0.8511149E-008  0.6873407E+03  0.7818608E-02  0.1005443E+00
         -2   -1    0    0    0  501 -0.00000000000E+00  0.00000000000E+00  0.55741811539E+03  0.55741811539E+03  0.25500000000E-02 0.  1.
          2   -1    0    0  501    0  0.00000000000E+00 -0.00000000000E+00 -0.39472951770E+03  0.39472951771E+03  0.25500000000E-02 0. -1.
    8880023    1    1    2    0    0  0.45269626326E+02  0.19125311797E+03  0.93437112899E+02  0.69366259416E+03  0.65864270000E+03 0.  0.
    8880022    1    1    2    0    0 -0.45269626326E+02 -0.19125311797E+03  0.69251484784E+02  0.25848503895E+03  0.15294330000E+03 0. -1.
<mgrwt>
<rscale>  0 0.53326667E+03</rscale>
<asrwt>0</asrwt>
<pdfrwt beam="1">  1        2 0.60727618E-01 0.68734075E+03</pdfrwt>
<pdfrwt beam="2">  1       -2 0.85756633E-01 0.68734075E+03</pdfrwt>
<totfact> 0.96624317E+01</totfact>
</mgrwt>
</event>
<event>
 4    5  0.8511149E-008  0.1073314E+04  0.7818608E-02  0.9291366E-01
         -2   -1    0    0    0  501 -0.00000000000E+00  0.00000000000E+00  0.13266230283E+04  0.13266230283E+04  0.25500000000E-02 0.  1.
          2   -1    0    0  501    0  0.00000000000E+00 -0.00000000000E+00 -0.11622893324E+04  0.11622893324E+04  0.25500000000E-02 0. -1.
    8880023    1    1    2    0    0  0.35861872594E+03  0.76784505752E+03  0.86518759410E+03  0.13786055281E+04  0.65864270000E+03 0.  0.
    8880022    1    1    2    0    0 -0.35861872594E+03 -0.76784505752E+03 -0.70085389817E+03  0.11103068326E+04  0.15294330000E+03 0.  0.
<mgrwt>
<rscale>  0 0.10158166E+04</rscale>
<asrwt>0</asrwt>
<pdfrwt beam="1">  1        2 0.17881374E+00 0.10733143E+04</pdfrwt>
<pdfrwt beam="2">  1       -2 0.20409585E+00 0.10733143E+04</pdfrwt>
<totfact> 0.24559405E+00</totfact>
</mgrwt>
</event>
<event>
 4    5  0.8511149E-008  0.9889386E+03  0.7818608E-02  0.9396175E-01
          2   -1    0    0  501    0  0.00000000000E+00  0.00000000000E+00  0.88114682119E+03  0.88114682120E+03  0.25500000000E-02 0. -1.
         -2   -1    0    0    0  501 -0.00000000000E+00 -0.00000000000E+00 -0.14955782467E+04  0.14955782467E+04  0.25500000000E-02 0.  1.
    8880023    1    1    2    0    0  0.19997921672E+03 -0.71006876638E+03 -0.11009595795E+04  0.14799025448E+04  0.65864270000E+03 0.  0.
    8880022    1    1    2    0    0 -0.19997921672E+03  0.71006876638E+03  0.48652815407E+03  0.89682252304E+03  0.15294330000E+03 0.  0.
<mgrwt>
<rscale>  0 0.92391172E+03</rscale>
<asrwt>0</asrwt>
<pdfrwt beam="1">  1        2 0.13556105E+00 0.98893860E+03</pdfrwt>
<pdfrwt beam="2">  1       -2 0.23008896E+00 0.98893860E+03</pdfrwt>
<totfact> 0.25690475E+00</totfact>
</mgrwt>
</event>
<event>
 4    5  0.8511149E-008  0.1327774E+04  0.7818608E-02  0.9041939E-01
         -2   -1    0    0    0  501 -0.00000000000E+00  0.00000000000E+00  0.18978309495E+04  0.18978309495E+04  0.25500000000E-02 0.  1.
          2   -1    0    0  501    0  0.00000000000E+00 -0.00000000000E+00 -0.12761948923E+04  0.12761948923E+04  0.25500000000E-02 0. -1.
    8880023    1    1    2    0    0  0.14901956941E+03 -0.11432261136E+04  0.12743645377E+04  0.18403771245E+04  0.65864270000E+03 0.  1.
    8880022    1    1    2    0    0 -0.14901956941E+03  0.11432261136E+04 -0.65272848052E+03  0.13336487174E+04  0.15294330000E+03 0.  0.
<mgrwt>
<rscale>  0 0.12845109E+04</rscale>
<asrwt>0</asrwt>
<pdfrwt beam="1">  1        2 0.19633768E+00 0.13277737E+04</pdfrwt>
<pdfrwt beam="2">  1       -2 0.29197399E+00 0.13277737E+04</pdfrwt>
<totfact> 0.58363863E-01</totfact>
</mgrwt>
</event>
<event>
 4    5  0.8511149E-008  0.7511347E+03  0.7818608E-02  0.9828624E-01
          2   -1    0    0  501    0  0.00000000000E+00  0.00000000000E+00  0.19116924950E+04  0.19116924950E+04  0.25500000000E-02 0. -1.
         -2   -1    0    0    0  501 -0.00000000000E+00 -0.00000000000E+00 -0.33508515803E+03  0.33508515804E+03  0.25500000000E-02 0.  1.
    8880023    1    1    2    0    0  0.15391335023E+03 -0.32665555515E+03  0.14832706705E+03  0.76563979532E+03  0.65864270000E+03 0.  0.
    8880022    1    1    2    0    0 -0.15391335023E+03  0.32665555515E+03  0.14282802699E+04  0.14811378577E+04  0.15294330000E+03 0.  0.
<mgrwt>
<rscale>  0 0.63848774E+03</rscale>
<asrwt>0</asrwt>
<pdfrwt beam="1">  1        2 0.29410653E+00 0.75113473E+03</pdfrwt>
<pdfrwt beam="2">  1       -2 0.51551563E-01 0.75113473E+03</pdfrwt>
<totfact> 0.27414257E+01</totfact>
</mgrwt>
</event>
<event>
 4    5  0.8511149E-008  0.9723888E+03  0.7818608E-02  0.9418608E-01
         -2   -1    0    0    0  501 -0.00000000000E+00  0.00000000000E+00  0.47750481779E+03  0.47750481780E+03  0.25500000000E-02 0.  1.
          2   -1    0    0  501    0  0.00000000000E+00 -0.00000000000E+00 -0.25791106874E+04  0.25791106874E+04  0.25500000000E-02 0. -1.
    8880023    1    1    2    0    0  0.43964165919E+03 -0.56430927209E+03 -0.16478299249E+03  0.98625219085E+03  0.65864270000E+03 0.  0.
    8880022    1    1    2    0    0 -0.43964165919E+03  0.56430927209E+03 -0.19368228771E+04  0.20703633144E+04  0.15294330000E+03 0.  0.
<mgrwt>
<rscale>  0 0.90560017E+03</rscale>
<asrwt>0</asrwt>
<pdfrwt beam="1">  1        2 0.39678625E+00 0.97238879E+03</pdfrwt>
<pdfrwt beam="2">  1       -2 0.73462281E-01 0.97238879E+03</pdfrwt>
<totfact> 0.53177846E+00</totfact>
</mgrwt>
</event>
<event>
 4    5  0.8511149E-008  0.9726545E+03  0.7818608E-02  0.9418242E-01
         -2   -1    0    0    0  501 -0.00000000000E+00  0.00000000000E+00  0.36983093882E+04  0.36983093882E+04  0.25500000000E-02 0.  1.
          2   -1    0    0  501    0  0.00000000000E+00 -0.00000000000E+00 -0.75972354985E+03  0.75972354985E+03  0.25500000000E-02 0. -1.
    8880023    1    1    2    0    0 -0.47827652323E+03  0.53244543080E+03  0.34373844236E+04  0.35723477506E+04  0.65864270000E+03 0.  1.
    8880022    1    1    2    0    0  0.47827652323E+03 -0.53244543080E+03 -0.49879858530E+03  0.88568518739E+03  0.15294330000E+03 0.  0.
<mgrwt>
<rscale>  0 0.90589507E+03</rscale>
<asrwt>0</asrwt>
<pdfrwt beam="1">  1        2 0.11688054E+00 0.97265450E+03</pdfrwt>
<pdfrwt beam="2">  1       -2 0.56897068E+00 0.97265450E+03</pdfrwt>
<totfact> 0.25189755E-02</totfact>
</mgrwt>
</event>
<event>
 4    5  0.8511149E-008  0.9657075E+03  0.7818608E-02  0.9427866E-01
          2   -1    0    0  501    0  0.00000000000E+00  0.00000000000E+00  0.75981060265E+03  0.75981060266E+03  0.25500000000E-02 0. -1.
         -2   -1    0    0    0  501 -0.00000000000E+00 -0.00000000000E+00 -0.98270600975E+03  0.98270600976E+03  0.25500000000E-02 0.  1.
    8880023    1    1    2    0    0  0.25128279595E+03 -0.66002856873E+03 -0.31100060348E+03  0.10145503126E+04  0.65864270000E+03 0.  1.
    8880022    1    1    2    0    0 -0.25128279595E+03  0.66002856873E+03  0.88105196376E+02  0.72796629986E+03  0.15294330000E+03 0.  0.
<mgrwt>
<rscale>  0 0.89817495E+03</rscale>
<asrwt>0</asrwt>
<pdfrwt beam="1">  1        2 0.11689394E+00 0.96570749E+03</pdfrwt>
<pdfrwt beam="2">  1       -2 0.15118554E+00 0.96570749E+03</pdfrwt>
<totfact> 0.10764488E+01</totfact>
</mgrwt>
</event>
<event>
 4    5  0.8511149E-008  0.1099727E+04  0.7818608E-02  0.9261360E-01
         -2   -1    0    0    0  501 -0.00000000000E+00  0.00000000000E+00  0.85180173554E+03  0.85180173555E+03  0.25500000000E-02 0.  1.
          2   -1    0    0  501    0  0.00000000000E+00 -0.00000000000E+00 -0.22927500263E+04  0.22927500263E+04  0.25500000000E-02 0. -1.
    8880023    1    1    2    0    0  0.48315479172E+03  0.73630901068E+03  0.34066364966E+03  0.11512825198E+04  0.65864270000E+03 0.  1.
    8880022    1    1    2    0    0 -0.48315479172E+03 -0.73630901068E+03 -0.17816119404E+04  0.19932692420E+04  0.15294330000E+03 0.  0.
<mgrwt>
<rscale>  0 0.10441930E+04</rscale>
<asrwt>0</asrwt>
<pdfrwt beam="1">  1        2 0.35273077E+00 0.10997271E+04</pdfrwt>
<pdfrwt beam="2">  1       -2 0.13104642E+00 0.10997271E+04</pdfrwt>
<totfact> 0.19270186E+00</totfact>
</mgrwt>
</event>
<event>
 4    5  0.8511149E-008  0.7151171E+03  0.7818608E-02  0.9939468E-01
          2   -1    0    0  501    0  0.00000000000E+00  0.00000000000E+00  0.12559551887E+04  0.12559551887E+04  0.25500000000E-02 0. -1.
         -2   -1    0    0    0  501 -0.00000000000E+00 -0.00000000000E+00 -0.36353414686E+03  0.36353414687E+03  0.25500000000E-02 0.  1.
    8880023    1    1    2    0    0  0.22613086325E+03 -0.16262559858E+03  0.47387968865E+02  0.71668548087E+03  0.65864270000E+03 0.  1.
    8880022    1    1    2    0    0 -0.22613086325E+03  0.16262559858E+03  0.84503307294E+03  0.90280385467E+03  0.15294330000E+03 0.  0.
<mgrwt>
<rscale>  0 0.58386039E+03</rscale>
<asrwt>0</asrwt>
<pdfrwt beam="1">  1        2 0.19322388E+00 0.71511709E+03</pdfrwt>
<pdfrwt beam="2">  1       -2 0.55928330E-01 0.71511709E+03</pdfrwt>
<totfact> 0.53816406E+01</totfact>
</mgrwt>
</event>
<event>
 4    5  0.8511149E-008  0.1022217E+04  0.7818608E-02  0.9353051E-01
         -2   -1    0    0    0  501 -0.00000000000E+00  0.00000000000E+00  0.63191015174E+03  0.63191015174E+03  0.25500000000E-02 0.  1.
          2   -1    0    0  501    0  0.00000000000E+00 -0.00000000000E+00 -0.29359942543E+04  0.29359942543E+04  0.25500000000E-02 0. -1.
    8880023    1    1    2    0    0 -0.39867094015E+03  0.67244242916E+03  0.10780049660E+03  0.10278854471E+04  0.65864270000E+03 0.  1.
    8880022    1    1    2    0    0  0.39867094015E+03 -0.67244242916E+03 -0.24118845992E+04  0.25400189590E+04  0.15294330000E+03 0.  0.
<mgrwt>
<rscale>  0 0.96042187E+03</rscale>
<asrwt>0</asrwt>
<pdfrwt beam="1">  1        2 0.45169142E+00 0.10222170E+04</pdfrwt>
<pdfrwt beam="2">  1       -2 0.97216948E-01 0.10222170E+04</pdfrwt>
<totfact> 0.17100656E+00</totfact>
</mgrwt>
</event>
<event>
 4    5  0.8511149E-008  0.8100071E+03  0.7818608E-02  0.9689562E-01
          2   -1    0    0  501    0  0.00000000000E+00  0.00000000000E+00  0.31277723864E+04  0.31277723864E+04  0.25500000000E-02 0. -1.
         -2   -1    0    0    0  501 -0.00000000000E+00 -0.00000000000E+00 -0.18151241835E+03  0.18151241836E+03  0.25500000000E-02 0.  1.
    8880023    1    1    2    0    0 -0.43789623403E+03  0.17478050144E+03  0.93139461911E+03  0.12343449592E+04  0.65864270000E+03 0.  1.
    8880022    1    1    2    0    0  0.43789623403E+03 -0.17478050144E+03  0.20148653490E+04  0.20749398456E+04  0.15294330000E+03 0. -1.
<mgrwt>
<rscale>  0 0.71641674E+03</rscale>
<asrwt>0</asrwt>
<pdfrwt beam="1">  1        2 0.48119572E+00 0.81000712E+03</pdfrwt>
<pdfrwt beam="2">  1       -2 0.27924989E-01 0.81000712E+03</pdfrwt>
<totfact> 0.17816880E+01</totfact>
</mgrwt>
</event>
<event>
 4    5  0.1022308E-007  0.8884215E+03  0.7818608E-02  0.9544880E-01
          2   -1    0    0  501    0  0.00000000000E+00  0.00000000000E+00  0.31616243453E+04  0.31616243453E+04  0.25500000000E-02 0. -1.
         -2   -1    0    0    0  501 -0.00000000000E+00 -0.00000000000E+00 -0.12131978478E+04  0.12131978478E+04  0.25500000000E-02 0.  1.
    8880023    1    1    2    0    0  0.36911060903E+02 -0.59507994521E+03 -0.10145672197E+04  0.13485693965E+04  0.65864270000E+03 0.  1.
    8880022    1    1    2    0    0 -0.36911060903E+02  0.59507994521E+03  0.29629937172E+04  0.30262527966E+04  0.15294330000E+03 0.  0.
<mgrwt>
<rscale>  0 0.81054322E+03</rscale>
<asrwt>0</asrwt>
<pdfrwt beam="1">  1        2 0.48640374E+00 0.88842151E+03</pdfrwt>
<pdfrwt beam="2">  1       -2 0.18664583E+00 0.88842151E+03</pdfrwt>
<totfact> 0.23433816E-01</totfact>
</mgrwt>
</event>
<event>
 4    5  0.8511149E-008  0.8584980E+03  0.7818608E-02  0.9596241E-01
         -2   -1    0    0    0  501 -0.00000000000E+00  0.00000000000E+00  0.55822958880E+03  0.55822958881E+03  0.25500000000E-02 0.  1.
          2   -1    0    0  501    0  0.00000000000E+00 -0.00000000000E+00 -0.29427307205E+04  0.29427307205E+04  0.25500000000E-02 0. -1.
    8880023    1    1    2    0    0  0.45860843104E+03 -0.30477368662E+03  0.17693807424E+03  0.87654205915E+03  0.65864270000E+03 0.  1.
    8880022    1    1    2    0    0 -0.45860843104E+03  0.30477368662E+03 -0.25614392060E+04  0.26244182502E+04  0.15294330000E+03 0.  0.
<mgrwt>
<rscale>  0 0.77545494E+03</rscale>
<asrwt>0</asrwt>
<pdfrwt beam="1">  1        2 0.45272779E+00 0.85849805E+03</pdfrwt>
<pdfrwt beam="2">  1       -2 0.85881477E-01 0.85849805E+03</pdfrwt>
<totfact> 0.23211595E+00</totfact>
</mgrwt>
</event>
<event>
 4    5  0.8511149E-008  0.8833459E+03  0.7818608E-02  0.9553314E-01
          2   -1    0    0  501    0  0.00000000000E+00  0.00000000000E+00  0.26551428419E+04  0.26551428419E+04  0.25500000000E-02 0. -1.
         -2   -1    0    0    0  501 -0.00000000000E+00 -0.00000000000E+00 -0.26965603082E+03  0.26965603083E+03  0.25500000000E-02 0.  1.
    8880023    1    1    2    0    0  0.51940929082E+03 -0.27695446471E+03  0.68195278302E+03  0.11159568054E+04  0.65864270000E+03 0.  0.
    8880022    1    1    2    0    0 -0.51940929082E+03  0.27695446471E+03  0.17035340280E+04  0.18088420674E+04  0.15294330000E+03 0.  0.
<mgrwt>
<rscale>  0 0.80464797E+03</rscale>
<asrwt>0</asrwt>
<pdfrwt beam="1">  1        2 0.40848351E+00 0.88334591E+03</pdfrwt>
<pdfrwt beam="2">  1       -2 0.41485543E-01 0.88334591E+03</pdfrwt>
<totfact> 0.16014776E+01</totfact>
</mgrwt>
</event>
<event>
 4    5  0.8511149E-008  0.7419616E+03  0.7818608E-02  0.9854270E-01
         -2   -1    0    0    0  501 -0.00000000000E+00  0.00000000000E+00  0.14880970424E+03  0.14880970427E+03  0.25500000000E-02 0.  1.
          2   -1    0    0  501    0  0.00000000000E+00 -0.00000000000E+00 -0.38205671505E+04  0.38205671505E+04  0.25500000000E-02 0. -1.
    8880023    1    1    2    0    0  0.25498500095E+03 -0.22733111668E+03 -0.87299937912E+03  0.11457028016E+04  0.65864270000E+03 0.  1.
    8880022    1    1    2    0    0 -0.25498500095E+03  0.22733111668E+03 -0.27987580671E+04  0.28236740532E+04  0.15294330000E+03 0.  0.
<mgrwt>
<rscale>  0 0.62529701E+03</rscale>
<asrwt>0</asrwt>
<pdfrwt beam="1">  1        2 0.58777949E+00 0.74196158E+03</pdfrwt>
<pdfrwt beam="2">  1       -2 0.22893804E-01 0.74196158E+03</pdfrwt>
<totfact> 0.87140003E+00</totfact>
</mgrwt>
</event>
<event>
 4    5  0.8511149E-008  0.6674958E+03  0.7818608E-02  0.1017525E+00
         -2   -1    0    0    0  501 -0.00000000000E+00  0.00000000000E+00  0.24463641949E+04  0.24463641949E+04  0.25500000000E-02 0.  1.
          2   -1    0    0  501    0  0.00000000000E+00 -0.00000000000E+00 -0.10049764158E+04  0.10049764158E+04  0.25500000000E-02 0. -1.
    8880023    1    1    2    0    0 -0.37458464501E+02  0.10167235102E+03  0.23915053245E+04  0.24829112604E+04  0.65864270000E+03 0.  1.
    8880022    1    1    2    0    0  0.37458464501E+02 -0.10167235102E+03 -0.95011754537E+03  0.96842935032E+03  0.15294330000E+03 0.  0.
<mgrwt>
<rscale>  0 0.48590273E+03</rscale>
<asrwt>0</asrwt>
<pdfrwt beam="1">  1        2 0.15461176E+00 0.66749578E+03</pdfrwt>
<pdfrwt beam="2">  1       -2 0.37636372E+00 0.66749578E+03</pdfrwt>
<totfact> 0.28699871E-01</totfact>
</mgrwt>
</event>
<event>
 4    5  0.8511149E-008  0.1362716E+04  0.7818608E-02  0.9013209E-01
          2   -1    0    0  501    0  0.00000000000E+00  0.00000000000E+00  0.16452695560E+04  0.16452695560E+04  0.25500000000E-02 0. -1.
         -2   -1    0    0    0  501 -0.00000000000E+00 -0.00000000000E+00 -0.13710373683E+04  0.13710373683E+04  0.25500000000E-02 0.  1.
    8880023    1    1    2    0    0 -0.11923545836E+04  0.38402641723E+02 -0.64002467177E+03  0.15055318006E+04  0.65864270000E+03 0.  0.
    8880022    1    1    2    0    0  0.11923545836E+04 -0.38402641723E+02  0.91425685954E+03  0.15107751236E+04  0.15294330000E+03 0.  0.
<mgrwt>
<rscale>  0 0.13208291E+04</rscale>
<asrwt>0</asrwt>
<pdfrwt beam="1">  1        2 0.25311839E+00 0.13627158E+04</pdfrwt>
<pdfrwt beam="2">  1       -2 0.21092882E+00 0.13627158E+04</pdfrwt>
<totfact> 0.11324973E+00</totfact>
</mgrwt>
</event>
<event>
 4    5  0.8511149E-008  0.7229723E+03  0.7818608E-02  0.9912654E-01
         -2   -1    0    0    0  501 -0.00000000000E+00  0.00000000000E+00  0.23629636680E+03  0.23629636681E+03  0.25500000000E-02 0.  1.
          2   -1    0    0  501    0  0.00000000000E+00 -0.00000000000E+00 -0.17927228831E+04  0.17927228831E+04  0.25500000000E-02 0. -1.
    8880023    1    1    2    0    0 -0.14657043938E+03  0.25960706464E+03 -0.40256989269E+03  0.82749709756E+03  0.65864270000E+03 0.  1.
    8880022    1    1    2    0    0  0.14657043938E+03 -0.25960706464E+03 -0.11538566236E+04  0.12015221523E+04  0.15294330000E+03 0.  0.
<mgrwt>
<rscale>  0 0.59651914E+03</rscale>
<asrwt>0</asrwt>
<pdfrwt beam="1">  1        2 0.27580351E+00 0.72297229E+03</pdfrwt>
<pdfrwt beam="2">  1       -2 0.36353288E-01 0.72297229E+03</pdfrwt>
<totfact> 0.63766219E+01</totfact>
</mgrwt>
</event>
<event>
 4    5  0.8511149E-008  0.1198937E+04  0.7818608E-02  0.9158156E-01
         -2   -1    0    0    0  501 -0.00000000000E+00  0.00000000000E+00  0.91903662922E+03  0.91903662923E+03  0.25500000000E-02 0.  1.
          2   -1    0    0  501    0  0.00000000000E+00 -0.00000000000E+00 -0.14515547649E+04  0.14515547649E+04  0.25500000000E-02 0. -1.
    8880023    1    1    2    0    0 -0.90360164760E+03  0.43260136331E+03  0.53132177283E+02  0.12001137911E+04  0.65864270000E+03 0. -1.
    8880022    1    1    2    0    0  0.90360164760E+03 -0.43260136331E+03 -0.58565031296E+03  0.11704776030E+04  0.15294330000E+03 0.  0.
<mgrwt>
<rscale>  0 0.11495960E+04</rscale>
<asrwt>0</asrwt>
<pdfrwt beam="1">  1        2 0.22331612E+00 0.11989371E+04</pdfrwt>
<pdfrwt beam="2">  1       -2 0.14139025E+00 0.11989371E+04</pdfrwt>
<totfact> 0.46051694E+00</totfact>
</mgrwt>
</event>
<event>
 4    5  0.8511149E-008  0.8949373E+03  0.7818608E-02  0.9534208E-01
         -2   -1    0    0    0  501 -0.00000000000E+00  0.00000000000E+00  0.98326429946E+03  0.98326429947E+03  0.25500000000E-02 0.  1.
          2   -1    0    0  501    0  0.00000000000E+00 -0.00000000000E+00 -0.13760552725E+04  0.13760552725E+04  0.25500000000E-02 0. -1.
    8880023    1    1    2    0    0 -0.59899932838E+03 -0.91117037537E+02  0.67579319090E+03  0.11214317425E+04  0.65864270000E+03 0.  1.
    8880022    1    1    2    0    0  0.59899932838E+03  0.91117037537E+02 -0.10685841639E+04  0.12378878295E+04  0.15294330000E+03 0.  0.
<mgrwt>
<rscale>  0 0.81808092E+03</rscale>
<asrwt>0</asrwt>
<pdfrwt beam="1">  1        2 0.21170081E+00 0.89493727E+03</pdfrwt>
<pdfrwt beam="2">  1       -2 0.15127143E+00 0.89493727E+03</pdfrwt>
<totfact> 0.43946353E+00</totfact>
</mgrwt>
</event>
<event>
 4    5  0.8511149E-008  0.8905753E+03  0.7818608E-02  0.9541334E-01
         -2   -1    0    0    0  501 -0.00000000000E+00  0.00000000000E+00  0.79463414245E+03  0.79463414245E+03  0.25500000000E-02 0.  1.
          2   -1    0    0  501    0  0.00000000000E+00 -0.00000000000E+00 -0.23375983967E+04  0.23375983967E+04  0.25500000000E-02 0. -1.
    8880023    1    1    2    0    0  0.58685498225E+03 -0.12212832427E+03  0.48355954883E+03  0.10133874586E+04  0.65864270000E+03 0.  0.
    8880022    1    1    2    0    0 -0.58685498225E+03  0.12212832427E+03 -0.20265238031E+04  0.21188450805E+04  0.15294330000E+03 0.  0.
<mgrwt>
<rscale>  0 0.81303847E+03</rscale>
<asrwt>0</asrwt>
<pdfrwt beam="1">  1        2 0.35963052E+00 0.89057527E+03</pdfrwt>
<pdfrwt beam="2">  1       -2 0.12225141E+00 0.89057527E+03</pdfrwt>
<totfact> 0.22329442E+00</totfact>
</mgrwt>
</event>
<event>
 4    5  0.8511149E-008  0.7690503E+03  0.7818608E-02  0.9782217E-01
          2   -1    0    0  501    0  0.00000000000E+00  0.00000000000E+00  0.20852449596E+04  0.20852449596E+04  0.25500000000E-02 0. -1.
         -2   -1    0    0    0  501 -0.00000000000E+00 -0.00000000000E+00 -0.64482304573E+03  0.64482304573E+03  0.25500000000E-02 0.  1.
    8880023    1    1    2    0    0  0.23816855026E+03  0.31765363592E+03 -0.38195936328E+03  0.85867994748E+03  0.65864270000E+03 0.  1.
    8880022    1    1    2    0    0 -0.23816855026E+03 -0.31765363592E+03  0.18223812771E+04  0.18713880578E+04  0.15294330000E+03 0.  0.
<mgrwt>
<rscale>  0 0.66325691E+03</rscale>
<asrwt>0</asrwt>
<pdfrwt beam="1">  1        2 0.32080692E+00 0.76905026E+03</pdfrwt>
<pdfrwt beam="2">  1       -2 0.99203544E-01 0.76905026E+03</pdfrwt>
<totfact> 0.52172466E+00</totfact>
</mgrwt>
</event>
<event>
 4    5  0.8511149E-008  0.7366524E+03  0.7818608E-02  0.9869808E-01
          2   -1    0    0  501    0  0.00000000000E+00  0.00000000000E+00  0.15698216620E+04  0.15698216620E+04  0.25500000000E-02 0. -1.
         -2   -1    0    0    0  501 -0.00000000000E+00 -0.00000000000E+00 -0.22404707954E+03  0.22404707955E+03  0.25500000000E-02 0.  1.
    8880023    1    1    2    0    0 -0.29754056068E+03  0.14253502322E+03  0.11871467573E+04  0.13971307197E+04  0.65864270000E+03 0.  1.
    8880022    1    1    2    0    0  0.29754056068E+03 -0.14253502322E+03  0.15862782511E+03  0.39673802188E+03  0.15294330000E+03 0.  0.
<mgrwt>
<rscale>  0 0.61747108E+03</rscale>
<asrwt>0</asrwt>
<pdfrwt beam="1">  1        2 0.24151102E+00 0.73665244E+03</pdfrwt>
<pdfrwt beam="2">  1       -2 0.34468782E-01 0.73665244E+03</pdfrwt>
<totfact> 0.93363277E+01</totfact>
</mgrwt>
</event>
<event>
 4    5  0.8511149E-008  0.7064330E+03  0.7818608E-02  0.9971493E-01
          2   -1    0    0  501    0  0.00000000000E+00  0.00000000000E+00  0.12774511995E+04  0.12774511995E+04  0.25500000000E-02 0. -1.
         -2   -1    0    0    0  501 -0.00000000000E+00 -0.00000000000E+00 -0.55514333683E+03  0.55514333684E+03  0.25500000000E-02 0.  1.
    8880023    1    1    2    0    0  0.61714012438E+02  0.24784824495E+03 -0.30024185971E+03  0.76758892152E+03  0.65864270000E+03 0.  1.
    8880022    1    1    2    0    0 -0.61714012438E+02 -0.24784824495E+03  0.10225497224E+04  0.10650056148E+04  0.15294330000E+03 0.  0.
<mgrwt>
<rscale>  0 0.56918078E+03</rscale>
<asrwt>0</asrwt>
<pdfrwt beam="1">  1        2 0.19653095E+00 0.70643300E+03</pdfrwt>
<pdfrwt beam="2">  1       -2 0.85406668E-01 0.70643300E+03</pdfrwt>
<totfact> 0.20828090E+01</totfact>
</mgrwt>
</event>
<event>
 4    5  0.8511149E-008  0.1026829E+04  0.7818608E-02  0.9347269E-01
         -2   -1    0    0    0  501 -0.00000000000E+00  0.00000000000E+00  0.13129874533E+04  0.13129874533E+04  0.25500000000E-02 0.  1.
          2   -1    0    0  501    0  0.00000000000E+00 -0.00000000000E+00 -0.80461783405E+03  0.80461783405E+03  0.25500000000E-02 0. -1.
    8880023    1    1    2    0    0 -0.77526138464E+03  0.13977440754E+03  0.75901407063E+03  0.12769023710E+04  0.65864270000E+03 0.  0.
    8880022    1    1    2    0    0  0.77526138464E+03 -0.13977440754E+03 -0.25064445135E+03  0.84070291633E+03  0.15294330000E+03 0.  0.
<mgrwt>
<rscale>  0 0.96545220E+03</rscale>
<asrwt>0</asrwt>
<pdfrwt beam="1">  1        2 0.12378736E+00 0.10268288E+04</pdfrwt>
<pdfrwt beam="2">  1       -2 0.20199807E+00 0.10268288E+04</pdfrwt>
<totfact> 0.43684011E+00</totfact>
</mgrwt>
</event>
<event>
 4    5  0.1046102E-007  0.1299722E+04  0.7818608E-02  0.9065800E-01
         -2   -1    0    0    0  501 -0.00000000000E+00  0.00000000000E+00  0.12480090049E+04  0.12480090049E+04  0.25500000000E-02 0.  1.
          2   -1    0    0  501    0  0.00000000000E+00 -0.00000000000E+00 -0.29801329979E+04  0.29801329979E+04  0.25500000000E-02 0. -1.
    8880023    1    1    2    0    0  0.10311763174E+03 -0.11157212925E+04  0.74996470943E+03  0.15005747299E+04  0.65864270000E+03 0.  1.
    8880022    1    1    2    0    0 -0.10311763174E+03  0.11157212925E+04 -0.24820887024E+04  0.27275672729E+04  0.15294330000E+03 0.  0.
<mgrwt>
<rscale>  0 0.12552803E+04</rscale>
<asrwt>0</asrwt>
<pdfrwt beam="1">  1        2 0.45848200E+00 0.12997221E+04</pdfrwt>
<pdfrwt beam="2">  1       -2 0.19200139E+00 0.12997221E+04</pdfrwt>
<totfact> 0.26070795E-01</totfact>
</mgrwt>
</event>
<event>
 4    5  0.8511149E-008  0.9109695E+03  0.7818608E-02  0.9508646E-01
         -2   -1    0    0    0  501 -0.00000000000E+00  0.00000000000E+00  0.12429127801E+04  0.12429127801E+04  0.25500000000E-02 0.  1.
          2   -1    0    0  501    0  0.00000000000E+00 -0.00000000000E+00 -0.11798959688E+04  0.11798959688E+04  0.25500000000E-02 0. -1.
    8880023    1    1    2    0    0 -0.44912922780E+03 -0.44083810737E+03  0.95545314509E+03  0.13201349245E+04  0.65864270000E+03 0.  1.
    8880022    1    1    2    0    0  0.44912922780E+03  0.44083810737E+03 -0.89243633378E+03  0.11026738244E+04  0.15294330000E+03 0.  0.
<mgrwt>
<rscale>  0 0.83649341E+03</rscale>
<asrwt>0</asrwt>
<pdfrwt beam="1">  1        2 0.18152246E+00 0.91096954E+03</pdfrwt>
<pdfrwt beam="2">  1       -2 0.19121735E+00 0.91096954E+03</pdfrwt>
<totfact> 0.29698202E+00</totfact>
</mgrwt>
</event>
<event>
 4    5  0.8511149E-008  0.2220398E+04  0.7818608E-02  0.8519926E-01
         -2   -1    0    0    0  501 -0.00000000000E+00  0.00000000000E+00  0.22257955927E+04  0.22257955927E+04  0.25500000000E-02 0.  1.
          2   -1    0    0  501    0  0.00000000000E+00 -0.00000000000E+00 -0.32171300163E+04  0.32171300163E+04  0.25500000000E-02 0. -1.
    8880023    1    1    2    0    0  0.10737663690E+03 -0.21177408796E+04 -0.20904748170E+04  0.30496313453E+04  0.65864270000E+03 0.  0.
    8880022    1    1    2    0    0 -0.10737663690E+03  0.21177408796E+04  0.10991403933E+04  0.23932942637E+04  0.15294330000E+03 0.  0.
<mgrwt>
<rscale>  0 0.21964047E+04</rscale>
<asrwt>0</asrwt>
<pdfrwt beam="1">  1        2 0.49494308E+00 0.22203978E+04</pdfrwt>
<pdfrwt beam="2">  1       -2 0.34243009E+00 0.22203978E+04</pdfrwt>
<totfact> 0.18891355E-02</totfact>
</mgrwt>
</event>
<event>
 4    5  0.8511149E-008  0.6887218E+03  0.7818608E-02  0.1004766E+00
         -2   -1    0    0    0  501 -0.00000000000E+00  0.00000000000E+00  0.49587375080E+03  0.49587375080E+03  0.25500000000E-02 0.  1.
          2   -1    0    0  501    0  0.00000000000E+00 -0.00000000000E+00 -0.59871047648E+03  0.59871047648E+03  0.25500000000E-02 0. -1.
    8880023    1    1    2    0    0 -0.35972171207E+02 -0.19807444678E+03  0.18335817494E+03  0.71271165989E+03  0.65864270000E+03 0.  1.
    8880022    1    1    2    0    0  0.35972171207E+02  0.19807444678E+03 -0.28619490063E+03  0.38187256739E+03  0.15294330000E+03 0.  0.
<mgrwt>
<rscale>  0 0.53608879E+03</rscale>
<asrwt>0</asrwt>
<pdfrwt beam="1">  1        2 0.92109304E-01 0.68872178E+03</pdfrwt>
<pdfrwt beam="2">  1       -2 0.76288270E-01 0.68872178E+03</pdfrwt>
<totfact> 0.77664164E+01</totfact>
</mgrwt>
</event>
<event>
 4    5  0.8511149E-008  0.1070406E+04  0.7818608E-02  0.9294744E-01
         -2   -1    0    0    0  501 -0.00000000000E+00  0.00000000000E+00  0.54070892472E+03  0.54070892472E+03  0.25500000000E-02 0.  1.
          2   -1    0    0  501    0  0.00000000000E+00 -0.00000000000E+00 -0.20662386194E+04  0.20662386194E+04  0.25500000000E-02 0. -1.
    8880023    1    1    2    0    0  0.59373355903E+03 -0.59953175496E+03 -0.30082874878E+03  0.11118749960E+04  0.65864270000E+03 0. -1.
    8880022    1    1    2    0    0 -0.59373355903E+03  0.59953175496E+03 -0.12247009459E+04  0.14950725482E+04  0.15294330000E+03 0.  0.
<mgrwt>
<rscale>  0 0.10126818E+04</rscale>
<asrwt>0</asrwt>
<pdfrwt beam="1">  1        2 0.31788286E+00 0.10704056E+04</pdfrwt>
<pdfrwt beam="2">  1       -2 0.83185989E-01 0.10704056E+04</pdfrwt>
<totfact> 0.77259547E+00</totfact>
</mgrwt>
</event>
<event>
 4    5  0.8511149E-008  0.8900236E+03  0.7818608E-02  0.9542241E-01
         -2   -1    0    0    0  501 -0.00000000000E+00  0.00000000000E+00  0.84671826692E+03  0.84671826692E+03  0.25500000000E-02 0.  1.
          2   -1    0    0  501    0  0.00000000000E+00 -0.00000000000E+00 -0.22783704928E+04  0.22783704928E+04  0.25500000000E-02 0. -1.
    8880023    1    1    2    0    0  0.53445599998E+03  0.26960812259E+03  0.55209571043E+03  0.10473545892E+04  0.65864270000E+03 0.  0.
    8880022    1    1    2    0    0 -0.53445599998E+03 -0.26960812259E+03 -0.19837479363E+04  0.20777341705E+04  0.15294330000E+03 0.  0.
<mgrwt>
<rscale>  0 0.81239966E+03</rscale>
<asrwt>0</asrwt>
<pdfrwt beam="1">  1        2 0.35051854E+00 0.89002357E+03</pdfrwt>
<pdfrwt beam="2">  1       -2 0.13026435E+00 0.89002357E+03</pdfrwt>
<totfact> 0.20537323E+00</totfact>
</mgrwt>
</event>
<event>
 4    5  0.8511149E-008  0.9909012E+03  0.7818608E-02  0.9393560E-01
          2   -1    0    0  501    0  0.00000000000E+00  0.00000000000E+00  0.14838828028E+04  0.14838828028E+04  0.25500000000E-02 0. -1.
         -2   -1    0    0    0  501 -0.00000000000E+00 -0.00000000000E+00 -0.89987803182E+03  0.89987803182E+03  0.25500000000E-02 0.  1.
    8880023    1    1    2    0    0  0.21430810015E+03 -0.70862328396E+03 -0.46189567863E+03  0.10932670052E+04  0.65864270000E+03 0.  1.
    8880022    1    1    2    0    0 -0.21430810015E+03  0.70862328396E+03  0.10459004496E+04  0.12904938294E+04  0.15294330000E+03 0.  0.
<mgrwt>
<rscale>  0 0.92607596E+03</rscale>
<asrwt>0</asrwt>
<pdfrwt beam="1">  1        2 0.22828966E+00 0.99090117E+03</pdfrwt>
<pdfrwt beam="2">  1       -2 0.13844278E+00 0.99090117E+03</pdfrwt>
<totfact> 0.47641870E+00</totfact>
</mgrwt>
</event>
<event>
 4    5  0.8511149E-008  0.7280362E+03  0.7818608E-02  0.9896277E-01
          2   -1    0    0  501    0  0.00000000000E+00  0.00000000000E+00  0.12305203926E+04  0.12305203926E+04  0.25500000000E-02 0. -1.
         -2   -1    0    0    0  501 -0.00000000000E+00 -0.00000000000E+00 -0.11156044140E+04  0.11156044140E+04  0.25500000000E-02 0.  1.
    8880023    1    1    2    0    0  0.28151857892E+03 -0.13028339953E+03 -0.96691367165E+03  0.12103547947E+04  0.65864270000E+03 0.  1.
    8880022    1    1    2    0    0 -0.28151857892E+03  0.13028339953E+03  0.10818296502E+04  0.11357700118E+04  0.15294330000E+03 0.  0.
<mgrwt>
<rscale>  0 0.60442072E+03</rscale>
<asrwt>0</asrwt>
<pdfrwt beam="1">  1        2 0.18931083E+00 0.72803618E+03</pdfrwt>
<pdfrwt beam="2">  1       -2 0.17163145E+00 0.72803618E+03</pdfrwt>
<totfact> 0.38717704E+00</totfact>
</mgrwt>
</event>
<event>
 4    5  0.8511149E-008  0.7229078E+03  0.7818608E-02  0.9912867E-01
          2   -1    0    0  501    0  0.00000000000E+00  0.00000000000E+00  0.15335467340E+04  0.15335467340E+04  0.25500000000E-02 0. -1.
         -2   -1    0    0    0  501 -0.00000000000E+00 -0.00000000000E+00 -0.10788213338E+04  0.10788213338E+04  0.25500000000E-02 0.  1.
    8880023    1    1    2    0    0 -0.52885270790E+02 -0.29323811085E+03 -0.93555641369E+03  0.11823119093E+04  0.65864270000E+03 0.  1.
    8880022    1    1    2    0    0  0.52885270790E+02  0.29323811085E+03  0.13902818139E+04  0.14300561585E+04  0.15294330000E+03 0.  0.
<mgrwt>
<rscale>  0 0.59641725E+03</rscale>
<asrwt>0</asrwt>
<pdfrwt beam="1">  1        2 0.23593026E+00 0.72290777E+03</pdfrwt>
<pdfrwt beam="2">  1       -2 0.16597251E+00 0.72290777E+03</pdfrwt>
<totfact> 0.28605182E+00</totfact>
</mgrwt>
</event>
<event>
 4    5  0.8511149E-008  0.1184210E+04  0.7818608E-02  0.9172626E-01
         -2   -1    0    0    0  501 -0.00000000000E+00  0.00000000000E+00  0.69558483163E+03  0.69558483163E+03  0.25500000000E-02 0.  1.
          2   -1    0    0  501    0  0.00000000000E+00 -0.00000000000E+00 -0.30989128152E+04  0.30989128152E+04  0.25500000000E-02 0. -1.
    8880023    1    1    2    0    0  0.56829933960E+03 -0.80347941668E+03  0.94441993198E+01  0.11842477408E+04  0.65864270000E+03 0.  0.
    8880022    1    1    2    0    0 -0.56829933960E+03  0.80347941668E+03 -0.24127721829E+04  0.26102499060E+04  0.15294330000E+03 0.  0.
<mgrwt>
<rscale>  0 0.11340494E+04</rscale>
<asrwt>0</asrwt>
<pdfrwt beam="1">  1        2 0.47675581E+00 0.11842101E+04</pdfrwt>
<pdfrwt beam="2">  1       -2 0.10701305E+00 0.11842101E+04</pdfrwt>
<totfact> 0.10515780E+00</totfact>
</mgrwt>
</event>
<event>
 4    5  0.8511149E-008  0.9050066E+03  0.7818608E-02  0.9518042E-01
         -2   -1    0    0    0  501 -0.00000000000E+00  0.00000000000E+00  0.33290802569E+04  0.33290802569E+04  0.25500000000E-02 0.  1.
          2   -1    0    0  501    0  0.00000000000E+00 -0.00000000000E+00 -0.31561722902E+03  0.31561722903E+03  0.25500000000E-02 0. -1.
    8880023    1    1    2    0    0 -0.23999903869E+03 -0.57238721231E+03  0.28423628679E+04  0.29829622087E+04  0.65864270000E+03 0.  0.
    8880022    1    1    2    0    0  0.23999903869E+03  0.57238721231E+03  0.17110015998E+03  0.66173527724E+03  0.15294330000E+03 0.  0.
<mgrwt>
<rscale>  0 0.82966644E+03</rscale>
<asrwt>0</asrwt>
<pdfrwt beam="1">  1        2 0.48556494E-01 0.90500656E+03</pdfrwt>
<pdfrwt beam="2">  1       -2 0.51216623E+00 0.90500656E+03</pdfrwt>
<totfact> 0.14787542E-01</totfact>
</mgrwt>
</event>
<event>
 4    5  0.8511149E-008  0.9127943E+03  0.7818608E-02  0.9505797E-01
          2   -1    0    0  501    0  0.00000000000E+00  0.00000000000E+00  0.14850504984E+04  0.14850504984E+04  0.25500000000E-02 0. -1.
         -2   -1    0    0    0  501 -0.00000000000E+00 -0.00000000000E+00 -0.92861826483E+03  0.92861826483E+03  0.25500000000E-02 0.  1.
    8880023    1    1    2    0    0 -0.39667592478E+03 -0.49196686891E+03 -0.59622610065E+03  0.10902655451E+04  0.65864270000E+03 0.  0.
    8880022    1    1    2    0    0  0.39667592478E+03  0.49196686891E+03  0.11526583342E+04  0.13234032182E+04  0.15294330000E+03 0.  0.
<mgrwt>
<rscale>  0 0.83857773E+03</rscale>
<asrwt>0</asrwt>
<pdfrwt beam="1">  1        2 0.22846931E+00 0.91279428E+03</pdfrwt>
<pdfrwt beam="2">  1       -2 0.14286435E+00 0.91279428E+03</pdfrwt>
<totfact> 0.44233052E+00</totfact>
</mgrwt>
</event>
<event>
 4    5  0.8511149E-008  0.8514153E+03  0.7818608E-02  0.9609020E-01
         -2   -1    0    0    0  501 -0.00000000000E+00  0.00000000000E+00  0.14798562834E+04  0.14798562834E+04  0.25500000000E-02 0.  1.
          2   -1    0    0  501    0  0.00000000000E+00 -0.00000000000E+00 -0.78052085228E+03  0.78052085228E+03  0.25500000000E-02 0. -1.
    8880023    1    1    2    0    0 -0.45281242886E+03  0.29335752256E+03  0.12249413624E+04  0.14917738701E+04  0.65864270000E+03 0.  0.
    8880022    1    1    2    0    0  0.45281242886E+03 -0.29335752256E+03 -0.52560593135E+03  0.76860326557E+03  0.15294330000E+03 0.  0.
<mgrwt>
<rscale>  0 0.76702023E+03</rscale>
<asrwt>0</asrwt>
<pdfrwt beam="1">  1        2 0.12008013E+00 0.85141526E+03</pdfrwt>
<pdfrwt beam="2">  1       -2 0.22767020E+00 0.85141526E+03</pdfrwt>
<totfact> 0.31867435E+00</totfact>
</mgrwt>
</event>
<event>
 4    5  0.8511149E-008  0.6669476E+03  0.7818608E-02  0.1017952E+00
          2   -1    0    0  501    0  0.00000000000E+00  0.00000000000E+00  0.19377049816E+04  0.19377049816E+04  0.25500000000E-02 0. -1.
         -2   -1    0    0    0  501 -0.00000000000E+00 -0.00000000000E+00 -0.99229488957E+02  0.99229488990E+02  0.25500000000E-02 0.  1.
    8880023    1    1    2    0    0  0.95382453951E+02 -0.43715867911E+02  0.12096925500E+04  0.13813671349E+04  0.65864270000E+03 0.  1.
    8880022    1    1    2    0    0 -0.95382453951E+02  0.43715867911E+02  0.62878294265E+03  0.65556733568E+03  0.15294330000E+03 0.  0.
<mgrwt>
<rscale>  0 0.48432785E+03</rscale>
<asrwt>0</asrwt>
<pdfrwt beam="1">  1        2 0.29810845E+00 0.66694760E+03</pdfrwt>
<pdfrwt beam="2">  1       -2 0.15266075E-01 0.66694760E+03</pdfrwt>
<totfact> 0.25335400E+02</totfact>
</mgrwt>
</event>
<event>
 4    5  0.8511149E-008  0.7273260E+03  0.7818608E-02  0.9898534E-01
         -2   -1    0    0    0  501 -0.00000000000E+00  0.00000000000E+00  0.53471697752E+03  0.53471697753E+03  0.25500000000E-02 0.  1.
          2   -1    0    0  501    0  0.00000000000E+00 -0.00000000000E+00 -0.10632236158E+04  0.10632236158E+04  0.25500000000E-02 0. -1.
    8880023    1    1    2    0    0  0.68893437721E+02  0.30074350485E+03  0.23172924893E+03  0.76334894546E+03  0.65864270000E+03 0.  1.
    8880022    1    1    2    0    0 -0.68893437721E+02 -0.30074350485E+03 -0.76023588721E+03  0.83459164786E+03  0.15294330000E+03 0.  0.
<mgrwt>
<rscale>  0 0.60332371E+03</rscale>
<asrwt>0</asrwt>
<pdfrwt beam="1">  1        2 0.16357286E+00 0.72732604E+03</pdfrwt>
<pdfrwt beam="2">  1       -2 0.82264151E-01 0.72732604E+03</pdfrwt>
<totfact> 0.30377117E+01</totfact>
</mgrwt>
</event>
<event>
 4    5  0.8511149E-008  0.8784399E+03  0.7818608E-02  0.9561568E-01
         -2   -1    0    0    0  501 -0.00000000000E+00  0.00000000000E+00  0.89933879632E+03  0.89933879632E+03  0.25500000000E-02 0.  1.
          2   -1    0    0  501    0  0.00000000000E+00 -0.00000000000E+00 -0.21216634041E+04  0.21216634041E+04  0.25500000000E-02 0. -1.
    8880023    1    1    2    0    0 -0.20156599335E+03  0.54517670685E+03  0.62517736113E+03  0.10781945235E+04  0.65864270000E+03 0.  1.
    8880022    1    1    2    0    0  0.20156599335E+03 -0.54517670685E+03 -0.18475019689E+04  0.19428076769E+04  0.15294330000E+03 0.  0.
<mgrwt>
<rscale>  0 0.79892912E+03</rscale>
<asrwt>0</asrwt>
<pdfrwt beam="1">  1        2 0.32640975E+00 0.87843992E+03</pdfrwt>
<pdfrwt beam="2">  1       -2 0.13835982E+00 0.87843992E+03</pdfrwt>
<totfact> 0.21536670E+00</totfact>
</mgrwt>
</event>
<event>
 4    5  0.8511149E-008  0.8273974E+03  0.7818608E-02  0.9654418E-01
         -2   -1    0    0    0  501 -0.00000000000E+00  0.00000000000E+00  0.39580276739E+03  0.39580276740E+03  0.25500000000E-02 0.  1.
          2   -1    0    0  501    0  0.00000000000E+00 -0.00000000000E+00 -0.33559361469E+04  0.33559361469E+04  0.25500000000E-02 0. -1.
    8880023    1    1    2    0    0 -0.46830060903E+03 -0.17740031256E+03 -0.87769226929E+02  0.83203964735E+03  0.65864270000E+03 0.  1.
    8880022    1    1    2    0    0  0.46830060903E+03  0.17740031256E+03 -0.28723641526E+04  0.29196992669E+04  0.15294330000E+03 0.  0.
<mgrwt>
<rscale>  0 0.73796833E+03</rscale>
<asrwt>0</asrwt>
<pdfrwt beam="1">  1        2 0.51629785E+00 0.82739745E+03</pdfrwt>
<pdfrwt beam="2">  1       -2 0.60892736E-01 0.82739745E+03</pdfrwt>
<totfact> 0.27277435E+00</totfact>
</mgrwt>
</event>
<event>
 4    5  0.8511149E-008  0.8391042E+03  0.7818608E-02  0.9631872E-01
          2   -1    0    0  501    0  0.00000000000E+00  0.00000000000E+00  0.17082150094E+04  0.17082150094E+04  0.25500000000E-02 0. -1.
         -2   -1    0    0    0  501 -0.00000000000E+00 -0.00000000000E+00 -0.90658108776E+03  0.90658108776E+03  0.25500000000E-02 0.  1.
    8880023    1    1    2    0    0  0.18333938196E+03  0.48648987340E+03 -0.65251222128E+03  0.10629525535E+04  0.65864270000E+03 0.  1.
    8880022    1    1    2    0    0 -0.18333938196E+03 -0.48648987340E+03  0.14541461429E+04  0.15518435436E+04  0.15294330000E+03 0.  0.
<mgrwt>
<rscale>  0 0.75222151E+03</rscale>
<asrwt>0</asrwt>
<pdfrwt beam="1">  1        2 0.26280231E+00 0.83910424E+03</pdfrwt>
<pdfrwt beam="2">  1       -2 0.13947402E+00 0.83910424E+03</pdfrwt>
<totfact> 0.35766017E+00</totfact>
</mgrwt>
</event>
<event>
 4    5  0.8511149E-008  0.7374860E+03  0.7818608E-02  0.9867332E-01
         -2   -1    0    0    0  501 -0.00000000000E+00  0.00000000000E+00  0.10726299684E+04  0.10726299684E+04  0.25500000000E-02 0.  1.
          2   -1    0    0  501    0  0.00000000000E+00 -0.00000000000E+00 -0.13897017896E+04  0.13897017896E+04  0.25500000000E-02 0. -1.
    8880023    1    1    2    0    0  0.32657694881E+03 -0.58505722293E+02  0.91616862641E+03  0.11761167380E+04  0.65864270000E+03 0.  1.
    8880022    1    1    2    0    0 -0.32657694881E+03  0.58505722293E+02 -0.12332404476E+04  0.12862150200E+04  0.15294330000E+03 0.  0.
<mgrwt>
<rscale>  0 0.61870997E+03</rscale>
<asrwt>0</asrwt>
<pdfrwt beam="1">  1        2 0.21380028E+00 0.73748602E+03</pdfrwt>
<pdfrwt beam="2">  1       -2 0.16501999E+00 0.73748602E+03</pdfrwt>
<totfact> 0.34893940E+00</totfact>
</mgrwt>
</event>
<event>
 4    5  0.8511149E-008  0.8707860E+03  0.7818608E-02  0.9574658E-01
         -2   -1    0    0    0  501 -0.00000000000E+00  0.00000000000E+00  0.83271717412E+03  0.83271717412E+03  0.25500000000E-02 0.  1.
          2   -1    0    0  501    0  0.00000000000E+00 -0.00000000000E+00 -0.10978722419E+04  0.10978722419E+04  0.25500000000E-02 0. -1.
    8880023    1    1    2    0    0 -0.33974149850E+03  0.45720202033E+03  0.46885360187E+03  0.98898527767E+03  0.65864270000E+03 0.  0.
    8880022    1    1    2    0    0  0.33974149850E+03 -0.45720202033E+03 -0.73400866964E+03  0.94160413834E+03  0.15294330000E+03 0.  0.
<mgrwt>
<rscale>  0 0.78996437E+03</rscale>
<asrwt>0</asrwt>
<pdfrwt beam="1">  1        2 0.16890342E+00 0.87078596E+03</pdfrwt>
<pdfrwt beam="2">  1       -2 0.12811033E+00 0.87078596E+03</pdfrwt>
<totfact> 0.98948739E+00</totfact>
</mgrwt>
</event>
<event>
 4    5  0.8511149E-008  0.1084958E+04  0.7818608E-02  0.9277991E-01
          2   -1    0    0  501    0  0.00000000000E+00  0.00000000000E+00  0.35865522981E+04  0.35865522981E+04  0.25500000000E-02 0. -1.
         -2   -1    0    0    0  501 -0.00000000000E+00 -0.00000000000E+00 -0.80261681963E+03  0.80261681964E+03  0.25500000000E-02 0.  1.
    8880023    1    1    2    0    0 -0.68000807516E+02  0.85947676653E+03 -0.34620999993E+03  0.11388573187E+04  0.65864270000E+03 0.  1.
    8880022    1    1    2    0    0  0.68000807516E+02 -0.85947676653E+03  0.31301454784E+04  0.32503117990E+04  0.15294330000E+03 0.  0.
<mgrwt>
<rscale>  0 0.10283457E+04</rscale>
<asrwt>0</asrwt>
<pdfrwt beam="1">  1        2 0.55177728E+00 0.10849584E+04</pdfrwt>
<pdfrwt beam="2">  1       -2 0.12347951E+00 0.10849584E+04</pdfrwt>
<totfact> 0.35551778E-01</totfact>
</mgrwt>
</event>
<event>
 4    5  0.8511149E-008  0.2274164E+04  0.7818608E-02  0.8497585E-01
         -2   -1    0    0    0  501 -0.00000000000E+00  0.00000000000E+00  0.29055444410E+04  0.29055444410E+04  0.25500000000E-02 0.  1.
          2   -1    0    0  501    0  0.00000000000E+00 -0.00000000000E+00 -0.19525688506E+04  0.19525688506E+04  0.25500000000E-02 0. -1.
    8880023    1    1    2    0    0 -0.10231633283E+04 -0.19212356725E+04  0.13435196680E+04  0.26413755906E+04  0.65864270000E+03 0.  0.
    8880022    1    1    2    0    0  0.10231633283E+04  0.19212356725E+04 -0.39054407757E+03  0.22167377010E+04  0.15294330000E+03 0.  0.
<mgrwt>
<rscale>  0 0.22507804E+04</rscale>
<asrwt>0</asrwt>
<pdfrwt beam="1">  1        2 0.30039521E+00 0.22741636E+04</pdfrwt>
<pdfrwt beam="2">  1       -2 0.44700684E+00 0.22741636E+04</pdfrwt>
<totfact> 0.22191190E-02</totfact>
</mgrwt>
</event>
<event>
 4    5  0.8511149E-008  0.6773690E+03  0.7818608E-02  0.1010853E+00
          2   -1    0    0  501    0  0.00000000000E+00  0.00000000000E+00  0.38072372074E+03  0.38072372075E+03  0.25500000000E-02 0. -1.
         -2   -1    0    0    0  501 -0.00000000000E+00 -0.00000000000E+00 -0.82473074291E+03  0.82473074291E+03  0.25500000000E-02 0.  1.
    8880023    1    1    2    0    0 -0.15604129297E+03 -0.25877525808E+02 -0.62415811210E+03  0.92108744787E+03  0.65864270000E+03 0.  1.
    8880022    1    1    2    0    0  0.15604129297E+03  0.25877525808E+02  0.18015108993E+03  0.28436701579E+03  0.15294330000E+03 0.  0.
<mgrwt>
<rscale>  0 0.51137097E+03</rscale>
<asrwt>0</asrwt>
<pdfrwt beam="1">  1        2 0.58572880E-01 0.67736898E+03</pdfrwt>
<pdfrwt beam="2">  1       -2 0.12688165E+00 0.67736898E+03</pdfrwt>
<totfact> 0.39469708E+01</totfact>
</mgrwt>
</event>
<event>
 4    5  0.8511149E-008  0.1207206E+04  0.7818608E-02  0.9150149E-01
         -2   -1    0    0    0  501 -0.00000000000E+00  0.00000000000E+00  0.60066185333E+03  0.60066185333E+03  0.25500000000E-02 0.  1.
          2   -1    0    0  501    0  0.00000000000E+00 -0.00000000000E+00 -0.29328542364E+04  0.29328542364E+04  0.25500000000E-02 0. -1.
    8880023    1    1    2    0    0  0.30799636386E+03 -0.96367739117E+03 -0.27829910324E+03  0.12388690292E+04  0.65864270000E+03 0.  0.
    8880022    1    1    2    0    0 -0.30799636386E+03  0.96367739117E+03 -0.20538932798E+04  0.22946470605E+04  0.15294330000E+03 0.  0.
<mgrwt>
<rscale>  0 0.11583121E+04</rscale>
<asrwt>0</asrwt>
<pdfrwt beam="1">  1        2 0.45120834E+00 0.12072059E+04</pdfrwt>
<pdfrwt beam="2">  1       -2 0.92409518E-01 0.12072059E+04</pdfrwt>
<totfact> 0.18861629E+00</totfact>
</mgrwt>
</event>
<event>
 4    5  0.8511149E-008  0.7575510E+03  0.7818608E-02  0.9811490E-01
          2   -1    0    0  501    0  0.00000000000E+00  0.00000000000E+00  0.27591147337E+04  0.27591147337E+04  0.25500000000E-02 0. -1.
         -2   -1    0    0    0  501 -0.00000000000E+00 -0.00000000000E+00 -0.14387395165E+03  0.14387395167E+03  0.25500000000E-02 0.  1.
    8880023    1    1    2    0    0 -0.35497356803E+03  0.11860443617E+03  0.21849584604E+04  0.23125585238E+04  0.65864270000E+03 0.  0.
    8880022    1    1    2    0    0  0.35497356803E+03 -0.11860443617E+03  0.43028232161E+03  0.59043016148E+03  0.15294330000E+03 0.  0.
<mgrwt>
<rscale>  0 0.64749579E+03</rscale>
<asrwt>0</asrwt>
<pdfrwt beam="1">  1        2 0.42447923E+00 0.75755096E+03</pdfrwt>
<pdfrwt beam="2">  1       -2 0.22134452E-01 0.75755096E+03</pdfrwt>
<totfact> 0.45716490E+01</totfact>
</mgrwt>
</event>
<event>
 4    5  0.8511149E-008  0.8196824E+03  0.7818608E-02  0.9669751E-01
         -2   -1    0    0    0  501 -0.00000000000E+00  0.00000000000E+00  0.50863428115E+03  0.50863428116E+03  0.25500000000E-02 0.  1.
          2   -1    0    0  501    0  0.00000000000E+00 -0.00000000000E+00 -0.14626272562E+04  0.14626272562E+04  0.25500000000E-02 0. -1.
    8880023    1    1    2    0    0  0.48489871750E+03 -0.54242542616E+02  0.74105067588E+02  0.82302538659E+03  0.65864270000E+03 0.  1.
    8880022    1    1    2    0    0 -0.48489871750E+03  0.54242542616E+02 -0.10280980427E+04  0.11482361508E+04  0.15294330000E+03 0.  0.
<mgrwt>
<rscale>  0 0.72846720E+03</rscale>
<asrwt>0</asrwt>
<pdfrwt beam="1">  1        2 0.22501958E+00 0.81968239E+03</pdfrwt>
<pdfrwt beam="2">  1       -2 0.78251428E-01 0.81968239E+03</pdfrwt>
<totfact> 0.19653095E+01</totfact>
</mgrwt>
</event>
<event>
 4    5  0.8511149E-008  0.1163864E+04  0.7818608E-02  0.9193075E-01
          2   -1    0    0  501    0  0.00000000000E+00  0.00000000000E+00  0.16881263485E+04  0.16881263485E+04  0.25500000000E-02 0. -1.
         -2   -1    0    0    0  501 -0.00000000000E+00 -0.00000000000E+00 -0.14148419260E+04  0.14148419260E+04  0.25500000000E-02 0.  1.
    8880023    1    1    2    0    0 -0.38163726224E+03  0.88041087030E+03 -0.97694705015E+03  0.15195413932E+04  0.65864270000E+03 0.  1.
    8880022    1    1    2    0    0  0.38163726224E+03 -0.88041087030E+03  0.12502314727E+04  0.15834268814E+04  0.15294330000E+03 0.  0.
<mgrwt>
<rscale>  0 0.11125195E+04</rscale>
<asrwt>0</asrwt>
<pdfrwt beam="1">  1        2 0.25971175E+00 0.11638645E+04</pdfrwt>
<pdfrwt beam="2">  1       -2 0.21766799E+00 0.11638645E+04</pdfrwt>
<totfact> 0.99250626E-01</totfact>
</mgrwt>
</event>
<event>
 4    5  0.8511149E-008  0.1299267E+04  0.7818608E-02  0.9066193E-01
          2   -1    0    0  501    0  0.00000000000E+00  0.00000000000E+00  0.14148830481E+04  0.14148830481E+04  0.25500000000E-02 0. -1.
         -2   -1    0    0    0  501 -0.00000000000E+00 -0.00000000000E+00 -0.11757799915E+04  0.11757799915E+04  0.25500000000E-02 0.  1.
    8880023    1    1    2    0    0 -0.10979420810E+04 -0.22092482270E+03 -0.30740297936E+03  0.13351372171E+04  0.65864270000E+03 0.  0.
    8880022    1    1    2    0    0  0.10979420810E+04  0.22092482270E+03  0.54650603594E+03  0.12555258225E+04  0.15294330000E+03 0.  0.
<mgrwt>
<rscale>  0 0.12548055E+04</rscale>
<asrwt>0</asrwt>
<pdfrwt beam="1">  1        2 0.21767431E+00 0.12992670E+04</pdfrwt>
<pdfrwt beam="2">  1       -2 0.18088923E+00 0.12992670E+04</pdfrwt>
<totfact> 0.24384570E+00</totfact>
</mgrwt>
</event>
<event>
 4    5  0.8511149E-008  0.1161566E+04  0.7818608E-02  0.9195420E-01
         -2   -1    0    0    0  501 -0.00000000000E+00  0.00000000000E+00  0.68707430829E+03  0.68707430830E+03  0.25500000000E-02 0.  1.
          2   -1    0    0  501    0  0.00000000000E+00 -0.00000000000E+00 -0.18998102700E+04  0.18998102700E+04  0.25500000000E-02 0. -1.
    8880023    1    1    2    0    0  0.65888261888E+03 -0.69375637703E+03 -0.11199224364E+04  0.16135243060E+04  0.65864270000E+03 0.  1.
    8880022    1    1    2    0    0 -0.65888261888E+03  0.69375637703E+03 -0.92813525233E+02  0.97336027226E+03  0.15294330000E+03 0.  0.
<mgrwt>
<rscale>  0 0.11100827E+04</rscale>
<asrwt>0</asrwt>
<pdfrwt beam="1">  1        2 0.29227850E+00 0.11615655E+04</pdfrwt>
<pdfrwt beam="2">  1       -2 0.10570374E+00 0.11615655E+04</pdfrwt>
<totfact> 0.53918864E+00</totfact>
</mgrwt>
</event>
<event>
 4    5  0.8511149E-008  0.1036984E+04  0.7818608E-02  0.9334694E-01
         -2   -1    0    0    0  501 -0.00000000000E+00  0.00000000000E+00  0.32321720710E+03  0.32321720711E+03  0.25500000000E-02 0.  1.
          2   -1    0    0  501    0  0.00000000000E+00 -0.00000000000E+00 -0.29161786855E+04  0.29161786855E+04  0.25500000000E-02 0. -1.
    8880023    1    1    2    0    0 -0.67809608830E+03  0.42627614946E+03 -0.19199905312E+04  0.21821318719E+04  0.65864270000E+03 0. -1.
    8880022    1    1    2    0    0  0.67809608830E+03 -0.42627614946E+03 -0.67297094727E+03  0.10572640207E+04  0.15294330000E+03 0.  0.
<mgrwt>
<rscale>  0 0.97650620E+03</rscale>
<asrwt>0</asrwt>
<pdfrwt beam="1">  1        2 0.44864286E+00 0.10369840E+04</pdfrwt>
<pdfrwt beam="2">  1       -2 0.49725726E-01 0.10369840E+04</pdfrwt>
<totfact> 0.76348961E+00</totfact>
</mgrwt>
</event>
<event>
 4    5  0.8511149E-008  0.7090814E+03  0.7818608E-02  0.9961428E-01
          2   -1    0    0  501    0  0.00000000000E+00  0.00000000000E+00  0.40335176269E+04  0.40335176269E+04  0.25500000000E-02 0. -1.
         -2   -1    0    0    0  501 -0.00000000000E+00 -0.00000000000E+00 -0.10407146582E+03  0.10407146585E+03  0.25500000000E-02 0.  1.
    8880023    1    1    2    0    0 -0.17996352281E+03 -0.19130958432E+03  0.12196033785E+04  0.14107547036E+04  0.65864270000E+03 0.  0.
    8880022    1    1    2    0    0  0.17996352281E+03  0.19130958432E+03  0.27098427825E+04  0.27268343891E+04  0.15294330000E+03 0.  0.
<mgrwt>
<rscale>  0 0.57374388E+03</rscale>
<asrwt>0</asrwt>
<pdfrwt beam="1">  1        2 0.62054115E+00 0.70908140E+03</pdfrwt>
<pdfrwt beam="2">  1       -2 0.16010995E-01 0.70908140E+03</pdfrwt>
<totfact> 0.11207424E+01</totfact>
</mgrwt>
</event>
<event>
 4    5  0.8511149E-008  0.1330258E+04  0.7818608E-02  0.9039861E-01
         -2   -1    0    0    0  501 -0.00000000000E+00  0.00000000000E+00  0.14339576582E+04  0.14339576582E+04  0.25500000000E-02 0.  1.
          2   -1    0    0  501    0  0.00000000000E+00 -0.00000000000E+00 -0.18471327468E+04  0.18471327468E+04  0.25500000000E-02 0. -1.
    8880023    1    1    2    0    0  0.11108878153E+04  0.31890964538E+03  0.83700120844E+03  0.15716730987E+04  0.65864270000E+03 0.  0.
    8880022    1    1    2    0    0 -0.11108878153E+04 -0.31890964538E+03 -0.12501762971E+04  0.17094173063E+04  0.15294330000E+03 0.  0.
<mgrwt>
<rscale>  0 0.12870959E+04</rscale>
<asrwt>0</asrwt>
<pdfrwt beam="1">  1        2 0.28417427E+00 0.13302576E+04</pdfrwt>
<pdfrwt beam="2">  1       -2 0.22060887E+00 0.13302576E+04</pdfrwt>
<totfact> 0.76077701E-01</totfact>
</mgrwt>
</event>
<event>
 4    5  0.8511149E-008  0.9588731E+03  0.7818608E-02  0.9437461E-01
         -2   -1    0    0    0  501 -0.00000000000E+00  0.00000000000E+00  0.12610918988E+04  0.12610918988E+04  0.25500000000E-02 0.  1.
          2   -1    0    0  501    0  0.00000000000E+00 -0.00000000000E+00 -0.59141575118E+03  0.59141575118E+03  0.25500000000E-02 0. -1.
    8880023    1    1    2    0    0 -0.23298292864E+03  0.65676961551E+03  0.61022526762E+03  0.11365792785E+04  0.65864270000E+03 0.  0.
    8880022    1    1    2    0    0  0.23298292864E+03 -0.65676961551E+03  0.59450879997E+02  0.71592837145E+03  0.15294330000E+03 0.  0.
<mgrwt>
<rscale>  0 0.89055879E+03</rscale>
<asrwt>0</asrwt>
<pdfrwt beam="1">  1        2 0.90987038E-01 0.95887308E+03</pdfrwt>
<pdfrwt beam="2">  1       -2 0.19401414E+00 0.95887308E+03</pdfrwt>
<totfact> 0.73367689E+00</totfact>
</mgrwt>
</event>
<event>
 4    5  0.8511149E-008  0.8527234E+03  0.7818608E-02  0.9606641E-01
          2   -1    0    0  501    0  0.00000000000E+00  0.00000000000E+00  0.26256833991E+04  0.26256833991E+04  0.25500000000E-02 0. -1.
         -2   -1    0    0    0  501 -0.00000000000E+00 -0.00000000000E+00 -0.23182160704E+03  0.23182160705E+03  0.25500000000E-02 0.  1.
    8880023    1    1    2    0    0 -0.48847847929E+03  0.23391396411E+03  0.80795297987E+03  0.11747021713E+04  0.65864270000E+03 0.  0.
    8880022    1    1    2    0    0  0.48847847929E+03 -0.23391396411E+03  0.15859088122E+04  0.16828028348E+04  0.15294330000E+03 0.  0.
<mgrwt>
<rscale>  0 0.76858221E+03</rscale>
<asrwt>0</asrwt>
<pdfrwt beam="1">  1        2 0.40395134E+00 0.85272339E+03</pdfrwt>
<pdfrwt beam="2">  1       -2 0.35664859E-01 0.85272339E+03</pdfrwt>
<totfact> 0.22430054E+01</totfact>
</mgrwt>
</event>
<event>
 4    5  0.8511149E-008  0.9950718E+03  0.7818608E-02  0.9388034E-01
         -2   -1    0    0    0  501 -0.00000000000E+00  0.00000000000E+00  0.87660188034E+03  0.87660188035E+03  0.25500000000E-02 0.  1.
          2   -1    0    0  501    0  0.00000000000E+00 -0.00000000000E+00 -0.15757003905E+04  0.15757003905E+04  0.25500000000E-02 0. -1.
    8880023    1    1    2    0    0  0.42270246029E+03  0.61455695136E+03  0.43525487150E+03  0.10861006518E+04  0.65864270000E+03 0.  1.
    8880022    1    1    2    0    0 -0.42270246029E+03 -0.61455695136E+03 -0.11343533816E+04  0.13662016190E+04  0.15294330000E+03 0.  0.
<mgrwt>
<rscale>  0 0.93067025E+03</rscale>
<asrwt>0</asrwt>
<pdfrwt beam="1">  1        2 0.24241544E+00 0.99507177E+03</pdfrwt>
<pdfrwt beam="2">  1       -2 0.13486183E+00 0.99507177E+03</pdfrwt>
<totfact> 0.45258095E+00</totfact>
</mgrwt>
</event>
<event>
 4    5  0.8511149E-008  0.1488145E+04  0.7818608E-02  0.8918053E-01
          2   -1    0    0  501    0  0.00000000000E+00  0.00000000000E+00  0.26267963003E+04  0.26267963003E+04  0.25500000000E-02 0. -1.
         -2   -1    0    0    0  501 -0.00000000000E+00 -0.00000000000E+00 -0.90177107854E+03  0.90177107854E+03  0.25500000000E-02 0.  1.
    8880023    1    1    2    0    0  0.35317628726E+03  0.12868685842E+04  0.20841271781E+03  0.15026677311E+04  0.65864270000E+03 0.  1.
    8880022    1    1    2    0    0 -0.35317628726E+03 -0.12868685842E+04  0.15166125040E+04  0.20258996478E+04  0.15294330000E+03 0.  0.
<mgrwt>
<rscale>  0 0.14505013E+04</rscale>
<asrwt>0</asrwt>
<pdfrwt beam="1">  1        2 0.40412251E+00 0.14881446E+04</pdfrwt>
<pdfrwt beam="2">  1       -2 0.13873401E+00 0.14881446E+04</pdfrwt>
<totfact> 0.10232917E+00</totfact>
</mgrwt>
</event>
<event>
 4    5  0.8511149E-008  0.8681171E+03  0.7818608E-02  0.9579285E-01
         -2   -1    0    0    0  501 -0.00000000000E+00  0.00000000000E+00  0.65197086861E+03  0.65197086862E+03  0.25500000000E-02 0.  1.
          2   -1    0    0  501    0  0.00000000000E+00 -0.00000000000E+00 -0.17520186991E+04  0.17520186991E+04  0.25500000000E-02 0. -1.
    8880023    1    1    2    0    0  0.23909491522E+03 -0.51249462417E+03  0.27394472360E+03  0.91031480057E+03  0.65864270000E+03 0.  0.
    8880022    1    1    2    0    0 -0.23909491522E+03  0.51249462417E+03 -0.13739925540E+04  0.14936747671E+04  0.15294330000E+03 0.  0.
<mgrwt>
<rscale>  0 0.78682570E+03</rscale>
<asrwt>0</asrwt>
<pdfrwt beam="1">  1        2 0.26954134E+00 0.86811711E+03</pdfrwt>
<pdfrwt beam="2">  1       -2 0.10030321E+00 0.86811711E+03</pdfrwt>
<totfact> 0.76241064E+00</totfact>
</mgrwt>
</event>
<event>
 4    5  0.8511149E-008  0.6743705E+03  0.7818608E-02  0.1012706E+00
         -2   -1    0    0    0  501 -0.00000000000E+00  0.00000000000E+00  0.90348878656E+03  0.90348878657E+03  0.25500000000E-02 0.  1.
          2   -1    0    0  501    0  0.00000000000E+00 -0.00000000000E+00 -0.75443546274E+03  0.75443546275E+03  0.25500000000E-02 0. -1.
    8880023    1    1    2    0    0 -0.13335944761E+02  0.14417870194E+03  0.75742157012E+03  0.10141316417E+04  0.65864270000E+03 0.  1.
    8880022    1    1    2    0    0  0.13335944761E+02 -0.14417870194E+03 -0.60836824630E+03  0.64379260763E+03  0.15294330000E+03 0.  0.
<mgrwt>
<rscale>  0 0.50413191E+03</rscale>
<asrwt>0</asrwt>
<pdfrwt beam="1">  1        2 0.11606699E+00 0.67437049E+03</pdfrwt>
<pdfrwt beam="2">  1       -2 0.13899827E+00 0.67437049E+03</pdfrwt>
<totfact> 0.13937208E+01</totfact>
</mgrwt>
</event>
<event>
 4    5  0.8511149E-008  0.7148639E+03  0.7818608E-02  0.9940364E-01
          2   -1    0    0  501    0  0.00000000000E+00  0.00000000000E+00  0.18108946941E+04  0.18108946941E+04  0.25500000000E-02 0. -1.
         -2   -1    0    0    0  501 -0.00000000000E+00 -0.00000000000E+00 -0.25208497574E+03  0.25208497575E+03  0.25500000000E-02 0.  1.
    8880023    1    1    2    0    0  0.25463868602E+03 -0.11126232769E+03  0.31823875091E+03  0.78250001586E+03  0.65864270000E+03 0.  1.
    8880022    1    1    2    0    0 -0.25463868602E+03  0.11126232769E+03  0.12405709675E+04  0.12804796540E+04  0.15294330000E+03 0.  0.
<mgrwt>
<rscale>  0 0.58344328E+03</rscale>
<asrwt>0</asrwt>
<pdfrwt beam="1">  1        2 0.27859918E+00 0.71486388E+03</pdfrwt>
<pdfrwt beam="2">  1       -2 0.38782304E-01 0.71486388E+03</pdfrwt>
<totfact> 0.55078173E+01</totfact>
</mgrwt>
</event>
<event>
 4    5  0.8511149E-008  0.1351650E+04  0.7818608E-02  0.9022193E-01
          2   -1    0    0  501    0  0.00000000000E+00  0.00000000000E+00  0.14230191734E+04  0.14230191734E+04  0.25500000000E-02 0. -1.
         -2   -1    0    0    0  501 -0.00000000000E+00 -0.00000000000E+00 -0.11351234867E+04  0.11351234867E+04  0.25500000000E-02 0.  1.
    8880023    1    1    2    0    0 -0.34919355981E+03 -0.11274798775E+04  0.16163253706E+03  0.13612796552E+04  0.65864270000E+03 0.  1.
    8880022    1    1    2    0    0  0.34919355981E+03  0.11274798775E+04  0.12626314963E+03  0.11968630048E+04  0.15294330000E+03 0. -1.
<mgrwt>
<rscale>  0 0.13093378E+04</rscale>
<asrwt>0</asrwt>
<pdfrwt beam="1">  1        2 0.21892603E+00 0.13516498E+04</pdfrwt>
<pdfrwt beam="2">  1       -2 0.17463438E+00 0.13516498E+04</pdfrwt>
<totfact> 0.26554849E+00</totfact>
</mgrwt>
</event>
<event>
 4    5  0.8511149E-008  0.1170473E+04  0.7818608E-02  0.9186373E-01
          2   -1    0    0  501    0  0.00000000000E+00  0.00000000000E+00  0.16899290380E+04  0.16899290380E+04  0.25500000000E-02 0. -1.
         -2   -1    0    0    0  501 -0.00000000000E+00 -0.00000000000E+00 -0.12392497137E+04  0.12392497137E+04  0.25500000000E-02 0.  1.
    8880023    1    1    2    0    0  0.95044677590E+03 -0.18123871616E+03 -0.74195096800E+03  0.13858203315E+04  0.65864270000E+03 0.  0.
    8880022    1    1    2    0    0 -0.95044677590E+03  0.18123871616E+03  0.11926302923E+04  0.15433584202E+04  0.15294330000E+03 0.  0.
<mgrwt>
<rscale>  0 0.11195194E+04</rscale>
<asrwt>0</asrwt>
<pdfrwt beam="1">  1        2 0.25998908E+00 0.11704729E+04</pdfrwt>
<pdfrwt beam="2">  1       -2 0.19065380E+00 0.11704729E+04</pdfrwt>
<totfact> 0.14840362E+00</totfact>
</mgrwt>
</event>
<event>
 4    5  0.8511149E-008  0.8885595E+03  0.7818608E-02  0.9544653E-01
         -2   -1    0    0    0  501 -0.00000000000E+00  0.00000000000E+00  0.18984177143E+03  0.18984177145E+03  0.25500000000E-02 0.  1.
          2   -1    0    0  501    0  0.00000000000E+00 -0.00000000000E+00 -0.31196357626E+04  0.31196357626E+04  0.25500000000E-02 0. -1.
    8880023    1    1    2    0    0  0.20963671830E+03 -0.55837277202E+03 -0.20632922481E+04  0.22464889970E+04  0.65864270000E+03 0.  0.
    8880022    1    1    2    0    0 -0.20963671830E+03  0.55837277202E+03 -0.86650174309E+03  0.10629885371E+04  0.15294330000E+03 0.  0.
<mgrwt>
<rscale>  0 0.81070316E+03</rscale>
<asrwt>0</asrwt>
<pdfrwt beam="1">  1        2 0.47994393E+00 0.88855946E+03</pdfrwt>
<pdfrwt beam="2">  1       -2 0.29206429E-01 0.88855946E+03</pdfrwt>
<totfact> 0.16399889E+01</totfact>
</mgrwt>
</event>
<event>
 4    5  0.8511149E-008  0.1158191E+04  0.7818608E-02  0.9198875E-01
         -2   -1    0    0    0  501 -0.00000000000E+00  0.00000000000E+00  0.99065668905E+03  0.99065668905E+03  0.25500000000E-02 0.  1.
          2   -1    0    0  501    0  0.00000000000E+00 -0.00000000000E+00 -0.21513260281E+04  0.21513260281E+04  0.25500000000E-02 0. -1.
    8880023    1    1    2    0    0 -0.58705582443E+03  0.75030837776E+03  0.46782431750E+03  0.12491064811E+04  0.65864270000E+03 0.  0.
    8880022    1    1    2    0    0  0.58705582443E+03 -0.75030837776E+03 -0.16284936566E+04  0.18928762361E+04  0.15294330000E+03 0.  0.
<mgrwt>
<rscale>  0 0.11065049E+04</rscale>
<asrwt>0</asrwt>
<pdfrwt beam="1">  1        2 0.33097323E+00 0.11581914E+04</pdfrwt>
<pdfrwt beam="2">  1       -2 0.15240872E+00 0.11581914E+04</pdfrwt>
<totfact> 0.15463952E+00</totfact>
</mgrwt>
</event>
<event>
 4    5  0.8511149E-008  0.8160934E+03  0.7818608E-02  0.9677022E-01
         -2   -1    0    0    0  501 -0.00000000000E+00  0.00000000000E+00  0.31853061449E+03  0.31853061450E+03  0.25500000000E-02 0.  1.
          2   -1    0    0  501    0  0.00000000000E+00 -0.00000000000E+00 -0.28145567243E+04  0.28145567243E+04  0.25500000000E-02 0. -1.
    8880023    1    1    2    0    0 -0.46605697652E+03 -0.12243029315E+03 -0.28411409650E+03  0.86413500573E+03  0.65864270000E+03 0.  1.
    8880022    1    1    2    0    0  0.46605697652E+03  0.12243029315E+03 -0.22119120133E+04  0.22689523330E+04  0.15294330000E+03 0.  0.
<mgrwt>
<rscale>  0 0.72401553E+03</rscale>
<asrwt>0</asrwt>
<pdfrwt beam="1">  1        2 0.43300871E+00 0.81609343E+03</pdfrwt>
<pdfrwt beam="2">  1       -2 0.49004712E-01 0.81609343E+03</pdfrwt>
<totfact> 0.93461753E+00</totfact>
</mgrwt>
</event>
<event>
 4    5  0.8511149E-008  0.1161976E+04  0.7818608E-02  0.9195001E-01
          2   -1    0    0  501    0  0.00000000000E+00  0.00000000000E+00  0.24443693764E+04  0.24443693764E+04  0.25500000000E-02 0. -1.
         -2   -1    0    0    0  501 -0.00000000000E+00 -0.00000000000E+00 -0.70120330795E+03  0.70120330795E+03  0.25500000000E-02 0.  1.
    8880023    1    1    2    0    0  0.94060735011E+03 -0.17786377602E+03  0.12671081843E+02  0.11620449529E+04  0.65864270000E+03 0.  0.
    8880022    1    1    2    0    0 -0.94060735011E+03  0.17786377602E+03  0.17304949866E+04  0.19835277315E+04  0.15294330000E+03 0.  0.
<mgrwt>
<rscale>  0 0.11105177E+04</rscale>
<asrwt>0</asrwt>
<pdfrwt beam="1">  1        2 0.37605683E+00 0.11619759E+04</pdfrwt>
<pdfrwt beam="2">  1       -2 0.10787743E+00 0.11619759E+04</pdfrwt>
<totfact> 0.25459590E+00</totfact>
</mgrwt>
</event>
<event>
 4    5  0.8511149E-008  0.6664640E+03  0.7818608E-02  0.1018335E+00
          2   -1    0    0  501    0  0.00000000000E+00  0.00000000000E+00  0.27702264774E+03  0.27702264775E+03  0.25500000000E-02 0. -1.
         -2   -1    0    0    0  501 -0.00000000000E+00 -0.00000000000E+00 -0.85019770667E+03  0.85019770667E+03  0.25500000000E-02 0.  1.
    8880023    1    1    2    0    0  0.24180675669E+02  0.98890892860E+02 -0.64733104073E+03  0.92909192027E+03  0.65864270000E+03 0.  1.
    8880022    1    1    2    0    0 -0.24180675669E+02 -0.98890892860E+02  0.74155981795E+02  0.19812843415E+03  0.15294330000E+03 0.  0.
<mgrwt>
<rscale>  0 0.48292094E+03</rscale>
<asrwt>0</asrwt>
<pdfrwt beam="1">  1        2 0.42618869E-01 0.66646404E+03</pdfrwt>
<pdfrwt beam="2">  1       -2 0.13079965E+00 0.66646404E+03</pdfrwt>
<totfact> 0.52105320E+01</totfact>
</mgrwt>
</event>
<event>
 4    5  0.8511149E-008  0.7769733E+03  0.7818608E-02  0.9762995E-01
         -2   -1    0    0    0  501 -0.00000000000E+00  0.00000000000E+00  0.89690930231E+03  0.89690930232E+03  0.25500000000E-02 0.  1.
          2   -1    0    0  501    0  0.00000000000E+00 -0.00000000000E+00 -0.10898924470E+04  0.10898924470E+04  0.25500000000E-02 0. -1.
    8880023    1    1    2    0    0 -0.16682968866E+03 -0.37688869541E+03  0.66503061029E+03  0.10227185109E+04  0.65864270000E+03 0.  1.
    8880022    1    1    2    0    0  0.16682968866E+03  0.37688869541E+03 -0.85801375495E+03  0.96408323834E+03  0.15294330000E+03 0.  0.
<mgrwt>
<rscale>  0 0.67386794E+03</rscale>
<asrwt>0</asrwt>
<pdfrwt beam="1">  1        2 0.16767576E+00 0.77697326E+03</pdfrwt>
<pdfrwt beam="2">  1       -2 0.13798605E+00 0.77697326E+03</pdfrwt>
<totfact> 0.83703110E+00</totfact>
</mgrwt>
</event>
<event>
 4    5  0.8511149E-008  0.1806466E+04  0.7818608E-02  0.8718968E-01
          2   -1    0    0  501    0  0.00000000000E+00  0.00000000000E+00  0.19848221562E+04  0.19848221562E+04  0.25500000000E-02 0. -1.
         -2   -1    0    0    0  501 -0.00000000000E+00 -0.00000000000E+00 -0.27199764128E+04  0.27199764128E+04  0.25500000000E-02 0.  1.
    8880023    1    1    2    0    0 -0.54139368047E+03  0.15926082427E+04 -0.19241232766E+04  0.26392363899E+04  0.65864270000E+03 0.  0.
    8880022    1    1    2    0    0  0.54139368047E+03 -0.15926082427E+04  0.11889690201E+04  0.20655621790E+04  0.15294330000E+03 0.  0.
<mgrwt>
<rscale>  0 0.17763687E+04</rscale>
<asrwt>0</asrwt>
<pdfrwt beam="1">  1        2 0.30535725E+00 0.18064657E+04</pdfrwt>
<pdfrwt beam="2">  1       -2 0.41845791E+00 0.18064657E+04</pdfrwt>
<totfact> 0.34563342E-02</totfact>
</mgrwt>
</event>
<event>
 4    5  0.8511149E-008  0.7896714E+03  0.7818608E-02  0.9733590E-01
          2   -1    0    0  501    0  0.00000000000E+00  0.00000000000E+00  0.34086876268E+04  0.34086876268E+04  0.25500000000E-02 0. -1.
         -2   -1    0    0    0  501 -0.00000000000E+00 -0.00000000000E+00 -0.21873377350E+03  0.21873377351E+03  0.25500000000E-02 0.  1.
    8880023    1    1    2    0    0 -0.51636643138E+02  0.43255554701E+03  0.58727749413E+03  0.98411163266E+03  0.65864270000E+03 0.  0.
    8880022    1    1    2    0    0  0.51636643138E+02 -0.43255554701E+03  0.26026763592E+04  0.26433097677E+04  0.15294330000E+03 0.  0.
<mgrwt>
<rscale>  0 0.69051575E+03</rscale>
<asrwt>0</asrwt>
<pdfrwt beam="1">  1        2 0.52441349E+00 0.78967136E+03</pdfrwt>
<pdfrwt beam="2">  1       -2 0.33651349E-01 0.78967136E+03</pdfrwt>
<totfact> 0.83055092E+00</totfact>
</mgrwt>
</event>
<event>
 4    5  0.8511149E-008  0.7825803E+03  0.7818608E-02  0.9749810E-01
          2   -1    0    0  501    0  0.00000000000E+00  0.00000000000E+00  0.18215314673E+04  0.18215314673E+04  0.25500000000E-02 0. -1.
         -2   -1    0    0    0  501 -0.00000000000E+00 -0.00000000000E+00 -0.48003884241E+03  0.48003884242E+03  0.25500000000E-02 0.  1.
    8880023    1    1    2    0    0  0.41855305223E+03  0.58609659045E+02 -0.10248208577E+03  0.78926201849E+03  0.65864270000E+03 0.  1.
    8880022    1    1    2    0    0 -0.41855305223E+03 -0.58609659045E+02  0.14439747106E+04  0.15123082912E+04  0.15294330000E+03 0.  0.
<mgrwt>
<rscale>  0 0.68126992E+03</rscale>
<asrwt>0</asrwt>
<pdfrwt beam="1">  1        2 0.28023561E+00 0.78258032E+03</pdfrwt>
<pdfrwt beam="2">  1       -2 0.73852130E-01 0.78258032E+03</pdfrwt>
<totfact> 0.14234869E+01</totfact>
</mgrwt>
</event>
<event>
 4    5  0.8511149E-008  0.6817311E+03  0.7818608E-02  0.1008361E+00
         -2   -1    0    0    0  501 -0.00000000000E+00  0.00000000000E+00  0.66526053800E+03  0.66526053801E+03  0.25500000000E-02 0.  1.
          2   -1    0    0  501    0  0.00000000000E+00 -0.00000000000E+00 -0.20264842302E+04  0.20264842302E+04  0.25500000000E-02 0. -1.
    8880023    1    1    2    0    0 -0.17140003826E+03  0.39612223954E+02  0.48131519471E+03  0.83451879806E+03  0.65864270000E+03 0.  1.
    8880022    1    1    2    0    0  0.17140003826E+03 -0.39612223954E+02 -0.18425388869E+04  0.18572259702E+04  0.15294330000E+03 0.  0.
<mgrwt>
<rscale>  0 0.52131299E+03</rscale>
<asrwt>0</asrwt>
<pdfrwt beam="1">  1        2 0.31176680E+00 0.68173111E+03</pdfrwt>
<pdfrwt beam="2">  1       -2 0.10234778E+00 0.68173111E+03</pdfrwt>
<totfact> 0.52951186E+00</totfact>
</mgrwt>
</event>
<event>
 4    5  0.8511149E-008  0.7284509E+03  0.7818608E-02  0.9894964E-01
          2   -1    0    0  501    0  0.00000000000E+00  0.00000000000E+00  0.30103186264E+03  0.30103186265E+03  0.25500000000E-02 0. -1.
         -2   -1    0    0    0  501 -0.00000000000E+00 -0.00000000000E+00 -0.11025155317E+04  0.11025155317E+04  0.25500000000E-02 0.  1.
    8880023    1    1    2    0    0 -0.18900428223E+03 -0.24720007606E+03 -0.76265654360E+03  0.10546495655E+04  0.65864270000E+03 0.  0.
    8880022    1    1    2    0    0  0.18900428223E+03  0.24720007606E+03 -0.38827125512E+02  0.34889782888E+03  0.15294330000E+03 0.  1.
<mgrwt>
<rscale>  0 0.60505976E+03</rscale>
<asrwt>0</asrwt>
<pdfrwt beam="1">  1        2 0.46312595E-01 0.72845089E+03</pdfrwt>
<pdfrwt beam="2">  1       -2 0.16961777E+00 0.72845089E+03</pdfrwt>
<totfact> 0.23814226E+01</totfact>
</mgrwt>
</event>
<event>
 4    5  0.8511149E-008  0.8168341E+03  0.7818608E-02  0.9675514E-01
         -2   -1    0    0    0  501 -0.00000000000E+00  0.00000000000E+00  0.58716503643E+03  0.58716503643E+03  0.25500000000E-02 0.  1.
          2   -1    0    0  501    0  0.00000000000E+00 -0.00000000000E+00 -0.24928249330E+04  0.24928249330E+04  0.25500000000E-02 0. -1.
    8880023    1    1    2    0    0 -0.20412222382E+03 -0.43788337885E+03  0.25891570670E+03  0.85688697339E+03  0.65864270000E+03 0.  1.
    8880022    1    1    2    0    0  0.20412222382E+03  0.43788337885E+03 -0.21645756032E+04  0.22231029960E+04  0.15294330000E+03 0.  0.
<mgrwt>
<rscale>  0 0.72493596E+03</rscale>
<asrwt>0</asrwt>
<pdfrwt beam="1">  1        2 0.38351152E+00 0.81683410E+03</pdfrwt>
<pdfrwt beam="2">  1       -2 0.90333083E-01 0.81683410E+03</pdfrwt>
<totfact> 0.38212655E+00</totfact>
</mgrwt>
</event>
<event>
 4    5  0.1233567E-007  0.8772064E+03  0.7818608E-02  0.9563660E-01
          2   -1    0    0  501    0  0.00000000000E+00  0.00000000000E+00  0.26239351535E+04  0.26239351535E+04  0.25500000000E-02 0. -1.
         -2   -1    0    0    0  501 -0.00000000000E+00 -0.00000000000E+00 -0.22345485657E+04  0.22345485657E+04  0.25500000000E-02 0.  1.
    8880023    1    1    2    0    0  0.43981092118E+03  0.37715680162E+03 -0.21116817748E+04  0.22866331196E+04  0.65864270000E+03 0.  1.
    8880022    1    1    2    0    0 -0.43981092118E+03 -0.37715680162E+03  0.25010683625E+04  0.25718505996E+04  0.15294330000E+03 0.  0.
<mgrwt>
<rscale>  0 0.79748795E+03</rscale>
<asrwt>0</asrwt>
<pdfrwt beam="1">  1        2 0.40368233E+00 0.87720642E+03</pdfrwt>
<pdfrwt beam="2">  1       -2 0.34377670E+00 0.87720642E+03</pdfrwt>
<totfact> 0.53092694E-02</totfact>
</mgrwt>
</event>
<event>
 4    5  0.8511149E-008  0.1389018E+04  0.7818608E-02  0.8992263E-01
         -2   -1    0    0    0  501 -0.00000000000E+00  0.00000000000E+00  0.83124085156E+03  0.83124085157E+03  0.25500000000E-02 0.  1.
          2   -1    0    0  501    0  0.00000000000E+00 -0.00000000000E+00 -0.26964340722E+04  0.26964340722E+04  0.25500000000E-02 0. -1.
    8880023    1    1    2    0    0 -0.81532469010E+03  0.91148574849E+03 -0.12414476933E+03  0.13945546780E+04  0.65864270000E+03 0.  0.
    8880022    1    1    2    0    0  0.81532469010E+03 -0.91148574849E+03 -0.17410484513E+04  0.21331202457E+04  0.15294330000E+03 0.  0.
<mgrwt>
<rscale>  0 0.13481056E+04</rscale>
<asrwt>0</asrwt>
<pdfrwt beam="1">  1        2 0.41483601E+00 0.13890179E+04</pdfrwt>
<pdfrwt beam="2">  1       -2 0.12788321E+00 0.13890179E+04</pdfrwt>
<totfact> 0.11603509E+00</totfact>
</mgrwt>
</event>
<event>
 4    5  0.8511149E-008  0.7346107E+03  0.7818608E-02  0.9875933E-01
         -2   -1    0    0    0  501 -0.00000000000E+00  0.00000000000E+00  0.44857033257E+03  0.44857033257E+03  0.25500000000E-02 0.  1.
          2   -1    0    0  501    0  0.00000000000E+00 -0.00000000000E+00 -0.10857361900E+04  0.10857361900E+04  0.25500000000E-02 0. -1.
    8880023    1    1    2    0    0  0.17416036217E+03 -0.27479243723E+03  0.73107512474E+02  0.73823954781E+03  0.65864270000E+03 0.  1.
    8880022    1    1    2    0    0 -0.17416036217E+03  0.27479243723E+03 -0.71027336993E+03  0.79606697479E+03  0.15294330000E+03 0.  0.
<mgrwt>
<rscale>  0 0.61441980E+03</rscale>
<asrwt>0</asrwt>
<pdfrwt beam="1">  1        2 0.16703634E+00 0.73461073E+03</pdfrwt>
<pdfrwt beam="2">  1       -2 0.69010821E-01 0.73461073E+03</pdfrwt>
<totfact> 0.43408385E+01</totfact>
</mgrwt>
</event>
<event>
 4    5  0.8511149E-008  0.6834325E+03  0.7818608E-02  0.1007445E+00
         -2   -1    0    0    0  501 -0.00000000000E+00  0.00000000000E+00  0.20417274067E+03  0.20417274068E+03  0.25500000000E-02 0.  1.
          2   -1    0    0  501    0  0.00000000000E+00 -0.00000000000E+00 -0.12048292035E+04  0.12048292035E+04  0.25500000000E-02 0. -1.
    8880023    1    1    2    0    0  0.77520801001E+01  0.18223528598E+03 -0.47596536321E+03  0.83284033730E+03  0.65864270000E+03 0.  1.
    8880022    1    1    2    0    0 -0.77520801001E+01 -0.18223528598E+03 -0.52469109961E+03  0.57616160687E+03  0.15294330000E+03 0.  0.
<mgrwt>
<rscale>  0 0.52502827E+03</rscale>
<asrwt>0</asrwt>
<pdfrwt beam="1">  1        2 0.18535833E+00 0.68343251E+03</pdfrwt>
<pdfrwt beam="2">  1       -2 0.31411192E-01 0.68343251E+03</pdfrwt>
<totfact> 0.17995358E+02</totfact>
</mgrwt>
</event>
<event>
 4    5  0.8511149E-008  0.1688565E+04  0.7818608E-02  0.8786820E-01
          2   -1    0    0  501    0  0.00000000000E+00  0.00000000000E+00  0.22156386747E+04  0.22156386747E+04  0.25500000000E-02 0. -1.
         -2   -1    0    0    0  501 -0.00000000000E+00 -0.00000000000E+00 -0.13300563519E+04  0.13300563519E+04  0.25500000000E-02 0.  1.
    8880023    1    1    2    0    0 -0.12331801797E+03  0.15499139329E+04 -0.11162631345E+03  0.16922503281E+04  0.65864270000E+03 0.  0.
    8880022    1    1    2    0    0  0.12331801797E+03 -0.15499139329E+04  0.99720863628E+03  0.18534446985E+04  0.15294330000E+03 0.  0.
<mgrwt>
<rscale>  0 0.16560770E+04</rscale>
<asrwt>0</asrwt>
<pdfrwt beam="1">  1        2 0.34086748E+00 0.16885647E+04</pdfrwt>
<pdfrwt beam="2">  1       -2 0.20462406E+00 0.16885647E+04</pdfrwt>
<totfact> 0.57848157E-01</totfact>
</mgrwt>
</event>
<event>
 4    5  0.8511149E-008  0.9569741E+03  0.7818608E-02  0.9440150E-01
         -2   -1    0    0    0  501 -0.00000000000E+00  0.00000000000E+00  0.27275459311E+03  0.27275459312E+03  0.25500000000E-02 0.  1.
          2   -1    0    0  501    0  0.00000000000E+00 -0.00000000000E+00 -0.31579649284E+04  0.31579649284E+04  0.25500000000E-02 0. -1.
    8880023    1    1    2    0    0 -0.62151210515E+03 -0.30937334344E+03 -0.86828433517E+03  0.12921753192E+04  0.65864270000E+03 0.  0.
    8880022    1    1    2    0    0  0.62151210515E+03  0.30937334344E+03 -0.20169260001E+04  0.21385442024E+04  0.15294330000E+03 0.  0.
<mgrwt>
<rscale>  0 0.88843871E+03</rscale>
<asrwt>0</asrwt>
<pdfrwt beam="1">  1        2 0.48584073E+00 0.95697407E+03</pdfrwt>
<pdfrwt beam="2">  1       -2 0.41962247E-01 0.95697407E+03</pdfrwt>
<totfact> 0.76817439E+00</totfact>
</mgrwt>
</event>
<event>
 4    5  0.8511149E-008  0.9655145E+03  0.7818608E-02  0.9428135E-01
         -2   -1    0    0    0  501 -0.00000000000E+00  0.00000000000E+00  0.49442792750E+03  0.49442792751E+03  0.25500000000E-02 0.  1.
          2   -1    0    0  501    0  0.00000000000E+00 -0.00000000000E+00 -0.14917723344E+04  0.14917723344E+04  0.25500000000E-02 0. -1.
    8880023    1    1    2    0    0 -0.16560484341E+03  0.68628208229E+03 -0.38579967314E+03  0.10397401861E+04  0.65864270000E+03 0.  1.
    8880022    1    1    2    0    0  0.16560484341E+03 -0.68628208229E+03 -0.61154473375E+03  0.94646007577E+03  0.15294330000E+03 0. -1.
<mgrwt>
<rscale>  0 0.89796019E+03</rscale>
<asrwt>0</asrwt>
<pdfrwt beam="1">  1        2 0.22950343E+00 0.96551451E+03</pdfrwt>
<pdfrwt beam="2">  1       -2 0.76065836E-01 0.96551451E+03</pdfrwt>
<totfact> 0.19866551E+01</totfact>
</mgrwt>
</event>
<event>
 4    5  0.8511149E-008  0.9851917E+03  0.7818608E-02  0.9401193E-01
          2   -1    0    0  501    0  0.00000000000E+00  0.00000000000E+00  0.17843451752E+04  0.17843451752E+04  0.25500000000E-02 0. -1.
         -2   -1    0    0    0  501 -0.00000000000E+00 -0.00000000000E+00 -0.10773906648E+04  0.10773906648E+04  0.25500000000E-02 0.  1.
    8880023    1    1    2    0    0 -0.25919242105E+03  0.68528226883E+03 -0.74034554031E+03  0.12323612394E+04  0.65864270000E+03 0.  1.
    8880022    1    1    2    0    0  0.25919242105E+03 -0.68528226883E+03  0.14473000507E+04  0.16293746005E+04  0.15294330000E+03 0.  0.
<mgrwt>
<rscale>  0 0.91977566E+03</rscale>
<asrwt>0</asrwt>
<pdfrwt beam="1">  1        2 0.27451464E+00 0.98519171E+03</pdfrwt>
<pdfrwt beam="2">  1       -2 0.16575241E+00 0.98519171E+03</pdfrwt>
<totfact> 0.20066623E+00</totfact>
</mgrwt>
</event>
<event>
 4    5  0.8511149E-008  0.7191316E+03  0.7818608E-02  0.9925535E-01
          2   -1    0    0  501    0  0.00000000000E+00  0.00000000000E+00  0.30842869192E+03  0.30842869193E+03  0.25500000000E-02 0. -1.
         -2   -1    0    0    0  501 -0.00000000000E+00 -0.00000000000E+00 -0.17246132508E+04  0.17246132508E+04  0.25500000000E-02 0.  1.
    8880023    1    1    2    0    0 -0.21737294696E+03 -0.18997108873E+03 -0.15271621812E+04  0.16880090482E+04  0.65864270000E+03 0.  1.
    8880022    1    1    2    0    0  0.21737294696E+03  0.18997108873E+03  0.11097762238E+03  0.34503289453E+03  0.15294330000E+03 0.  0.
<mgrwt>
<rscale>  0 0.59039535E+03</rscale>
<asrwt>0</asrwt>
<pdfrwt beam="1">  1        2 0.47450569E-01 0.71913157E+03</pdfrwt>
<pdfrwt beam="2">  1       -2 0.26532511E+00 0.71913157E+03</pdfrwt>
<totfact> 0.57022930E+00</totfact>
</mgrwt>
</event>
<event>
 4    5  0.8511149E-008  0.9500666E+03  0.7818608E-02  0.9450018E-01
          2   -1    0    0  501    0  0.00000000000E+00  0.00000000000E+00  0.82094310887E+03  0.82094310887E+03  0.25500000000E-02 0. -1.
         -2   -1    0    0    0  501 -0.00000000000E+00 -0.00000000000E+00 -0.16774363992E+04  0.16774363992E+04  0.25500000000E-02 0.  1.
    8880023    1    1    2    0    0 -0.32793576143E+03  0.60106117331E+03 -0.13426744651E+04  0.16448104216E+04  0.65864270000E+03 0.  0.
    8880022    1    1    2    0    0  0.32793576143E+03 -0.60106117331E+03  0.48618117473E+03  0.85356908646E+03  0.15294330000E+03 0.  0.
<mgrwt>
<rscale>  0 0.88071245E+03</rscale>
<asrwt>0</asrwt>
<pdfrwt beam="1">  1        2 0.12629894E+00 0.95006663E+03</pdfrwt>
<pdfrwt beam="2">  1       -2 0.25806714E+00 0.95006663E+03</pdfrwt>
<totfact> 0.19165221E+00</totfact>
</mgrwt>
</event>
<event>
 4    5  0.8511149E-008  0.7815070E+03  0.7818608E-02  0.9752309E-01
          2   -1    0    0  501    0  0.00000000000E+00  0.00000000000E+00  0.20863021580E+04  0.20863021580E+04  0.25500000000E-02 0. -1.
         -2   -1    0    0    0  501 -0.00000000000E+00 -0.00000000000E+00 -0.27269969546E+03  0.27269969548E+03  0.25500000000E-02 0.  1.
    8880023    1    1    2    0    0  0.34996314890E+03 -0.23338546912E+03  0.40341378260E+03  0.87948613920E+03  0.65864270000E+03 0.  0.
    8880022    1    1    2    0    0 -0.34996314890E+03  0.23338546912E+03  0.14101886800E+04  0.14795157143E+04  0.15294330000E+03 0.  0.
<mgrwt>
<rscale>  0 0.67985948E+03</rscale>
<asrwt>0</asrwt>
<pdfrwt beam="1">  1        2 0.32096956E+00 0.78150700E+03</pdfrwt>
<pdfrwt beam="2">  1       -2 0.41953799E-01 0.78150700E+03</pdfrwt>
<totfact> 0.33153974E+01</totfact>
</mgrwt>
</event>
<event>
 4    5  0.8511149E-008  0.1290917E+04  0.7818608E-02  0.9073443E-01
         -2   -1    0    0    0  501 -0.00000000000E+00  0.00000000000E+00  0.14558713479E+04  0.14558713479E+04  0.25500000000E-02 0.  1.
          2   -1    0    0  501    0  0.00000000000E+00 -0.00000000000E+00 -0.15394077755E+04  0.15394077755E+04  0.25500000000E-02 0. -1.
    8880023    1    1    2    0    0 -0.94439598928E+03  0.58375786707E+03  0.84245154660E+03  0.15414901383E+04  0.65864270000E+03 0.  0.
    8880022    1    1    2    0    0  0.94439598928E+03 -0.58375786707E+03 -0.92598797419E+03  0.14537889851E+04  0.15294330000E+03 0.  0.
<mgrwt>
<rscale>  0 0.12460905E+04</rscale>
<asrwt>0</asrwt>
<pdfrwt beam="1">  1        2 0.23683197E+00 0.12909172E+04</pdfrwt>
<pdfrwt beam="2">  1       -2 0.22398021E+00 0.12909172E+04</pdfrwt>
<totfact> 0.10805254E+00</totfact>
</mgrwt>
</event>
<event>
 4    5  0.8511149E-008  0.9677060E+03  0.7818608E-02  0.9425084E-01
          2   -1    0    0  501    0  0.00000000000E+00  0.00000000000E+00  0.93762130521E+03  0.93762130522E+03  0.25500000000E-02 0. -1.
         -2   -1    0    0    0  501 -0.00000000000E+00 -0.00000000000E+00 -0.87827648072E+03  0.87827648072E+03  0.25500000000E-02 0.  1.
    8880023    1    1    2    0    0 -0.86536664697E+02  0.70367329503E+03 -0.29088602762E+03  0.10104798800E+04  0.65864270000E+03 0.  0.
    8880022    1    1    2    0    0  0.86536664697E+02 -0.70367329503E+03  0.35023085212E+03  0.80541790598E+03  0.15294330000E+03 0.  0.
<mgrwt>
<rscale>  0 0.90039805E+03</rscale>
<asrwt>0</asrwt>
<pdfrwt beam="1">  1        2 0.14424943E+00 0.96770600E+03</pdfrwt>
<pdfrwt beam="2">  1       -2 0.13511946E+00 0.96770600E+03</pdfrwt>
<totfact> 0.10832650E+01</totfact>
</mgrwt>
</event>
<event>
 4    5  0.8511149E-008  0.2167725E+04  0.7818608E-02  0.8542491E-01
          2   -1    0    0  501    0  0.00000000000E+00  0.00000000000E+00  0.34105053301E+04  0.34105053301E+04  0.25500000000E-02 0. -1.
         -2   -1    0    0    0  501 -0.00000000000E+00 -0.00000000000E+00 -0.26061235265E+04  0.26061235265E+04  0.25500000000E-02 0.  1.
    8880023    1    1    2    0    0 -0.19491180265E+04  0.68275782991E+03 -0.17087176582E+04  0.27602075243E+04  0.65864270000E+03 0.  0.
    8880022    1    1    2    0    0  0.19491180265E+04 -0.68275782991E+03  0.25130994618E+04  0.32564213323E+04  0.15294330000E+03 0.  0.
<mgrwt>
<rscale>  0 0.21431010E+04</rscale>
<asrwt>0</asrwt>
<pdfrwt beam="1">  1        2 0.52469313E+00 0.21677245E+04</pdfrwt>
<pdfrwt beam="2">  1       -2 0.40094208E+00 0.21677245E+04</pdfrwt>
<totfact> 0.59146880E-03</totfact>
</mgrwt>
</event>
<event>
 4    5  0.8511149E-008  0.2077401E+04  0.7818608E-02  0.8582863E-01
          2   -1    0    0  501    0  0.00000000000E+00  0.00000000000E+00  0.35333497474E+04  0.35333497474E+04  0.25500000000E-02 0. -1.
         -2   -1    0    0    0  501 -0.00000000000E+00 -0.00000000000E+00 -0.15658251469E+04  0.15658251469E+04  0.25500000000E-02 0.  1.
    8880023    1    1    2    0    0 -0.83867417879E+03  0.17828093085E+04  0.22955447322E+04  0.30959843721E+04  0.65864270000E+03 0.  0.
    8880022    1    1    2    0    0  0.83867417879E+03 -0.17828093085E+04 -0.32802013167E+03  0.20031905222E+04  0.15294330000E+03 0.  0.
<mgrwt>
<rscale>  0 0.20516122E+04</rscale>
<asrwt>0</asrwt>
<pdfrwt beam="1">  1        2 0.54359226E+00 0.20774007E+04</pdfrwt>
<pdfrwt beam="2">  1       -2 0.24089618E+00 0.20774007E+04</pdfrwt>
<totfact> 0.49684015E-02</totfact>
</mgrwt>
</event>
<event>
 4    5  0.8511149E-008  0.7196749E+03  0.7818608E-02  0.9923688E-01
          2   -1    0    0  501    0  0.00000000000E+00  0.00000000000E+00  0.12394844519E+04  0.12394844519E+04  0.25500000000E-02 0. -1.
         -2   -1    0    0    0  501 -0.00000000000E+00 -0.00000000000E+00 -0.38167558430E+03  0.38167558431E+03  0.25500000000E-02 0.  1.
    8880023    1    1    2    0    0 -0.25395831616E+03  0.14009597960E+03  0.18319817214E+02  0.71990800233E+03  0.65864270000E+03 0.  1.
    8880022    1    1    2    0    0  0.25395831616E+03 -0.14009597960E+03  0.83948905040E+03  0.90125203390E+03  0.15294330000E+03 0.  0.
<mgrwt>
<rscale>  0 0.59126893E+03</rscale>
<asrwt>0</asrwt>
<pdfrwt beam="1">  1        2 0.19068992E+00 0.71967487E+03</pdfrwt>
<pdfrwt beam="2">  1       -2 0.58719320E-01 0.71967487E+03</pdfrwt>
<totfact> 0.49670780E+01</totfact>
</mgrwt>
</event>
<event>
 4    5  0.8511149E-008  0.8704255E+03  0.7818608E-02  0.9575281E-01
          2   -1    0    0  501    0  0.00000000000E+00  0.00000000000E+00  0.10295800555E+04  0.10295800555E+04  0.25500000000E-02 0. -1.
         -2   -1    0    0    0  501 -0.00000000000E+00 -0.00000000000E+00 -0.92931456535E+03  0.92931456535E+03  0.25500000000E-02 0.  1.
    8880023    1    1    2    0    0 -0.16577542069E+02  0.56881934478E+03 -0.58983344330E+03  0.10514485052E+04  0.65864270000E+03 0.  0.
    8880022    1    1    2    0    0  0.16577542069E+02 -0.56881934478E+03  0.69009893342E+03  0.90744611566E+03  0.15294330000E+03 0.  0.
<mgrwt>
<rscale>  0 0.78954080E+03</rscale>
<asrwt>0</asrwt>
<pdfrwt beam="1">  1        2 0.15839693E+00 0.87042545E+03</pdfrwt>
<pdfrwt beam="2">  1       -2 0.14297147E+00 0.87042545E+03</pdfrwt>
<totfact> 0.82345755E+00</totfact>
</mgrwt>
</event>
<event>
 4    5  0.8511149E-008  0.8025290E+03  0.7818608E-02  0.9705354E-01
          2   -1    0    0  501    0  0.00000000000E+00  0.00000000000E+00  0.80026125838E+03  0.80026125838E+03  0.25500000000E-02 0. -1.
         -2   -1    0    0    0  501 -0.00000000000E+00 -0.00000000000E+00 -0.18394572394E+04  0.18394572394E+04  0.25500000000E-02 0.  1.
    8880023    1    1    2    0    0 -0.14354680251E+03  0.43547318539E+03 -0.16653923571E+04  0.18486710062E+04  0.65864270000E+03 0.  1.
    8880022    1    1    2    0    0  0.14354680251E+03 -0.43547318539E+03  0.62619637603E+03  0.79104749166E+03  0.15294330000E+03 0.  0.
<mgrwt>
<rscale>  0 0.70698892E+03</rscale>
<asrwt>0</asrwt>
<pdfrwt beam="1">  1        2 0.12311712E+00 0.80252899E+03</pdfrwt>
<pdfrwt beam="2">  1       -2 0.28299342E+00 0.80252899E+03</pdfrwt>
<totfact> 0.14329563E+00</totfact>
</mgrwt>
</event>
<event>
 4    5  0.8511149E-008  0.1223263E+04  0.7818608E-02  0.9134834E-01
          2   -1    0    0  501    0  0.00000000000E+00  0.00000000000E+00  0.21446656840E+04  0.21446656840E+04  0.25500000000E-02 0. -1.
         -2   -1    0    0    0  501 -0.00000000000E+00 -0.00000000000E+00 -0.91776366232E+03  0.91776366232E+03  0.25500000000E-02 0.  1.
    8880023    1    1    2    0    0  0.91155076780E+03 -0.48128675472E+03 -0.25621755967E+03  0.12498077399E+04  0.65864270000E+03 0.  0.
    8880022    1    1    2    0    0 -0.91155076780E+03  0.48128675472E+03  0.14831195814E+04  0.18126216065E+04  0.15294330000E+03 0.  0.
<mgrwt>
<rscale>  0 0.11752120E+04</rscale>
<asrwt>0</asrwt>
<pdfrwt beam="1">  1        2 0.32994857E+00 0.12232628E+04</pdfrwt>
<pdfrwt beam="2">  1       -2 0.14119441E+00 0.12232628E+04</pdfrwt>
<totfact> 0.18950272E+00</totfact>
</mgrwt>
</event>
<event>
 4    5  0.8511149E-008  0.8562805E+03  0.7818608E-02  0.9600214E-01
         -2   -1    0    0    0  501 -0.00000000000E+00  0.00000000000E+00  0.15128918392E+04  0.15128918392E+04  0.25500000000E-02 0.  1.
          2   -1    0    0  501    0  0.00000000000E+00 -0.00000000000E+00 -0.10539037275E+04  0.10539037275E+04  0.25500000000E-02 0. -1.
    8880023    1    1    2    0    0 -0.22481965314E+03  0.49886090864E+03  0.12971073376E+04  0.15542534330E+04  0.65864270000E+03 0.  1.
    8880022    1    1    2    0    0  0.22481965314E+03 -0.49886090864E+03 -0.83811922595E+03  0.10125421337E+04  0.15294330000E+03 0.  0.
<mgrwt>
<rscale>  0 0.77281999E+03</rscale>
<asrwt>0</asrwt>
<pdfrwt beam="1">  1        2 0.16213903E+00 0.85628050E+03</pdfrwt>
<pdfrwt beam="2">  1       -2 0.23275259E+00 0.85628050E+03</pdfrwt>
<totfact> 0.19396656E+00</totfact>
</mgrwt>
</event>
<event>
 4    5  0.8511149E-008  0.6600014E+03  0.7818608E-02  0.1024155E+00
          2   -1    0    0  501    0  0.00000000000E+00  0.00000000000E+00  0.12083628582E+04  0.12083628582E+04  0.25500000000E-02 0. -1.
         -2   -1    0    0    0  501 -0.00000000000E+00 -0.00000000000E+00 -0.45462675921E+03  0.45462675922E+03  0.25500000000E-02 0.  1.
    8880023    1    1    2    0    0 -0.34969816089E+02  0.23848721122E+02 -0.20508037228E+03  0.69112937638E+03  0.65864270000E+03 0.  1.
    8880022    1    1    2    0    0  0.34969816089E+02 -0.23848721122E+02  0.95881647128E+03  0.97186024106E+03  0.15294330000E+03 0.  0.
<mgrwt>
<rscale>  0 0.46216572E+03</rscale>
<asrwt>0</asrwt>
<pdfrwt beam="1">  1        2 0.18590198E+00 0.66000141E+03</pdfrwt>
<pdfrwt beam="2">  1       -2 0.69942579E-01 0.66000141E+03</pdfrwt>
<totfact> 0.35861832E+01</totfact>
</mgrwt>
</event>
<event>
 4    5  0.8511149E-008  0.1532694E+04  0.7818608E-02  0.8886888E-01
         -2   -1    0    0    0  501 -0.00000000000E+00  0.00000000000E+00  0.67531878324E+03  0.67531878325E+03  0.25500000000E-02 0.  1.
          2   -1    0    0  501    0  0.00000000000E+00 -0.00000000000E+00 -0.46180779747E+04  0.46180779747E+04  0.25500000000E-02 0. -1.
    8880023    1    1    2    0    0 -0.13615715831E+03  0.13772441625E+04 -0.55401665221E+03  0.16297499538E+04  0.65864270000E+03 0.  1.
    8880022    1    1    2    0    0  0.13615715831E+03 -0.13772441625E+04 -0.33887425392E+04  0.36636468041E+04  0.15294330000E+03 0.  0.
<mgrwt>
<rscale>  0 0.14963434E+04</rscale>
<asrwt>0</asrwt>
<pdfrwt beam="1">  1        2 0.71047351E+00 0.15326939E+04</pdfrwt>
<pdfrwt beam="2">  1       -2 0.10389520E+00 0.15326939E+04</pdfrwt>
<totfact> 0.69022653E-02</totfact>
</mgrwt>
</event>
<event>
 4    5  0.8511149E-008  0.6864826E+03  0.7818608E-02  0.1005871E+00
         -2   -1    0    0    0  501 -0.00000000000E+00  0.00000000000E+00  0.56707438288E+03  0.56707438289E+03  0.25500000000E-02 0.  1.
          2   -1    0    0  501    0  0.00000000000E+00 -0.00000000000E+00 -0.11606807299E+04  0.11606807299E+04  0.25500000000E-02 0. -1.
    8880023    1    1    2    0    0  0.19350870385E+03 -0.16016677961E+01  0.33719552814E+03  0.76482626411E+03  0.65864270000E+03 0.  1.
    8880022    1    1    2    0    0 -0.19350870385E+03  0.16016677961E+01 -0.93080187513E+03  0.96292884865E+03  0.15294330000E+03 0.  0.
<mgrwt>
<rscale>  0 0.53149070E+03</rscale>
<asrwt>0</asrwt>
<pdfrwt beam="1">  1        2 0.17856627E+00 0.68648262E+03</pdfrwt>
<pdfrwt beam="2">  1       -2 0.87242213E-01 0.68648262E+03</pdfrwt>
<totfact> 0.23291752E+01</totfact>
</mgrwt>
</event>
<event>
 4    5  0.8511149E-008  0.7018638E+03  0.7818608E-02  0.9989555E-01
          2   -1    0    0  501    0  0.00000000000E+00  0.00000000000E+00  0.17726874608E+04  0.17726874608E+04  0.25500000000E-02 0. -1.
         -2   -1    0    0    0  501 -0.00000000000E+00 -0.00000000000E+00 -0.84614407225E+03  0.84614407225E+03  0.25500000000E-02 0.  1.
    8880023    1    1    2    0    0  0.93089808937E+02 -0.22391268825E+03 -0.68574368203E+03  0.98125287678E+03  0.65864270000E+03 0.  1.
    8880022    1    1    2    0    0 -0.93089808937E+02  0.22391268825E+03  0.16122870706E+04  0.16375786563E+04  0.15294330000E+03 0.  0.
<mgrwt>
<rscale>  0 0.56110588E+03</rscale>
<asrwt>0</asrwt>
<pdfrwt beam="1">  1        2 0.27272115E+00 0.70186381E+03</pdfrwt>
<pdfrwt beam="2">  1       -2 0.13017601E+00 0.70186381E+03</pdfrwt>
<totfact> 0.40210091E+00</totfact>
</mgrwt>
</event>
<event>
 4    5  0.8511149E-008  0.7203830E+03  0.7818608E-02  0.9921292E-01
          2   -1    0    0  501    0  0.00000000000E+00  0.00000000000E+00  0.27218043452E+04  0.27218043452E+04  0.25500000000E-02 0. -1.
         -2   -1    0    0    0  501 -0.00000000000E+00 -0.00000000000E+00 -0.37596345071E+03  0.37596345072E+03  0.25500000000E-02 0.  1.
    8880023    1    1    2    0    0  0.16711368644E+03 -0.23919542657E+03 -0.85558202182E+01  0.72043378919E+03  0.65864270000E+03 0.  0.
    8880022    1    1    2    0    0 -0.16711368644E+03  0.23919542657E+03  0.23543967147E+04  0.23773340068E+04  0.15294330000E+03 0.  0.
<mgrwt>
<rscale>  0 0.59240383E+03</rscale>
<asrwt>0</asrwt>
<pdfrwt beam="1">  1        2 0.41873912E+00 0.72038298E+03</pdfrwt>
<pdfrwt beam="2">  1       -2 0.57840532E-01 0.72038298E+03</pdfrwt>
<totfact> 0.76540858E+00</totfact>
</mgrwt>
</event>
<event>
 4    5  0.8511149E-008  0.8444285E+03  0.7818608E-02  0.9621886E-01
         -2   -1    0    0    0  501 -0.00000000000E+00  0.00000000000E+00  0.46239563371E+03  0.46239563371E+03  0.25500000000E-02 0.  1.
          2   -1    0    0  501    0  0.00000000000E+00 -0.00000000000E+00 -0.16402097414E+04  0.16402097414E+04  0.25500000000E-02 0. -1.
    8880023    1    1    2    0    0 -0.34089792132E+01 -0.52842944647E+03 -0.47782821103E+02  0.84577934788E+03  0.65864270000E+03 0.  1.
    8880022    1    1    2    0    0  0.34089792132E+01  0.52842944647E+03 -0.11300312865E+04  0.12568260272E+04  0.15294330000E+03 0.  0.
<mgrwt>
<rscale>  0 0.75864418E+03</rscale>
<asrwt>0</asrwt>
<pdfrwt beam="1">  1        2 0.25233996E+00 0.84442851E+03</pdfrwt>
<pdfrwt beam="2">  1       -2 0.71137791E-01 0.84442851E+03</pdfrwt>
<totfact> 0.19287753E+01</totfact>
</mgrwt>
</event>
<event>
 4    5  0.8511149E-008  0.9630463E+03  0.7818608E-02  0.9431587E-01
         -2   -1    0    0    0  501 -0.00000000000E+00  0.00000000000E+00  0.12137053108E+04  0.12137053108E+04  0.25500000000E-02 0.  1.
          2   -1    0    0  501    0  0.00000000000E+00 -0.00000000000E+00 -0.62014001090E+03  0.62014001091E+03  0.25500000000E-02 0. -1.
    8880023    1    1    2    0    0 -0.62987989865E+03  0.31128636711E+03  0.55995581390E+03  0.11140056593E+04  0.65864270000E+03 0.  1.
    8880022    1    1    2    0    0  0.62987989865E+03 -0.31128636711E+03  0.33609486002E+02  0.71983966245E+03  0.15294330000E+03 0. -1.
<mgrwt>
<rscale>  0 0.89521187E+03</rscale>
<asrwt>0</asrwt>
<pdfrwt beam="1">  1        2 0.95406156E-01 0.96304626E+03</pdfrwt>
<pdfrwt beam="2">  1       -2 0.18672389E+00 0.96304626E+03</pdfrwt>
<totfact> 0.77448909E+00</totfact>
</mgrwt>
</event>
<event>
 4    5  0.8511149E-008  0.8595910E+03  0.7818608E-02  0.9594291E-01
         -2   -1    0    0    0  501 -0.00000000000E+00  0.00000000000E+00  0.67612034277E+03  0.67612034277E+03  0.25500000000E-02 0.  1.
          2   -1    0    0  501    0  0.00000000000E+00 -0.00000000000E+00 -0.84181621804E+03  0.84181621804E+03  0.25500000000E-02 0. -1.
    8880023    1    1    2    0    0  0.49945585033E+03 -0.23586074044E+03 -0.33151208570E+03  0.92130174456E+03  0.65864270000E+03 0. -1.
    8880022    1    1    2    0    0 -0.49945585033E+03  0.23586074044E+03  0.16581621043E+03  0.59663481625E+03  0.15294330000E+03 0.  0.
<mgrwt>
<rscale>  0 0.77675165E+03</rscale>
<asrwt>0</asrwt>
<pdfrwt beam="1">  1        2 0.12951019E+00 0.85959097E+03</pdfrwt>
<pdfrwt beam="2">  1       -2 0.10401851E+00 0.85959097E+03</pdfrwt>
<totfact> 0.24299184E+01</totfact>
</mgrwt>
</event>
<event>
 4    5  0.8511149E-008  0.2126248E+04  0.7818608E-02  0.8560758E-01
         -2   -1    0    0    0  501 -0.00000000000E+00  0.00000000000E+00  0.14563714266E+04  0.14563714266E+04  0.25500000000E-02 0.  1.
          2   -1    0    0  501    0  0.00000000000E+00 -0.00000000000E+00 -0.41391576980E+04  0.41391576980E+04  0.25500000000E-02 0. -1.
    8880023    1    1    2    0    0 -0.36796943069E+03  0.19878925456E+04  0.12770046673E+03  0.21300788460E+04  0.65864270000E+03 0.  0.
    8880022    1    1    2    0    0  0.36796943069E+03 -0.19878925456E+04 -0.28104867382E+04  0.34654502785E+04  0.15294330000E+03 0.  0.
<mgrwt>
<rscale>  0 0.21011029E+04</rscale>
<asrwt>0</asrwt>
<pdfrwt beam="1">  1        2 0.63679348E+00 0.21262475E+04</pdfrwt>
<pdfrwt beam="2">  1       -2 0.22405715E+00 0.21262475E+04</pdfrwt>
<totfact> 0.21535152E-02</totfact>
</mgrwt>
</event>
<event>
 4    5  0.8511149E-008  0.1033404E+04  0.7818608E-02  0.9339103E-01
         -2   -1    0    0    0  501 -0.00000000000E+00  0.00000000000E+00  0.72547401888E+03  0.72547401889E+03  0.25500000000E-02 0.  1.
          2   -1    0    0  501    0  0.00000000000E+00 -0.00000000000E+00 -0.18730454331E+04  0.18730454331E+04  0.25500000000E-02 0. -1.
    8880023    1    1    2    0    0 -0.10390175719E+02  0.79624473275E+03  0.17406598718E+03  0.10479612609E+04  0.65864270000E+03 0. -1.
    8880022    1    1    2    0    0  0.10390175719E+02 -0.79624473275E+03 -0.13216374014E+04  0.15505581911E+04  0.15294330000E+03 0.  0.
<mgrwt>
<rscale>  0 0.97261287E+03</rscale>
<asrwt>0</asrwt>
<pdfrwt beam="1">  1        2 0.28816083E+00 0.10334040E+04</pdfrwt>
<pdfrwt beam="2">  1       -2 0.11161139E+00 0.10334040E+04</pdfrwt>
<totfact> 0.49555950E+00</totfact>
</mgrwt>
</event>
<event>
 4    5  0.8511149E-008  0.7958388E+03  0.7818608E-02  0.9719867E-01
          2   -1    0    0  501    0  0.00000000000E+00  0.00000000000E+00  0.27052887902E+04  0.27052887902E+04  0.25500000000E-02 0. -1.
         -2   -1    0    0    0  501 -0.00000000000E+00 -0.00000000000E+00 -0.38949868330E+03  0.38949868331E+03  0.25500000000E-02 0.  1.
    8880023    1    1    2    0    0  0.38386143140E+03 -0.22847232660E+03  0.68892654449E+02  0.79881512669E+03  0.65864270000E+03 0.  1.
    8880022    1    1    2    0    0 -0.38386143140E+03  0.22847232660E+03  0.22468974524E+04  0.22959723468E+04  0.15294330000E+03 0.  0.
<mgrwt>
<rscale>  0 0.69846161E+03</rscale>
<asrwt>0</asrwt>
<pdfrwt beam="1">  1        2 0.41619829E+00 0.79583881E+03</pdfrwt>
<pdfrwt beam="2">  1       -2 0.59922872E-01 0.79583881E+03</pdfrwt>
<totfact> 0.71693442E+00</totfact>
</mgrwt>
</event>
<event>
 4    5  0.8511149E-008  0.1059499E+04  0.7818608E-02  0.9307549E-01
          2   -1    0    0  501    0  0.00000000000E+00  0.00000000000E+00  0.30531025479E+04  0.30531025479E+04  0.25500000000E-02 0. -1.
         -2   -1    0    0    0  501 -0.00000000000E+00 -0.00000000000E+00 -0.35765041325E+03  0.35765041326E+03  0.25500000000E-02 0.  1.
    8880023    1    1    2    0    0 -0.16441409191E+03  0.81344666763E+03  0.77382798296E+03  0.13120013065E+04  0.65864270000E+03 0.  0.
    8880022    1    1    2    0    0  0.16441409191E+03 -0.81344666763E+03  0.19216241517E+04  0.20987516547E+04  0.15294330000E+03 0.  0.
<mgrwt>
<rscale>  0 0.10009086E+04</rscale>
<asrwt>0</asrwt>
<pdfrwt beam="1">  1        2 0.46970807E+00 0.10594988E+04</pdfrwt>
<pdfrwt beam="2">  1       -2 0.55023142E-01 0.10594988E+04</pdfrwt>
<totfact> 0.50866042E+00</totfact>
</mgrwt>
</event>
<event>
 4    5  0.8511149E-008  0.1043636E+04  0.7818608E-02  0.9326571E-01
          2   -1    0    0  501    0  0.00000000000E+00  0.00000000000E+00  0.18920960832E+04  0.18920960832E+04  0.25500000000E-02 0. -1.
         -2   -1    0    0    0  501 -0.00000000000E+00 -0.00000000000E+00 -0.53545048017E+03  0.53545048018E+03  0.25500000000E-02 0.  1.
    8880023    1    1    2    0    0 -0.10391296573E+03 -0.80284989692E+03  0.29654746530E+03  0.10849499836E+04  0.65864270000E+03 0.  0.
    8880022    1    1    2    0    0  0.10391296573E+03  0.80284989692E+03  0.10600981377E+04  0.13425965798E+04  0.15294330000E+03 0.  0.
<mgrwt>
<rscale>  0 0.98373045E+03</rscale>
<asrwt>0</asrwt>
<pdfrwt beam="1">  1        2 0.29109170E+00 0.10436360E+04</pdfrwt>
<pdfrwt beam="2">  1       -2 0.82376997E-01 0.10436360E+04</pdfrwt>
<totfact> 0.98838707E+00</totfact>
</mgrwt>
</event>
<event>
 4    5  0.8511149E-008  0.9630206E+03  0.7818608E-02  0.9431623E-01
         -2   -1    0    0    0  501 -0.00000000000E+00  0.00000000000E+00  0.12982262817E+04  0.12982262817E+04  0.25500000000E-02 0.  1.
          2   -1    0    0  501    0  0.00000000000E+00 -0.00000000000E+00 -0.10438074316E+04  0.10438074316E+04  0.25500000000E-02 0. -1.
    8880023    1    1    2    0    0  0.34932366699E+03 -0.60956663208E+03  0.94202365918E+03  0.13471515445E+04  0.65864270000E+03 0.  0.
    8880022    1    1    2    0    0 -0.34932366699E+03  0.60956663208E+03 -0.68760480907E+03  0.99488216877E+03  0.15294330000E+03 0.  0.
<mgrwt>
<rscale>  0 0.89518330E+03</rscale>
<asrwt>0</asrwt>
<pdfrwt beam="1">  1        2 0.16058576E+00 0.96302062E+03</pdfrwt>
<pdfrwt beam="2">  1       -2 0.19972712E+00 0.96302062E+03</pdfrwt>
<totfact> 0.31428719E+00</totfact>
</mgrwt>
</event>
<event>
 4    5  0.8511149E-008  0.9199501E+03  0.7818608E-02  0.9494735E-01
          2   -1    0    0  501    0  0.00000000000E+00  0.00000000000E+00  0.20193727626E+04  0.20193727626E+04  0.25500000000E-02 0. -1.
         -2   -1    0    0    0  501 -0.00000000000E+00 -0.00000000000E+00 -0.58533838896E+03  0.58533838897E+03  0.25500000000E-02 0.  1.
    8880023    1    1    2    0    0 -0.47570179058E+03 -0.43151578628E+03 -0.10898094823E+03  0.92638281542E+03  0.65864270000E+03 0.  1.
    8880022    1    1    2    0    0  0.47570179058E+03  0.43151578628E+03  0.15430153219E+04  0.16783283362E+04  0.15294330000E+03 0.  0.
<mgrwt>
<rscale>  0 0.84673068E+03</rscale>
<asrwt>0</asrwt>
<pdfrwt beam="1">  1        2 0.31067274E+00 0.91995015E+03</pdfrwt>
<pdfrwt beam="2">  1       -2 0.90052059E-01 0.91995015E+03</pdfrwt>
<totfact> 0.69572224E+00</totfact>
</mgrwt>
</event>
<event>
 4    5  0.8511149E-008  0.7237425E+03  0.7818608E-02  0.9910120E-01
          2   -1    0    0  501    0  0.00000000000E+00  0.00000000000E+00  0.20778478002E+04  0.20778478002E+04  0.25500000000E-02 0. -1.
         -2   -1    0    0    0  501 -0.00000000000E+00 -0.00000000000E+00 -0.18755981012E+03  0.18755981014E+03  0.25500000000E-02 0.  1.
    8880023    1    1    2    0    0 -0.29449903381E+03  0.57125764339E+02  0.62556706009E+03  0.95662813402E+03  0.65864270000E+03 0.  0.
    8880022    1    1    2    0    0  0.29449903381E+03 -0.57125764339E+02  0.12647209299E+04  0.13087794763E+04  0.15294330000E+03 0.  1.
<mgrwt>
<rscale>  0 0.59773319E+03</rscale>
<asrwt>0</asrwt>
<pdfrwt beam="1">  1        2 0.31966888E+00 0.72374252E+03</pdfrwt>
<pdfrwt beam="2">  1       -2 0.28855357E-01 0.72374252E+03</pdfrwt>
<totfact> 0.68813553E+01</totfact>
</mgrwt>
</event>
<event>
 4    5  0.8511149E-008  0.8291939E+03  0.7818608E-02  0.9650903E-01
         -2   -1    0    0    0  501 -0.00000000000E+00  0.00000000000E+00  0.19825085087E+04  0.19825085087E+04  0.25500000000E-02 0.  1.
          2   -1    0    0  501    0  0.00000000000E+00 -0.00000000000E+00 -0.10716753277E+04  0.10716753277E+04  0.25500000000E-02 0. -1.
    8880023    1    1    2    0    0  0.13568259441E+02  0.50355555705E+03  0.18220321221E+04  0.20018400428E+04  0.65864270000E+03 0.  0.
    8880022    1    1    2    0    0 -0.13568259441E+02 -0.50355555705E+03 -0.91119894112E+03  0.10523437936E+04  0.15294330000E+03 0.  0.
<mgrwt>
<rscale>  0 0.74016790E+03</rscale>
<asrwt>0</asrwt>
<pdfrwt beam="1">  1        2 0.16487313E+00 0.82919389E+03</pdfrwt>
<pdfrwt beam="2">  1       -2 0.30500131E+00 0.82919389E+03</pdfrwt>
<totfact> 0.69410129E-01</totfact>
</mgrwt>
</event>
<event>
 4    5  0.8511149E-008  0.1409167E+04  0.7818608E-02  0.8976592E-01
         -2   -1    0    0    0  501 -0.00000000000E+00  0.00000000000E+00  0.10360480176E+04  0.10360480176E+04  0.25500000000E-02 0.  1.
          2   -1    0    0  501    0  0.00000000000E+00 -0.00000000000E+00 -0.44220411276E+04  0.44220411276E+04  0.25500000000E-02 0. -1.
    8880023    1    1    2    0    0  0.13851589763E+03 -0.12380445282E+04 -0.38656110109E+04  0.41144500971E+04  0.65864270000E+03 0. -1.
    8880022    1    1    2    0    0 -0.13851589763E+03  0.12380445282E+04  0.47961790087E+03  0.13436390481E+04  0.15294330000E+03 0.  0.
<mgrwt>
<rscale>  0 0.13689681E+04</rscale>
<asrwt>0</asrwt>
<pdfrwt beam="1">  1        2 0.68031401E+00 0.14091668E+04</pdfrwt>
<pdfrwt beam="2">  1       -2 0.15939200E+00 0.14091668E+04</pdfrwt>
<totfact> 0.36591504E-02</totfact>
</mgrwt>
</event>
<event>
 4    5  0.8511149E-008  0.8744628E+03  0.7818608E-02  0.9568337E-01
          2   -1    0    0  501    0  0.00000000000E+00  0.00000000000E+00  0.14737379426E+04  0.14737379426E+04  0.25500000000E-02 0. -1.
         -2   -1    0    0    0  501 -0.00000000000E+00 -0.00000000000E+00 -0.57941153727E+03  0.57941153728E+03  0.25500000000E-02 0.  1.
    8880023    1    1    2    0    0 -0.24909641168E+03 -0.51848433371E+03 -0.11439850275E+03  0.88191396991E+03  0.65864270000E+03 0.  1.
    8880022    1    1    2    0    0  0.24909641168E+03  0.51848433371E+03  0.10087249080E+04  0.11712355099E+04  0.15294330000E+03 0.  0.
<mgrwt>
<rscale>  0 0.79427758E+03</rscale>
<asrwt>0</asrwt>
<pdfrwt beam="1">  1        2 0.22672891E+00 0.87446283E+03</pdfrwt>
<pdfrwt beam="2">  1       -2 0.89140237E-01 0.87446283E+03</pdfrwt>
<totfact> 0.14319850E+01</totfact>
</mgrwt>
</event>
<event>
 4    5  0.8511149E-008  0.7554411E+03  0.7818608E-02  0.9817056E-01
         -2   -1    0    0    0  501 -0.00000000000E+00  0.00000000000E+00  0.17437062088E+03  0.17437062090E+03  0.25500000000E-02 0.  1.
          2   -1    0    0  501    0  0.00000000000E+00 -0.00000000000E+00 -0.23690331905E+04  0.23690331905E+04  0.25500000000E-02 0. -1.
    8880023    1    1    2    0    0 -0.31539342178E+03 -0.19341158716E+03 -0.83495483320E+03  0.11259843837E+04  0.65864270000E+03 0.  1.
    8880022    1    1    2    0    0  0.31539342178E+03  0.19341158716E+03 -0.13597077364E+04  0.14174194277E+04  0.15294330000E+03 0.  0.
<mgrwt>
<rscale>  0 0.64455192E+03</rscale>
<asrwt>0</asrwt>
<pdfrwt beam="1">  1        2 0.36446662E+00 0.75544110E+03</pdfrwt>
<pdfrwt beam="2">  1       -2 0.26826251E-01 0.75544110E+03</pdfrwt>
<totfact> 0.54106776E+01</totfact>
</mgrwt>
</event>
<event>
 4    5  0.8511149E-008  0.8537643E+03  0.7818608E-02  0.9604753E-01
         -2   -1    0    0    0  501 -0.00000000000E+00  0.00000000000E+00  0.67154222879E+03  0.67154222879E+03  0.25500000000E-02 0.  1.
          2   -1    0    0  501    0  0.00000000000E+00 -0.00000000000E+00 -0.23959310963E+04  0.23959310963E+04  0.25500000000E-02 0. -1.
    8880023    1    1    2    0    0 -0.49162003088E+03  0.23111247056E+03  0.34624986492E+03  0.92130472919E+03  0.65864270000E+03 0.  0.
    8880022    1    1    2    0    0  0.49162003088E+03 -0.23111247056E+03 -0.20706387325E+04  0.21461685960E+04  0.15294330000E+03 0. -1.
<mgrwt>
<rscale>  0 0.76982372E+03</rscale>
<asrwt>0</asrwt>
<pdfrwt beam="1">  1        2 0.36860478E+00 0.85376427E+03</pdfrwt>
<pdfrwt beam="2">  1       -2 0.10331419E+00 0.85376427E+03</pdfrwt>
<totfact> 0.31414450E+00</totfact>
</mgrwt>
</event>
<event>
 4    5  0.8511149E-008  0.1476567E+04  0.7818608E-02  0.8926362E-01
          2   -1    0    0  501    0  0.00000000000E+00  0.00000000000E+00  0.40974158569E+04  0.40974158569E+04  0.25500000000E-02 0. -1.
         -2   -1    0    0    0  501 -0.00000000000E+00 -0.00000000000E+00 -0.57363627311E+03  0.57363627312E+03  0.25500000000E-02 0.  1.
    8880023    1    1    2    0    0 -0.86544547383E+03  0.99872125382E+03  0.89988883550E+03  0.17291761430E+04  0.65864270000E+03 0.  0.
    8880022    1    1    2    0    0  0.86544547383E+03 -0.99872125382E+03  0.26238907483E+04  0.29418759870E+04  0.15294330000E+03 0.  0.
<mgrwt>
<rscale>  0 0.14385712E+04</rscale>
<asrwt>0</asrwt>
<pdfrwt beam="1">  1        2 0.63037168E+00 0.14765670E+04</pdfrwt>
<pdfrwt beam="2">  1       -2 0.88251733E-01 0.14765670E+04</pdfrwt>
<totfact> 0.30738241E-01</totfact>
</mgrwt>
</event>
<event>
 4    5  0.8511149E-008  0.7690151E+03  0.7818608E-02  0.9782304E-01
         -2   -1    0    0    0  501 -0.00000000000E+00  0.00000000000E+00  0.52613570357E+03  0.52613570357E+03  0.25500000000E-02 0.  1.
          2   -1    0    0  501    0  0.00000000000E+00 -0.00000000000E+00 -0.10719443224E+04  0.10719443224E+04  0.25500000000E-02 0. -1.
    8880023    1    1    2    0    0 -0.35381755462E+03  0.17996413467E+03  0.14906739142E+03  0.78332958911E+03  0.65864270000E+03 0.  0.
    8880022    1    1    2    0    0  0.35381755462E+03 -0.17996413467E+03 -0.69487601021E+03  0.81475043682E+03  0.15294330000E+03 0.  0.
<mgrwt>
<rscale>  0 0.66320935E+03</rscale>
<asrwt>0</asrwt>
<pdfrwt beam="1">  1        2 0.16491451E+00 0.76901506E+03</pdfrwt>
<pdfrwt beam="2">  1       -2 0.80943955E-01 0.76901506E+03</pdfrwt>
<totfact> 0.30990222E+01</totfact>
</mgrwt>
</event>
<event>
 4    5  0.8511149E-008  0.7559365E+03  0.7818608E-02  0.9815743E-01
          2   -1    0    0  501    0  0.00000000000E+00  0.00000000000E+00  0.20280472940E+04  0.20280472940E+04  0.25500000000E-02 0. -1.
         -2   -1    0    0    0  501 -0.00000000000E+00 -0.00000000000E+00 -0.43859183297E+03  0.43859183298E+03  0.25500000000E-02 0.  1.
    8880023    1    1    2    0    0  0.17984028680E+03 -0.32448008598E+03 -0.70174638511E+02  0.75918676300E+03  0.65864270000E+03 0.  1.
    8880022    1    1    2    0    0 -0.17984028680E+03  0.32448008598E+03  0.16596300995E+04  0.17074523639E+04  0.15294330000E+03 0.  0.
<mgrwt>
<rscale>  0 0.64524477E+03</rscale>
<asrwt>0</asrwt>
<pdfrwt beam="1">  1        2 0.31200728E+00 0.75593655E+03</pdfrwt>
<pdfrwt beam="2">  1       -2 0.67475665E-01 0.75593655E+03</pdfrwt>
<totfact> 0.13429597E+01</totfact>
</mgrwt>
</event>
<event>
 4    5  0.8511149E-008  0.7211965E+03  0.7818608E-02  0.9918558E-01
         -2   -1    0    0    0  501 -0.00000000000E+00  0.00000000000E+00  0.88717232806E+02  0.88717232843E+02  0.25500000000E-02 0.  1.
          2   -1    0    0  501    0  0.00000000000E+00 -0.00000000000E+00 -0.46102456406E+04  0.46102456406E+04  0.25500000000E-02 0. -1.
    8880023    1    1    2    0    0 -0.13268682225E+03  0.26212286021E+03 -0.15561776320E+04  0.17151714827E+04  0.65864270000E+03 0.  1.
    8880022    1    1    2    0    0  0.13268682225E+03 -0.26212286021E+03 -0.29653507759E+04  0.29837913908E+04  0.15294330000E+03 0.  0.
<mgrwt>
<rscale>  0 0.59370257E+03</rscale>
<asrwt>0</asrwt>
<pdfrwt beam="1">  1        2 0.70926837E+00 0.72119650E+03</pdfrwt>
<pdfrwt beam="2">  1       -2 0.13648809E-01 0.72119650E+03</pdfrwt>
<totfact> 0.44940373E+00</totfact>
</mgrwt>
</event>
<event>
 4    5  0.8511149E-008  0.7490026E+03  0.7818608E-02  0.9834459E-01
          2   -1    0    0  501    0  0.00000000000E+00  0.00000000000E+00  0.44051599594E+03  0.44051599595E+03  0.25500000000E-02 0. -1.
         -2   -1    0    0    0  501 -0.00000000000E+00 -0.00000000000E+00 -0.82851352630E+03  0.82851352630E+03  0.25500000000E-02 0.  1.
    8880023    1    1    2    0    0 -0.23303450882E+03  0.26998082335E+03 -0.45333934965E+03  0.87551213554E+03  0.65864270000E+03 0.  1.
    8880022    1    1    2    0    0  0.23303450882E+03 -0.26998082335E+03  0.65341819292E+02  0.39351738671E+03  0.15294330000E+03 0.  0.
<mgrwt>
<rscale>  0 0.63545634E+03</rscale>
<asrwt>0</asrwt>
<pdfrwt beam="1">  1        2 0.67771692E-01 0.74900263E+03</pdfrwt>
<pdfrwt beam="2">  1       -2 0.12746362E+00 0.74900263E+03</pdfrwt>
<totfact> 0.32923552E+01</totfact>
</mgrwt>
</event>
<event>
 4    5  0.8511149E-008  0.1551436E+04  0.7818608E-02  0.8874144E-01
          2   -1    0    0  501    0  0.00000000000E+00  0.00000000000E+00  0.22330922089E+04  0.22330922089E+04  0.25500000000E-02 0. -1.
         -2   -1    0    0    0  501 -0.00000000000E+00 -0.00000000000E+00 -0.17790182901E+04  0.17790182901E+04  0.25500000000E-02 0.  1.
    8880023    1    1    2    0    0  0.46994193108E+03 -0.13237437123E+04 -0.11074838300E+04  0.19061672210E+04  0.65864270000E+03 0.  0.
    8880022    1    1    2    0    0 -0.46994193108E+03  0.13237437123E+04  0.15615577488E+04  0.21059432780E+04  0.15294330000E+03 0.  0.
<mgrwt>
<rscale>  0 0.15156013E+04</rscale>
<asrwt>0</asrwt>
<pdfrwt beam="1">  1        2 0.34355265E+00 0.15514358E+04</pdfrwt>
<pdfrwt beam="2">  1       -2 0.27369512E+00 0.15514358E+04</pdfrwt>
<totfact> 0.21204941E-01</totfact>
</mgrwt>
</event>
<event>
 4    5  0.8511149E-008  0.9503459E+03  0.7818608E-02  0.9449617E-01
         -2   -1    0    0    0  501 -0.00000000000E+00  0.00000000000E+00  0.28720221614E+04  0.28720221614E+04  0.25500000000E-02 0.  1.
          2   -1    0    0  501    0  0.00000000000E+00 -0.00000000000E+00 -0.38527944196E+03  0.38527944197E+03  0.25500000000E-02 0. -1.
    8880023    1    1    2    0    0 -0.57519096335E+03  0.37215921575E+03  0.23597816059E+04  0.25439588362E+04  0.65864270000E+03 0.  1.
    8880022    1    1    2    0    0  0.57519096335E+03 -0.37215921575E+03  0.12696111353E+03  0.71334276723E+03  0.15294330000E+03 0.  0.
<mgrwt>
<rscale>  0 0.88102528E+03</rscale>
<asrwt>0</asrwt>
<pdfrwt beam="1">  1        2 0.59273758E-01 0.95034590E+03</pdfrwt>
<pdfrwt beam="2">  1       -2 0.44184958E+00 0.95034590E+03</pdfrwt>
<totfact> 0.33582450E-01</totfact>
</mgrwt>
</event>
<event>
 4    5  0.8511149E-008  0.9726208E+03  0.7818608E-02  0.9418289E-01
          2   -1    0    0  501    0  0.00000000000E+00  0.00000000000E+00  0.13982248864E+04  0.13982248864E+04  0.25500000000E-02 0. -1.
         -2   -1    0    0    0  501 -0.00000000000E+00 -0.00000000000E+00 -0.79229004990E+03  0.79229004990E+03  0.25500000000E-02 0.  1.
    8880023    1    1    2    0    0 -0.11870882019E+03 -0.70575439822E+03 -0.30750001622E+03  0.10200723116E+04  0.65864270000E+03 0.  0.
    8880022    1    1    2    0    0  0.11870882019E+03  0.70575439822E+03  0.91343485268E+03  0.11704426247E+04  0.15294330000E+03 0.  0.
<mgrwt>
<rscale>  0 0.90585769E+03</rscale>
<asrwt>0</asrwt>
<pdfrwt beam="1">  1        2 0.21511152E+00 0.97262082E+03</pdfrwt>
<pdfrwt beam="2">  1       -2 0.12189078E+00 0.97262082E+03</pdfrwt>
<totfact> 0.73790071E+00</totfact>
</mgrwt>
</event>
<event>
 4    5  0.8511149E-008  0.1616618E+04  0.7818608E-02  0.8831395E-01
         -2   -1    0    0    0  501 -0.00000000000E+00  0.00000000000E+00  0.79725239677E+03  0.79725239677E+03  0.25500000000E-02 0.  1.
          2   -1    0    0  501    0  0.00000000000E+00 -0.00000000000E+00 -0.33570596181E+04  0.33570596181E+04  0.25500000000E-02 0. -1.
    8880023    1    1    2    0    0 -0.86288019119E+03  0.11979494545E+04 -0.66665505975E+03  0.17486807298E+04  0.65864270000E+03 0.  1.
    8880022    1    1    2    0    0  0.86288019119E+03 -0.11979494545E+04 -0.18931521616E+04  0.24056312851E+04  0.15294330000E+03 0.  0.
<mgrwt>
<rscale>  0 0.15824623E+04</rscale>
<asrwt>0</asrwt>
<pdfrwt beam="1">  1        2 0.51647070E+00 0.16166185E+04</pdfrwt>
<pdfrwt beam="2">  1       -2 0.12265422E+00 0.16166185E+04</pdfrwt>
<totfact> 0.48365483E-01</totfact>
</mgrwt>
</event>
<event>
 4    5  0.8511149E-008  0.1154523E+04  0.7818608E-02  0.9202649E-01
          2   -1    0    0  501    0  0.00000000000E+00  0.00000000000E+00  0.25335774522E+04  0.25335774522E+04  0.25500000000E-02 0. -1.
         -2   -1    0    0    0  501 -0.00000000000E+00 -0.00000000000E+00 -0.12579385077E+04  0.12579385077E+04  0.25500000000E-02 0.  1.
    8880023    1    1    2    0    0 -0.56467355271E+03  0.76174608750E+03 -0.86675728521E+03  0.14436729965E+04  0.65864270000E+03 0.  0.
    8880022    1    1    2    0    0  0.56467355271E+03 -0.76174608750E+03  0.21423962297E+04  0.23478429634E+04  0.15294330000E+03 0.  0.
<mgrwt>
<rscale>  0 0.11026129E+04</rscale>
<asrwt>0</asrwt>
<pdfrwt beam="1">  1        2 0.38978114E+00 0.11545231E+04</pdfrwt>
<pdfrwt beam="2">  1       -2 0.19352900E+00 0.11545231E+04</pdfrwt>
<totfact> 0.48007909E-01</totfact>
</mgrwt>
</event>
<event>
 4    5  0.8511149E-008  0.6976168E+03  0.7818608E-02  0.1000724E+00
          2   -1    0    0  501    0  0.00000000000E+00  0.00000000000E+00  0.12689856498E+04  0.12689856498E+04  0.25500000000E-02 0. -1.
         -2   -1    0    0    0  501 -0.00000000000E+00 -0.00000000000E+00 -0.61556048431E+03  0.61556048432E+03  0.25500000000E-02 0.  1.
    8880023    1    1    2    0    0  0.48248448808E+02 -0.22479105140E+03 -0.39409834765E+03  0.80123819397E+03  0.65864270000E+03 0.  1.
    8880022    1    1    2    0    0 -0.48248448808E+02  0.22479105140E+03  0.10475235131E+04  0.10833079401E+04  0.15294330000E+03 0.  0.
<mgrwt>
<rscale>  0 0.55334128E+03</rscale>
<asrwt>0</asrwt>
<pdfrwt beam="1">  1        2 0.19522856E+00 0.69761675E+03</pdfrwt>
<pdfrwt beam="2">  1       -2 0.94701614E-01 0.69761675E+03</pdfrwt>
<totfact> 0.16619360E+01</totfact>
</mgrwt>
</event>
<event>
 4    5  0.8511149E-008  0.1098364E+04  0.7818608E-02  0.9262880E-01
         -2   -1    0    0    0  501 -0.00000000000E+00  0.00000000000E+00  0.60924452343E+03  0.60924452344E+03  0.25500000000E-02 0.  1.
          2   -1    0    0  501    0  0.00000000000E+00 -0.00000000000E+00 -0.18601863253E+04  0.18601863253E+04  0.25500000000E-02 0. -1.
    8880023    1    1    2    0    0 -0.65813726760E+03 -0.58262232938E+03 -0.24596151636E+03  0.11255668419E+04  0.65864270000E+03 0.  1.
    8880022    1    1    2    0    0  0.65813726760E+03  0.58262232938E+03 -0.10049802855E+04  0.13438640069E+04  0.15294330000E+03 0.  0.
<mgrwt>
<rscale>  0 0.10427324E+04</rscale>
<asrwt>0</asrwt>
<pdfrwt beam="1">  1        2 0.28618251E+00 0.10983641E+04</pdfrwt>
<pdfrwt beam="2">  1       -2 0.93729928E-01 0.10983641E+04</pdfrwt>
<totfact> 0.75985854E+00</totfact>
</mgrwt>
</event>
<event>
 4    5  0.8511149E-008  0.9303981E+03  0.7818608E-02  0.9478896E-01
          2   -1    0    0  501    0  0.00000000000E+00  0.00000000000E+00  0.14101573696E+04  0.14101573697E+04  0.25500000000E-02 0. -1.
         -2   -1    0    0    0  501 -0.00000000000E+00 -0.00000000000E+00 -0.73998650171E+03  0.73998650172E+03  0.25500000000E-02 0.  1.
    8880023    1    1    2    0    0 -0.31618432731E+03  0.57607114551E+03 -0.29185962249E+03  0.97510139935E+03  0.65864270000E+03 0.  0.
    8880022    1    1    2    0    0  0.31618432731E+03 -0.57607114551E+03  0.96203049042E+03  0.11750424720E+04  0.15294330000E+03 0.  0.
<mgrwt>
<rscale>  0 0.85857759E+03</rscale>
<asrwt>0</asrwt>
<pdfrwt beam="1">  1        2 0.21694729E+00 0.93039814E+03</pdfrwt>
<pdfrwt beam="2">  1       -2 0.11384408E+00 0.93039814E+03</pdfrwt>
<totfact> 0.86392748E+00</totfact>
</mgrwt>
</event>
<event>
 4    5  0.8511149E-008  0.1082097E+04  0.7818608E-02  0.9281256E-01
          2   -1    0    0  501    0  0.00000000000E+00  0.00000000000E+00  0.13307855028E+04  0.13307855028E+04  0.25500000000E-02 0. -1.
         -2   -1    0    0    0  501 -0.00000000000E+00 -0.00000000000E+00 -0.93456965692E+03  0.93456965693E+03  0.25500000000E-02 0.  1.
    8880023    1    1    2    0    0  0.33895468385E+03  0.78881736474E+03 -0.32913999650E+03  0.11310466198E+04  0.65864270000E+03 0.  0.
    8880022    1    1    2    0    0 -0.33895468385E+03 -0.78881736474E+03  0.72535584234E+03  0.11343085399E+04  0.15294330000E+03 0.  0.
<mgrwt>
<rscale>  0 0.10252695E+04</rscale>
<asrwt>0</asrwt>
<pdfrwt beam="1">  1        2 0.20473623E+00 0.10820967E+04</pdfrwt>
<pdfrwt beam="2">  1       -2 0.14377995E+00 0.10820967E+04</pdfrwt>
<totfact> 0.52276963E+00</totfact>
</mgrwt>
</event>
<event>
 4    5  0.8511149E-008  0.1037556E+04  0.7818608E-02  0.9333993E-01
          2   -1    0    0  501    0  0.00000000000E+00  0.00000000000E+00  0.28567652763E+04  0.28567652763E+04  0.25500000000E-02 0. -1.
         -2   -1    0    0    0  501 -0.00000000000E+00 -0.00000000000E+00 -0.58917731272E+03  0.58917731273E+03  0.25500000000E-02 0.  1.
    8880023    1    1    2    0    0  0.33278780955E+03  0.72935890878E+03  0.17071991165E+01  0.10375573549E+04  0.65864270000E+03 0.  0.
    8880022    1    1    2    0    0 -0.33278780955E+03 -0.72935890878E+03  0.22658807645E+04  0.24083852341E+04  0.15294330000E+03 0.  0.
<mgrwt>
<rscale>  0 0.97712783E+03</rscale>
<asrwt>0</asrwt>
<pdfrwt beam="1">  1        2 0.43950234E+00 0.10375560E+04</pdfrwt>
<pdfrwt beam="2">  1       -2 0.90642665E-01 0.10375560E+04</pdfrwt>
<totfact> 0.22450672E+00</totfact>
</mgrwt>
</event>
<event>
 4    5  0.8511149E-008  0.7044444E+03  0.7818608E-02  0.9979241E-01
         -2   -1    0    0    0  501 -0.00000000000E+00  0.00000000000E+00  0.52264444821E+03  0.52264444822E+03  0.25500000000E-02 0.  1.
          2   -1    0    0  501    0  0.00000000000E+00 -0.00000000000E+00 -0.15111499125E+04  0.15111499125E+04  0.25500000000E-02 0. -1.
    8880023    1    1    2    0    0  0.18273891360E+02 -0.24919427388E+03  0.26036731713E+03  0.75102134945E+03  0.65864270000E+03 0.  1.
    8880022    1    1    2    0    0 -0.18273891360E+02  0.24919427388E+03 -0.12488727814E+04  0.12827730112E+04  0.15294330000E+03 0.  0.
<mgrwt>
<rscale>  0 0.56569943E+03</rscale>
<asrwt>0</asrwt>
<pdfrwt beam="1">  1        2 0.23248460E+00 0.70444441E+03</pdfrwt>
<pdfrwt beam="2">  1       -2 0.80406839E-01 0.70444441E+03</pdfrwt>
<totfact> 0.17616784E+01</totfact>
</mgrwt>
</event>
<event>
 4    5  0.8511149E-008  0.8308243E+03  0.7818608E-02  0.9647731E-01
         -2   -1    0    0    0  501 -0.00000000000E+00  0.00000000000E+00  0.48383375348E+03  0.48383375349E+03  0.25500000000E-02 0.  1.
          2   -1    0    0  501    0  0.00000000000E+00 -0.00000000000E+00 -0.37298265567E+04  0.37298265567E+04  0.25500000000E-02 0. -1.
    8880023    1    1    2    0    0 -0.50114234106E+03 -0.72905391711E+02  0.90272967763E+02  0.83571421976E+03  0.65864270000E+03 0.  0.
    8880022    1    1    2    0    0  0.50114234106E+03  0.72905391711E+02 -0.33362657710E+04  0.33779460904E+04  0.15294330000E+03 0.  0.
<mgrwt>
<rscale>  0 0.74216020E+03</rscale>
<asrwt>0</asrwt>
<pdfrwt beam="1">  1        2 0.57381945E+00 0.83082432E+03</pdfrwt>
<pdfrwt beam="2">  1       -2 0.74435965E-01 0.83082432E+03</pdfrwt>
<totfact> 0.97164621E-01</totfact>
</mgrwt>
</event>
<event>
 4    5  0.8511149E-008  0.8377473E+03  0.7818608E-02  0.9634443E-01
          2   -1    0    0  501    0  0.00000000000E+00  0.00000000000E+00  0.79059507000E+03  0.79059507001E+03  0.25500000000E-02 0. -1.
         -2   -1    0    0    0  501 -0.00000000000E+00 -0.00000000000E+00 -0.20607323456E+04  0.20607323456E+04  0.25500000000E-02 0.  1.
    8880023    1    1    2    0    0 -0.18464150279E+02 -0.51736783505E+03 -0.18671339661E+04  0.20464627667E+04  0.65864270000E+03 0.  1.
    8880022    1    1    2    0    0  0.18464150279E+02  0.51736783505E+03  0.59699669054E+03  0.80486464894E+03  0.15294330000E+03 0.  0.
<mgrwt>
<rscale>  0 0.75057893E+03</rscale>
<asrwt>0</asrwt>
<pdfrwt beam="1">  1        2 0.12163001E+00 0.83774734E+03</pdfrwt>
<pdfrwt beam="2">  1       -2 0.31703574E+00 0.83774734E+03</pdfrwt>
<totfact> 0.90211869E-01</totfact>
</mgrwt>
</event>
<event>
 4    5  0.8511149E-008  0.7824012E+03  0.7818608E-02  0.9750226E-01
          2   -1    0    0  501    0  0.00000000000E+00  0.00000000000E+00  0.88752775873E+03  0.88752775873E+03  0.25500000000E-02 0. -1.
         -2   -1    0    0    0  501 -0.00000000000E+00 -0.00000000000E+00 -0.13785773129E+04  0.13785773129E+04  0.25500000000E-02 0.  1.
    8880023    1    1    2    0    0  0.33956518628E+03  0.25107166409E+03 -0.11966219045E+04  0.14297047544E+04  0.65864270000E+03 0.  1.
    8880022    1    1    2    0    0 -0.33956518628E+03 -0.25107166409E+03  0.70557235027E+03  0.83640031726E+03  0.15294330000E+03 0.  0.
<mgrwt>
<rscale>  0 0.68103480E+03</rscale>
<asrwt>0</asrwt>
<pdfrwt beam="1">  1        2 0.13654273E+00 0.78240124E+03</pdfrwt>
<pdfrwt beam="2">  1       -2 0.21208882E+00 0.78240124E+03</pdfrwt>
<totfact> 0.33863511E+00</totfact>
</mgrwt>
</event>
<event>
 4    5  0.8511149E-008  0.1613612E+04  0.7818608E-02  0.8833316E-01
          2   -1    0    0  501    0  0.00000000000E+00  0.00000000000E+00  0.24213914113E+04  0.24213914113E+04  0.25500000000E-02 0. -1.
         -2   -1    0    0    0  501 -0.00000000000E+00 -0.00000000000E+00 -0.14773048599E+04  0.14773048599E+04  0.25500000000E-02 0.  1.
    8880023    1    1    2    0    0 -0.14307889084E+04  0.35039379670E+03  0.16059146496E+04  0.22765554642E+04  0.65864270000E+03 0.  0.
    8880022    1    1    2    0    0  0.14307889084E+04 -0.35039379670E+03 -0.66182809814E+03  0.16221408070E+04  0.15294330000E+03 0.  0.
<mgrwt>
<rscale>  0 0.15793819E+04</rscale>
<asrwt>0</asrwt>
<pdfrwt beam="1">  1        2 0.37252175E+00 0.16136118E+04</pdfrwt>
<pdfrwt beam="2">  1       -2 0.22727767E+00 0.16136118E+04</pdfrwt>
<totfact> 0.31835286E-01</totfact>
</mgrwt>
</event>
<event>
 4    5  0.8511149E-008  0.7271165E+03  0.7818608E-02  0.9899203E-01
          2   -1    0    0  501    0  0.00000000000E+00  0.00000000000E+00  0.28410784782E+03  0.28410784783E+03  0.25500000000E-02 0. -1.
         -2   -1    0    0    0  501 -0.00000000000E+00 -0.00000000000E+00 -0.19764408198E+04  0.19764408198E+04  0.25500000000E-02 0.  1.
    8880023    1    1    2    0    0 -0.30752942663E+03 -0.17715338500E+02 -0.17651156332E+04  0.19090132494E+04  0.65864270000E+03 0.  0.
    8880022    1    1    2    0    0  0.30752942663E+03  0.17715338500E+02  0.72782661275E+02  0.35153541821E+03  0.15294330000E+03 0.  0.
<mgrwt>
<rscale>  0 0.60299934E+03</rscale>
<asrwt>0</asrwt>
<pdfrwt beam="1">  1        2 0.43708901E-01 0.72711649E+03</pdfrwt>
<pdfrwt beam="2">  1       -2 0.30406781E+00 0.72711649E+03</pdfrwt>
<totfact> 0.36540681E+00</totfact>
</mgrwt>
</event>
<event>
 4    5  0.8511149E-008  0.9111061E+03  0.7818608E-02  0.9508433E-01
         -2   -1    0    0    0  501 -0.00000000000E+00  0.00000000000E+00  0.77143016837E+03  0.77143016838E+03  0.25500000000E-02 0.  1.
          2   -1    0    0  501    0  0.00000000000E+00 -0.00000000000E+00 -0.21929033008E+04  0.21929033008E+04  0.25500000000E-02 0. -1.
    8880023    1    1    2    0    0 -0.14855985356E+03 -0.61174668464E+03  0.42657608555E+03  0.10060225640E+04  0.65864270000E+03 0.  1.
    8880022    1    1    2    0    0  0.14855985356E+03  0.61174668464E+03 -0.18480492180E+04  0.19583109052E+04  0.15294330000E+03 0.  0.
<mgrwt>
<rscale>  0 0.83664942E+03</rscale>
<asrwt>0</asrwt>
<pdfrwt beam="1">  1        2 0.33736974E+00 0.91110605E+03</pdfrwt>
<pdfrwt beam="2">  1       -2 0.11868157E+00 0.91110605E+03</pdfrwt>
<totfact> 0.28855768E+00</totfact>
</mgrwt>
</event>
<event>
 4    5  0.8511149E-008  0.1134465E+04  0.7818608E-02  0.9223620E-01
          2   -1    0    0  501    0  0.00000000000E+00  0.00000000000E+00  0.24597085233E+04  0.24597085233E+04  0.25500000000E-02 0. -1.
         -2   -1    0    0    0  501 -0.00000000000E+00 -0.00000000000E+00 -0.91046499684E+03  0.91046499684E+03  0.25500000000E-02 0.  1.
    8880023    1    1    2    0    0  0.87507940889E+03  0.29569624784E+03 -0.40389876645E+03  0.12042195243E+04  0.65864270000E+03 0.  1.
    8880022    1    1    2    0    0 -0.87507940889E+03 -0.29569624784E+03  0.19531422929E+04  0.21659539959E+04  0.15294330000E+03 0.  0.
<mgrwt>
<rscale>  0 0.10812919E+04</rscale>
<asrwt>0</asrwt>
<pdfrwt beam="1">  1        2 0.37841669E+00 0.11344648E+04</pdfrwt>
<pdfrwt beam="2">  1       -2 0.14007154E+00 0.11344648E+04</pdfrwt>
<totfact> 0.12996116E+00</totfact>
</mgrwt>
</event>
<event>
 4    5  0.8511149E-008  0.6755308E+03  0.7818608E-02  0.1011974E+00
         -2   -1    0    0    0  501 -0.00000000000E+00  0.00000000000E+00  0.18986433482E+03  0.18986433483E+03  0.25500000000E-02 0.  1.
          2   -1    0    0  501    0  0.00000000000E+00 -0.00000000000E+00 -0.26589489108E+04  0.26589489108E+04  0.25500000000E-02 0. -1.
    8880023    1    1    2    0    0 -0.58742943465E+02  0.13813363869E+03 -0.43500080305E+03  0.80347217778E+03  0.65864270000E+03 0.  1.
    8880022    1    1    2    0    0  0.58742943465E+02 -0.13813363869E+03 -0.20340837729E+04  0.20453410678E+04  0.15294330000E+03 0.  0.
<mgrwt>
<rscale>  0 0.50697668E+03</rscale>
<asrwt>0</asrwt>
<pdfrwt beam="1">  1        2 0.40906904E+00 0.67553079E+03</pdfrwt>
<pdfrwt beam="2">  1       -2 0.29209900E-01 0.67553079E+03</pdfrwt>
<totfact> 0.32059493E+01</totfact>
</mgrwt>
</event>
<event>
 4    5  0.8511149E-008  0.1175629E+04  0.7818608E-02  0.9181185E-01
         -2   -1    0    0    0  501 -0.00000000000E+00  0.00000000000E+00  0.10938937201E+04  0.10938937202E+04  0.25500000000E-02 0.  1.
          2   -1    0    0  501    0  0.00000000000E+00 -0.00000000000E+00 -0.14858545025E+04  0.14858545025E+04  0.25500000000E-02 0. -1.
    8880023    1    1    2    0    0 -0.46892996838E+03  0.85346188020E+03  0.47407108540E+03  0.12676143327E+04  0.65864270000E+03 0.  0.
    8880022    1    1    2    0    0  0.46892996838E+03 -0.85346188020E+03 -0.86603186777E+03  0.13121338900E+04  0.15294330000E+03 0. -1.
<mgrwt>
<rscale>  0 0.11249760E+04</rscale>
<asrwt>0</asrwt>
<pdfrwt beam="1">  1        2 0.22859300E+00 0.11756286E+04</pdfrwt>
<pdfrwt beam="2">  1       -2 0.16829134E+00 0.11756286E+04</pdfrwt>
<totfact> 0.27586647E+00</totfact>
</mgrwt>
</event>
<event>
 4    5  0.8511149E-008  0.1276612E+04  0.7818608E-02  0.9086025E-01
         -2   -1    0    0    0  501 -0.00000000000E+00  0.00000000000E+00  0.11852685521E+04  0.11852685521E+04  0.25500000000E-02 0.  1.
          2   -1    0    0  501    0  0.00000000000E+00 -0.00000000000E+00 -0.29437981835E+04  0.29437981835E+04  0.25500000000E-02 0. -1.
    8880023    1    1    2    0    0 -0.10558300303E+04  0.28486810591E+03  0.68416222971E+03  0.14483836003E+04  0.65864270000E+03 0.  1.
    8880022    1    1    2    0    0  0.10558300303E+04 -0.28486810591E+03 -0.24426918611E+04  0.26806831353E+04  0.15294330000E+03 0.  0.
<mgrwt>
<rscale>  0 0.12311436E+04</rscale>
<asrwt>0</asrwt>
<pdfrwt beam="1">  1        2 0.45289203E+00 0.12766116E+04</pdfrwt>
<pdfrwt beam="2">  1       -2 0.18234901E+00 0.12766116E+04</pdfrwt>
<totfact> 0.32026608E-01</totfact>
</mgrwt>
</event>
<event>
 4    5  0.8511149E-008  0.9125653E+03  0.7818608E-02  0.9506154E-01
          2   -1    0    0  501    0  0.00000000000E+00  0.00000000000E+00  0.70637348610E+03  0.70637348611E+03  0.25500000000E-02 0. -1.
         -2   -1    0    0    0  501 -0.00000000000E+00 -0.00000000000E+00 -0.93492106720E+03  0.93492106720E+03  0.25500000000E-02 0.  1.
    8880023    1    1    2    0    0  0.53598939010E+03 -0.33418645322E+03 -0.35505989217E+03  0.97920526199E+03  0.65864270000E+03 0.  0.
    8880022    1    1    2    0    0 -0.53598939010E+03  0.33418645322E+03  0.12651231107E+03  0.66208929132E+03  0.15294330000E+03 0.  0.
<mgrwt>
<rscale>  0 0.83831629E+03</rscale>
<asrwt>0</asrwt>
<pdfrwt beam="1">  1        2 0.10867284E+00 0.91256530E+03</pdfrwt>
<pdfrwt beam="2">  1       -2 0.14383401E+00 0.91256530E+03</pdfrwt>
<totfact> 0.13552619E+01</totfact>
</mgrwt>
</event>
<event>
 4    5  0.8511149E-008  0.1080625E+04  0.7818608E-02  0.9282941E-01
          2   -1    0    0  501    0  0.00000000000E+00  0.00000000000E+00  0.25636308191E+04  0.25636308191E+04  0.25500000000E-02 0. -1.
         -2   -1    0    0    0  501 -0.00000000000E+00 -0.00000000000E+00 -0.41350626574E+03  0.41350626575E+03  0.25500000000E-02 0.  1.
    8880023    1    1    2    0    0  0.80611223796E+03 -0.29003892216E+03  0.16530751348E+04  0.19749448408E+04  0.65864270000E+03 0.  0.
    8880022    1    1    2    0    0 -0.80611223796E+03  0.29003892216E+03  0.49704941854E+03  0.10021922441E+04  0.15294330000E+03 0.  0.
<mgrwt>
<rscale>  0 0.10236863E+04</rscale>
<asrwt>0</asrwt>
<pdfrwt beam="1">  1        2 0.39440475E+00 0.10806247E+04</pdfrwt>
<pdfrwt beam="2">  1       -2 0.63616348E-01 0.10806247E+04</pdfrwt>
<totfact> 0.73285695E+00</totfact>
</mgrwt>
</event>
<event>
 4    5  0.8511149E-008  0.1322741E+04  0.7818608E-02  0.9046166E-01
         -2   -1    0    0    0  501 -0.00000000000E+00  0.00000000000E+00  0.72559105901E+03  0.72559105902E+03  0.25500000000E-02 0.  1.
          2   -1    0    0  501    0  0.00000000000E+00 -0.00000000000E+00 -0.21996971580E+04  0.21996971580E+04  0.25500000000E-02 0. -1.
    8880023    1    1    2    0    0 -0.11041952034E+04 -0.31078359965E+03 -0.50503250453E+03  0.14158748285E+04  0.65864270000E+03 0.  0.
    8880022    1    1    2    0    0  0.11041952034E+04  0.31078359965E+03 -0.96907359445E+03  0.15094133885E+04  0.15294330000E+03 0.  0.
<mgrwt>
<rscale>  0 0.12792717E+04</rscale>
<asrwt>0</asrwt>
<pdfrwt beam="1">  1        2 0.33841494E+00 0.13227410E+04</pdfrwt>
<pdfrwt beam="2">  1       -2 0.11162939E+00 0.13227410E+04</pdfrwt>
<totfact> 0.31651597E+00</totfact>
</mgrwt>
</event>
<event>
 4    5  0.8511149E-008  0.7480073E+03  0.7818608E-02  0.9837208E-01
          2   -1    0    0  501    0  0.00000000000E+00  0.00000000000E+00  0.53163795987E+03  0.53163795988E+03  0.25500000000E-02 0. -1.
         -2   -1    0    0    0  501 -0.00000000000E+00 -0.00000000000E+00 -0.79218047119E+03  0.79218047120E+03  0.25500000000E-02 0.  1.
    8880023    1    1    2    0    0 -0.34223882946E+03  0.92613706843E+02 -0.47111387559E+03  0.88400407529E+03  0.65864270000E+03 0.  0.
    8880022    1    1    2    0    0  0.34223882946E+03 -0.92613706843E+02  0.21057136427E+03  0.43981435578E+03  0.15294330000E+03 0.  0.
<mgrwt>
<rscale>  0 0.63403431E+03</rscale>
<asrwt>0</asrwt>
<pdfrwt beam="1">  1        2 0.81790455E-01 0.74800730E+03</pdfrwt>
<pdfrwt beam="2">  1       -2 0.12187392E+00 0.74800730E+03</pdfrwt>
<totfact> 0.29647246E+01</totfact>
</mgrwt>
</event>
<event>
 4    5  0.8511149E-008  0.7368662E+03  0.7818608E-02  0.9869171E-01
         -2   -1    0    0    0  501 -0.00000000000E+00  0.00000000000E+00  0.47934641405E+03  0.47934641405E+03  0.25500000000E-02 0.  1.
          2   -1    0    0  501    0  0.00000000000E+00 -0.00000000000E+00 -0.91719273037E+03  0.91719273037E+03  0.25500000000E-02 0. -1.
    8880023    1    1    2    0    0 -0.16366473154E+03  0.28701129980E+03  0.10355406459E+03  0.74410703606E+03  0.65864270000E+03 0.  0.
    8880022    1    1    2    0    0  0.16366473154E+03 -0.28701129980E+03 -0.54140038091E+03  0.65243210836E+03  0.15294330000E+03 0. -1.
<mgrwt>
<rscale>  0 0.61778918E+03</rscale>
<asrwt>0</asrwt>
<pdfrwt beam="1">  1        2 0.14110657E+00 0.73686623E+03</pdfrwt>
<pdfrwt beam="2">  1       -2 0.73745602E-01 0.73686623E+03</pdfrwt>
<totfact> 0.48073642E+01</totfact>
</mgrwt>
</event>
<event>
 4    5  0.8511149E-008  0.2058832E+04  0.7818608E-02  0.8591442E-01
          2   -1    0    0  501    0  0.00000000000E+00  0.00000000000E+00  0.35007548450E+04  0.35007548450E+04  0.25500000000E-02 0. -1.
         -2   -1    0    0    0  501 -0.00000000000E+00 -0.00000000000E+00 -0.15486096832E+04  0.15486096832E+04  0.25500000000E-02 0.  1.
    8880023    1    1    2    0    0  0.30038294216E+03  0.19273688300E+04  0.22727779390E+04  0.30666447927E+04  0.65864270000E+03 0. -1.
    8880022    1    1    2    0    0 -0.30038294216E+03 -0.19273688300E+04 -0.32063277712E+03  0.19827197355E+04  0.15294330000E+03 0.  0.
<mgrwt>
<rscale>  0 0.20327900E+04</rscale>
<asrwt>0</asrwt>
<pdfrwt beam="1">  1        2 0.53857766E+00 0.20588324E+04</pdfrwt>
<pdfrwt beam="2">  1       -2 0.23824765E+00 0.20588324E+04</pdfrwt>
<totfact> 0.54516227E-02</totfact>
</mgrwt>
</event>
